 Entering Gaussian System
 *********************************************
 Gaussian 98:
 frequency output generated by the xtb code
 *********************************************
                         Standard orientation:
 --------------------------------------------------------------------
  Center     Atomic     Atomic              Coordinates (Angstroms)
  Number     Number      Type              X           Y           Z
 --------------------------------------------------------------------
    1          6             0       -9.673659   -0.871342   -0.286228
    2          6             0       -9.381882    0.264641    0.454110
    3          6             0       -8.064664    0.672103    0.566424
    4          6             0       -7.068972   -0.073022   -0.070490
    5          6             0       -5.646828    0.296697    0.010373
    6          6             0       -5.247270    1.617949    0.188544
    7          6             0       -3.895130    1.952836    0.269728
    8          6             0       -3.519759    3.363765    0.452364
    9          6             0       -2.269490    3.858905    0.071667
   10          6             0       -1.983748    5.195747    0.282353
   11          6             0       -2.948260    6.007373    0.860778
   12          6             0       -4.165659    5.430130    1.188448
   13          7             0       -4.446695    4.156076    0.993256
   14          6             0       -2.942072    0.946440    0.188141
   15          6             0       -3.326545   -0.380901    0.000033
   16          6             0       -2.318444   -1.426174   -0.090528
   17          7             0       -1.048958   -1.105593    0.035526
   18          6             0       -0.064147   -2.004129   -0.069086
   19          6             0        1.274050   -1.470577   -0.080966
   20          6             0        2.336201   -2.067406   -0.783407
   21          6             0        3.591896   -1.504974   -0.781643
   22          6             0        3.833255   -0.321866   -0.084156
   23          7             0        5.135005    0.244991   -0.072902
   24          6             0        6.163092   -0.379365    0.615615
   25          6             0        5.961260   -1.544757    1.353932
   26          6             0        7.012408   -2.143290    2.023574
   27          6             0        8.282597   -1.590273    1.977557
   28          6             0        8.498993   -0.421112    1.267651
   29          6             0        7.451211    0.186039    0.594434
   30          8             0        7.722101    1.348295   -0.072345
   31          6             0        6.694928    1.959236   -0.736121
   32          6             0        6.982438    3.136820   -1.407169
   33          6             0        5.988508    3.793243   -2.113522
   34          6             0        4.709106    3.261830   -2.157376
   35          6             0        4.413097    2.087033   -1.490944
   36          6             0        5.394677    1.421966   -0.757266
   37          6             0        2.783653    0.307263    0.587361
   38          6             0        1.529438   -0.251396    0.579048
   39          6             0       -0.397049   -3.405482   -0.169878
   40          6             0        0.486658   -4.473681   -0.050241
   41          6             0        0.041550   -5.781371   -0.181884
   42          6             0       -1.298040   -6.039810   -0.423369
   43          6             0       -2.211345   -5.003070   -0.480276
   44          6             0       -1.791545   -3.676193   -0.327041
   45          7             0       -2.699638   -2.686802   -0.303028
   46          6             0       -4.679595   -0.696601   -0.097710
   47          7             0       -7.356648   -1.172306   -0.767584
   48          6             0       -8.615881   -1.551935   -0.870334
   49          1             0      -10.687326   -1.221865   -0.402215
   50          1             0      -10.170191    0.822410    0.939630
   51          1             0       -7.805670    1.539722    1.152314
   52          1             0       -5.969335    2.416878    0.244125
   53          1             0       -1.544921    3.211733   -0.396444
   54          1             0       -1.023701    5.601029   -0.004345
   55          1             0       -2.765571    7.054413    1.045158
   56          1             0       -4.961717    6.015312    1.632982
   57          1             0       -1.888662    1.159612    0.280036
   58          1             0        2.155854   -2.949215   -1.378146
   59          1             0        4.395891   -1.968758   -1.335025
   60          1             0        4.973001   -1.973302    1.400557
   61          1             0        6.834153   -3.046212    2.586395
   62          1             0        9.102046   -2.059924    2.497818
   63          1             0        9.472200    0.041147    1.223846
   64          1             0        7.990493    3.517263   -1.364666
   65          1             0        6.217607    4.710304   -2.632426
   66          1             0        3.933372    3.761176   -2.716594
   67          1             0        3.419044    1.672139   -1.537693
   68          1             0        2.969103    1.228828    1.119970
   69          1             0        0.715328    0.225415    1.102793
   70          1             0        1.523256   -4.288367    0.185338
   71          1             0        0.744384   -6.596078   -0.089063
   72          1             0       -1.639741   -7.057638   -0.543913
   73          1             0       -3.262825   -5.188831   -0.636755
   74          1             0       -4.977061   -1.721925   -0.249456
   75          1             0       -8.780588   -2.450305   -1.453040
 --------------------------------------------------------------------
     1 basis functions        1 primitive gaussians
     1 alpha electrons        1 beta electrons
 
 Harmonic frequencies (cm**-1), IR intensities (km*mol⁻¹),
 Raman scattering activities (A**4/amu), Raman depolarization ratios,
 reduced masses (AMU), force constants (mDyne/A) and normal coordinates:
                      1                      2                      3
                        a                      a                      a 
 Frequencies --     4.1134                11.7052                15.3914
 Red. masses --    11.4544                11.4523                11.0167
 Frc consts  --     0.0000                 0.0000                 0.0000
 IR Inten    --     0.0341                 0.2321                 4.2172
 Raman Activ --     0.0000                 0.0000                 0.0000
 Depolar     --     0.0000                 0.0000                 0.0000
 Atom AN      X      Y      Z        X      Y      Z        X      Y      Z
   1   6    -0.01  -0.06   0.33     0.01   0.15  -0.02    -0.00  -0.02   0.08
   2   6     0.01   0.01   0.21     0.04   0.15  -0.03     0.01  -0.05   0.12
   3   6     0.02   0.03   0.11     0.05   0.10  -0.02     0.01  -0.04   0.10
   4   6    -0.00  -0.02   0.14     0.03   0.06  -0.01    -0.00  -0.01   0.04
   5   6    -0.00  -0.00   0.05     0.04   0.02  -0.00    -0.00  -0.00   0.02
   6   6     0.00   0.00  -0.01     0.08   0.01  -0.00    -0.01  -0.00   0.05
   7   6     0.01   0.01  -0.08     0.09  -0.03   0.00    -0.01   0.00   0.03
   8   6     0.01   0.02  -0.14     0.14  -0.04  -0.01    -0.01  -0.00   0.06
   9   6     0.00   0.00  -0.18     0.15  -0.09  -0.01    -0.02   0.01   0.06
  10   6     0.00   0.01  -0.23     0.20  -0.10  -0.02    -0.03   0.01   0.08
  11   6     0.02   0.03  -0.24     0.23  -0.06  -0.02    -0.02  -0.01   0.11
  12   6     0.02   0.04  -0.20     0.21  -0.02  -0.02    -0.02  -0.02   0.11
  13   7     0.02   0.04  -0.16     0.18  -0.01  -0.01    -0.01  -0.02   0.10
  14   6     0.00   0.01  -0.09     0.06  -0.06   0.01    -0.00   0.01  -0.00
  15   6    -0.00   0.00  -0.04     0.02  -0.05   0.01     0.00   0.01  -0.03
  16   6    -0.00   0.00  -0.06    -0.00  -0.07   0.01     0.00   0.01  -0.06
  17   7    -0.00  -0.00  -0.05     0.00  -0.10   0.04     0.00   0.01  -0.04
  18   6    -0.00   0.00  -0.06    -0.01  -0.10   0.04     0.00   0.01  -0.04
  19   6    -0.00   0.00  -0.03    -0.01  -0.10   0.06     0.00   0.01  -0.03
  20   6     0.01   0.02  -0.04     0.01  -0.08   0.07     0.01  -0.01  -0.00
  21   6     0.01   0.02  -0.01    -0.01  -0.05   0.06     0.02  -0.01   0.01
  22   6    -0.00   0.00   0.02    -0.03  -0.04   0.05     0.00   0.00  -0.01
  23   7    -0.00   0.01   0.06    -0.06   0.01   0.03     0.01   0.00  -0.00
  24   6    -0.01  -0.01   0.05    -0.02   0.07   0.03    -0.03   0.05   0.09
  25   6    -0.02  -0.02   0.03     0.04   0.07   0.04    -0.06   0.11   0.18
  26   6    -0.03  -0.04   0.02     0.08   0.13   0.04    -0.10   0.16   0.27
  27   6    -0.03  -0.04   0.05     0.05   0.19   0.02    -0.09   0.16   0.29
  28   6    -0.02  -0.03   0.07    -0.01   0.19   0.00    -0.06   0.10   0.20
  29   6    -0.01  -0.02   0.07    -0.05   0.13   0.01    -0.02   0.05   0.10
  30   8     0.00  -0.01   0.11    -0.12   0.15  -0.01     0.01  -0.01   0.01
  31   6     0.01   0.01   0.10    -0.14   0.08  -0.01     0.04  -0.06  -0.08
  32   6     0.02   0.02   0.12    -0.21   0.08  -0.03     0.07  -0.12  -0.17
  33   6     0.03   0.04   0.12    -0.24   0.03  -0.02     0.10  -0.18  -0.26
  34   6     0.03   0.05   0.10    -0.22  -0.04  -0.01     0.10  -0.17  -0.26
  35   6     0.01   0.04   0.08    -0.16  -0.04   0.01     0.07  -0.11  -0.18
  36   6     0.01   0.02   0.08    -0.12   0.01   0.01     0.04  -0.06  -0.09
  37   6    -0.01  -0.01   0.03    -0.04  -0.07   0.06    -0.00   0.02  -0.04
  38   6    -0.01  -0.01   0.00    -0.03  -0.10   0.07    -0.00   0.02  -0.05
  39   6    -0.00   0.00  -0.10    -0.02  -0.09  -0.01    -0.00   0.01  -0.07
  40   6    -0.00  -0.00  -0.13    -0.04  -0.11  -0.03    -0.01   0.00  -0.07
  41   6    -0.00   0.00  -0.18    -0.05  -0.10  -0.09    -0.01   0.01  -0.12
  42   6     0.00   0.01  -0.20    -0.05  -0.07  -0.12    -0.00   0.02  -0.17
  43   6     0.00   0.01  -0.17    -0.04  -0.06  -0.10     0.00   0.03  -0.16
  44   6    -0.00   0.01  -0.12    -0.02  -0.07  -0.04     0.00   0.02  -0.11
  45   7    -0.00   0.01  -0.09    -0.02  -0.07  -0.03     0.01   0.02  -0.10
  46   6    -0.00  -0.01   0.04     0.01  -0.01   0.00     0.00   0.00  -0.02
  47   7    -0.03  -0.09   0.27    -0.00   0.07   0.00    -0.01   0.02   0.00
  48   6    -0.03  -0.10   0.34    -0.01   0.11  -0.00    -0.01   0.02   0.02
  49   1    -0.00  -0.02   0.12    -0.00   0.05  -0.01    -0.00  -0.00   0.03
  50   1     0.01   0.02   0.05     0.02   0.05  -0.01     0.01  -0.02   0.05
  51   1     0.01   0.03   0.01     0.02   0.03  -0.01     0.01  -0.02   0.04
  52   1     0.00   0.00  -0.00     0.03   0.01  -0.00    -0.00  -0.00   0.02
  53   1    -0.00  -0.00  -0.05     0.04  -0.03  -0.00    -0.01   0.01   0.01
  54   1    -0.00   0.00  -0.08     0.06  -0.04  -0.00    -0.01   0.01   0.02
  55   1     0.01   0.01  -0.08     0.08  -0.02  -0.01    -0.01  -0.00   0.04
  56   1     0.01   0.02  -0.06     0.07   0.00  -0.01    -0.00  -0.01   0.04
  57   1     0.00   0.00  -0.04     0.02  -0.03   0.00    -0.00   0.00  -0.00
  58   1     0.00   0.01  -0.02     0.01  -0.02   0.02     0.01  -0.00   0.00
  59   1     0.00   0.01  -0.00     0.00  -0.01   0.02     0.01  -0.01   0.01
  60   1    -0.01  -0.01   0.00     0.02   0.01   0.02    -0.02   0.03   0.05
  61   1    -0.01  -0.01   0.00     0.04   0.04   0.02    -0.04   0.06   0.10
  62   1    -0.01  -0.02   0.01     0.02   0.07   0.01    -0.03   0.06   0.11
  63   1    -0.00  -0.01   0.02    -0.01   0.07  -0.00    -0.01   0.03   0.06
  64   1     0.01   0.00   0.04    -0.06   0.04  -0.01     0.02  -0.04  -0.05
  65   1     0.01   0.01   0.04    -0.08   0.01  -0.01     0.04  -0.06  -0.10
  66   1     0.01   0.02   0.03    -0.07  -0.02  -0.00     0.04  -0.06  -0.10
  67   1     0.00   0.01   0.02    -0.04  -0.03   0.01     0.02  -0.03  -0.05
  68   1    -0.00  -0.01   0.01    -0.02  -0.02   0.02    -0.00   0.01  -0.02
  69   1    -0.00  -0.01   0.00    -0.01  -0.03   0.02    -0.00   0.01  -0.02
  70   1    -0.00  -0.00  -0.03    -0.01  -0.04  -0.00    -0.00  -0.00  -0.01
  71   1    -0.00   0.00  -0.06    -0.02  -0.03  -0.03    -0.00   0.00  -0.03
  72   1     0.00   0.00  -0.07    -0.02  -0.02  -0.05    -0.00   0.01  -0.06
  73   1     0.00   0.01  -0.05    -0.01  -0.01  -0.04     0.00   0.01  -0.06
  74   1    -0.00  -0.00   0.02    -0.01  -0.00   0.00     0.00   0.00  -0.01
  75   1    -0.01  -0.05   0.13    -0.01   0.03   0.00    -0.01   0.01  -0.00
                      4                      5                      6
                        a                      a                      a 
 Frequencies --    22.6174                24.6154                32.9346
 Red. masses --    10.9076                10.9235                11.2017
 Frc consts  --     0.0000                 0.0000                 0.0000
 IR Inten    --     1.8823                 1.5824                 0.4970
 Raman Activ --     0.0000                 0.0000                 0.0000
 Depolar     --     0.0000                 0.0000                 0.0000
 Atom AN      X      Y      Z        X      Y      Z        X      Y      Z
   1   6     0.04  -0.12  -0.07     0.00   0.02  -0.02     0.04  -0.12   0.18
   2   6    -0.05   0.07  -0.33     0.04  -0.16   0.24     0.05  -0.07   0.11
   3   6    -0.07   0.12  -0.30     0.04  -0.17   0.25     0.04  -0.01  -0.01
   4   6     0.01  -0.00  -0.03     0.01  -0.02   0.01     0.02   0.01  -0.05
   5   6    -0.00   0.03   0.00     0.00  -0.01   0.02     0.02   0.05  -0.14
   6   6    -0.01   0.03  -0.01    -0.02  -0.00   0.03     0.01   0.05  -0.11
   7   6    -0.02   0.04   0.04    -0.03   0.02   0.02     0.00   0.06  -0.14
   8   6    -0.04   0.05   0.04    -0.06   0.03  -0.02    -0.02   0.06  -0.04
   9   6    -0.03   0.06   0.08    -0.08   0.05  -0.05    -0.04   0.11  -0.03
  10   6    -0.06   0.07   0.08    -0.12   0.07  -0.11    -0.05   0.10   0.09
  11   6    -0.09   0.06   0.03    -0.14   0.07  -0.14    -0.04   0.02   0.20
  12   6    -0.10   0.05  -0.01    -0.12   0.05  -0.11    -0.03  -0.02   0.17
  13   7    -0.08   0.04  -0.01    -0.09   0.03  -0.05    -0.01  -0.01   0.06
  14   6    -0.00   0.05   0.07    -0.01   0.03   0.02     0.02   0.08  -0.19
  15   6     0.01   0.05   0.07     0.01   0.03   0.02     0.03   0.08  -0.22
  16   6     0.01   0.05   0.07     0.02   0.04   0.02     0.02   0.07  -0.19
  17   7     0.01   0.03   0.13     0.02   0.02   0.10     0.02   0.04  -0.17
  18   6     0.00   0.02   0.10     0.01   0.01   0.10    -0.00   0.00  -0.07
  19   6     0.01  -0.01   0.12     0.02  -0.01   0.14     0.02  -0.04  -0.02
  20   6    -0.01  -0.01   0.10     0.01  -0.02   0.13     0.03  -0.10   0.05
  21   6    -0.00  -0.02   0.08     0.01  -0.03   0.12     0.05  -0.13   0.07
  22   6     0.02  -0.03   0.09     0.03  -0.04   0.13     0.04  -0.09   0.02
  23   7     0.02  -0.03   0.05     0.03  -0.03   0.09     0.04  -0.08   0.00
  24   6     0.05  -0.01   0.01     0.07  -0.02   0.02     0.06  -0.04  -0.00
  25   6     0.07  -0.00   0.04     0.11  -0.02   0.04     0.12  -0.07  -0.04
  26   6     0.10   0.01   0.00     0.15  -0.01  -0.02     0.15  -0.03  -0.04
  27   6     0.10   0.00  -0.06     0.14  -0.01  -0.09     0.12   0.05  -0.01
  28   6     0.07  -0.01  -0.09     0.10  -0.02  -0.11     0.06   0.08   0.03
  29   6     0.05  -0.02  -0.06     0.06  -0.02  -0.05     0.03   0.04   0.03
  30   8     0.03  -0.04  -0.10     0.03  -0.03  -0.09    -0.04   0.09   0.09
  31   6    -0.00  -0.05  -0.07    -0.01  -0.04  -0.03    -0.05   0.02   0.05
  32   6    -0.03  -0.07  -0.11    -0.04  -0.05  -0.07    -0.10   0.05   0.07
  33   6    -0.05  -0.08  -0.09    -0.08  -0.06  -0.03    -0.12  -0.01   0.05
  34   6    -0.06  -0.08  -0.02    -0.08  -0.06   0.05    -0.09  -0.09  -0.00
  35   6    -0.03  -0.06   0.02    -0.05  -0.05   0.08    -0.03  -0.12  -0.02
  36   6    -0.00  -0.04   0.00    -0.01  -0.04   0.04    -0.02  -0.06   0.01
  37   6     0.04  -0.03   0.12     0.04  -0.04   0.15     0.03  -0.05  -0.04
  38   6     0.03  -0.02   0.14     0.04  -0.03   0.16     0.02  -0.02  -0.06
  39   6    -0.02   0.02   0.03    -0.00   0.02   0.04    -0.04   0.01   0.00
  40   6    -0.03   0.01  -0.00    -0.02   0.00   0.04    -0.08  -0.01   0.13
  41   6    -0.04   0.02  -0.12    -0.02   0.01  -0.07    -0.11  -0.01   0.21
  42   6    -0.03   0.05  -0.21    -0.01   0.04  -0.17    -0.11   0.02   0.16
  43   6    -0.02   0.07  -0.16     0.01   0.05  -0.17    -0.07   0.04   0.02
  44   6    -0.01   0.05  -0.04     0.01   0.04  -0.06    -0.04   0.04  -0.06
  45   7     0.00   0.07  -0.01     0.02   0.05  -0.06    -0.01   0.08  -0.18
  46   6     0.01   0.04   0.05     0.02   0.01   0.00     0.03   0.07  -0.19
  47   7     0.10  -0.19   0.22    -0.02   0.15  -0.24     0.02  -0.03   0.01
  48   6     0.11  -0.23   0.19    -0.03   0.16  -0.24     0.03  -0.09   0.12
  49   1     0.02  -0.05  -0.02    -0.00   0.01  -0.01     0.01  -0.05   0.08
  50   1    -0.03   0.05  -0.16     0.02  -0.08   0.12     0.02  -0.03   0.04
  51   1    -0.04   0.08  -0.14     0.02  -0.09   0.12     0.01   0.01  -0.02
  52   1    -0.00   0.01  -0.01    -0.01  -0.01   0.01    -0.00   0.01  -0.02
  53   1    -0.00   0.02   0.03    -0.02   0.02  -0.01    -0.01   0.05  -0.03
  54   1    -0.02   0.02   0.03    -0.04   0.03  -0.04    -0.02   0.04   0.03
  55   1    -0.03   0.02   0.01    -0.05   0.02  -0.06    -0.01   0.00   0.09
  56   1    -0.04   0.01  -0.01    -0.04   0.01  -0.04    -0.01  -0.02   0.07
  57   1    -0.00   0.02   0.03    -0.00   0.02   0.01     0.00   0.03  -0.06
  58   1    -0.01   0.00   0.03    -0.00  -0.00   0.04     0.01  -0.04   0.03
  59   1    -0.00  -0.01   0.02     0.00  -0.01   0.03     0.02  -0.05   0.03
  60   1     0.02   0.00   0.02     0.03  -0.00   0.03     0.04  -0.04  -0.02
  61   1     0.03   0.00   0.01     0.05  -0.00   0.00     0.06  -0.01  -0.02
  62   1     0.03   0.00  -0.02     0.05  -0.00  -0.04     0.04   0.02  -0.00
  63   1     0.02  -0.00  -0.04     0.03  -0.01  -0.05     0.01   0.04   0.02
  64   1    -0.01  -0.02  -0.05    -0.01  -0.01  -0.04    -0.04   0.03   0.03
  65   1    -0.02  -0.03  -0.03    -0.03  -0.02  -0.02    -0.05   0.00   0.02
  66   1    -0.02  -0.03  -0.00    -0.03  -0.02   0.02    -0.03  -0.04  -0.01
  67   1    -0.01  -0.02   0.02    -0.01  -0.01   0.04    -0.00  -0.05  -0.02
  68   1     0.02  -0.01   0.04     0.02  -0.01   0.04     0.01  -0.01  -0.02
  69   1     0.01  -0.01   0.05     0.01  -0.01   0.05     0.00   0.01  -0.03
  70   1    -0.01  -0.01   0.02    -0.01  -0.01   0.04    -0.02  -0.01   0.05
  71   1    -0.02   0.00  -0.04    -0.01   0.00  -0.02    -0.04  -0.01   0.09
  72   1    -0.01   0.02  -0.09    -0.00   0.02  -0.08    -0.04   0.01   0.06
  73   1    -0.00   0.03  -0.07     0.00   0.02  -0.07    -0.02   0.02  -0.01
  74   1     0.01   0.01   0.01     0.01   0.00  -0.00     0.01   0.02  -0.06
  75   1     0.05  -0.11   0.11    -0.02   0.09  -0.13     0.01  -0.03   0.05
                      7                      8                      9
                        a                      a                      a 
 Frequencies --    36.8831                44.8666                50.7044
 Red. masses --    11.2920                10.6586                11.2183
 Frc consts  --     0.0000                 0.0000                 0.0000
 IR Inten    --     0.3890                 2.3179                 2.8697
 Raman Activ --     0.0000                 0.0000                 0.0000
 Depolar     --     0.0000                 0.0000                 0.0000
 Atom AN      X      Y      Z        X      Y      Z        X      Y      Z
   1   6     0.05   0.01  -0.09    -0.02   0.07   0.12     0.14  -0.21   0.00
   2   6     0.01  -0.02  -0.04     0.04   0.07   0.10     0.07  -0.21   0.03
   3   6     0.01  -0.02   0.03     0.05   0.05   0.03     0.03  -0.10   0.01
   4   6     0.03  -0.00   0.05     0.01   0.02  -0.02     0.08  -0.01  -0.02
   5   6     0.03   0.01   0.10     0.02  -0.00  -0.07     0.06   0.05  -0.00
   6   6     0.02   0.01   0.10     0.03  -0.01  -0.07     0.05   0.05   0.01
   7   6     0.01   0.02   0.10     0.03  -0.02  -0.04     0.05   0.06   0.02
   8   6    -0.02   0.04   0.05     0.01  -0.02  -0.00     0.04   0.06   0.01
   9   6    -0.01   0.05   0.09     0.15  -0.04   0.40     0.04   0.07   0.02
  10   6    -0.07   0.08  -0.01     0.09  -0.03   0.43     0.03   0.07   0.00
  11   6    -0.14   0.10  -0.14    -0.10   0.01   0.05     0.02   0.08  -0.02
  12   6    -0.13   0.08  -0.15    -0.22   0.04  -0.33     0.02   0.07  -0.02
  13   7    -0.08   0.06  -0.07    -0.17   0.03  -0.38     0.03   0.07  -0.00
  14   6     0.03   0.03   0.13     0.02  -0.03  -0.03     0.06   0.07   0.02
  15   6     0.04   0.03   0.13     0.01  -0.03  -0.06     0.06   0.06   0.02
  16   6     0.03   0.02   0.11     0.01  -0.03  -0.05     0.03   0.04   0.02
  17   7     0.04  -0.01   0.04     0.01  -0.03  -0.04     0.05  -0.02  -0.05
  18   6     0.02  -0.03  -0.03     0.01  -0.02  -0.02     0.01  -0.06  -0.09
  19   6     0.03  -0.05  -0.08     0.01  -0.01  -0.01     0.01  -0.07  -0.08
  20   6    -0.00  -0.05  -0.13     0.02  -0.01   0.00     0.03  -0.03  -0.09
  21   6     0.01  -0.08  -0.14     0.01  -0.00   0.01     0.02  -0.00  -0.06
  22   6     0.05  -0.10  -0.11    -0.00   0.01   0.00    -0.01  -0.02  -0.03
  23   7     0.05  -0.11  -0.12    -0.01   0.01   0.01    -0.02   0.00  -0.02
  24   6     0.04  -0.05  -0.05    -0.00   0.01   0.00    -0.03   0.02   0.01
  25   6     0.08  -0.12  -0.15    -0.01   0.03   0.03    -0.08   0.11   0.14
  26   6     0.08  -0.06  -0.08    -0.01   0.02   0.02    -0.09   0.13   0.18
  27   6     0.02   0.07   0.09    -0.00   0.00  -0.01    -0.07   0.06   0.09
  28   6    -0.02   0.14   0.18     0.00  -0.01  -0.03    -0.02  -0.03  -0.04
  29   6    -0.01   0.07   0.11     0.00  -0.01  -0.03    -0.01  -0.04  -0.07
  30   8    -0.06   0.16   0.24     0.01  -0.03  -0.06     0.03  -0.14  -0.24
  31   6    -0.03   0.05   0.10     0.01  -0.01  -0.02    -0.00  -0.05  -0.08
  32   6    -0.07   0.09   0.15     0.01  -0.01  -0.03    -0.00  -0.03  -0.06
  33   6    -0.05   0.01   0.05     0.00   0.01  -0.00    -0.04   0.06   0.07
  34   6     0.00  -0.11  -0.11    -0.01   0.03   0.03    -0.07   0.13   0.17
  35   6     0.04  -0.15  -0.16    -0.01   0.03   0.03    -0.07   0.11   0.14
  36   6     0.02  -0.07  -0.06    -0.00   0.01   0.00    -0.03   0.02   0.01
  37   6     0.07  -0.10  -0.08    -0.01   0.00  -0.01    -0.02  -0.07   0.00
  38   6     0.07  -0.07  -0.06    -0.01  -0.01  -0.02    -0.01  -0.10  -0.02
  39   6    -0.02  -0.02  -0.04     0.01  -0.02  -0.01    -0.05  -0.04  -0.09
  40   6    -0.03  -0.04  -0.13     0.02  -0.02   0.02    -0.08  -0.08  -0.18
  41   6    -0.07  -0.03  -0.11     0.02  -0.02   0.04    -0.16  -0.07  -0.09
  42   6    -0.09  -0.00  -0.01     0.02  -0.03   0.03    -0.20  -0.02   0.09
  43   6    -0.07   0.02   0.08     0.02  -0.03   0.00    -0.16   0.02   0.17
  44   6    -0.03   0.01   0.06     0.02  -0.03  -0.02    -0.08   0.01   0.06
  45   7    -0.01   0.03   0.14     0.01  -0.03  -0.04    -0.04   0.05   0.10
  46   6     0.04   0.02   0.13     0.01  -0.02  -0.07     0.07   0.06   0.01
  47   7     0.07   0.02   0.00    -0.05   0.03   0.00     0.16  -0.00  -0.07
  48   6     0.07   0.03  -0.07    -0.06   0.05   0.07     0.18  -0.10  -0.05
  49   1     0.01   0.00  -0.04    -0.01   0.03   0.05     0.05  -0.09   0.01
  50   1    -0.00  -0.01  -0.02     0.02   0.03   0.04     0.01  -0.08   0.02
  51   1    -0.00  -0.01   0.02     0.03   0.01   0.00    -0.01  -0.03   0.01
  52   1     0.00   0.00   0.02     0.01  -0.00  -0.03     0.01   0.01   0.01
  53   1     0.01   0.01   0.05     0.09  -0.02   0.20     0.01   0.02   0.01
  54   1    -0.02   0.03   0.00     0.06  -0.02   0.21     0.01   0.02   0.00
  55   1    -0.05   0.03  -0.06    -0.05   0.01   0.01     0.00   0.02  -0.01
  56   1    -0.05   0.03  -0.07    -0.10   0.02  -0.18     0.00   0.02  -0.01
  57   1     0.01   0.01   0.04     0.01  -0.02  -0.00     0.02   0.02   0.01
  58   1    -0.01  -0.01  -0.04     0.01  -0.01   0.00     0.01  -0.00  -0.04
  59   1    -0.00  -0.02  -0.05     0.01  -0.00   0.01     0.01   0.01  -0.02
  60   1     0.04  -0.06  -0.08    -0.01   0.01   0.01    -0.03   0.05   0.06
  61   1     0.03  -0.03  -0.05    -0.01   0.01   0.01    -0.04   0.06   0.08
  62   1     0.01   0.04   0.04    -0.00  -0.00  -0.00    -0.02   0.02   0.04
  63   1    -0.02   0.07   0.09     0.00  -0.01  -0.02     0.00  -0.02  -0.03
  64   1    -0.03   0.06   0.08     0.00  -0.01  -0.01     0.01  -0.02  -0.04
  65   1    -0.02   0.01   0.03     0.00   0.00  -0.00    -0.01   0.02   0.03
  66   1     0.01  -0.05  -0.06    -0.00   0.01   0.01    -0.03   0.06   0.08
  67   1     0.02  -0.07  -0.08    -0.00   0.01   0.01    -0.03   0.05   0.06
  68   1     0.03  -0.03  -0.02    -0.01   0.00  -0.00    -0.01  -0.03   0.01
  69   1     0.03  -0.02  -0.01    -0.00  -0.00  -0.01    -0.00  -0.04   0.00
  70   1    -0.00  -0.02  -0.06     0.00  -0.00   0.01    -0.01  -0.04  -0.09
  71   1    -0.02  -0.01  -0.05     0.01  -0.01   0.02    -0.05  -0.03  -0.05
  72   1    -0.03   0.00   0.00     0.01  -0.01   0.01    -0.08  -0.00   0.05
  73   1    -0.03   0.01   0.05     0.01  -0.01  -0.00    -0.05   0.02   0.09
  74   1     0.02   0.00   0.04    -0.00  -0.00  -0.02     0.02   0.02  -0.00
  75   1     0.03   0.01  -0.03    -0.03   0.02   0.02     0.07  -0.03  -0.03
                     10                     11                     12
                        a                      a                      a 
 Frequencies --    54.6830                59.6542                71.8876
 Red. masses --    10.9928                10.5914                11.2716
 Frc consts  --     0.0000                 0.0000                 0.0000
 IR Inten    --     1.9476                 0.7470                 0.3003
 Raman Activ --     0.0000                 0.0000                 0.0000
 Depolar     --     0.0000                 0.0000                 0.0000
 Atom AN      X      Y      Z        X      Y      Z        X      Y      Z
   1   6    -0.09   0.29  -0.06    -0.02  -0.10   0.08    -0.03   0.01   0.12
   2   6    -0.00   0.29  -0.07    -0.03  -0.09   0.06     0.03   0.03   0.08
   3   6     0.03   0.14  -0.01    -0.04  -0.03  -0.02     0.04   0.03  -0.04
   4   6    -0.01   0.02   0.06    -0.04   0.00  -0.07    -0.01   0.02  -0.10
   5   6     0.01  -0.05   0.04    -0.05   0.03  -0.09    -0.01   0.01  -0.14
   6   6     0.01  -0.05   0.03    -0.05   0.03  -0.12    -0.01   0.02  -0.21
   7   6     0.01  -0.04  -0.01    -0.05   0.03  -0.09    -0.02   0.02  -0.13
   8   6    -0.05  -0.03   0.00    -0.01   0.01  -0.07    -0.03   0.01  -0.09
   9   6    -0.12   0.07  -0.08     0.03  -0.04  -0.01    -0.03   0.03  -0.08
  10   6    -0.21   0.09  -0.09     0.11  -0.07   0.08    -0.02   0.01   0.03
  11   6    -0.23   0.01  -0.01     0.14  -0.04   0.09    -0.00  -0.03   0.12
  12   6    -0.16  -0.09   0.09     0.08   0.01   0.01    -0.01  -0.04   0.08
  13   7    -0.08  -0.12   0.09     0.02   0.04  -0.07    -0.02  -0.03  -0.03
  14   6     0.02  -0.03  -0.06    -0.05   0.02  -0.04    -0.02   0.01  -0.02
  15   6     0.02  -0.04  -0.04    -0.05   0.01  -0.01    -0.01   0.00   0.03
  16   6     0.02  -0.03  -0.06    -0.04   0.02   0.03     0.00   0.00   0.12
  17   7     0.03  -0.03  -0.15    -0.04   0.06  -0.03    -0.00   0.01   0.21
  18   6     0.03  -0.02  -0.15    -0.03   0.07  -0.07    -0.00   0.02   0.18
  19   6     0.04  -0.03  -0.10    -0.03   0.08  -0.03     0.01  -0.01   0.10
  20   6     0.05   0.01  -0.12    -0.07   0.19  -0.19    -0.10   0.00  -0.07
  21   6     0.06   0.00  -0.05    -0.06   0.16  -0.12    -0.08  -0.03  -0.20
  22   6     0.05  -0.05   0.04    -0.01   0.01   0.11     0.03  -0.09  -0.15
  23   7     0.05  -0.03   0.05    -0.00   0.02   0.13     0.06  -0.14  -0.25
  24   6     0.06   0.00   0.05     0.02  -0.00   0.07     0.02  -0.07  -0.13
  25   6     0.08   0.04   0.11     0.06  -0.05  -0.01    -0.02  -0.03  -0.07
  26   6     0.09   0.08   0.12     0.09  -0.06  -0.06    -0.07   0.07   0.10
  27   6     0.09   0.07   0.06     0.07  -0.02  -0.04    -0.08   0.12   0.20
  28   6     0.08   0.03  -0.02     0.03   0.02   0.02    -0.05   0.06   0.11
  29   6     0.07  -0.01  -0.02     0.01   0.03   0.06     0.00  -0.04  -0.06
  30   8     0.07  -0.06  -0.12    -0.03   0.06   0.10     0.04  -0.11  -0.16
  31   6     0.02  -0.04  -0.04    -0.02  -0.01   0.02     0.02  -0.04  -0.07
  32   6    -0.01  -0.04  -0.05    -0.03  -0.07  -0.08    -0.02   0.04   0.06
  33   6    -0.05  -0.02   0.02    -0.03  -0.14  -0.14    -0.04   0.11   0.16
  34   6    -0.06   0.00   0.11    -0.04  -0.14  -0.08    -0.03   0.09   0.11
  35   6    -0.03   0.00   0.12    -0.03  -0.08   0.02     0.00  -0.00  -0.03
  36   6     0.01  -0.02   0.04    -0.02  -0.02   0.06     0.03  -0.07  -0.12
  37   6     0.05  -0.10   0.08     0.04  -0.10   0.28     0.14  -0.10   0.03
  38   6     0.04  -0.09   0.01     0.02  -0.07   0.22     0.12  -0.06   0.16
  39   6     0.04  -0.03  -0.11     0.01   0.07  -0.09     0.02   0.02   0.13
  40   6     0.06  -0.02  -0.15     0.07   0.10  -0.23     0.04   0.03   0.10
  41   6     0.05  -0.03  -0.03     0.09   0.08  -0.14     0.07   0.03  -0.03
  42   6     0.03  -0.05   0.12     0.06   0.03   0.10     0.09   0.03  -0.12
  43   6     0.02  -0.06   0.14     0.02   0.00   0.21     0.07   0.01  -0.07
  44   6     0.03  -0.04   0.01    -0.00   0.02   0.09     0.03   0.01   0.07
  45   7     0.03  -0.05   0.02    -0.03  -0.00   0.15     0.02  -0.00   0.09
  46   6     0.01  -0.05   0.02    -0.05   0.02  -0.04    -0.01  -0.00  -0.04
  47   7    -0.10   0.01   0.11    -0.04   0.00  -0.07    -0.07   0.01  -0.08
  48   6    -0.13   0.14   0.05    -0.03  -0.05   0.00    -0.08   0.01   0.04
  49   1    -0.04   0.12  -0.03    -0.00  -0.04   0.04    -0.01   0.00   0.06
  50   1     0.01   0.11  -0.04    -0.01  -0.04   0.03     0.02   0.01   0.04
  51   1     0.03   0.04  -0.00    -0.01  -0.01  -0.01     0.02   0.01  -0.02
  52   1     0.01  -0.02   0.01    -0.01   0.01  -0.04    -0.00   0.01  -0.08
  53   1    -0.03   0.04  -0.04     0.00  -0.02  -0.01    -0.01   0.02  -0.04
  54   1    -0.08   0.05  -0.04     0.04  -0.03   0.04    -0.01   0.01   0.01
  55   1    -0.09   0.01  -0.00     0.06  -0.02   0.05     0.00  -0.01   0.06
  56   1    -0.05  -0.05   0.05     0.03   0.01   0.00     0.00  -0.02   0.04
  57   1     0.01  -0.00  -0.03    -0.02   0.00  -0.00    -0.01   0.00   0.01
  58   1     0.02   0.02  -0.06    -0.04   0.09  -0.10    -0.06   0.01  -0.03
  59   1     0.02   0.01  -0.02    -0.03   0.07  -0.07    -0.05  -0.01  -0.09
  60   1     0.02   0.01   0.04     0.02  -0.02  -0.01    -0.00  -0.02  -0.04
  61   1     0.03   0.03   0.05     0.04  -0.03  -0.03    -0.03   0.03   0.04
  62   1     0.03   0.03   0.02     0.03  -0.01  -0.02    -0.04   0.06   0.10
  63   1     0.02   0.01  -0.02     0.01   0.01   0.01    -0.02   0.03   0.05
  64   1    -0.00  -0.02  -0.04    -0.01  -0.02  -0.03    -0.01   0.02   0.03
  65   1    -0.02  -0.01   0.00    -0.01  -0.05  -0.06    -0.02   0.05   0.08
  66   1    -0.03   0.01   0.05    -0.01  -0.05  -0.03    -0.01   0.04   0.05
  67   1    -0.01   0.01   0.05    -0.01  -0.03   0.02     0.00  -0.00  -0.02
  68   1     0.01  -0.04   0.04     0.02  -0.06   0.13     0.07  -0.04   0.02
  69   1     0.01  -0.04   0.01     0.02  -0.04   0.10     0.06  -0.02   0.08
  70   1     0.02  -0.00  -0.08     0.03   0.04  -0.12     0.01   0.01   0.05
  71   1     0.02  -0.01  -0.02     0.04   0.03  -0.07     0.02   0.01  -0.02
  72   1     0.01  -0.02   0.07     0.02   0.01   0.06     0.03   0.01  -0.07
  73   1     0.00  -0.02   0.07     0.00  -0.01   0.11     0.02  -0.00  -0.04
  74   1     0.00  -0.02   0.01    -0.02   0.00  -0.00     0.00  -0.00   0.00
  75   1    -0.06   0.04   0.03    -0.01  -0.01  -0.00    -0.04   0.00   0.02
                     13                     14                     15
                        a                      a                      a 
 Frequencies --    72.4788                85.5191                98.8516
 Red. masses --    11.2892                10.8716                10.7422
 Frc consts  --     0.0000                 0.0000                 0.0000
 IR Inten    --     2.6411                 0.8261                 1.3282
 Raman Activ --     0.0000                 0.0000                 0.0000
 Depolar     --     0.0000                 0.0000                 0.0000
 Atom AN      X      Y      Z        X      Y      Z        X      Y      Z
   1   6    -0.07  -0.06  -0.11     0.09  -0.02  -0.02     0.00   0.09  -0.26
   2   6    -0.13  -0.07  -0.07     0.05  -0.00  -0.03    -0.05  -0.01  -0.09
   3   6    -0.15  -0.06   0.04     0.04   0.02   0.00    -0.04  -0.11   0.19
   4   6    -0.09  -0.03   0.09     0.07   0.03   0.03     0.01  -0.10   0.25
   5   6    -0.09  -0.01   0.13     0.06   0.03   0.04     0.01  -0.07   0.24
   6   6    -0.10  -0.01   0.18     0.08   0.01   0.16    -0.02  -0.03   0.03
   7   6    -0.09  -0.01   0.13     0.09  -0.01   0.12    -0.02   0.03  -0.21
   8   6    -0.03  -0.02   0.07     0.07  -0.00   0.12    -0.04   0.04  -0.24
   9   6     0.03  -0.14   0.08     0.04   0.04   0.08    -0.01   0.05  -0.14
  10   6     0.13  -0.15   0.00    -0.05   0.08  -0.07     0.06  -0.00   0.13
  11   6     0.17  -0.03  -0.09    -0.10   0.08  -0.15     0.08  -0.06   0.25
  12   6     0.11   0.09  -0.11    -0.04   0.02  -0.03     0.01  -0.03   0.01
  13   7     0.02   0.10  -0.03     0.05  -0.01   0.10    -0.05   0.01  -0.23
  14   6    -0.10  -0.01   0.05     0.08  -0.01   0.00     0.01   0.06  -0.29
  15   6    -0.09   0.00  -0.00     0.05   0.00  -0.10     0.03   0.02  -0.03
  16   6    -0.05   0.04  -0.10     0.03  -0.01  -0.15     0.03   0.03  -0.03
  17   7    -0.06   0.10  -0.13     0.02  -0.01  -0.05     0.04   0.01   0.00
  18   6    -0.04   0.11  -0.11     0.01  -0.01   0.00     0.01  -0.02   0.03
  19   6    -0.02   0.08  -0.11     0.01  -0.02   0.06     0.02  -0.04   0.06
  20   6    -0.04   0.02  -0.09    -0.07   0.08  -0.13     0.00   0.00   0.01
  21   6    -0.00  -0.07  -0.05    -0.09   0.12  -0.18    -0.01   0.04  -0.04
  22   6     0.06  -0.10  -0.03    -0.06   0.01  -0.02    -0.00   0.02  -0.01
  23   7     0.08  -0.13  -0.06    -0.07   0.01  -0.03    -0.00   0.03  -0.03
  24   6     0.08  -0.06  -0.02    -0.09  -0.01  -0.03    -0.01   0.01  -0.03
  25   6     0.11  -0.02   0.06    -0.12  -0.04  -0.08    -0.02  -0.00  -0.05
  26   6     0.11   0.07   0.13    -0.14  -0.05  -0.06    -0.03  -0.01  -0.04
  27   6     0.09   0.11   0.13    -0.15  -0.04   0.02    -0.04   0.01   0.01
  28   6     0.07   0.06   0.03    -0.12  -0.02   0.05    -0.03   0.02   0.03
  29   6     0.07  -0.03  -0.04    -0.09  -0.01   0.02    -0.01   0.02   0.01
  30   8     0.06  -0.09  -0.14    -0.08  -0.01   0.03     0.00   0.02   0.01
  31   6     0.01  -0.06  -0.04    -0.05  -0.01  -0.02     0.01   0.01  -0.01
  32   6    -0.05  -0.01   0.03    -0.04  -0.03  -0.05     0.03   0.00  -0.03
  33   6    -0.09   0.02   0.12    -0.03  -0.03  -0.06     0.04   0.01  -0.03
  34   6    -0.08  -0.01   0.13    -0.05   0.00  -0.02     0.03   0.04  -0.01
  35   6    -0.02  -0.06   0.06    -0.06   0.02   0.00     0.01   0.05  -0.00
  36   6     0.02  -0.09  -0.02    -0.06   0.01  -0.02     0.01   0.03  -0.01
  37   6     0.08  -0.04  -0.04     0.02  -0.12   0.23     0.02  -0.05   0.09
  38   6     0.04   0.05  -0.08     0.03  -0.14   0.26     0.03  -0.07   0.12
  39   6    -0.01   0.10  -0.05     0.03  -0.01   0.00    -0.02  -0.01   0.01
  40   6     0.01   0.13   0.08     0.04   0.03   0.15    -0.05  -0.03   0.04
  41   6     0.05   0.12   0.14     0.07   0.01   0.24    -0.08  -0.02   0.05
  42   6     0.08   0.07   0.06     0.09  -0.01   0.11    -0.08   0.01   0.01
  43   6     0.05   0.04  -0.06     0.08  -0.03  -0.09    -0.05   0.03  -0.04
  44   6     0.01   0.06  -0.10     0.05  -0.01  -0.13    -0.02   0.02  -0.03
  45   7    -0.02   0.04  -0.15     0.05  -0.00  -0.27     0.01   0.05  -0.06
  46   6    -0.09   0.00   0.04     0.05   0.03  -0.09     0.03  -0.05   0.25
  47   7    -0.04  -0.03   0.06     0.11   0.02   0.03     0.07  -0.07   0.18
  48   6    -0.02  -0.04  -0.04     0.11  -0.00   0.01     0.06   0.03  -0.07
  49   1    -0.02  -0.02  -0.06     0.03  -0.01  -0.01    -0.00   0.06  -0.15
  50   1    -0.05  -0.02  -0.03     0.01  -0.00  -0.01    -0.03   0.00  -0.05
  51   1    -0.06  -0.02   0.02     0.00   0.01  -0.00    -0.02  -0.05   0.09
  52   1    -0.03  -0.00   0.07     0.03   0.00   0.08    -0.02  -0.02   0.02
  53   1    -0.00  -0.06   0.04     0.02   0.01   0.04    -0.01   0.03  -0.07
  54   1     0.05  -0.07   0.00    -0.02   0.03  -0.04     0.03  -0.00   0.08
  55   1     0.07  -0.01  -0.05    -0.05   0.03  -0.08     0.04  -0.03   0.14
  56   1     0.04   0.05  -0.05    -0.02   0.00  -0.02    -0.00  -0.02   0.01
  57   1    -0.03  -0.00   0.00     0.02  -0.01  -0.01     0.00   0.03  -0.15
  58   1    -0.03   0.01  -0.03    -0.04   0.04  -0.06    -0.00   0.00  -0.00
  59   1    -0.01  -0.03  -0.01    -0.04   0.07  -0.10    -0.01   0.02  -0.03
  60   1     0.03  -0.01   0.02    -0.03  -0.01  -0.04    -0.01  -0.00  -0.02
  61   1     0.04   0.03   0.06    -0.05  -0.02  -0.03    -0.01  -0.01  -0.02
  62   1     0.03   0.05   0.06    -0.05  -0.01   0.01    -0.01   0.00   0.01
  63   1     0.02   0.02   0.01    -0.03  -0.01   0.03    -0.01   0.01   0.02
  64   1    -0.02   0.00   0.00    -0.01  -0.01  -0.02     0.01  -0.00  -0.01
  65   1    -0.04   0.02   0.05    -0.01  -0.01  -0.02     0.02   0.00  -0.01
  66   1    -0.03   0.00   0.06    -0.01   0.01  -0.00     0.01   0.02  -0.00
  67   1    -0.00  -0.02   0.02    -0.02   0.01   0.01     0.00   0.02   0.00
  68   1     0.04  -0.02  -0.01     0.02  -0.06   0.11     0.01  -0.02   0.04
  69   1     0.02   0.03  -0.03     0.02  -0.07   0.12     0.01  -0.03   0.05
  70   1    -0.00   0.05   0.04     0.01   0.02   0.06    -0.01  -0.02   0.02
  71   1     0.02   0.04   0.07     0.02   0.01   0.11    -0.03  -0.01   0.02
  72   1     0.03   0.02   0.03     0.03  -0.01   0.05    -0.03   0.00   0.00
  73   1     0.02   0.00  -0.03     0.03  -0.02  -0.06    -0.01   0.02  -0.02
  74   1    -0.03   0.00  -0.00     0.01   0.01  -0.05     0.01  -0.02   0.13
  75   1     0.01  -0.01  -0.02     0.04  -0.00   0.00     0.03   0.02  -0.04
                     16                     17                     18
                        a                      a                      a 
 Frequencies --   105.5856               115.5913               145.7966
 Red. masses --    10.9774                10.0256                10.8754
 Frc consts  --     0.0000                 0.0000                 0.0000
 IR Inten    --     1.4022                 2.0848                 1.5587
 Raman Activ --     0.0000                 0.0000                 0.0000
 Depolar     --     0.0000                 0.0000                 0.0000
 Atom AN      X      Y      Z        X      Y      Z        X      Y      Z
   1   6    -0.09   0.02   0.05     0.04  -0.02   0.00     0.01   0.08   0.04
   2   6    -0.04   0.03   0.01     0.01  -0.02   0.00     0.10   0.06   0.03
   3   6    -0.02  -0.00  -0.04     0.00   0.01   0.00     0.13  -0.03  -0.03
   4   6    -0.06  -0.03  -0.06     0.02   0.03   0.01     0.06  -0.09  -0.07
   5   6    -0.05  -0.04  -0.07     0.01   0.03   0.02     0.05  -0.09  -0.06
   6   6    -0.06  -0.05   0.01     0.03   0.03  -0.01    -0.02  -0.04  -0.22
   7   6    -0.07  -0.04   0.08     0.03   0.01  -0.03    -0.05   0.00   0.02
   8   6    -0.05  -0.05   0.08     0.03   0.02  -0.02    -0.09   0.02  -0.05
   9   6    -0.03  -0.12   0.04     0.02   0.05  -0.01    -0.08  -0.03  -0.09
  10   6     0.02  -0.12  -0.04    -0.01   0.05   0.01     0.01  -0.06  -0.00
  11   6     0.05  -0.05  -0.08    -0.03   0.02   0.02     0.07  -0.05   0.08
  12   6     0.03   0.01  -0.03    -0.02  -0.01   0.01     0.01   0.02   0.01
  13   7    -0.02   0.01   0.05     0.01  -0.01  -0.01    -0.07   0.04  -0.06
  14   6    -0.06  -0.03   0.11     0.02   0.00  -0.02    -0.00   0.02   0.31
  15   6    -0.03  -0.01  -0.02     0.00  -0.00   0.02     0.07   0.01   0.27
  16   6    -0.00   0.01  -0.03    -0.01  -0.02   0.03     0.09   0.05   0.14
  17   7     0.01  -0.04   0.04    -0.02   0.00  -0.02     0.10   0.03   0.11
  18   6    -0.00  -0.06   0.03    -0.01   0.01  -0.02     0.07   0.02  -0.10
  19   6     0.02  -0.07   0.09    -0.03   0.03  -0.06     0.06   0.00  -0.16
  20   6     0.03  -0.01   0.03    -0.00  -0.03   0.02     0.06   0.02  -0.18
  21   6     0.01   0.05  -0.03     0.00  -0.05   0.05     0.05   0.02  -0.13
  22   6     0.05   0.04  -0.01    -0.02  -0.01   0.00     0.02  -0.02  -0.04
  23   7     0.06   0.07  -0.04    -0.03  -0.03   0.03    -0.01   0.01   0.06
  24   6     0.07   0.05  -0.06     0.00  -0.08  -0.06    -0.03   0.02   0.07
  25   6     0.11  -0.01  -0.15     0.07  -0.21  -0.24    -0.06   0.03   0.07
  26   6     0.10   0.02  -0.10     0.06  -0.13  -0.15    -0.05  -0.02   0.02
  27   6     0.06   0.10   0.05    -0.03   0.10   0.16    -0.03  -0.07  -0.05
  28   6     0.04   0.14   0.10    -0.08   0.16   0.26    -0.02  -0.05  -0.03
  29   6     0.06   0.08   0.02    -0.04   0.02   0.08    -0.03   0.01   0.05
  30   8     0.11   0.08   0.02    -0.04  -0.02   0.01    -0.05   0.03   0.08
  31   6     0.11   0.04  -0.03    -0.02  -0.07  -0.06    -0.04   0.01   0.03
  32   6     0.19  -0.01  -0.10     0.03  -0.20  -0.27    -0.05  -0.04  -0.05
  33   6     0.22   0.04  -0.09     0.01  -0.14  -0.17    -0.07  -0.07  -0.07
  34   6     0.17   0.15   0.03    -0.10   0.08   0.19    -0.09  -0.04   0.03
  35   6     0.10   0.18   0.07    -0.12   0.16   0.30    -0.08  -0.00   0.09
  36   6     0.09   0.09   0.01    -0.06   0.03   0.11    -0.04   0.02   0.07
  37   6     0.06  -0.07   0.11    -0.06   0.07  -0.12     0.01  -0.03  -0.05
  38   6     0.07  -0.12   0.15    -0.06   0.09  -0.16     0.02  -0.01  -0.12
  39   6    -0.07  -0.05  -0.02     0.01   0.01   0.03     0.04   0.03  -0.10
  40   6    -0.14  -0.11  -0.01     0.04   0.03   0.03    -0.01   0.01   0.07
  41   6    -0.24  -0.09   0.06     0.08   0.02  -0.02    -0.08   0.02   0.23
  42   6    -0.25  -0.03   0.07     0.09   0.00  -0.06    -0.06   0.06   0.08
  43   6    -0.17   0.03  -0.01     0.06  -0.02  -0.02    -0.00   0.09  -0.17
  44   6    -0.08   0.01  -0.06     0.02  -0.01   0.03     0.04   0.08  -0.16
  45   7    -0.04   0.04  -0.12    -0.00  -0.03   0.08     0.08   0.11  -0.11
  46   6    -0.03  -0.02  -0.11    -0.00   0.01   0.05     0.09  -0.06   0.16
  47   7    -0.12  -0.04  -0.03     0.04   0.03  -0.00    -0.03  -0.10  -0.05
  48   6    -0.12  -0.01   0.03     0.05   0.00  -0.01    -0.06  -0.00   0.01
  49   1    -0.03   0.01   0.03     0.01  -0.01   0.00    -0.01   0.04   0.02
  50   1    -0.00   0.02   0.01     0.00  -0.01   0.00     0.05   0.03   0.02
  51   1     0.00   0.00  -0.02    -0.00   0.01   0.00     0.06  -0.02  -0.01
  52   1    -0.02  -0.01   0.00     0.01   0.01  -0.01    -0.02  -0.02  -0.14
  53   1    -0.02  -0.05   0.02     0.01   0.02  -0.00    -0.04  -0.01  -0.04
  54   1     0.01  -0.05  -0.02    -0.01   0.02   0.01     0.01  -0.03   0.00
  55   1     0.02  -0.01  -0.04    -0.01   0.01   0.01     0.04  -0.02   0.05
  56   1     0.02   0.02  -0.02    -0.01  -0.01   0.01     0.01   0.01   0.00
  57   1    -0.02  -0.01   0.06     0.01  -0.00  -0.01    -0.01   0.02   0.14
  58   1     0.01  -0.00   0.01     0.00  -0.02   0.02     0.02   0.00  -0.05
  59   1    -0.00   0.02  -0.03     0.01  -0.02   0.03     0.02   0.02  -0.03
  60   1     0.04  -0.02  -0.07     0.04  -0.10  -0.12    -0.02   0.02   0.03
  61   1     0.03  -0.01  -0.05     0.03  -0.07  -0.09    -0.02  -0.01   0.01
  62   1     0.01   0.04   0.03    -0.02   0.06   0.09    -0.00  -0.04  -0.04
  63   1     0.01   0.06   0.05    -0.04   0.09   0.12     0.00  -0.03  -0.02
  64   1     0.06  -0.03  -0.04     0.03  -0.10  -0.14    -0.01  -0.01  -0.03
  65   1     0.08  -0.00  -0.04     0.01  -0.07  -0.10    -0.02  -0.03  -0.04
  66   1     0.05   0.06   0.02    -0.04   0.05   0.10    -0.03  -0.01   0.01
  67   1     0.02   0.08   0.04    -0.05   0.08   0.14    -0.02   0.00   0.04
  68   1     0.01  -0.03   0.05    -0.02   0.03  -0.05     0.00  -0.02  -0.00
  69   1     0.03  -0.04   0.07    -0.03   0.04  -0.07    -0.00  -0.01  -0.04
  70   1    -0.04  -0.05  -0.01     0.01   0.02   0.02    -0.01   0.00   0.03
  71   1    -0.08  -0.04   0.03     0.03   0.01  -0.01    -0.04  -0.00   0.13
  72   1    -0.09  -0.00   0.04     0.03  -0.00  -0.03    -0.03   0.02   0.04
  73   1    -0.05   0.03  -0.00     0.02  -0.01  -0.01     0.00   0.04  -0.08
  74   1    -0.00  -0.00  -0.06    -0.00   0.00   0.02     0.05  -0.02   0.06
  75   1    -0.05  -0.01   0.02     0.02   0.00  -0.01    -0.04  -0.00   0.01
                     19                     20                     21
                        a                      a                      a 
 Frequencies --   151.6033               167.4323               183.7164
 Red. masses --    11.0183                11.6200                11.1923
 Frc consts  --     0.0000                 0.0000                 0.0000
 IR Inten    --     1.5049                 4.0066                 4.7047
 Raman Activ --     0.0000                 0.0000                 0.0000
 Depolar     --     0.0000                 0.0000                 0.0000
 Atom AN      X      Y      Z        X      Y      Z        X      Y      Z
   1   6     0.04  -0.15   0.08    -0.05   0.02  -0.02    -0.05  -0.11   0.11
   2   6    -0.08  -0.08   0.02    -0.03   0.01  -0.01    -0.11  -0.03   0.00
   3   6    -0.13   0.12  -0.07    -0.02  -0.03   0.01    -0.13   0.10  -0.11
   4   6    -0.05   0.17  -0.02    -0.02  -0.03   0.00    -0.08   0.10  -0.05
   5   6    -0.04   0.12   0.08    -0.02  -0.00  -0.03    -0.06   0.05   0.07
   6   6     0.05   0.10  -0.07    -0.06   0.00   0.07    -0.06   0.06   0.02
   7   6     0.08  -0.00  -0.07    -0.06   0.04   0.03    -0.06   0.05   0.05
   8   6     0.10  -0.00  -0.07    -0.06   0.05   0.04    -0.08   0.08  -0.04
   9   6     0.07   0.09  -0.03    -0.05   0.00   0.02    -0.08   0.06  -0.08
  10   6    -0.03   0.11   0.01     0.02  -0.01   0.01    -0.00   0.03   0.01
  11   6    -0.09   0.02   0.04     0.05   0.04  -0.00     0.06   0.04   0.10
  12   6    -0.04  -0.07   0.02     0.03   0.09  -0.00     0.01   0.10  -0.00
  13   7     0.05  -0.08  -0.04    -0.03   0.11   0.03    -0.06   0.13  -0.07
  14   6     0.01  -0.07  -0.01    -0.03   0.06  -0.04    -0.06   0.03   0.11
  15   6    -0.09  -0.08   0.15     0.01   0.05  -0.10    -0.02  -0.00   0.12
  16   6    -0.13  -0.12   0.08     0.02   0.04  -0.02     0.02  -0.00  -0.02
  17   7    -0.13  -0.11   0.01     0.06   0.04  -0.31     0.05  -0.02  -0.15
  18   6    -0.09  -0.05  -0.06     0.01  -0.04  -0.05     0.05  -0.03  -0.14
  19   6    -0.08  -0.02  -0.11     0.06  -0.12  -0.10     0.09  -0.14   0.05
  20   6    -0.07   0.05  -0.16     0.06  -0.10  -0.12     0.16  -0.21   0.21
  21   6    -0.06   0.05  -0.13     0.05  -0.07  -0.14     0.14  -0.17   0.22
  22   6    -0.01  -0.01  -0.03     0.04  -0.09  -0.10     0.04  -0.05   0.04
  23   7     0.01   0.01   0.04     0.00   0.00  -0.02    -0.00   0.03  -0.06
  24   6     0.04   0.04   0.05    -0.02   0.06   0.06    -0.02   0.02  -0.06
  25   6     0.09   0.06   0.09    -0.04   0.09   0.10    -0.08   0.01  -0.08
  26   6     0.13   0.07   0.04    -0.03   0.04   0.03    -0.12  -0.02  -0.06
  27   6     0.14   0.04  -0.05     0.01  -0.06  -0.11    -0.12  -0.02   0.00
  28   6     0.10   0.03  -0.07     0.01  -0.04  -0.07    -0.07  -0.01   0.03
  29   6     0.05   0.04   0.01    -0.01   0.05   0.05    -0.02   0.01  -0.02
  30   8     0.05   0.05   0.04    -0.04   0.11   0.15    -0.02   0.01  -0.03
  31   6     0.04   0.02   0.04    -0.02   0.05   0.05    -0.01   0.02  -0.03
  32   6     0.08   0.00   0.02     0.03  -0.02  -0.05     0.00   0.03  -0.01
  33   6     0.11   0.01  -0.01     0.05  -0.04  -0.10     0.01   0.05  -0.01
  34   6     0.10   0.02  -0.00     0.01   0.04   0.02     0.01   0.05  -0.04
  35   6     0.07   0.04   0.02    -0.02   0.09   0.09    -0.00   0.04  -0.05
  36   6     0.04   0.02   0.04    -0.02   0.05   0.05    -0.01   0.03  -0.05
  37   6    -0.03  -0.07  -0.00     0.05  -0.17  -0.01     0.04  -0.11   0.09
  38   6    -0.05  -0.06  -0.05     0.06  -0.17  -0.03     0.07  -0.18   0.12
  39   6    -0.08  -0.06  -0.01    -0.02  -0.04   0.23     0.07  -0.03  -0.16
  40   6    -0.06  -0.03   0.13    -0.01  -0.03   0.28     0.11  -0.00  -0.11
  41   6    -0.01  -0.05   0.18     0.03  -0.01   0.01     0.14  -0.02   0.00
  42   6     0.03  -0.08  -0.03     0.07   0.01  -0.26     0.13  -0.04   0.08
  43   6     0.01  -0.10  -0.18     0.03  -0.01  -0.08     0.11  -0.06   0.03
  44   6    -0.07  -0.09  -0.08    -0.02  -0.02   0.22     0.07  -0.03  -0.10
  45   7    -0.11  -0.12  -0.01    -0.02  -0.02   0.36     0.07  -0.02  -0.05
  46   6    -0.12   0.02   0.26     0.01   0.04  -0.13    -0.05   0.03   0.17
  47   7     0.04   0.19  -0.07    -0.05  -0.04   0.02    -0.07   0.13  -0.09
  48   6     0.09   0.03  -0.04    -0.05  -0.01   0.01    -0.04   0.03  -0.03
  49   1     0.02  -0.09   0.06    -0.02   0.01  -0.01    -0.01  -0.07   0.07
  50   1    -0.04  -0.05   0.01    -0.01   0.01  -0.00    -0.04  -0.02   0.01
  51   1    -0.06   0.05  -0.04    -0.00  -0.01   0.01    -0.05   0.05  -0.05
  52   1     0.03   0.05  -0.05    -0.02  -0.01   0.05    -0.02   0.02  -0.02
  53   1     0.04   0.04  -0.01    -0.02  -0.01   0.00    -0.04   0.02  -0.04
  54   1    -0.02   0.05   0.01     0.01  -0.02  -0.00     0.00  -0.00   0.01
  55   1    -0.05   0.01   0.02     0.03   0.01  -0.00     0.04   0.00   0.06
  56   1    -0.02  -0.04   0.02     0.01   0.04  -0.00     0.00   0.04  -0.00
  57   1     0.01  -0.03  -0.03    -0.01   0.03  -0.01    -0.02   0.02   0.03
  58   1    -0.02   0.02  -0.05     0.02  -0.04  -0.03     0.07  -0.07   0.07
  59   1    -0.02   0.02  -0.05     0.01  -0.01  -0.05     0.05  -0.06   0.09
  60   1     0.03   0.02   0.04    -0.02   0.04   0.05    -0.03   0.01  -0.03
  61   1     0.04   0.02   0.02    -0.01   0.02   0.01    -0.04  -0.01  -0.03
  62   1     0.05   0.01  -0.03     0.01  -0.04  -0.06    -0.04  -0.01   0.01
  63   1     0.03   0.01  -0.04     0.01  -0.03  -0.04    -0.02  -0.01   0.03
  64   1     0.03  -0.01   0.01     0.01  -0.02  -0.03     0.00   0.01   0.00
  65   1     0.04  -0.00  -0.01     0.03  -0.03  -0.06     0.01   0.02   0.00
  66   1     0.03   0.01  -0.01     0.00   0.02   0.01     0.01   0.02  -0.01
  67   1     0.02   0.02   0.00    -0.01   0.04   0.04    -0.00   0.01  -0.02
  68   1    -0.01  -0.03   0.02     0.02  -0.06   0.02     0.00  -0.03   0.02
  69   1    -0.01  -0.02  -0.00     0.02  -0.06   0.01     0.02  -0.06   0.04
  70   1    -0.02   0.01   0.05    -0.01  -0.00   0.11     0.03   0.01  -0.03
  71   1    -0.00  -0.01   0.10     0.01  -0.01  -0.01     0.05   0.00   0.01
  72   1     0.02  -0.03  -0.02     0.03   0.01  -0.16     0.04  -0.02   0.06
  73   1     0.01  -0.04  -0.09     0.02  -0.00  -0.06     0.03  -0.03   0.03
  74   1    -0.06   0.01   0.12     0.01   0.01  -0.06    -0.02   0.01   0.06
  75   1     0.05   0.01  -0.02    -0.02  -0.01   0.01     0.00   0.01  -0.02
                     22                     23                     24
                        a                      a                      a 
 Frequencies --   194.1797               204.1151               212.1228
 Red. masses --    11.9769                11.1083                10.6437
 Frc consts  --     0.0000                 0.0000                 0.0000
 IR Inten    --    17.2028                 6.1716                 0.5173
 Raman Activ --     0.0000                 0.0000                 0.0000
 Depolar     --     0.0000                 0.0000                 0.0000
 Atom AN      X      Y      Z        X      Y      Z        X      Y      Z
   1   6     0.05   0.03  -0.00    -0.03  -0.06   0.05    -0.03   0.12  -0.21
   2   6     0.07   0.02   0.01    -0.05  -0.02   0.00     0.01  -0.03   0.01
   3   6     0.08  -0.02   0.00    -0.06   0.04  -0.06     0.04  -0.18   0.21
   4   6     0.05  -0.04  -0.02    -0.04   0.03  -0.01     0.01  -0.10   0.07
   5   6     0.03  -0.03  -0.01    -0.02  -0.02   0.05    -0.02   0.05  -0.14
   6   6     0.03  -0.02  -0.13     0.04  -0.02  -0.11    -0.02   0.10  -0.41
   7   6     0.02  -0.03  -0.01     0.05  -0.06  -0.12    -0.02   0.07  -0.12
   8   6     0.02  -0.04   0.01     0.13  -0.14   0.04     0.06   0.05   0.07
   9   6     0.02  -0.04   0.03     0.16  -0.12   0.16     0.09   0.06   0.18
  10   6    -0.00  -0.03  -0.01     0.01  -0.07  -0.01     0.02   0.11   0.01
  11   6    -0.03  -0.04  -0.04    -0.12  -0.08  -0.19    -0.03   0.14  -0.14
  12   6    -0.01  -0.06   0.00    -0.01  -0.20   0.02     0.06   0.07   0.08
  13   7     0.01  -0.07   0.03     0.11  -0.25   0.12     0.10   0.05   0.16
  14   6     0.02  -0.02   0.09     0.03  -0.04  -0.20    -0.05   0.02   0.09
  15   6     0.01  -0.01   0.08    -0.03  -0.03   0.02    -0.04   0.01   0.03
  16   6    -0.01   0.01  -0.00     0.04   0.08   0.01    -0.07  -0.03   0.01
  17   7     0.01   0.07  -0.43     0.04   0.14  -0.07    -0.08  -0.02   0.00
  18   6    -0.01   0.04  -0.21     0.03   0.12  -0.02    -0.07   0.00  -0.05
  19   6    -0.01   0.04  -0.06     0.07   0.04   0.03    -0.06  -0.06   0.01
  20   6     0.06   0.07   0.03     0.05  -0.05   0.08    -0.04  -0.10   0.07
  21   6     0.03   0.12   0.13     0.07  -0.11   0.03    -0.03  -0.13   0.09
  22   6    -0.05   0.11   0.17     0.09  -0.06  -0.05    -0.03  -0.08  -0.00
  23   7    -0.04   0.10   0.12     0.07  -0.04  -0.11    -0.04  -0.04  -0.06
  24   6     0.00  -0.02  -0.04     0.01   0.02  -0.01    -0.02  -0.00  -0.02
  25   6     0.02  -0.09  -0.14    -0.08   0.06   0.02     0.01   0.01   0.02
  26   6     0.00  -0.06  -0.09    -0.12  -0.00   0.01     0.03   0.05   0.01
  27   6    -0.05   0.07   0.11    -0.09  -0.09  -0.05     0.04   0.03  -0.04
  28   6    -0.03   0.05   0.09    -0.02  -0.07  -0.01     0.00   0.03  -0.05
  29   6     0.01  -0.04  -0.07     0.01   0.03   0.03    -0.03   0.01  -0.01
  30   8     0.06  -0.15  -0.23    -0.02   0.10   0.12    -0.05   0.03   0.04
  31   6     0.03  -0.04  -0.07    -0.00   0.04   0.01    -0.03   0.00   0.01
  32   6    -0.02   0.06   0.08    -0.02  -0.00  -0.08     0.05  -0.02   0.02
  33   6    -0.03   0.08   0.12    -0.05  -0.03  -0.07     0.10   0.02  -0.02
  34   6     0.03  -0.04  -0.08    -0.08   0.02   0.04     0.08   0.07  -0.01
  35   6     0.04  -0.08  -0.14    -0.04   0.03   0.06     0.01   0.07  -0.02
  36   6     0.02  -0.02  -0.05     0.01   0.02  -0.01    -0.03   0.00  -0.02
  37   6    -0.08   0.03   0.19     0.15  -0.03   0.00    -0.02  -0.09   0.02
  38   6    -0.07  -0.01   0.07     0.13   0.02   0.05    -0.02  -0.08   0.05
  39   6    -0.04   0.03   0.01     0.01   0.12  -0.01    -0.05   0.01  -0.09
  40   6    -0.07   0.02   0.13    -0.04   0.09  -0.01     0.02   0.08  -0.06
  41   6    -0.08   0.03   0.11    -0.09   0.11  -0.03     0.11   0.05  -0.00
  42   6    -0.04   0.04  -0.12    -0.10   0.13  -0.01     0.11  -0.02   0.05
  43   6    -0.04   0.04  -0.13    -0.07   0.15   0.03     0.04  -0.07   0.01
  44   6    -0.05   0.02   0.06     0.01   0.12   0.02    -0.05  -0.03  -0.06
  45   7    -0.07  -0.01   0.29     0.02   0.11   0.05    -0.07  -0.04  -0.05
  46   6     0.02  -0.04   0.12    -0.04  -0.07   0.24    -0.03   0.02   0.03
  47   7     0.04  -0.04  -0.01    -0.04   0.06  -0.06     0.01  -0.17   0.17
  48   6     0.02  -0.00  -0.00    -0.02   0.02  -0.03    -0.01  -0.07   0.04
  49   1     0.01   0.02  -0.00    -0.00  -0.04   0.04    -0.02   0.09  -0.14
  50   1     0.03   0.01   0.00    -0.02  -0.01   0.00     0.00  -0.00  -0.00
  51   1     0.04  -0.01   0.00    -0.02   0.02  -0.03     0.03  -0.09   0.10
  52   1     0.01  -0.00  -0.08     0.02   0.00  -0.05    -0.01   0.03  -0.19
  53   1     0.01  -0.01   0.01     0.07  -0.03   0.09     0.04   0.01   0.09
  54   1    -0.00  -0.01  -0.00    -0.01   0.00  -0.01     0.00   0.03  -0.01
  55   1    -0.02  -0.01  -0.02    -0.08  -0.00  -0.12    -0.03   0.06  -0.10
  56   1    -0.00  -0.02   0.00    -0.01  -0.07   0.02     0.02   0.01   0.04
  57   1     0.00  -0.01   0.04     0.01  -0.02  -0.10    -0.02  -0.00   0.08
  58   1     0.04   0.02   0.01     0.00  -0.02   0.03    -0.01  -0.03   0.02
  59   1     0.02   0.05   0.05     0.02  -0.05   0.02    -0.01  -0.05   0.04
  60   1     0.01  -0.04  -0.06    -0.03   0.04   0.01     0.01  -0.00   0.02
  61   1     0.00  -0.03  -0.05    -0.05   0.01   0.01     0.01   0.02   0.01
  62   1    -0.02   0.05   0.07    -0.03  -0.05  -0.03     0.02   0.01  -0.02
  63   1    -0.01   0.03   0.05     0.00  -0.04   0.01    -0.00   0.02  -0.02
  64   1    -0.01   0.03   0.04    -0.01   0.00  -0.04     0.02  -0.02   0.02
  65   1    -0.02   0.05   0.07    -0.02  -0.02  -0.04     0.04   0.00  -0.01
  66   1     0.02  -0.02  -0.04    -0.03   0.01   0.03     0.03   0.03  -0.00
  67   1     0.02  -0.04  -0.06    -0.01   0.01   0.03    -0.00   0.04  -0.01
  68   1    -0.04  -0.00   0.08     0.06  -0.01  -0.00    -0.01  -0.02   0.00
  69   1    -0.03  -0.02   0.02     0.05   0.01   0.02    -0.00  -0.02   0.02
  70   1    -0.02   0.01   0.05    -0.01   0.01  -0.00    -0.00   0.04  -0.01
  71   1    -0.03   0.01   0.06    -0.03   0.03  -0.01     0.04   0.03   0.01
  72   1    -0.01   0.01  -0.07    -0.03   0.04  -0.00     0.04  -0.01   0.03
  73   1    -0.01   0.02  -0.06    -0.02   0.06   0.02     0.02  -0.05   0.02
  74   1     0.01  -0.02   0.06    -0.01  -0.03   0.14    -0.01   0.00   0.05
  75   1    -0.00  -0.00   0.00    -0.00   0.01  -0.02    -0.01  -0.03   0.03
                     25                     26                     27
                        a                      a                      a 
 Frequencies --   222.9909               242.7807               248.8305
 Red. masses --    11.3828                10.5930                10.4253
 Frc consts  --     0.0000                 0.0000                 0.0000
 IR Inten    --    18.3204                 5.5283                 0.8179
 Raman Activ --     0.0000                 0.0000                 0.0000
 Depolar     --     0.0000                 0.0000                 0.0000
 Atom AN      X      Y      Z        X      Y      Z        X      Y      Z
   1   6    -0.18  -0.05  -0.01    -0.04   0.01  -0.15     0.05   0.01   0.06
   2   6    -0.16  -0.06  -0.01    -0.11  -0.07   0.01     0.08   0.04  -0.00
   3   6    -0.15  -0.06  -0.02    -0.12  -0.04   0.17     0.09   0.02  -0.07
   4   6    -0.11  -0.03  -0.01    -0.06   0.09   0.11     0.05  -0.05  -0.05
   5   6    -0.06  -0.00  -0.02    -0.04   0.13  -0.08     0.03  -0.06   0.03
   6   6    -0.05   0.03  -0.10     0.03   0.10  -0.07    -0.02  -0.04   0.02
   7   6    -0.05   0.08  -0.10     0.06  -0.02   0.01    -0.04   0.01  -0.00
   8   6     0.02   0.08   0.07     0.09  -0.03  -0.07    -0.06   0.02   0.04
   9   6     0.06   0.08   0.18     0.06   0.04  -0.10    -0.04  -0.02   0.05
  10   6     0.04   0.11   0.02    -0.02   0.04  -0.01     0.00  -0.02   0.00
  11   6     0.01   0.18  -0.13    -0.04  -0.05   0.08     0.03   0.03  -0.03
  12   6     0.08   0.13   0.07    -0.04  -0.10  -0.03     0.02   0.06   0.01
  13   7     0.09   0.12   0.16     0.04  -0.10  -0.11    -0.03   0.06   0.05
  14   6    -0.04   0.07  -0.21     0.01  -0.09   0.27    -0.02   0.04  -0.12
  15   6     0.02   0.02  -0.04    -0.05  -0.03  -0.00     0.01   0.01  -0.00
  16   6     0.08  -0.00   0.04    -0.04  -0.04   0.03    -0.01   0.00  -0.02
  17   7     0.11  -0.09   0.13    -0.04  -0.03  -0.02    -0.02   0.00   0.00
  18   6     0.11  -0.10   0.06     0.01   0.01  -0.02    -0.03  -0.01   0.01
  19   6     0.09  -0.03  -0.05     0.03   0.04  -0.01    -0.03  -0.02   0.01
  20   6     0.11   0.07  -0.10     0.06   0.04   0.03    -0.05  -0.02  -0.01
  21   6     0.07   0.16  -0.09     0.07   0.03   0.01    -0.04  -0.02  -0.00
  22   6     0.03   0.10   0.02     0.10   0.03   0.00    -0.04  -0.02  -0.00
  23   7     0.03   0.09   0.13     0.12   0.04  -0.02    -0.03  -0.02  -0.00
  24   6     0.03   0.02   0.05     0.06   0.11   0.08    -0.08   0.14   0.23
  25   6    -0.01  -0.02  -0.04    -0.06   0.11   0.03    -0.03   0.11   0.21
  26   6    -0.03  -0.07  -0.05    -0.11  -0.09  -0.09     0.09  -0.10  -0.17
  27   6    -0.05  -0.03   0.06    -0.09  -0.14  -0.05     0.08  -0.08  -0.18
  28   6    -0.01  -0.01   0.08    -0.01  -0.02   0.14    -0.05   0.16   0.17
  29   6     0.04  -0.01   0.01     0.08   0.09   0.11    -0.08   0.14   0.22
  30   8     0.09  -0.08  -0.12     0.13   0.07   0.02    -0.02  -0.01  -0.00
  31   6     0.04  -0.00  -0.02     0.12  -0.01  -0.11     0.04  -0.16  -0.22
  32   6    -0.06   0.04  -0.00    -0.02   0.01  -0.16     0.08  -0.14  -0.17
  33   6    -0.12  -0.00   0.04    -0.16   0.03   0.04     0.00   0.11   0.17
  34   6    -0.08  -0.09  -0.02    -0.14  -0.01   0.10    -0.01   0.13   0.17
  35   6    -0.00  -0.09   0.00     0.03  -0.11  -0.03     0.06  -0.10  -0.20
  36   6     0.04   0.01   0.03     0.13  -0.04  -0.10     0.04  -0.16  -0.23
  37   6    -0.02   0.07  -0.03     0.10   0.02   0.01    -0.04  -0.01  -0.01
  38   6     0.01   0.02  -0.09     0.08   0.04  -0.01    -0.04  -0.02   0.00
  39   6     0.12  -0.11   0.04     0.01  -0.01  -0.01    -0.03   0.00   0.01
  40   6     0.05  -0.18   0.02    -0.02  -0.03  -0.01    -0.01   0.03   0.01
  41   6    -0.03  -0.16   0.05    -0.05  -0.03   0.03     0.03   0.02  -0.02
  42   6    -0.04  -0.08  -0.00    -0.04  -0.03  -0.01     0.03   0.00   0.00
  43   6     0.04  -0.01  -0.07    -0.01  -0.01  -0.04     0.00  -0.02   0.03
  44   6     0.10  -0.04   0.01     0.00  -0.02   0.00    -0.03  -0.01  -0.00
  45   7     0.13  -0.01  -0.00    -0.03  -0.05   0.06    -0.02   0.01  -0.05
  46   6    -0.01   0.01   0.10    -0.07   0.11  -0.28     0.03  -0.06   0.13
  47   7    -0.17  -0.03  -0.01     0.02   0.05   0.17     0.02  -0.03  -0.08
  48   6    -0.17  -0.03  -0.01     0.05  -0.01   0.04     0.00   0.01  -0.02
  49   1    -0.05  -0.02  -0.00    -0.01   0.02  -0.10     0.01   0.00   0.04
  50   1    -0.04  -0.01   0.00    -0.05  -0.04  -0.01     0.03   0.02   0.00
  51   1    -0.05  -0.01  -0.01    -0.06  -0.02   0.08     0.04   0.01  -0.03
  52   1    -0.02   0.00  -0.02     0.02   0.04  -0.02    -0.01  -0.02   0.00
  53   1     0.04   0.02   0.08     0.02   0.02  -0.04    -0.02  -0.01   0.02
  54   1     0.01   0.02  -0.00    -0.01   0.03   0.00     0.01  -0.02  -0.00
  55   1    -0.02   0.07  -0.10    -0.02  -0.02   0.06     0.01   0.01  -0.02
  56   1     0.03   0.04   0.04    -0.03  -0.04  -0.01     0.01   0.03   0.00
  57   1    -0.01   0.03  -0.09    -0.00  -0.04   0.16    -0.00   0.02  -0.07
  58   1     0.05   0.02  -0.03     0.02   0.01   0.01    -0.02  -0.00  -0.00
  59   1     0.03   0.07  -0.03     0.02   0.00   0.00    -0.01  -0.01   0.00
  60   1    -0.00  -0.00  -0.03    -0.03   0.06  -0.00    -0.01   0.03   0.08
  61   1    -0.01  -0.03  -0.04    -0.05  -0.05  -0.07     0.05  -0.08  -0.12
  62   1    -0.02  -0.01   0.03    -0.03  -0.08  -0.04     0.05  -0.07  -0.13
  63   1     0.00  -0.01   0.04     0.01  -0.03   0.07    -0.02   0.06   0.06
  64   1    -0.02   0.03  -0.01    -0.01   0.03  -0.08     0.03  -0.06  -0.05
  65   1    -0.05   0.01   0.02    -0.07   0.03   0.04    -0.02   0.08   0.13
  66   1    -0.03  -0.04  -0.01    -0.07   0.01   0.08    -0.02   0.09   0.12
  67   1     0.01  -0.05   0.00     0.02  -0.06   0.01     0.02  -0.03  -0.07
  68   1    -0.02   0.02  -0.00     0.03   0.00   0.01    -0.01  -0.00  -0.01
  69   1    -0.01  -0.01  -0.04     0.03   0.02  -0.00    -0.01  -0.00   0.00
  70   1     0.02  -0.07  -0.01    -0.00  -0.02  -0.01    -0.00   0.02   0.01
  71   1    -0.02  -0.06   0.03    -0.02  -0.01   0.02     0.01   0.01  -0.02
  72   1    -0.03  -0.02  -0.00    -0.01  -0.01  -0.00     0.01  -0.00  -0.00
  73   1     0.01   0.02  -0.04    -0.00   0.01  -0.02     0.00  -0.02   0.01
  74   1    -0.00  -0.01   0.08    -0.04   0.05  -0.14     0.01  -0.02   0.07
  75   1    -0.04  -0.01  -0.01     0.04  -0.01   0.02    -0.02   0.01  -0.01
                     28                     29                     30
                        a                      a                      a 
 Frequencies --   260.3565               262.7215               270.7933
 Red. masses --    11.8437                11.3015                11.4424
 Frc consts  --     0.0000                 0.0000                 0.0000
 IR Inten    --     0.3342                 0.3388                 1.0245
 Raman Activ --     0.0000                 0.0000                 0.0000
 Depolar     --     0.0000                 0.0000                 0.0000
 Atom AN      X      Y      Z        X      Y      Z        X      Y      Z
   1   6    -0.09  -0.03  -0.03     0.14   0.00  -0.02     0.15   0.06   0.01
   2   6    -0.10  -0.04  -0.01     0.02   0.02   0.01     0.15   0.07   0.01
   3   6    -0.10  -0.02   0.03    -0.01   0.11   0.07     0.14   0.03   0.01
   4   6    -0.05   0.02   0.03     0.02   0.14   0.09     0.08   0.00  -0.03
   5   6    -0.02   0.03  -0.02    -0.01   0.09   0.02     0.01   0.01  -0.04
   6   6     0.04  -0.01   0.10    -0.08   0.12  -0.26    -0.07   0.00   0.09
   7   6     0.06  -0.03  -0.02    -0.10   0.01  -0.04    -0.09   0.03  -0.05
   8   6     0.11  -0.06  -0.06    -0.14  -0.03   0.05    -0.13   0.01   0.05
   9   6     0.10  -0.01  -0.03    -0.11  -0.17   0.04    -0.10  -0.08   0.06
  10   6     0.01   0.01   0.00    -0.03  -0.19  -0.02    -0.01  -0.10   0.00
  11   6    -0.05  -0.06  -0.00    -0.01  -0.13  -0.06     0.02  -0.02  -0.06
  12   6    -0.02  -0.12  -0.02    -0.04  -0.03   0.01     0.00   0.05   0.02
  13   7     0.07  -0.14  -0.05    -0.13  -0.03   0.07    -0.09   0.06   0.08
  14   6     0.06   0.00  -0.00    -0.08   0.02   0.07    -0.08   0.04  -0.27
  15   6     0.02   0.03  -0.00    -0.02   0.02  -0.04    -0.05  -0.00  -0.06
  16   6     0.06   0.07   0.12     0.01   0.04  -0.16    -0.10  -0.07   0.15
  17   7     0.06   0.06   0.27     0.02  -0.01  -0.03    -0.12  -0.05   0.24
  18   6     0.02   0.02   0.01     0.01  -0.05   0.07    -0.07   0.01  -0.01
  19   6     0.05  -0.13  -0.13     0.03  -0.07  -0.01    -0.04  -0.04  -0.06
  20   6     0.08  -0.13  -0.10     0.04  -0.03  -0.05     0.03  -0.03   0.01
  21   6     0.08  -0.10  -0.00     0.02   0.04  -0.10     0.06  -0.07   0.07
  22   6    -0.03  -0.08   0.01     0.01   0.01  -0.04     0.09  -0.04   0.01
  23   7    -0.11   0.06   0.13     0.00   0.05   0.08     0.08   0.05   0.02
  24   6    -0.10   0.07   0.14     0.00   0.05   0.06     0.09   0.09  -0.00
  25   6    -0.01   0.01   0.08    -0.00   0.02   0.01    -0.04   0.09  -0.05
  26   6     0.09  -0.07  -0.14     0.00  -0.05  -0.06    -0.12  -0.04  -0.07
  27   6     0.04   0.04  -0.05    -0.01  -0.01   0.01    -0.10  -0.07   0.02
  28   6    -0.06   0.14   0.10    -0.00   0.02   0.07     0.01  -0.03   0.09
  29   6    -0.09   0.03   0.05     0.02   0.02   0.02     0.11   0.05  -0.00
  30   8    -0.04  -0.21  -0.29     0.08  -0.09  -0.15     0.18   0.01  -0.12
  31   6    -0.09  -0.02   0.02     0.02   0.03   0.04     0.08   0.09   0.03
  32   6    -0.00   0.03   0.14    -0.03   0.06   0.06    -0.04   0.12   0.02
  33   6     0.10   0.03   0.02    -0.03  -0.02  -0.02    -0.08  -0.01  -0.06
  34   6     0.12  -0.01  -0.14    -0.00  -0.07  -0.07    -0.05  -0.08  -0.06
  35   6    -0.02   0.08  -0.03    -0.00  -0.00   0.05     0.02  -0.00   0.09
  36   6    -0.11   0.05   0.08     0.01   0.05   0.09     0.07   0.08   0.08
  37   6    -0.05  -0.13  -0.01    -0.01  -0.02  -0.05     0.05  -0.08  -0.00
  38   6    -0.01  -0.16  -0.07     0.01  -0.05  -0.05     0.03  -0.06  -0.04
  39   6    -0.02   0.07  -0.02    -0.01  -0.04   0.20    -0.11   0.03  -0.15
  40   6     0.02   0.12   0.00    -0.00  -0.04   0.17    -0.04   0.10  -0.12
  41   6     0.03   0.12   0.02     0.05  -0.02  -0.19     0.03   0.06   0.13
  42   6     0.03   0.13   0.01     0.03  -0.01  -0.06     0.06  -0.02   0.04
  43   6    -0.00   0.10   0.00    -0.02  -0.02   0.23     0.01  -0.07  -0.16
  44   6    -0.01   0.09   0.01    -0.00  -0.01   0.07    -0.12  -0.04  -0.05
  45   7     0.02   0.12   0.03     0.04   0.05  -0.31    -0.16  -0.07   0.17
  46   6     0.02   0.06  -0.17    -0.04   0.05   0.12    -0.03  -0.01  -0.06
  47   7    -0.07   0.02   0.04     0.15   0.14   0.07     0.13  -0.01  -0.02
  48   6    -0.06  -0.01   0.01     0.18   0.06   0.00     0.12   0.00   0.02
  49   1    -0.02  -0.01  -0.02     0.05  -0.02  -0.02     0.04   0.02   0.01
  50   1    -0.03  -0.01  -0.00    -0.01  -0.02  -0.01     0.04   0.02   0.00
  51   1    -0.04  -0.01   0.01    -0.02   0.04   0.02     0.06   0.00   0.01
  52   1     0.02   0.00   0.07    -0.02   0.04  -0.14    -0.03  -0.01   0.08
  53   1     0.04   0.01  -0.01    -0.05  -0.07   0.01    -0.04  -0.04   0.03
  54   1    -0.00   0.02   0.01    -0.00  -0.07  -0.01     0.00  -0.05  -0.00
  55   1    -0.03  -0.02   0.01     0.01  -0.04  -0.04     0.02  -0.00  -0.04
  56   1    -0.02  -0.05  -0.00     0.01   0.01   0.00     0.02   0.03   0.01
  57   1     0.02  -0.00   0.01    -0.03   0.01   0.06    -0.02   0.01  -0.12
  58   1     0.04  -0.04  -0.04     0.02  -0.01  -0.01     0.02  -0.01  -0.01
  59   1     0.04  -0.02   0.02     0.01   0.02  -0.04     0.01  -0.04   0.03
  60   1     0.00  -0.01   0.03    -0.00   0.01  -0.00    -0.02   0.05  -0.03
  61   1     0.05  -0.06  -0.09     0.00  -0.03  -0.04    -0.05  -0.02  -0.04
  62   1     0.02   0.01  -0.04    -0.00  -0.01  -0.00    -0.04  -0.04   0.01
  63   1    -0.03   0.06   0.02     0.00   0.00   0.03     0.02  -0.04   0.06
  64   1     0.01  -0.01   0.07    -0.01   0.03   0.02    -0.02   0.06  -0.01
  65   1     0.05   0.01   0.01    -0.01  -0.01  -0.02    -0.03  -0.01  -0.04
  66   1     0.06  -0.02  -0.09     0.00  -0.05  -0.05    -0.02  -0.06  -0.04
  67   1    -0.01   0.04  -0.02     0.00  -0.01   0.02     0.01  -0.02   0.04
  68   1    -0.02  -0.04   0.01    -0.01  -0.01  -0.01     0.00  -0.03   0.01
  69   1    -0.02  -0.07  -0.02    -0.00  -0.02  -0.02     0.01  -0.01  -0.01
  70   1     0.00   0.05   0.01    -0.00  -0.01   0.06    -0.02   0.06  -0.03
  71   1     0.01   0.03   0.02     0.03  -0.01  -0.14     0.02   0.03   0.10
  72   1     0.01   0.03   0.00     0.01   0.00  -0.06     0.03  -0.02   0.04
  73   1     0.00   0.02  -0.00    -0.01  -0.01   0.09     0.01  -0.05  -0.07
  74   1     0.01   0.02  -0.09    -0.03   0.01   0.07    -0.02  -0.00  -0.00
  75   1    -0.00  -0.00   0.00     0.07   0.02  -0.00     0.02  -0.00   0.02
                     31                     32                     33
                        a                      a                      a 
 Frequencies --   274.7609               291.7282               331.5587
 Red. masses --    11.4109                11.1856                11.0792
 Frc consts  --     0.0000                 0.0000                 0.0000
 IR Inten    --    14.8347                 1.1698                 2.7836
 Raman Activ --     0.0000                 0.0000                 0.0000
 Depolar     --     0.0000                 0.0000                 0.0000
 Atom AN      X      Y      Z        X      Y      Z        X      Y      Z
   1   6    -0.08   0.01   0.04    -0.01  -0.00  -0.00     0.06   0.02  -0.01
   2   6     0.04   0.00  -0.01    -0.01  -0.00  -0.00     0.04   0.02   0.00
   3   6     0.07  -0.10  -0.09    -0.01  -0.00   0.00     0.04   0.01   0.03
   4   6     0.02  -0.16  -0.09    -0.01   0.01   0.00     0.01   0.01  -0.02
   5   6     0.02  -0.12   0.04    -0.00   0.01  -0.01    -0.01  -0.00  -0.03
   6   6     0.09  -0.11   0.09    -0.00   0.00   0.04    -0.03  -0.01   0.03
   7   6     0.09  -0.02   0.09    -0.00   0.00  -0.02    -0.03  -0.00  -0.01
   8   6     0.13   0.04  -0.04     0.01  -0.02  -0.01    -0.01   0.01  -0.00
   9   6     0.09   0.17  -0.05     0.02  -0.03   0.01    -0.01   0.03   0.01
  10   6     0.02   0.19   0.01     0.00  -0.03   0.00    -0.01   0.04  -0.00
  11   6     0.02   0.14   0.09    -0.02  -0.04  -0.02     0.01   0.05   0.01
  12   6     0.03   0.05  -0.01    -0.01  -0.04   0.00     0.02   0.04   0.02
  13   7     0.12   0.05  -0.08     0.00  -0.04   0.00     0.01   0.05  -0.00
  14   6     0.06  -0.06   0.10     0.02   0.03  -0.05    -0.09  -0.07  -0.05
  15   6    -0.01  -0.04   0.08     0.02   0.04   0.01    -0.08  -0.09   0.01
  16   6    -0.07  -0.04  -0.10     0.02   0.03   0.06    -0.04  -0.06   0.05
  17   7    -0.10  -0.00  -0.04     0.01  -0.02   0.24    -0.06  -0.04   0.15
  18   6    -0.08   0.02  -0.00    -0.01  -0.04  -0.03     0.03   0.08  -0.10
  19   6    -0.05  -0.01  -0.02     0.03  -0.16  -0.18    -0.05   0.27  -0.30
  20   6    -0.02  -0.01   0.01     0.16  -0.07  -0.10    -0.03   0.10  -0.11
  21   6    -0.00  -0.02  -0.01     0.10   0.08   0.06     0.08  -0.15   0.18
  22   6     0.06  -0.02  -0.02    -0.03   0.07   0.13     0.09  -0.17   0.22
  23   7     0.06   0.03   0.01    -0.03   0.12   0.16     0.01  -0.03  -0.01
  24   6     0.07   0.08   0.02     0.05  -0.05  -0.12     0.03   0.00  -0.03
  25   6    -0.02   0.08  -0.02     0.04  -0.09  -0.18    -0.04   0.02  -0.02
  26   6    -0.07  -0.04  -0.06    -0.06   0.08   0.11    -0.06   0.00  -0.02
  27   6    -0.07  -0.06   0.01    -0.05   0.06   0.11    -0.06  -0.00  -0.02
  28   6     0.01  -0.01   0.09     0.05  -0.12  -0.16    -0.02   0.01   0.00
  29   6     0.09   0.05   0.01     0.05  -0.05  -0.10     0.01   0.01  -0.02
  30   8     0.16  -0.01  -0.12    -0.01   0.18   0.25    -0.10   0.03  -0.02
  31   6     0.07   0.07   0.04     0.06  -0.04  -0.09    -0.10  -0.02  -0.04
  32   6    -0.03   0.10   0.03     0.05  -0.08  -0.17    -0.00  -0.01   0.03
  33   6    -0.07  -0.02  -0.05    -0.05   0.07   0.10     0.08   0.06  -0.02
  34   6    -0.04  -0.08  -0.05    -0.05   0.06   0.12     0.06   0.09  -0.05
  35   6     0.02  -0.01   0.09     0.07  -0.11  -0.15    -0.04   0.09  -0.07
  36   6     0.06   0.06   0.08     0.07  -0.06  -0.11    -0.10  -0.02  -0.06
  37   6     0.04  -0.05  -0.01    -0.14  -0.07   0.09     0.16  -0.16   0.29
  38   6     0.02  -0.01  -0.03    -0.08  -0.18  -0.12     0.02   0.18  -0.14
  39   6    -0.15   0.04   0.11    -0.11   0.02   0.04     0.14  -0.01   0.07
  40   6    -0.10   0.10   0.16    -0.04   0.11   0.13     0.01  -0.13   0.14
  41   6     0.04   0.10  -0.16     0.07   0.11  -0.04    -0.10  -0.10  -0.04
  42   6     0.04   0.02  -0.06     0.07   0.07  -0.05    -0.10  -0.05  -0.09
  43   6    -0.08  -0.07   0.21    -0.03  -0.01   0.11    -0.00   0.03   0.11
  44   6    -0.13  -0.02   0.03    -0.11   0.02   0.03     0.14  -0.01   0.07
  45   7    -0.14  -0.01  -0.26    -0.06   0.08  -0.13     0.10  -0.06  -0.12
  46   6     0.02  -0.11   0.12     0.02   0.03  -0.04    -0.08  -0.06  -0.04
  47   7    -0.11  -0.15  -0.10    -0.01   0.01   0.00     0.04   0.00  -0.01
  48   6    -0.15  -0.05  -0.02    -0.01   0.00   0.00     0.05  -0.01   0.02
  49   1    -0.03   0.02   0.03    -0.00  -0.00  -0.00     0.02   0.01  -0.01
  50   1     0.03   0.02   0.01    -0.00  -0.00  -0.00     0.01   0.00  -0.00
  51   1     0.04  -0.03  -0.03    -0.01  -0.00   0.00     0.02  -0.01   0.01
  52   1     0.02  -0.03   0.01     0.00   0.00   0.03    -0.01  -0.01   0.02
  53   1     0.04   0.07  -0.02     0.01  -0.01   0.01     0.00   0.01   0.01
  54   1     0.00   0.07   0.00     0.00  -0.01   0.00    -0.00   0.01  -0.00
  55   1    -0.00   0.04   0.05    -0.01  -0.01  -0.01     0.01   0.02   0.00
  56   1    -0.01  -0.00  -0.01    -0.00  -0.01   0.00     0.01   0.01   0.01
  57   1     0.02  -0.03   0.00     0.01   0.01  -0.02    -0.02  -0.03  -0.03
  58   1    -0.00  -0.01   0.01     0.10  -0.03  -0.03    -0.02   0.02  -0.02
  59   1    -0.01  -0.02  -0.01     0.06   0.05   0.03     0.03  -0.07   0.09
  60   1    -0.02   0.04  -0.02     0.01  -0.03  -0.07    -0.02   0.02  -0.00
  61   1    -0.03  -0.02  -0.04    -0.04   0.06   0.08    -0.02   0.00  -0.01
  62   1    -0.03  -0.03   0.00    -0.03   0.05   0.08    -0.02  -0.00  -0.00
  63   1     0.01  -0.02   0.05     0.02  -0.05  -0.05    -0.00  -0.00   0.02
  64   1    -0.02   0.05  -0.00     0.02  -0.03  -0.07     0.00  -0.02   0.04
  65   1    -0.03  -0.02  -0.04    -0.03   0.05   0.08     0.04   0.02   0.00
  66   1    -0.01  -0.05  -0.04    -0.03   0.05   0.09     0.03   0.04  -0.02
  67   1     0.01  -0.02   0.04     0.03  -0.05  -0.05    -0.02   0.05  -0.02
  68   1     0.01  -0.02   0.01    -0.08  -0.03   0.05     0.08  -0.09   0.14
  69   1     0.01   0.01  -0.01    -0.05  -0.08  -0.05     0.01   0.07  -0.06
  70   1    -0.04   0.05   0.08    -0.02   0.06   0.06     0.01  -0.08   0.05
  71   1     0.04   0.04  -0.11     0.03   0.04  -0.04    -0.04  -0.04  -0.04
  72   1     0.04   0.00  -0.05     0.04   0.02  -0.04    -0.04  -0.00  -0.07
  73   1    -0.02  -0.04   0.09    -0.01  -0.03   0.04    -0.01   0.05   0.04
  74   1     0.02  -0.04   0.03     0.01   0.01  -0.02    -0.04  -0.01  -0.02
  75   1    -0.07  -0.01  -0.01    -0.00  -0.00   0.00     0.01  -0.01   0.02
                     34                     35                     36
                        a                      a                      a 
 Frequencies --   362.2550               364.0007               370.0476
 Red. masses --    10.9657                 9.9928                10.7979
 Frc consts  --     0.0000                 0.0000                 0.0000
 IR Inten    --     6.2393                 3.2788                 9.3025
 Raman Activ --     0.0000                 0.0000                 0.0000
 Depolar     --     0.0000                 0.0000                 0.0000
 Atom AN      X      Y      Z        X      Y      Z        X      Y      Z
   1   6     0.14   0.02   0.03     0.03  -0.02   0.01     0.01  -0.03   0.06
   2   6     0.08   0.11  -0.08     0.01  -0.15   0.22    -0.00   0.08  -0.10
   3   6     0.09  -0.02   0.11    -0.07   0.26  -0.27     0.02  -0.06   0.06
   4   6     0.01   0.01  -0.02     0.01  -0.03   0.18     0.01  -0.04   0.02
   5   6    -0.05  -0.04   0.01     0.04  -0.17   0.09    -0.01   0.00   0.06
   6   6    -0.12  -0.03   0.08     0.03  -0.14  -0.11    -0.06   0.02   0.07
   7   6    -0.12  -0.01  -0.03    -0.01  -0.02  -0.09    -0.06   0.04  -0.05
   8   6     0.03   0.01  -0.09    -0.05   0.03  -0.05     0.00   0.00  -0.11
   9   6     0.10   0.05   0.14     0.02   0.01   0.15     0.15  -0.08   0.25
  10   6    -0.05   0.14  -0.11    -0.04   0.07  -0.09    -0.08   0.04  -0.23
  11   6     0.00   0.10   0.03     0.03   0.08  -0.00    -0.01  -0.05   0.01
  12   6     0.09  -0.00   0.15     0.08   0.03   0.14     0.09  -0.12   0.25
  13   7     0.03   0.07  -0.19    -0.05   0.10  -0.11    -0.09   0.01  -0.31
  14   6    -0.27  -0.16   0.02    -0.03  -0.06   0.09    -0.02   0.07   0.07
  15   6    -0.21  -0.18   0.03    -0.01  -0.05  -0.08     0.03   0.07   0.04
  16   6    -0.05  -0.05   0.03     0.01  -0.02  -0.02     0.04   0.08  -0.01
  17   7    -0.04   0.01  -0.02    -0.00   0.01   0.03     0.04   0.05  -0.05
  18   6     0.04   0.05   0.00    -0.00   0.01   0.03    -0.05  -0.04   0.01
  19   6     0.13  -0.07   0.06     0.00  -0.00  -0.01    -0.11  -0.02  -0.01
  20   6     0.16  -0.03   0.05     0.00   0.01  -0.02    -0.15  -0.05  -0.01
[...]
  70   1    -0.04  -0.01  -0.01     0.01   0.00   0.00    -0.14  -0.03  -0.03
  71   1    -0.01   0.02  -0.00     0.00  -0.00   0.00    -0.04   0.05  -0.01
  72   1     0.01   0.02   0.00    -0.00  -0.01  -0.00     0.02   0.05   0.01
  73   1     0.03   0.01   0.00    -0.01  -0.00  -0.00     0.07   0.01   0.01
  74   1     0.00  -0.00  -0.00    -0.01  -0.02  -0.00    -0.00  -0.01  -0.00
  75   1     0.00   0.00   0.00    -0.00  -0.03  -0.02     0.00   0.00   0.00
                    211                    212                    213
                        a                      a                      a 
 Frequencies --  3101.6160              3103.4541              3103.9507
 Red. masses --     1.8316                 1.8191                 1.8116
 Frc consts  --     0.0000                 0.0000                 0.0000
 IR Inten    --    44.2587                31.2124                16.1085
 Raman Activ --     0.0000                 0.0000                 0.0000
 Depolar     --     0.0000                 0.0000                 0.0000
 Atom AN      X      Y      Z        X      Y      Z        X      Y      Z
   1   6     0.00   0.00   0.00    -0.00  -0.00  -0.00    -0.00  -0.00  -0.00
   2   6     0.00  -0.00  -0.00    -0.00   0.00   0.00    -0.00   0.00   0.00
   3   6    -0.00  -0.00  -0.00     0.00   0.00   0.00     0.00   0.00   0.00
   4   6     0.00   0.00  -0.00     0.00  -0.00  -0.00    -0.00  -0.00  -0.00
   5   6    -0.00  -0.00  -0.00     0.00   0.00   0.00     0.00   0.00   0.00
   6   6    -0.01   0.01   0.00     0.00  -0.00  -0.00     0.00  -0.00  -0.00
   7   6    -0.00  -0.01  -0.00     0.00   0.00   0.00     0.00   0.00   0.00
   8   6     0.00   0.01   0.00    -0.00  -0.00  -0.00    -0.00  -0.00  -0.00
   9   6    -0.12   0.11   0.08     0.00  -0.00  -0.00     0.00  -0.00  -0.00
  10   6    -0.04  -0.02   0.01     0.00   0.00  -0.00     0.00   0.00  -0.00
  11   6    -0.00  -0.04  -0.01     0.00   0.00   0.00     0.00   0.00   0.00
  12   6     0.01  -0.00  -0.00    -0.00   0.00   0.00    -0.00   0.00   0.00
  13   7    -0.00  -0.00  -0.00    -0.00   0.00   0.00     0.00   0.00  -0.00
  14   6    -0.19  -0.04  -0.02     0.00   0.00   0.00     0.00   0.00   0.00
  15   6    -0.01   0.00   0.00     0.00  -0.00  -0.00     0.00  -0.00  -0.00
  16   6    -0.00   0.00  -0.00     0.00   0.00   0.00     0.00   0.00   0.00
  17   7     0.00   0.00   0.00     0.00  -0.00  -0.00     0.00  -0.00  -0.00
  18   6    -0.00  -0.00  -0.00    -0.00   0.00   0.00    -0.00   0.00   0.00
  19   6    -0.00   0.00   0.00    -0.00   0.00   0.00     0.00  -0.00  -0.00
  20   6     0.00   0.01   0.00    -0.00  -0.00  -0.00    -0.00  -0.00  -0.00
  21   6    -0.00   0.00   0.00    -0.00   0.00   0.00    -0.00   0.00   0.00
  22   6     0.00  -0.00  -0.00    -0.00   0.00  -0.00    -0.00  -0.00   0.00
  23   7     0.00  -0.00  -0.00    -0.00  -0.00  -0.00    -0.00  -0.00   0.00
  24   6     0.00   0.00   0.00    -0.00  -0.00   0.00     0.00   0.00   0.00
  25   6     0.00   0.00  -0.00    -0.01  -0.00   0.00     0.07   0.03  -0.00
  26   6     0.00   0.00  -0.00     0.00   0.01  -0.00    -0.01  -0.08   0.05
  27   6     0.00  -0.00   0.00    -0.01   0.01  -0.01     0.13  -0.07   0.08
  28   6    -0.00  -0.00   0.00     0.01   0.01  -0.00    -0.15  -0.07   0.01
  29   6    -0.00  -0.00   0.00     0.00   0.00  -0.00    -0.00  -0.00   0.00
  30   8     0.00   0.00   0.00     0.00   0.00   0.00     0.00   0.00  -0.00
  31   6    -0.00   0.00  -0.00    -0.01  -0.00  -0.00    -0.00   0.00  -0.00
  32   6    -0.00  -0.00   0.00    -0.13  -0.05  -0.00    -0.01  -0.00  -0.00
  33   6     0.00   0.00  -0.00     0.04   0.16  -0.09     0.00   0.01  -0.01
  34   6    -0.00   0.00  -0.00    -0.08   0.05  -0.06    -0.01   0.00  -0.00
  35   6     0.00   0.00   0.00     0.08   0.03   0.01     0.01   0.00   0.00
  36   6     0.00   0.00  -0.00     0.00   0.00  -0.00     0.00   0.00  -0.00
  37   6     0.00   0.00   0.00    -0.00  -0.00  -0.00    -0.00  -0.00  -0.00
  38   6    -0.01   0.00   0.00    -0.00   0.00   0.00    -0.00   0.00   0.00
  39   6     0.00   0.00  -0.00     0.00  -0.00   0.00     0.00  -0.00  -0.00
  40   6    -0.00  -0.00  -0.00     0.00   0.00   0.00     0.00   0.00   0.00
  41   6    -0.00   0.00  -0.00     0.00  -0.00   0.00    -0.00   0.00  -0.00
  42   6     0.00   0.00   0.00    -0.00  -0.00  -0.00     0.00   0.00   0.00
  43   6     0.00   0.00   0.00    -0.00  -0.00  -0.00     0.00   0.00   0.00
  44   6    -0.00   0.00   0.00     0.00  -0.00  -0.00     0.00  -0.00   0.00
  45   7     0.00  -0.00  -0.00    -0.00  -0.00   0.00    -0.00  -0.00  -0.00
  46   6     0.00  -0.00  -0.00    -0.00  -0.00  -0.00    -0.00   0.00   0.00
  47   7    -0.00   0.00   0.00    -0.00   0.00   0.00    -0.00  -0.00   0.00
  48   6     0.00   0.00   0.00    -0.00  -0.00  -0.00     0.00  -0.00  -0.00
  49   1    -0.01  -0.00  -0.00     0.00   0.00   0.00     0.00   0.00   0.00
  50   1    -0.00   0.00   0.00     0.00  -0.00  -0.00     0.00  -0.00  -0.00
  51   1     0.00   0.00   0.00    -0.00  -0.00  -0.00    -0.00  -0.00  -0.00
  52   1     0.03  -0.04  -0.00    -0.00   0.00   0.00    -0.00   0.00   0.00
  53   1     0.42  -0.38  -0.27    -0.00   0.00   0.00    -0.00   0.00   0.00
  54   1     0.12   0.05  -0.04    -0.00  -0.00   0.00    -0.00  -0.00   0.00
  55   1     0.02   0.12   0.02    -0.00  -0.00  -0.00    -0.00  -0.00  -0.00
  56   1    -0.02   0.01   0.01     0.00  -0.00  -0.00     0.00  -0.00  -0.00
  57   1     0.68   0.14   0.06    -0.01  -0.00  -0.00    -0.01  -0.00  -0.00
  58   1    -0.00  -0.02  -0.02     0.00   0.00   0.00     0.00   0.00   0.00
  59   1     0.01  -0.00  -0.00     0.00  -0.00  -0.00     0.01  -0.00  -0.00
  60   1    -0.00  -0.00   0.00     0.02   0.01  -0.00    -0.26  -0.12   0.01
  61   1    -0.00  -0.00   0.00    -0.00  -0.03   0.02     0.05   0.28  -0.18
  62   1    -0.01   0.00  -0.00     0.04  -0.02   0.02    -0.46   0.26  -0.29
  63   1     0.01   0.00  -0.00    -0.05  -0.02   0.00     0.55   0.25  -0.02
  64   1     0.00   0.00   0.00     0.48   0.18   0.02     0.03   0.01   0.00
  65   1    -0.00  -0.00   0.00    -0.14  -0.55   0.31    -0.01  -0.05   0.03
  66   1     0.00  -0.00   0.00     0.28  -0.18   0.20     0.02  -0.01   0.02
  67   1    -0.00  -0.00  -0.00    -0.28  -0.12  -0.01    -0.03  -0.01  -0.00
  68   1    -0.00  -0.01  -0.01     0.00   0.01   0.00     0.00   0.00   0.00
  69   1     0.03  -0.01  -0.02     0.01  -0.00  -0.00     0.00  -0.00  -0.00
  70   1     0.01   0.00   0.00    -0.00  -0.00  -0.00    -0.00  -0.00  -0.00
  71   1     0.00  -0.00   0.00    -0.00   0.00  -0.00     0.00  -0.00   0.00
  72   1    -0.00  -0.00  -0.00     0.00   0.00   0.00    -0.00  -0.00  -0.00
  73   1    -0.01  -0.00  -0.00     0.00   0.00   0.00    -0.00  -0.00  -0.00
  74   1     0.00   0.01   0.00     0.00   0.00   0.00    -0.00  -0.00  -0.00
  75   1    -0.00  -0.00  -0.00     0.00   0.00   0.00     0.00   0.00   0.00
                    214                    215                    216
                        a                      a                      a 
 Frequencies --  3107.6223              3110.4198              3111.7686
 Red. masses --     1.8204                 1.8263                 1.8563
 Frc consts  --     0.0000                 0.0000                 0.0000
 IR Inten    --    21.3547                 9.6416                75.0117
 Raman Activ --     0.0000                 0.0000                 0.0000
 Depolar     --     0.0000                 0.0000                 0.0000
 Atom AN      X      Y      Z        X      Y      Z        X      Y      Z
   1   6     0.00   0.00   0.00     0.00  -0.00  -0.00     0.00   0.00   0.00
   2   6     0.01  -0.01  -0.01     0.00  -0.00  -0.00     0.00  -0.00  -0.00
   3   6    -0.02  -0.05  -0.04    -0.00  -0.00  -0.00    -0.00  -0.00  -0.00
   4   6    -0.00  -0.00  -0.00     0.00   0.00   0.00    -0.00   0.00   0.00
   5   6     0.01   0.00   0.00     0.01   0.00   0.00     0.00   0.00   0.00
   6   6     0.18  -0.19  -0.01     0.02  -0.02  -0.00     0.00  -0.00  -0.00
   7   6     0.00  -0.01  -0.00     0.00  -0.00  -0.00    -0.00  -0.00   0.00
   8   6     0.00  -0.00  -0.00     0.00  -0.00  -0.00     0.00   0.00   0.00
   9   6    -0.00   0.00   0.00    -0.00   0.00   0.00    -0.00   0.00   0.00
  10   6    -0.00  -0.00   0.00    -0.00  -0.00   0.00     0.00   0.00  -0.00
  11   6    -0.00  -0.00  -0.00    -0.00  -0.00  -0.00    -0.00  -0.00  -0.00
  12   6    -0.00   0.00   0.00     0.00  -0.00  -0.00     0.00  -0.00  -0.00
  13   7    -0.00   0.00  -0.00    -0.00   0.00   0.00    -0.00  -0.00  -0.00
  14   6    -0.02  -0.00  -0.00    -0.00  -0.00  -0.00    -0.00  -0.00  -0.00
  15   6     0.00  -0.00  -0.00    -0.00   0.01   0.00    -0.00   0.00   0.00
  16   6    -0.00   0.00   0.00    -0.00   0.00   0.00     0.00  -0.00   0.00
  17   7     0.00  -0.00  -0.00     0.00  -0.00   0.00     0.00   0.00   0.00
  18   6    -0.00   0.00   0.00    -0.00   0.00   0.00     0.00  -0.00   0.00
  19   6     0.00   0.00  -0.00     0.00   0.00  -0.00    -0.00   0.00   0.00
  20   6    -0.00   0.00   0.00     0.00   0.00   0.00     0.00   0.00   0.00
  21   6    -0.00   0.00   0.00    -0.00   0.00   0.00     0.00  -0.00  -0.00
  22   6    -0.00  -0.00  -0.00    -0.00  -0.00   0.00     0.00   0.00  -0.00
  23   7    -0.00  -0.00  -0.00     0.00  -0.00  -0.00    -0.00  -0.00  -0.00
  24   6     0.00  -0.00   0.00     0.00  -0.00   0.00    -0.00   0.00  -0.00
  25   6    -0.00  -0.00   0.00     0.00   0.00  -0.00    -0.17  -0.07   0.01
  26   6     0.00   0.00  -0.00     0.00   0.00  -0.00    -0.00  -0.02   0.02
  27   6    -0.00  -0.00  -0.00    -0.00   0.00  -0.00    -0.07   0.04  -0.05
  28   6     0.00   0.00  -0.00    -0.00  -0.00   0.00    -0.15  -0.07   0.01
  29   6    -0.00  -0.00   0.00    -0.00  -0.00   0.00     0.00  -0.00   0.00
  30   8     0.00   0.00  -0.00    -0.00  -0.00   0.00    -0.00   0.00  -0.00
  31   6    -0.00   0.00  -0.00    -0.00   0.00  -0.00     0.00  -0.00   0.00
  32   6     0.00   0.00   0.00    -0.00  -0.00  -0.00     0.05   0.02   0.00
  33   6    -0.00  -0.00   0.00    -0.00  -0.00   0.00     0.00   0.02  -0.01
  34   6     0.00  -0.00   0.00     0.00  -0.00   0.00     0.01  -0.01   0.01
  35   6    -0.00  -0.00  -0.00     0.00   0.00   0.00     0.05   0.02   0.00
  36   6    -0.00   0.00  -0.00     0.00   0.00  -0.00     0.00   0.00  -0.00
  37   6     0.00  -0.00  -0.00    -0.00  -0.00  -0.00     0.00   0.00  -0.00
  38   6     0.00  -0.00  -0.00     0.00  -0.00  -0.00    -0.00   0.00   0.00
  39   6     0.00   0.00   0.00    -0.00  -0.00  -0.00    -0.00   0.00   0.00
  40   6     0.00  -0.00   0.00    -0.00  -0.00  -0.00    -0.00  -0.00  -0.00
  41   6     0.00  -0.00   0.00    -0.00   0.00  -0.00    -0.00   0.00  -0.00
  42   6    -0.00  -0.00  -0.00     0.00   0.00   0.00    -0.00  -0.00  -0.00
  43   6    -0.00  -0.00  -0.00     0.00  -0.00   0.00    -0.00  -0.00  -0.00
  44   6    -0.00   0.00   0.00     0.00   0.00   0.00     0.00  -0.00   0.00
  45   7     0.00  -0.00   0.00    -0.00  -0.00  -0.00    -0.00  -0.00  -0.00
  46   6    -0.01  -0.02  -0.00     0.07   0.26   0.04     0.00   0.00   0.00
  47   7    -0.00  -0.00  -0.00     0.00  -0.00  -0.00     0.00  -0.00  -0.00
  48   6     0.00   0.00   0.00    -0.00  -0.00  -0.00     0.00   0.00   0.00
  49   1    -0.02  -0.01  -0.00     0.00  -0.00   0.00    -0.00  -0.00  -0.00
  50   1    -0.02   0.02   0.01    -0.00   0.00   0.00    -0.00   0.00   0.00
  51   1     0.06   0.19   0.12     0.00   0.00   0.00     0.00   0.00   0.00
  52   1    -0.63   0.68   0.05    -0.06   0.07   0.01    -0.00   0.00   0.00
  53   1     0.00  -0.00  -0.00     0.00  -0.00  -0.00     0.00  -0.00  -0.00
  54   1     0.00   0.00  -0.00     0.00   0.00  -0.00    -0.00  -0.00   0.00
  55   1     0.00   0.00   0.00     0.00   0.00   0.00     0.00   0.00   0.00
  56   1     0.00  -0.00  -0.00    -0.00   0.00   0.00    -0.00   0.00   0.00
  57   1     0.06   0.01   0.00     0.02   0.00   0.00     0.00   0.00   0.00
  58   1    -0.00  -0.00  -0.00    -0.00  -0.00  -0.00    -0.00  -0.00  -0.00
  59   1     0.00  -0.00  -0.00     0.00  -0.00  -0.00    -0.01   0.01   0.01
  60   1     0.00   0.00  -0.00    -0.01  -0.00   0.00     0.59   0.26  -0.03
  61   1    -0.00  -0.00   0.00    -0.00  -0.00   0.00     0.02   0.08  -0.05
  62   1     0.00  -0.00   0.00     0.00  -0.00   0.00     0.24  -0.14   0.16
  63   1    -0.00  -0.00   0.00     0.00   0.00  -0.00     0.52   0.24  -0.02
  64   1    -0.00  -0.00  -0.00     0.01   0.00   0.00    -0.17  -0.06  -0.01
  65   1     0.00   0.00  -0.00     0.00   0.00  -0.00    -0.02  -0.07   0.04
  66   1    -0.00   0.00  -0.00    -0.00   0.00  -0.00    -0.02   0.01  -0.02
  67   1     0.00   0.00   0.00    -0.00  -0.00  -0.00    -0.17  -0.07  -0.01
  68   1     0.00   0.00   0.00     0.00   0.00   0.00    -0.00  -0.00  -0.00
  69   1    -0.00   0.00   0.00    -0.01   0.00   0.00     0.00  -0.00  -0.00
  70   1    -0.00  -0.00  -0.00     0.00   0.00   0.00     0.00   0.00   0.00
  71   1    -0.00   0.00  -0.00     0.00  -0.00   0.00     0.00  -0.00   0.00
  72   1     0.00   0.00   0.00    -0.00  -0.00  -0.00     0.00   0.00   0.00
  73   1     0.00   0.00   0.00    -0.00   0.00  -0.00     0.00   0.00   0.00
  74   1     0.03   0.09   0.01    -0.27  -0.91  -0.13    -0.00  -0.00  -0.00
  75   1    -0.00  -0.00  -0.00     0.00   0.00   0.00    -0.00  -0.00  -0.00
                    217                    218                    219
                        a                      a                      a 
 Frequencies --  3112.3275              3115.2868              3115.5852
 Red. masses --     1.8552                 1.9040                 1.9041
 Frc consts  --     0.0000                 0.0000                 0.0000
 IR Inten    --   296.2662                57.6389                76.4974
 Raman Activ --     0.0000                 0.0000                 0.0000
 Depolar     --     0.0000                 0.0000                 0.0000
 Atom AN      X      Y      Z        X      Y      Z        X      Y      Z
   1   6     0.00   0.00   0.00    -0.00  -0.00  -0.00     0.00   0.00   0.00
   2   6     0.00  -0.00  -0.00    -0.00   0.00   0.00     0.00  -0.00  -0.00
   3   6    -0.00  -0.00  -0.00     0.00   0.00   0.00    -0.00  -0.00  -0.00
   4   6    -0.00  -0.00  -0.00    -0.00  -0.00  -0.00    -0.00   0.00   0.00
   5   6    -0.00  -0.00  -0.00    -0.00  -0.00  -0.00    -0.00  -0.00  -0.00
   6   6    -0.00   0.00   0.00    -0.00   0.00   0.00     0.00  -0.00   0.00
   7   6    -0.00   0.00  -0.00     0.00   0.00  -0.00     0.00   0.00   0.00
   8   6     0.00   0.00   0.00    -0.00  -0.00   0.00    -0.00  -0.00  -0.00
   9   6    -0.00   0.00   0.00     0.00  -0.00  -0.00    -0.00   0.00   0.00
  10   6    -0.00  -0.00   0.00     0.00   0.00  -0.00    -0.00  -0.00   0.00
  11   6     0.00   0.00   0.00     0.00   0.00   0.00    -0.00  -0.00  -0.00
  12   6    -0.00   0.00   0.00    -0.00   0.00   0.00     0.00  -0.00  -0.00
  13   7     0.00  -0.00  -0.00     0.00   0.00  -0.00    -0.00   0.00   0.00
  14   6    -0.00  -0.00  -0.00     0.00   0.00   0.00     0.00   0.00   0.00
  15   6     0.00  -0.00  -0.00     0.00  -0.00  -0.00     0.00  -0.00  -0.00
  16   6     0.00  -0.00   0.00    -0.00  -0.00  -0.00     0.00  -0.00   0.00
  17   7     0.00   0.00   0.00    -0.00   0.00   0.00     0.00   0.00  -0.00
  18   6     0.00  -0.00  -0.00     0.00   0.00  -0.00    -0.00  -0.00  -0.00
  19   6    -0.00  -0.00  -0.00     0.00  -0.00  -0.00     0.00   0.00   0.00
  20   6    -0.00  -0.00  -0.00    -0.00  -0.00  -0.00     0.00   0.00   0.00
  21   6     0.00  -0.00  -0.00    -0.00   0.00   0.00    -0.00   0.00   0.00
  22   6     0.00   0.00   0.00     0.00  -0.00   0.00    -0.00  -0.00  -0.00
  23   7    -0.00  -0.00   0.00    -0.00  -0.00   0.00     0.00   0.00   0.00
  24   6    -0.00   0.00  -0.00     0.00  -0.00   0.00     0.00  -0.00   0.00
  25   6    -0.05  -0.02   0.00     0.10   0.04  -0.00     0.12   0.05  -0.01
  26   6    -0.00  -0.01   0.00     0.01   0.06  -0.04     0.02   0.08  -0.05
  27   6    -0.02   0.01  -0.01    -0.07   0.04  -0.05    -0.09   0.05  -0.05
  28   6    -0.05  -0.02   0.00    -0.07  -0.04   0.00    -0.09  -0.04   0.00
  29   6     0.00  -0.00   0.00    -0.00  -0.00   0.00    -0.00  -0.00   0.00
  30   8    -0.00  -0.00   0.00    -0.00   0.00  -0.00    -0.00   0.00  -0.00
  31   6    -0.00   0.00  -0.00     0.00  -0.00   0.00    -0.00   0.00  -0.00
  32   6    -0.17  -0.06  -0.01     0.10   0.04   0.00    -0.09  -0.03  -0.00
  33   6    -0.01  -0.07   0.04     0.02   0.09  -0.05    -0.02  -0.07   0.04
  34   6    -0.02   0.02  -0.02    -0.06   0.04  -0.05     0.05  -0.03   0.04
  35   6    -0.16  -0.07  -0.01    -0.12  -0.05  -0.01     0.10   0.04   0.00
  36   6    -0.00  -0.00   0.00    -0.00  -0.00   0.00     0.00   0.00  -0.00
  37   6     0.00   0.00   0.00    -0.00   0.00   0.00    -0.00  -0.00  -0.00
  38   6     0.00  -0.00  -0.00     0.00  -0.00  -0.00     0.00  -0.00  -0.00
  39   6    -0.00   0.00   0.00     0.00  -0.00  -0.00    -0.00   0.00   0.00
  40   6    -0.00  -0.00  -0.00     0.00  -0.00   0.00    -0.00  -0.00  -0.00
  41   6     0.00  -0.00   0.00     0.00  -0.00   0.00    -0.00   0.00  -0.00
  42   6     0.00  -0.00   0.00    -0.00  -0.00  -0.00     0.00   0.00   0.00
  43   6     0.00   0.00  -0.00     0.00  -0.00   0.00     0.00   0.00   0.00
  44   6     0.00  -0.00   0.00    -0.00  -0.00  -0.00     0.00   0.00   0.00
  45   7    -0.00  -0.00  -0.00     0.00   0.00   0.00    -0.00  -0.00  -0.00
  46   6    -0.00  -0.00  -0.00    -0.00  -0.00  -0.00    -0.00  -0.00  -0.00
  47   7     0.00   0.00  -0.00    -0.00   0.00   0.00     0.00  -0.00  -0.00
  48   6    -0.00   0.00   0.00    -0.00  -0.00  -0.00    -0.00   0.00   0.00
  49   1    -0.00  -0.00  -0.00     0.00   0.00   0.00    -0.00  -0.00  -0.00
  50   1    -0.00   0.00   0.00     0.00  -0.00  -0.00    -0.00   0.00   0.00
  51   1     0.00   0.00   0.00    -0.00  -0.00  -0.00     0.00   0.00   0.00
  52   1     0.00  -0.00  -0.00     0.00  -0.00  -0.00    -0.00   0.00   0.00
  53   1     0.00  -0.00  -0.00    -0.00   0.00   0.00     0.00  -0.00  -0.00
  54   1     0.00   0.00  -0.00     0.00  -0.00  -0.00     0.00   0.00  -0.00
  55   1    -0.00  -0.00  -0.00    -0.00  -0.00  -0.00     0.00   0.00   0.00
  56   1     0.00  -0.00  -0.00     0.00  -0.00  -0.00    -0.00   0.00   0.00
  57   1     0.00   0.00   0.00    -0.00  -0.00  -0.00    -0.00  -0.00  -0.00
  58   1     0.00   0.00   0.00     0.00   0.00   0.00    -0.00  -0.01  -0.00
  59   1    -0.01   0.00   0.00     0.00  -0.00  -0.00     0.01  -0.01  -0.01
  60   1     0.17   0.08  -0.01    -0.34  -0.15   0.02    -0.41  -0.18   0.02
  61   1     0.00   0.02  -0.02    -0.04  -0.21   0.13    -0.05  -0.24   0.15
  62   1     0.07  -0.04   0.04     0.24  -0.14   0.16     0.29  -0.16   0.18
  63   1     0.16   0.07  -0.01     0.25   0.12  -0.01     0.30   0.14  -0.01
  64   1     0.58   0.22   0.02    -0.34  -0.13  -0.01     0.29   0.11   0.01
  65   1     0.05   0.22  -0.13    -0.07  -0.28   0.16     0.06   0.24  -0.13
  66   1     0.08  -0.05   0.06     0.20  -0.13   0.15    -0.17   0.11  -0.12
  67   1     0.57   0.24   0.03     0.43   0.18   0.02    -0.36  -0.15  -0.02
  68   1    -0.00  -0.01  -0.01    -0.00  -0.00  -0.00     0.00   0.01   0.01
  69   1    -0.00   0.00   0.00    -0.00   0.00   0.00    -0.00   0.00   0.00
  70   1     0.00   0.00   0.00     0.00   0.00   0.00     0.01   0.00   0.00
  71   1    -0.00   0.00  -0.00    -0.00   0.00  -0.00     0.00  -0.00   0.00
  72   1     0.00  -0.00  -0.00     0.00   0.00   0.00    -0.00  -0.01  -0.00
  73   1    -0.00  -0.00  -0.00    -0.00   0.00  -0.00    -0.00  -0.00  -0.00
  74   1     0.00   0.00   0.00     0.00   0.00   0.00     0.00   0.01   0.00
  75   1    -0.00  -0.00  -0.00     0.00   0.00   0.00    -0.00  -0.00  -0.00
