52
 energy: -79.229091719421 gnorm: 0.000074998815 xtb: 6.7.1 (edcfbbe)
O           -1.33818942257583       -0.03482473847274        2.14647916492781
C           -2.51566873083998       -0.80241903463966        2.01858855970341
C           -3.42528280382213       -0.36257427147049        0.89540067627662
C           -4.80068910600134       -0.36557102905851        1.07303474551081
C           -5.64995134731482        0.03997493225559        0.05824221955154
C           -5.12344435464238        0.46802749822606       -1.14907849137834
C           -3.75453964018071        0.48380685486143       -1.33650106312032
C           -2.89060349897623        0.06292694758097       -0.32766719142126
C           -1.43490823965143        0.07224045484612       -0.52698980672372
C           -0.72929031409990        1.31244481542932       -0.59582476238149
C           -1.39270449707719        2.53937093781342       -0.61200255280641
C           -0.68748930607008        3.74476988230444       -0.63203111660195
C            0.68782496340467        3.73579223408988       -0.60361381538951
C            1.37615295624141        2.52211964832611       -0.55529062707632
C            0.69682253251803        1.30410547304949       -0.56728238284106
C            1.38930032133831        0.05851829537051       -0.48006674676723
C            2.85142561983895        0.04207154490199       -0.32693428462947
C            3.66312585933851        0.42253866925036       -1.39370817686678
C            5.03985009749573        0.39857896683353       -1.28191121963735
C            5.62427205647323        0.00320088846862       -0.09076171811332
C            4.82536484401432       -0.35886383989918        0.97961448572587
C            3.44119330228229       -0.35001431459501        0.88088565274650
C            2.59832762500951       -0.73109002568035        2.08040453091775
O            1.65519477072853        0.24854775962358        2.44880576938572
C            0.68406384012915       -1.17996277920116       -0.55319265181063
C            1.35366193209436       -2.40324067076438       -0.61705330636027
C            0.65079031047537       -3.60632409156648       -0.70188098354442
C           -0.72501709283029       -3.59837368032128       -0.74086679981394
C           -1.41733602778279       -2.38629112012728       -0.69190559437611
C           -0.73836376731997       -1.17302521007686       -0.58760198205260
H           -1.57685655967660        0.88422631101498        2.31261887719811
H           -3.07673126900427       -0.80032769596884        2.96369095112583
H           -2.16771308996085       -1.82490757801241        1.83244005326768
H           -5.21071212575678       -0.68916114278744        2.01950999066486
H           -6.71848873658745        0.02773846256613        0.21208411362492
H           -5.77976216836838        0.78873657593460       -1.94454565660222
H           -3.33720263248326        0.80342163804760       -2.28050515233372
H           -2.47240581582520        2.56147218933178       -0.60456670415033
H           -1.23159600828680        4.67731631424834       -0.65625018004964
H            1.24299373075564        4.66180463872773       -0.60411655510048
H            2.45334035489516        2.52712162384043       -0.49423121955896
H            3.19701574244753        0.72079783330630       -2.32214690918747
H            5.65464046209196        0.68831690603019       -2.12143974595359
H            6.69954262991966       -0.01536776109442        0.00754932529591
H            5.28430295724347       -0.65182150090167        1.91323450706629
H            3.25975719733470       -0.85357489775375        2.94485497072172
H            2.10638511323713       -1.69561411979089        1.89138659832257
H            0.81593854217142        0.09226933683849        1.99725777497560
H            2.43369701285414       -2.41709493759760       -0.60618438593721
H            1.19536195918039       -4.53804498465885       -0.74060490226358
H           -1.27762234186754       -4.52349997689833       -0.81189733574579
H           -2.49650673552945       -2.38793062277831       -0.74456787278826
