$hessian                                                                        
        0.8550635112  -0.4906544132   0.1678441513  -0.7911301604   0.4440428939
       -0.1523533507  -0.0892730113   0.0362542617  -0.0115459059   0.0478345489
        0.0034520969  -0.0018676633  -0.0254988392   0.0033832599  -0.0021626268
        0.0064648811   0.0021283761  -0.0020345283   0.0026505028   0.0001854757
       -0.0001293551   0.0002299539   0.0008600446   0.0003838198   0.0009888234
       -0.0009459931  -0.0008766559  -0.0006447704  -0.0001689378   0.0001311590
       -0.0005139429  -0.0003769348  -0.0000416902  -0.0029099866   0.0017050148
        0.0027933784  -0.0000646046  -0.0041602185  -0.0020696542  -0.0020171558
        0.0020234309   0.0015444575  -0.0020947506  -0.0034899477  -0.0003009536
        0.0028180785   0.0026889898   0.0006182711  -0.0010937955  -0.0014634640
       -0.0013809583   0.0003833263   0.0037611618   0.0004807867   0.0076743859
        0.0087318414  -0.0014991246   0.0007177625  -0.0003063620   0.0007452165
        0.0015732643   0.0000485479   0.0005431862  -0.0001714383  -0.0006583825
       -0.0003635841   0.0004477971   0.0004245565   0.0006621974  -0.0007070602
       -0.0002309560  -0.0005177596  -0.0002582240   0.0011369928   0.0005928257
       -0.0013601322  -0.0022499190  -0.0019311648   0.0006095695   0.0032027268
        0.0015997512  -0.0014671798  -0.0017951484  -0.0013227210  -0.0010066023
        0.0023155763   0.0002644641   0.0008781460  -0.0017361078  -0.0007963235
       -0.0007413317   0.0014622992   0.0017446093   0.0015397928  -0.0022609575
        0.0000993180  -0.0142896268   0.0017122687  -0.0001376867   0.0089646325
       -0.0062369330   0.0012348415  -0.0105406977  -0.0056741467   0.0012636186
        0.0072870865   0.0033790568  -0.0007981362   0.0002671401  -0.0004780588
        0.0000435530   0.0000084084   0.0000732005  -0.0000812654  -0.0000434959
        0.0000126004  -0.0000700557   0.0000035084  -0.0000833229   0.0000153087
       -0.0000056717  -0.0000073062   0.0000324013  -0.0000322140   0.0000614137
       -0.0000790958  -0.0000524277   0.0001037950  -0.0001603291   0.0000070405
       -0.0000955739  -0.0000071274  -0.0000067499  -0.0000323452  -0.0001761085
       -0.0000392979  -0.0000008644   0.0000332578   0.0000165409   0.0000689021
       -0.0000766857   0.0000008801   0.0000035321  -0.0000281198  -0.0000175554
       -0.0000639909   0.0000783855  -0.0000002894  -0.0001129388   0.0000884026
       -0.0000636304   0.0000021551   0.0000076038  -0.0003849387   0.0000587517
       -0.0000363349
       -0.4906544132   0.3027980368  -0.0985457951   0.4433623969  -0.2930890200
        0.0909802437   0.0622667729  -0.0032216148   0.0044105074  -0.0268417082
       -0.0040729635   0.0026460866   0.0160390655  -0.0013559231   0.0010526604
       -0.0035248990  -0.0014293375   0.0008563971  -0.0016111043  -0.0001597504
        0.0001165954   0.0000132534  -0.0004784479  -0.0003802754  -0.0006536181
        0.0005260000   0.0005123719   0.0004826533   0.0000443687  -0.0001528254
        0.0002437860   0.0003662253   0.0001096941   0.0017688134  -0.0011313096
       -0.0017234006  -0.0000230097   0.0025786387   0.0012944285   0.0012435934
       -0.0012689387  -0.0009734467   0.0012562752   0.0021500943   0.0002033472
       -0.0017092535  -0.0016155217  -0.0003618758   0.0006699653   0.0009065708
        0.0008611584  -0.0001319174  -0.0022375225  -0.0002292976  -0.0042842522
       -0.0053168557   0.0010571407  -0.0005138056   0.0002747843  -0.0006084908
       -0.0009378691  -0.0000311311  -0.0003027093   0.0000416507   0.0004186058
        0.0002081738  -0.0002412610  -0.0002906938  -0.0003878597   0.0003721276
        0.0001178678   0.0002746958   0.0001719762  -0.0006050061  -0.0003164874
        0.0008194523   0.0012958683   0.0011321419  -0.0003461361  -0.0018698800
       -0.0009288358   0.0008558686   0.0010520632   0.0007744851   0.0005921040
       -0.0013584272  -0.0001491253  -0.0005063856   0.0010149203   0.0004763008
        0.0004044573  -0.0008682368  -0.0010327523  -0.0008617718   0.0013669426
       -0.0000657071   0.0083768094   0.0001035134  -0.0001650130  -0.0081978488
        0.0035706654  -0.0009947746   0.0049165245   0.0033560539  -0.0007262600
       -0.0033797774  -0.0021749923   0.0005892850   0.0003952858   0.0003853301
        0.0000678275   0.0000466136  -0.0000721937   0.0001463385   0.0000314683
        0.0000307589   0.0000775616  -0.0000139331   0.0000496380   0.0000027669
       -0.0000086902   0.0000052440  -0.0000122094   0.0000279925  -0.0000346812
        0.0000530076   0.0000292108  -0.0000623350   0.0000984150  -0.0000102914
        0.0000604214   0.0000051544  -0.0000102585   0.0000244939   0.0000937849
        0.0000197127   0.0000127847  -0.0000144177  -0.0000071209  -0.0000371408
        0.0000445041   0.0000000943  -0.0000027722   0.0000202760   0.0000065367
        0.0000410960  -0.0000459418   0.0000000149   0.0000678064  -0.0000529151
        0.0000432763   0.0000028282  -0.0000003705  -0.0000284266   0.0001630746
        0.0000054364
        0.1678441513  -0.0985457951   0.0478738017  -0.1530671715   0.0915134632
       -0.0567396810  -0.0189952839   0.0058877086   0.0078058101   0.0069460653
        0.0013345299   0.0006825614  -0.0046120178   0.0007197374  -0.0011459496
        0.0015702381   0.0005352785  -0.0006481939   0.0003936983   0.0000438609
       -0.0001269191   0.0001287830   0.0002025684   0.0000767846   0.0001485377
       -0.0002358690  -0.0001099793  -0.0000702019  -0.0000596190  -0.0000046679
       -0.0000440895   0.0000047798   0.0000750511  -0.0005527367   0.0001476308
        0.0004000252   0.0000547893  -0.0004911571  -0.0002808093  -0.0003603019
        0.0002537987   0.0002178850  -0.0003358223  -0.0005094631  -0.0000345831
        0.0003681248   0.0002685108  -0.0000746758   0.0002507448  -0.0000093238
        0.0000864443  -0.0002644573   0.0003921881   0.0003069387   0.0015751731
        0.0005894024   0.0004093545  -0.0002923268   0.0000373365  -0.0004697574
        0.0002284383  -0.0000390713   0.0000673493  -0.0001731238  -0.0000109681
       -0.0000501805   0.0000949107  -0.0000949478   0.0001146411  -0.0002240051
       -0.0001144955  -0.0002111006   0.0000569155   0.0003309664   0.0002272871
       -0.0001185559  -0.0004516638  -0.0002746599   0.0000828486   0.0004623381
        0.0002298344  -0.0001384871  -0.0002375021  -0.0001355474  -0.0000671917
        0.0002431129   0.0000389999   0.0000107131  -0.0001155238  -0.0000409487
       -0.0000506399   0.0000556337   0.0001788339   0.0003766687  -0.0000184747
        0.0000115341  -0.0026007212   0.0002108391   0.0007667397   0.0023614737
       -0.0019427663   0.0007420394  -0.0011847813  -0.0008856801  -0.0005387991
        0.0008256253   0.0006076352   0.0002776653  -0.0002117531  -0.0000559280
        0.0003614314   0.0000345013   0.0000339414  -0.0000597624  -0.0000008763
        0.0000169592  -0.0000104595  -0.0000157166  -0.0000074343  -0.0000239000
       -0.0000097285  -0.0000003524   0.0000021120  -0.0000285617   0.0000100866
       -0.0000180370  -0.0000228425  -0.0000176532   0.0000039415   0.0000151880
       -0.0000195657  -0.0000087793   0.0000038552   0.0000216048  -0.0000672830
       -0.0000069387   0.0000131796   0.0000117895   0.0000085436   0.0000095924
       -0.0000170733   0.0000025297  -0.0000027251   0.0000045695  -0.0000121541
       -0.0000122792   0.0000136090   0.0000081535  -0.0000062602  -0.0000051441
       -0.0000066286  -0.0000022566   0.0000013383   0.0000764445  -0.0000599080
        0.0001085192
       -0.7911301604   0.4433623969  -0.1530671715   1.0576268423  -0.5483513133
        0.1992218145  -0.1710570705   0.1018671432  -0.0432608387  -0.1249532852
        0.0038179129  -0.0026246517   0.0419619962  -0.0119349680   0.0051165865
       -0.0127595420  -0.0029732095   0.0037015899  -0.0043429809   0.0002259864
        0.0003481520  -0.0004024167  -0.0015618451  -0.0006967023  -0.0016688086
        0.0016932889   0.0015473568   0.0011677243   0.0002641667  -0.0002485179
        0.0009246861   0.0007438277   0.0001564882   0.0049321981  -0.0031073436
       -0.0049049349  -0.0001585857   0.0072688124   0.0037571549   0.0035337134
       -0.0036982849  -0.0028013290   0.0035659393   0.0061504716   0.0005878642
       -0.0049939549  -0.0047466276  -0.0012091528   0.0022467155   0.0027776234
        0.0027241650  -0.0006818119  -0.0070219416  -0.0009471681  -0.0121394289
       -0.0129315100   0.0023599714  -0.0012941109   0.0004529663  -0.0018081052
       -0.0026532379  -0.0002379747  -0.0009059098   0.0002026722   0.0012634356
        0.0006585964  -0.0006238005  -0.0009198107  -0.0011496051   0.0009525180
        0.0003232075   0.0006981291   0.0005200027  -0.0015872623  -0.0008274362
        0.0023355793   0.0036195206   0.0032463032  -0.0010770634  -0.0053222537
       -0.0026811730   0.0024955017   0.0030532178   0.0022641456   0.0016861641
       -0.0040214984  -0.0004813646  -0.0014670460   0.0031353968   0.0015530226
        0.0012546413  -0.0026783186  -0.0031993495  -0.0023939511   0.0040249562
       -0.0001102272   0.0238501278  -0.0016846595   0.0001813764  -0.0201337820
        0.0250594089  -0.0074743661   0.0141990129   0.0068644659  -0.0014346784
       -0.0105992932  -0.0049564728   0.0011411798   0.0004974412   0.0015545125
       -0.0001942044  -0.0001114294  -0.0000599045   0.0001979333   0.0000706037
       -0.0000428049   0.0001072795  -0.0000208714   0.0001397956  -0.0000503829
        0.0000048427   0.0000090958  -0.0000592717   0.0000309637  -0.0000929640
        0.0001351219   0.0000916308  -0.0002126976   0.0003055581  -0.0000005800
        0.0001431506   0.0000020544  -0.0000366462   0.0000449059   0.0002343021
        0.0000572791   0.0000155932  -0.0000519890  -0.0000315111  -0.0001261046
        0.0001337382   0.0000102229  -0.0000086345   0.0000529391   0.0000245679
        0.0001087653  -0.0001246419   0.0000031573   0.0002191827  -0.0001641467
        0.0001079108   0.0000160345  -0.0000137490   0.0003767138   0.0000591626
        0.0000582447
        0.4440428939  -0.2930890200   0.0915134632  -0.5483513133   0.4170642626
       -0.1266425050   0.0580647214  -0.1149758279   0.0302751177   0.0475341609
        0.0112808613  -0.0046041682  -0.0301057259   0.0051621388  -0.0013943059
        0.0051472176   0.0023493558  -0.0013747301   0.0026072368   0.0003316865
       -0.0000152797   0.0001151842   0.0007338329   0.0004674671   0.0010341680
       -0.0008754787  -0.0008823208  -0.0006805938  -0.0001494484   0.0001362700
       -0.0005069389  -0.0003667357  -0.0000894772  -0.0028948790   0.0017163198
        0.0028662614  -0.0002373411  -0.0042412573  -0.0020229293  -0.0019301374
        0.0020162080   0.0015272728  -0.0020716157  -0.0035122058  -0.0003126124
        0.0029678704   0.0027378250   0.0007016174  -0.0014340837  -0.0015264901
       -0.0015633426   0.0004008036   0.0036586975   0.0001806334   0.0077564839
        0.0079152696  -0.0018077047   0.0007796153  -0.0002695787   0.0012428745
        0.0014643278   0.0001585496   0.0005367567  -0.0000059200  -0.0007913548
       -0.0004175808   0.0003278795   0.0006119180   0.0006270346  -0.0004781258
       -0.0001499471  -0.0003393836  -0.0003503114   0.0008790933   0.0004391686
       -0.0012992247  -0.0020301667  -0.0017970483   0.0007308678   0.0029354431
        0.0015113025  -0.0014821675  -0.0017725113  -0.0013483539  -0.0009577455
        0.0022886322   0.0002821970   0.0008748482  -0.0017892909  -0.0009043751
       -0.0007969341   0.0017285917   0.0019252958   0.0012489576  -0.0025375504
        0.0000207607  -0.0160469949  -0.0047235158   0.0014889156   0.0364335696
       -0.0271601539   0.0107499928  -0.0067952670  -0.0052988307   0.0011268235
        0.0056676187   0.0033540908  -0.0008507433  -0.0016298588  -0.0005542549
       -0.0008774896  -0.0000121343   0.0000715582  -0.0001834459  -0.0000361625
       -0.0000158459  -0.0000901314   0.0000246492  -0.0000982242   0.0000286155
       -0.0000105244  -0.0000082451   0.0000290276  -0.0000383425   0.0000519863
       -0.0000702943  -0.0000585587   0.0001355948  -0.0001836449  -0.0000016799
       -0.0000783758   0.0000050123   0.0000216169  -0.0000277736  -0.0000726063
       -0.0000342920  -0.0000215022   0.0000195998   0.0000170830   0.0000519854
       -0.0000719774   0.0000105013   0.0000028355  -0.0000365161   0.0000041527
       -0.0000641420   0.0000693881   0.0000044477  -0.0001257026   0.0001078675
       -0.0000672111  -0.0000030212   0.0000035301   0.0010332080  -0.0009802848
        0.0000707009
       -0.1523533507   0.0909802437  -0.0567396810   0.1992218145  -0.1266425050
        0.1001138738  -0.0309538712   0.0271205255  -0.0478088281  -0.0134137510
       -0.0015573412   0.0023865123   0.0091158157  -0.0009282428   0.0059817378
       -0.0035964476  -0.0012967759   0.0015306450  -0.0006940935  -0.0000912937
        0.0002711179  -0.0002122031  -0.0003835343  -0.0001462997  -0.0002456354
        0.0004533949   0.0001702179   0.0000227674   0.0001724206   0.0000661290
        0.0000435283  -0.0001855871  -0.0002597969   0.0009810378   0.0000488197
       -0.0005114295  -0.0001716994   0.0004580694   0.0003615523   0.0006525934
       -0.0002558949  -0.0002735815   0.0005858210   0.0007290870   0.0000629869
       -0.0004684466  -0.0002770366   0.0003193382  -0.0009810392  -0.0003467424
       -0.0004408055   0.0008818560  -0.0003044494  -0.0010725597  -0.0029646530
       -0.0003266216  -0.0014940174   0.0005653007  -0.0000625634   0.0013110596
       -0.0002345286  -0.0001561331  -0.0001131232   0.0003947916  -0.0000503560
        0.0001071236  -0.0001119454   0.0002930020  -0.0001692469   0.0004184408
        0.0002629031   0.0004357299  -0.0001903170  -0.0006566423  -0.0004586477
       -0.0000301994   0.0007429706   0.0003162629  -0.0002179393  -0.0004864205
       -0.0002856910   0.0001268825   0.0002810049   0.0001349651  -0.0000486799
       -0.0001556658  -0.0000476183   0.0003061053  -0.0000994052  -0.0000317417
       -0.0002322501   0.0001607348  -0.0000968783  -0.0003857556  -0.0003359746
        0.0000224715   0.0053370106   0.0010257684  -0.0013983675  -0.0117242033
        0.0116674061  -0.0003948528   0.0014829413   0.0011598524   0.0012844682
       -0.0012941695  -0.0007469739  -0.0005427337   0.0008240535  -0.0004922769
       -0.0024246496  -0.0000193010  -0.0000669105   0.0001093760   0.0000156813
       -0.0000049970   0.0000204107   0.0000293421  -0.0000001606   0.0000683054
        0.0000054102   0.0000012582   0.0000018366   0.0000637526  -0.0000115261
        0.0000209073   0.0000436116   0.0000812774  -0.0000520910  -0.0000521960
        0.0000481265   0.0000176897  -0.0000271361  -0.0000739451   0.0001090012
        0.0000032486  -0.0000216688  -0.0000237696  -0.0000160778  -0.0000226035
        0.0000311426   0.0000110366   0.0000197198  -0.0000275634   0.0000365527
        0.0000198030  -0.0000284681  -0.0000058758  -0.0000088533   0.0000382879
        0.0000108835   0.0000179298   0.0000028031  -0.0005345140   0.0003047838
       -0.0004535103
       -0.0892730113   0.0622667729  -0.0189952839  -0.1710570705   0.0580647214
       -0.0309538712   0.5927799497  -0.0138785756   0.0231953444  -0.1504290581
       -0.1232696768   0.0303509319  -0.1265950100   0.0232317591  -0.0095350259
        0.0135319173   0.0088112744  -0.0042977085   0.0041071783  -0.0001555097
        0.0005181216   0.0008956725   0.0013568884   0.0005341097   0.0019629482
       -0.0017014793  -0.0014456538  -0.0007254026  -0.0006570140  -0.0001921191
       -0.0008715398   0.0005653034   0.0005270785  -0.0053146639   0.0011794966
        0.0044717291  -0.0013022559  -0.0058880898  -0.0026841252  -0.0028503047
        0.0025354199   0.0020174706  -0.0038152520  -0.0055016291  -0.0003981026
        0.0057707107   0.0041743720   0.0005626041  -0.0019220766  -0.0014079946
       -0.0013879812  -0.0027493314   0.0058694985   0.0010719519   0.0292517787
        0.0126924500  -0.0014627152  -0.0019799130   0.0004356968   0.0001559887
        0.0010201736   0.0008051464   0.0008731957  -0.0006311160  -0.0007220463
       -0.0004252598  -0.0000791283   0.0001231598   0.0006028139  -0.0006899406
       -0.0006073638  -0.0007951558  -0.0000863553   0.0016893991   0.0010982288
       -0.0000299855  -0.0027491218  -0.0013809930   0.0015584104   0.0024453795
        0.0013890314  -0.0012213717  -0.0018719461  -0.0014089893  -0.0002318602
        0.0017003189   0.0002660746  -0.0006814873  -0.0011597489  -0.0012636572
       -0.0004792448   0.0017244532   0.0025887344   0.0017967617  -0.0019151819
        0.0005104707  -0.0539033585   0.0244093659  -0.0078171380  -0.0187702157
       -0.0211398234   0.0055934087  -0.0201377968  -0.0364926621   0.0116831853
        0.0090149473   0.0082364211  -0.0023314031  -0.0017173651  -0.0048608642
        0.0007809934  -0.0001077774  -0.0003729618  -0.0006379764  -0.0000556889
        0.0000803358  -0.0000760281   0.0000396081  -0.0000670424  -0.0000193898
        0.0000253275   0.0000006484   0.0000420550  -0.0000529765   0.0000595687
       -0.0000651317  -0.0001266603   0.0001265520  -0.0003041225   0.0000800870
       -0.0002014179   0.0000445663   0.0000278686   0.0000683846  -0.0003769778
       -0.0000285957   0.0000039253   0.0000179511   0.0000476594   0.0000925736
       -0.0001620335  -0.0000146043  -0.0000215481   0.0000005509   0.0000136770
       -0.0000824300   0.0000707609   0.0000292752  -0.0001529684   0.0000889977
       -0.0001222481  -0.0000588448   0.0000103081  -0.0039012845   0.0021866550
       -0.0006498151
        0.0362542617  -0.0032216148   0.0058877086   0.1018671432  -0.1149758279
        0.0271205255  -0.0138785756   0.4791189401  -0.1235403579  -0.1014413273
       -0.1337598897   0.0287294252  -0.0117404337   0.0158568796  -0.0039991183
        0.0053327769   0.0006245351   0.0027604033  -0.0031315029  -0.0006961091
        0.0014922409  -0.0001448670  -0.0016828204  -0.0009393446  -0.0009417909
        0.0016474035   0.0015131096   0.0008170931   0.0000609589  -0.0002409361
        0.0011188750   0.0014076311   0.0003782971   0.0033765483  -0.0043386584
       -0.0044376023  -0.0008510489   0.0070625453   0.0032591430   0.0034082427
       -0.0037122674  -0.0027781200   0.0024004939   0.0053167781   0.0005646837
       -0.0027556413  -0.0046314738  -0.0020111226   0.0020832654   0.0038005738
        0.0042325994  -0.0041926213  -0.0046448554  -0.0001073471   0.0093673498
        0.0030933664  -0.0019398730  -0.0059925366   0.0012847730  -0.0037470675
       -0.0043600006  -0.0002527274  -0.0011356247  -0.0006078995   0.0022654235
        0.0007827149  -0.0011060422  -0.0024491906  -0.0017633086   0.0004270610
       -0.0005306369  -0.0002150606   0.0015362588  -0.0005403120   0.0001554057
        0.0042228756   0.0036474177   0.0047340022  -0.0010250080  -0.0071428528
       -0.0037487302   0.0041810101   0.0039965331   0.0031752988   0.0032481278
       -0.0063424334  -0.0006870422  -0.0041942055   0.0056023743   0.0020954608
        0.0021425373  -0.0045234894  -0.0042256820  -0.0021249336   0.0072112902
        0.0013716419  -0.0030871210  -0.0257949861   0.0073189595   0.0212477498
       -0.1825570614   0.0432007288  -0.0250551162  -0.0271729933   0.0116423419
        0.0062364365   0.0035881667  -0.0019396340  -0.0244627702  -0.0161054900
        0.0054969842  -0.0003960964  -0.0001029246  -0.0000790151   0.0000375719
       -0.0000667906   0.0000283972  -0.0000758020   0.0001373602  -0.0001608546
       -0.0000096053   0.0000023855  -0.0000706480   0.0000030857  -0.0001657065
        0.0001395785  -0.0000418310  -0.0003178769   0.0002604864   0.0001372526
        0.0000067053   0.0000642820   0.0000016011  -0.0000503100  -0.0000517713
        0.0000878691   0.0001204356  -0.0000068788  -0.0000760974  -0.0000837433
        0.0001226137  -0.0000648437   0.0000076010   0.0000688144  -0.0000481132
        0.0001547687  -0.0001458426  -0.0000087173   0.0002949810  -0.0003571405
        0.0000608036  -0.0001270857  -0.0000625383   0.0022182578  -0.0003197000
        0.0017948135
       -0.0115459059   0.0044105074   0.0078058101  -0.0432608387   0.0302751177
       -0.0478088281   0.0231953444  -0.1235403579   0.1247588610   0.0222119851
        0.0268917557  -0.0431390150   0.0032492899  -0.0057847309   0.0025181518
        0.0002478677   0.0027367114   0.0041689000   0.0016082960   0.0002069862
       -0.0006469400   0.0000157606   0.0005213971   0.0003170755   0.0002085970
       -0.0007036288  -0.0004649182  -0.0001268904  -0.0001010348  -0.0000466162
       -0.0003969025  -0.0002604669  -0.0000098777  -0.0009739149   0.0013288186
        0.0011703669   0.0000872867  -0.0017652130  -0.0009674263  -0.0012316876
        0.0011252875   0.0008423172  -0.0007771463  -0.0017377727  -0.0001989358
        0.0009848101   0.0015504676   0.0005784224  -0.0006278546  -0.0014380690
       -0.0013242187   0.0004962852   0.0010998826   0.0009547999  -0.0020746464
       -0.0026853765  -0.0028851798   0.0009734405  -0.0003017622  -0.0000569749
        0.0012056196   0.0003195586   0.0002859943  -0.0000810861  -0.0004579435
       -0.0001457137   0.0003249172   0.0004491576   0.0006020675  -0.0003220655
        0.0000499527  -0.0000896649  -0.0003900107   0.0004075349   0.0001652240
       -0.0010592672  -0.0013340173  -0.0014722912   0.0000830611   0.0023510672
        0.0011372049  -0.0011047197  -0.0011976996  -0.0008999117  -0.0009609286
        0.0018939457   0.0001737570   0.0014221880  -0.0016856572  -0.0006054445
       -0.0010586682   0.0013670036   0.0012750288   0.0012458844  -0.0020239631
       -0.0000340235   0.0003470394   0.0074247130   0.0003222488  -0.0055913376
        0.0431998969  -0.0527838377   0.0074460489   0.0107373914  -0.0003971201
       -0.0012250817  -0.0009899114   0.0007431995   0.0075151235   0.0053842289
       -0.0000046369   0.0001463109   0.0001235642   0.0000457132  -0.0000199668
        0.0000280834  -0.0000006409   0.0000161734  -0.0000367724   0.0000360333
        0.0000226002  -0.0000062993   0.0000458512  -0.0000187970   0.0000507008
       -0.0000178520   0.0000112709   0.0000938165  -0.0000796828  -0.0000445145
       -0.0000083577  -0.0000313877   0.0000051791   0.0001136735  -0.0000985682
       -0.0000217909  -0.0000369468   0.0000058603   0.0000382601   0.0000519049
       -0.0000871792   0.0000036987  -0.0000148076  -0.0000078867   0.0000150024
       -0.0000463540   0.0000407682   0.0000015617  -0.0001168245   0.0001170159
       -0.0000392116   0.0000162649   0.0000148712  -0.0001756690   0.0020645767
        0.0061792294
        0.0478345489  -0.0268417082   0.0069460653  -0.1249532852   0.0475341609
       -0.0134137510  -0.1504290581  -0.1014413273   0.0222119851   0.5378291218
       -0.0111215352   0.0056708975  -0.1856855797   0.0850954239  -0.0172150313
       -0.0764231358  -0.0041045707   0.0096645621  -0.0046410406   0.0042549210
       -0.0018606315  -0.0016268594  -0.0016497026  -0.0007857621  -0.0020726266
        0.0022088390   0.0014283625   0.0003240179   0.0009763310   0.0006245530
        0.0011765951  -0.0014920488  -0.0008959279   0.0057280140   0.0003886898
       -0.0037256020  -0.0001371060   0.0047904995   0.0038790209   0.0029033156
       -0.0026987729  -0.0019543473   0.0043268845   0.0057614274   0.0003926032
       -0.0067689568  -0.0045550952  -0.0002838026   0.0024801270   0.0019178975
        0.0008942060   0.0037836299  -0.0115618667  -0.0048678120  -0.0420712417
        0.0018668586  -0.0054225922   0.0071754903  -0.0025205166   0.0018117473
        0.0001727513  -0.0001985956  -0.0006421246   0.0008767065  -0.0000212686
        0.0002832960   0.0002765771   0.0007452197  -0.0002550809   0.0008885849
        0.0009240827   0.0011598210  -0.0003173763  -0.0021656673  -0.0015394187
       -0.0010991748   0.0025506965   0.0004316544  -0.0012947684  -0.0012616412
       -0.0005132359   0.0001679502   0.0010857326   0.0006886898  -0.0007133038
       -0.0001066196  -0.0000413796   0.0021654869  -0.0002626680   0.0009630537
        0.0006031934  -0.0006999667  -0.0022239175  -0.0029293164  -0.0005204384
       -0.0013768792   0.0707251730  -0.0026622802   0.0014902849  -0.0539333725
        0.0030262473  -0.0003589944   0.0239385155   0.0161482902  -0.0052943645
       -0.0143667556  -0.0084331179   0.0025623589  -0.0431425635   0.0044679910
       -0.0000280384  -0.0003630201  -0.0006905896   0.0001253121   0.0000769236
       -0.0001097452   0.0000554256  -0.0000159339   0.0000176559   0.0000438624
       -0.0000385544  -0.0000164044  -0.0000397564  -0.0001366376   0.0000226995
        0.0000834746   0.0001493568  -0.0000566088   0.0003495200  -0.0001677659
        0.0002940361  -0.0000395184  -0.0000867355  -0.0000279778   0.0004621205
        0.0000099754  -0.0000388252  -0.0000089529  -0.0000510893  -0.0000734257
        0.0001912154   0.0000261011   0.0000192059  -0.0000186029  -0.0000058616
        0.0000810499  -0.0000415462  -0.0000756370   0.0001154559  -0.0000028567
        0.0001709040   0.0001443317   0.0000030266  -0.0002631882   0.0008952406
        0.0004328082
        0.0034520969  -0.0040729635   0.0013345299   0.0038179129   0.0112808613
       -0.0015573412  -0.1232696768  -0.1337598897   0.0268917557  -0.0111215352
        0.5974382039  -0.1567065959   0.1368477360  -0.1468835226   0.0306927601
       -0.0070269827   0.0126307212  -0.0003736606  -0.0006501099  -0.0010868306
       -0.0006594422  -0.0009682237  -0.0002492116   0.0008545083  -0.0000217372
       -0.0000246939  -0.0002538942  -0.0000027477  -0.0000476164   0.0000963558
        0.0001933807  -0.0000474514   0.0001339393  -0.0002759796  -0.0000760125
       -0.0002344266  -0.0003410616   0.0003528002   0.0005970706  -0.0003154180
       -0.0003649644   0.0001078970  -0.0002184001  -0.0000186321  -0.0000261358
       -0.0003058247  -0.0003797376  -0.0003769637   0.0016538488   0.0009838864
        0.0005277525  -0.0035929935  -0.0014170130  -0.0001128563   0.0201015605
       -0.0267161677   0.0088575518   0.0012827033  -0.0064906131   0.0000048197
        0.0006776395   0.0002756876   0.0011316033  -0.0002764320  -0.0001177842
       -0.0002392972   0.0000232260  -0.0001317860  -0.0000640196  -0.0003023899
       -0.0002766743  -0.0003105237   0.0003315801   0.0006195407   0.0003222021
        0.0004829569  -0.0007235985  -0.0001220359   0.0005704730  -0.0001098716
        0.0001121936  -0.0001160931  -0.0001353032  -0.0001329158   0.0001561721
       -0.0001406404   0.0000864218  -0.0006907860   0.0003835300   0.0000722997
        0.0008076168  -0.0001961256   0.0001326600  -0.0011510315  -0.0000424706
       -0.0005608881   0.0025889861   0.0029832326  -0.0000440793  -0.0243416069
       -0.0258376298   0.0074166734   0.0015936857  -0.0047472332   0.0010490831
       -0.0017009759   0.0001167837   0.0001969534   0.0023038765  -0.2732299366
        0.0819372775  -0.0001303130  -0.0002874225  -0.0007534201   0.0000027877
       -0.0000077119  -0.0000570494   0.0000072810   0.0000021284  -0.0000353625
        0.0000395347   0.0000236078  -0.0000019985  -0.0001223304   0.0000055882
       -0.0000108296  -0.0000485396  -0.0001179224   0.0000896414   0.0000597567
       -0.0000279729   0.0000062823   0.0000697834   0.0000262280   0.0001012998
        0.0000165961   0.0000066932   0.0000180045  -0.0000049123  -0.0000080620
        0.0000316916   0.0000166404  -0.0000424848   0.0000061007  -0.0000246477
       -0.0000035747   0.0000248656  -0.0000026391   0.0000473722  -0.0000536483
        0.0000265976   0.0000064671  -0.0000181616  -0.0001010414   0.0006361931
       -0.0001286491
       -0.0018676633   0.0026460866   0.0006825614  -0.0026246517  -0.0046041682
        0.0023865123   0.0303509319   0.0287294252  -0.0431390150   0.0056708975
       -0.1567065959   0.1443960831  -0.0447435067   0.0312879792  -0.0444745351
        0.0124808914   0.0004876369  -0.0004235289   0.0007344847  -0.0011870806
       -0.0004705015   0.0000591721  -0.0002608541  -0.0008538817  -0.0002344524
       -0.0002052539  -0.0002008953   0.0002320641  -0.0004110987  -0.0000770404
        0.0000383784   0.0005994133   0.0004679634  -0.0006077597  -0.0007362820
       -0.0002642806   0.0002100787   0.0006099985   0.0000194686  -0.0003188438
       -0.0003381794  -0.0001462460  -0.0004414786  -0.0000564353   0.0000154713
        0.0000840107  -0.0002036865  -0.0008577248   0.0017948742   0.0015498223
        0.0016290755  -0.0000662023  -0.0002800109   0.0020248008  -0.0060227443
        0.0075489372  -0.0002298194   0.0001548678   0.0021694105  -0.0004330905
       -0.0004884831   0.0003478416  -0.0004053964  -0.0001876569   0.0002428170
        0.0000487944   0.0000238413  -0.0004058611  -0.0000329090  -0.0002261952
       -0.0001674602  -0.0002690910   0.0002242505   0.0002389877   0.0002754591
        0.0002763696  -0.0000495992   0.0001667337   0.0000932687  -0.0003199101
       -0.0001718232   0.0003322893   0.0002218940   0.0002517994   0.0003268656
       -0.0005243295  -0.0000618853  -0.0008621631   0.0005818505   0.0001559157
        0.0007214237  -0.0007238616  -0.0002792592  -0.0003611840   0.0008280042
        0.0000308437  -0.0014759995  -0.0000463951   0.0011442011   0.0078170980
        0.0072977020   0.0003188908  -0.0001704137   0.0015303419  -0.0014175367
        0.0001112810  -0.0001819963   0.0007718898  -0.0002338426   0.0813541945
       -0.0605598462  -0.0007487331  -0.0004789531   0.0000790181  -0.0000418475
        0.0000470312   0.0000147327  -0.0000492294   0.0000073206  -0.0000233238
        0.0000031874   0.0000512474  -0.0000384492  -0.0000158886  -0.0000025834