52
 energy: -89.853834693439 gnorm: 0.000181393327 xtb: 6.7.1 (edcfbbe)
N            5.85627400153514       -1.94156920390767        0.66299663410676
C            4.87304535870235       -1.36494886468539        0.46817236115742
C            3.67986275020807       -0.70615140070261        0.21239304996837
C            2.45947939946421       -1.35439198715914        0.37985874477910
C            1.25474134717383       -0.70530748510179        0.20266584425846
N            0.06157406869025       -1.34900277306141        0.47590045449092
C           -0.28381398168544       -2.63093109505950        0.07835066306991
C            0.41395191363011       -3.52372246461491       -0.72206137892331
C           -0.18767815791815       -4.73349621803623       -1.01928898974881
C           -1.45762578157407       -5.05064934941040       -0.54384070242081
C           -2.17503654546108       -4.15102033854919        0.22418147217672
C           -1.58936754878216       -2.93342525715801        0.53679300628338
C           -2.05110026017765       -1.77543333339632        1.24632300764030
C           -3.20785890841300       -1.41366150327979        1.91919659997593
C           -3.24768435357764       -0.15138087728551        2.49004339896647
C           -2.14086339031987        0.68986097663430        2.38549883894197
N           -1.03277796035980        0.37272486984383        1.74019562788966
C           -1.00197857590391       -0.82198641439484        1.17817218789544
C            1.25447769602053        0.70487164177053       -0.20213815066875
N            0.06109253694858        1.34833308214383       -0.47494732677074
C           -0.28378846352179        2.63070247044041       -0.07832654165939
C            0.41452533510964        3.52405027627555        0.72100711759598
C           -0.18649798791082        4.73440758105797        1.01707850384762
C           -1.45644238961872        5.05160642497960        0.54165176899719
C           -2.17449054901193        4.15140215779368       -0.22509320884935
C           -1.58940154174126        2.93324228770137       -0.53658474073225
C           -2.05180486605396        1.77476718523262       -1.24486036316968
C           -3.20901655179628        1.41278532728404       -1.91685059000504
C           -3.24953870730387        0.15004405276702       -2.48661597092827
C           -2.14286358495978       -0.69138242323515       -2.38204407780198
N           -1.03435672143744       -0.37400395707213       -1.73758474148202
C           -1.00291661871835        0.82108163389741       -1.17640863232421
C            2.45905683908237        1.35417277201625       -0.37977193916067
C            3.67963403364570        0.70628306117438       -0.21237354014062
C            4.87262530748723        1.36555822074458       -0.46809539752116
N            5.85549111236468        1.94270061362765       -0.66276962162117
H            2.46620826647532       -2.37842513559385        0.72509986940376
H            1.38563202237034       -3.28120023287953       -1.12132220983838
H            0.33789901277608       -5.44475790643125       -1.63788234223605
H           -1.89101848580107       -6.00807756681341       -0.79026387438042
H           -3.17072442795534       -4.38441664425784        0.56927083407795
H           -4.04482065418928       -2.09165240129055        1.99759773563798
H           -4.12605345361147        0.18731763728255        3.01579783714570
H           -2.14375302019829        1.67511528463875        2.83052350961642
H            1.38619708320387        3.28158052926110        1.12031378748882
H            0.33959593180977        5.44612980872483        1.63470095447887
H           -1.88932067288647        6.00951934462947        0.78709133430533
H           -3.17020240964407        4.38480943455067       -0.57010664232191
H           -4.04581052726122        2.09097282042909       -1.99536960993571
H           -4.12832760006397       -0.18887571705483       -3.01152696197365
H           -2.14625411786208       -1.67702938790244       -2.82619542769764
H            2.46552616257697        2.37813280686231       -0.72521743030542
