$hessian                                                                        
        0.9633535119  -0.5355529187   0.2143717309  -0.9258811079   0.5044161842
       -0.2017931192  -0.0395482657   0.0314327782  -0.0125301725   0.0088336444
        0.0034153741  -0.0014159897  -0.0016034173   0.0030687285  -0.0007474763
       -0.0009159610  -0.0003483122   0.0001797645   0.0002052599   0.0008172676
        0.0001652892   0.0000116931  -0.0001881933  -0.0000762558   0.0000623282
        0.0001390946   0.0000600949  -0.0000381463   0.0000032369   0.0000419654
        0.0000920824  -0.0000212266  -0.0000093697  -0.0002140750  -0.0000050979
        0.0000830804  -0.0001827782  -0.0001711814   0.0000088096   0.0000485780
        0.0000081203  -0.0000098216  -0.0000535113  -0.0000321141  -0.0000086851
        0.0001744593  -0.0000833952  -0.0001308205  -0.0001788606   0.0000842531
        0.0002616688   0.0005594143  -0.0002851136  -0.0003582023   0.0034238530
       -0.0020161791   0.0008861758  -0.0024334038   0.0011961620  -0.0007141958
        0.0001195718  -0.0011967959   0.0000737935  -0.0000641989   0.0002867352
        0.0001089424   0.0001583608  -0.0002044999  -0.0000825626  -0.0001772359
       -0.0000768571  -0.0001098354   0.0001172861   0.0002131203   0.0000675701
       -0.0002595522  -0.0002273018  -0.0001638854  -0.0002408991   0.0004340268
        0.0000946168   0.0000943417  -0.0000635084   0.0000470470  -0.0000309974
        0.0000168219  -0.0000050674   0.0000612339   0.0001581783   0.0001651940
       -0.0001163977  -0.0003147807  -0.0002554336   0.0011973796   0.0007071776
        0.0002618439  -0.0029800694   0.0016098051  -0.0012372599  -0.0025202878
       -0.0071442516   0.0028748660  -0.0014355657  -0.0000238055   0.0001577625
        0.0010313540  -0.0001532922   0.0000161071   0.0002376162  -0.0001085321
       -0.0001348940  -0.0000153317   0.0000909271   0.0000205921   0.0000103909
       -0.0000264015  -0.0000292662  -0.0000223184  -0.0000469356  -0.0000149770
       -0.0000440319  -0.0000069688  -0.0000065057  -0.0000555189  -0.0000197716
       -0.0000009315  -0.0000533297   0.0000216719   0.0000025175  -0.0000115334
        0.0000188750  -0.0000034045  -0.0000117003  -0.0000830794  -0.0000244704
        0.0000119826   0.0000468995   0.0000372712  -0.0000313505   0.0000599823
        0.0000251279  -0.0000482114   0.0000289073  -0.0000146766  -0.0000596195
        0.0000219685  -0.0000006392  -0.0000523451  -0.0000196763  -0.0000296671
       -0.0000185520  -0.0000417245  -0.0000096547  -0.0005057680   0.0001656186
       -0.0000945916
       -0.5355529187   0.3192988657  -0.1211573022   0.5048282555  -0.3195625725
        0.1147283734   0.0319560703   0.0000456910   0.0062242043  -0.0030152874
       -0.0040305829   0.0023025164   0.0014590229  -0.0016798278  -0.0003023119
        0.0011030308   0.0002697182  -0.0002536145  -0.0001623297  -0.0007976854
       -0.0001278452   0.0001042065   0.0001814064  -0.0000530764  -0.0000771899
       -0.0000970429  -0.0000503890   0.0000130082   0.0000083665  -0.0000199131
       -0.0000815814  -0.0000059795  -0.0000060821   0.0002045467   0.0000251783
       -0.0000700299   0.0001123704   0.0001280371  -0.0000057633  -0.0000147761
       -0.0000054360  -0.0000089123   0.0000582751   0.0000550596   0.0000124760
       -0.0001925853   0.0000552107   0.0001086729   0.0001358692  -0.0000546677
       -0.0001790894  -0.0002966151   0.0002337125   0.0003141180  -0.0017290500
        0.0015946272  -0.0007194240   0.0014873480  -0.0006026313   0.0005472405
       -0.0000794501   0.0006438174  -0.0000482696   0.0000162014  -0.0001632112
       -0.0000727870  -0.0001031235   0.0001365403   0.0000455302   0.0001200327
        0.0000455801   0.0000699944  -0.0000534116  -0.0001418666  -0.0000452566
        0.0001323517   0.0001651687   0.0000981795   0.0001747112  -0.0002597572
       -0.0000516817  -0.0000604691   0.0000314112  -0.0000355743   0.0000174126
        0.0000100887   0.0000092974  -0.0000282083  -0.0001146080  -0.0001072298
        0.0000529889   0.0002182138   0.0001525616  -0.0007340026  -0.0004577139
       -0.0001537767   0.0013644337  -0.0000033776  -0.0002145229  -0.0016781518
        0.0047018674  -0.0014300888  -0.0002761008   0.0000351442  -0.0000192316
        0.0001591250  -0.0001748616   0.0001770563   0.0003534605   0.0001871703
        0.0001993566   0.0000429810  -0.0000759588   0.0000931095  -0.0000057400
        0.0000614260   0.0000518442   0.0000036015   0.0000337968   0.0000200700
        0.0000207416   0.0000080185   0.0000089862   0.0000422441   0.0000163476
       -0.0000004128   0.0000328990  -0.0000094116   0.0000029561   0.0000030165
       -0.0000075248   0.0000038587  -0.0000051243   0.0000435683   0.0000170697
       -0.0000074544  -0.0000165327  -0.0000156365   0.0000234733  -0.0000330122
       -0.0000103335   0.0000332253  -0.0000156163   0.0000111874   0.0000359671
       -0.0000099880   0.0000015092   0.0000338987   0.0000148255   0.0000201946
        0.0000214109   0.0000345272   0.0000139302   0.0000073903   0.0000364818
       -0.0000757381
        0.2143717309  -0.1211573022   0.0651374633  -0.2020640937   0.1147969677
       -0.0785312670  -0.0129606122   0.0061597434   0.0131325946   0.0013173087
        0.0022113682   0.0002883108  -0.0007699297  -0.0000474460  -0.0015238021
       -0.0003374533  -0.0000517970   0.0001217740  -0.0000170121   0.0001525450
       -0.0000177991   0.0000733512  -0.0000313866  -0.0000031272   0.0000210287
        0.0000114569   0.0000209979  -0.0000120360  -0.0000042871   0.0000128798
        0.0000141019  -0.0000011922   0.0000138574  -0.0000604793  -0.0000068910
        0.0000332146  -0.0000824235  -0.0000480213   0.0000228398   0.0000186872
       -0.0000199337  -0.0000120585  -0.0000090073   0.0000123332   0.0000083181
        0.0000259812  -0.0000195862  -0.0000377756   0.0000045125   0.0000388570
        0.0001127443   0.0001270312  -0.0001145047  -0.0001553399   0.0007672125
       -0.0005812723   0.0001156548  -0.0006444396   0.0004231316   0.0002092670
        0.0000034919  -0.0003387943  -0.0000020679  -0.0000281487   0.0000604074
        0.0000328052   0.0000395815  -0.0000480069  -0.0000221585  -0.0000327825
       -0.0000105045  -0.0000128917   0.0000207419   0.0000368867   0.0000082865
       -0.0000792222  -0.0000197959  -0.0000366488  -0.0000434088   0.0001077512
        0.0000214333   0.0000176211  -0.0000183324   0.0000067510  -0.0000175096
        0.0000139281   0.0000037418   0.0000553057   0.0000338007   0.0000406584
       -0.0000860100  -0.0000641427  -0.0000084901   0.0003268804   0.0001172115
        0.0000435111  -0.0004549198  -0.0006064602  -0.0012035843   0.0007483750
       -0.0012682168   0.0016125236   0.0000372985   0.0000270872   0.0002845677
       -0.0000146365   0.0001767477   0.0000908004  -0.0001889905   0.0000999844
        0.0003542313   0.0000221301   0.0000229569  -0.0000417850   0.0000079353
        0.0000146880  -0.0000057184  -0.0000107720  -0.0000085268  -0.0000071498
       -0.0000184852   0.0000009383  -0.0000012048  -0.0000156586  -0.0000030730
       -0.0000031767  -0.0000131586   0.0000066507   0.0000008357  -0.0000053839
        0.0000102004   0.0000012046   0.0000063418  -0.0000171863  -0.0000135594
        0.0000034894   0.0000207765   0.0000094229  -0.0000073960   0.0000150702
        0.0000076773  -0.0000101944   0.0000099676  -0.0000033159  -0.0000141368
        0.0000082431  -0.0000006848  -0.0000133632  -0.0000024218  -0.0000058005
       -0.0000009877  -0.0000044198  -0.0000019643  -0.0000174871  -0.0000961983
       -0.0000969968
       -0.9258811079   0.5048282555  -0.2020640937   1.1920814085  -0.6109691823
        0.2457442774  -0.2108785938   0.0840625540  -0.0349139884  -0.0545281399
        0.0041367470  -0.0020562940  -0.0002207034  -0.0092078396   0.0029875988
        0.0000189648   0.0012978645  -0.0004105028  -0.0002033838  -0.0012553235
       -0.0001936235  -0.0000204020   0.0003405216   0.0001055214  -0.0000758494
       -0.0002352595  -0.0001060519   0.0000507374  -0.0000042112  -0.0000711783
       -0.0001847252   0.0000288336   0.0000089242   0.0003657619   0.0000008429
       -0.0001280365   0.0001511195   0.0002843003   0.0000856772  -0.0000905219
       -0.0000658033   0.0000196427   0.0000822383   0.0000856928   0.0000283920
       -0.0002961190   0.0001002354   0.0002236800   0.0002882631  -0.0001234938
       -0.0004763202  -0.0010342683   0.0003611898   0.0004334585  -0.0063583661
        0.0036613782  -0.0015186366   0.0046606540  -0.0022563424   0.0013700982
       -0.0001331010   0.0020475106  -0.0001925342   0.0001183190  -0.0005228886
       -0.0001767177  -0.0002706379   0.0003596332   0.0001404965   0.0003067680
        0.0001571285   0.0001939983  -0.0002186889  -0.0003948932  -0.0001220827
        0.0004609540   0.0004105038   0.0002884751   0.0004079916  -0.0007759500
       -0.0001707142  -0.0001765913   0.0001399520  -0.0000862024   0.0000283281
       -0.0000394375   0.0000096936  -0.0000646285  -0.0002713103  -0.0002730680
        0.0001535922   0.0006370778   0.0004079920  -0.0020304085  -0.0013652828
       -0.0003737399   0.0066920820  -0.0011362011   0.0013690643  -0.0047760498
        0.0259631423  -0.0104472607   0.0013983805  -0.0011253836   0.0002852512
       -0.0014360295   0.0002677992  -0.0000415638   0.0006826930   0.0007388900
       -0.0000387637  -0.0000567037  -0.0001541580   0.0000192127  -0.0000201983
        0.0000323228   0.0000536357   0.0000358866   0.0000739893   0.0000277156
        0.0000745815   0.0000107392   0.0000127243   0.0000912881   0.0000325037
        0.0000075585   0.0000839759  -0.0000388683  -0.0000042016   0.0000187316
       -0.0000360111   0.0000051935  -0.0000220504   0.0001330692   0.0000154477
       -0.0000257713  -0.0000711503  -0.0000621253   0.0000492018  -0.0001003280
       -0.0000440437   0.0000830332  -0.0000526151   0.0000306964   0.0001031708
       -0.0000372026  -0.0000003388   0.0000853115   0.0000334367   0.0000549303
        0.0000312369   0.0000828281   0.0000197780   0.0003983659  -0.0000698057
        0.0000229486
        0.5044161842  -0.3195625725   0.1147969677  -0.6109691823   0.4435103594
       -0.1474404487   0.0831055071  -0.1038022595   0.0212568082   0.0047017829
        0.0103165711  -0.0045772753  -0.0044499157   0.0045519916   0.0020212502
       -0.0019975774  -0.0002931608   0.0004217488   0.0002014670   0.0011663814
        0.0001961994  -0.0000959754  -0.0002817432   0.0000348077   0.0000918441
        0.0001371737   0.0000661734  -0.0000232517   0.0000013338   0.0000397522
        0.0001427292  -0.0000014062  -0.0000014192  -0.0003292083  -0.0000415447
        0.0001111194  -0.0002011510  -0.0001998541   0.0000203959   0.0000390831
        0.0000184037   0.0000154668  -0.0000681291  -0.0000727451  -0.0000261755
        0.0002230956  -0.0001058156  -0.0001452249  -0.0001495412   0.0001312073
        0.0002731068   0.0003753806  -0.0004497756  -0.0005088860   0.0027403230
       -0.0031933185   0.0015750191  -0.0026088337   0.0009925298  -0.0014525566
        0.0001208892  -0.0011182495   0.0001210969  -0.0000482520   0.0002933616
        0.0000704267   0.0001621005  -0.0002079534  -0.0000708829  -0.0001756723
       -0.0000878230  -0.0001124328   0.0001236144   0.0002330452   0.0000752385
       -0.0002502723  -0.0002870103  -0.0001659825  -0.0002676956   0.0004211400
        0.0001014872   0.0001063870  -0.0000714838   0.0000600715  -0.0000203828
        0.0000166164  -0.0000009161   0.0000161341   0.0001595523   0.0001743125
       -0.0000323307  -0.0003590061  -0.0002809796   0.0011089142   0.0008370152
        0.0002056732  -0.0027495349  -0.0040545462   0.0039276401   0.0265374797
       -0.0275255030   0.0108947988   0.0011331949  -0.0000258936  -0.0008460489
        0.0000169571   0.0000379651   0.0000267376  -0.0016575775  -0.0004449583
       -0.0011673305  -0.0000444301   0.0001156925  -0.0001197548   0.0000162253
       -0.0000562615  -0.0000561063  -0.0000050689  -0.0000492213  -0.0000248174
       -0.0000384898  -0.0000081615  -0.0000118812  -0.0000665203  -0.0000255485
        0.0000017929  -0.0000580441   0.0000220355  -0.0000043104  -0.0000051990
        0.0000195774  -0.0000027754   0.0000282512  -0.0000459938   0.0000235940
        0.0000170687   0.0000305758   0.0000326816  -0.0000297737   0.0000543207
        0.0000230768  -0.0000463286   0.0000245390  -0.0000172789  -0.0000617275
        0.0000180774  -0.0000012387  -0.0000475214  -0.0000225645  -0.0000320502
       -0.0000228828  -0.0000469775  -0.0000133891   0.0010958569  -0.0006681145
        0.0005127177
       -0.2017931192   0.1147283734  -0.0785312670   0.2457442774  -0.1474404487
        0.1359237554  -0.0338255700   0.0218229278  -0.0611872249  -0.0022196409
       -0.0045835664   0.0017892682   0.0025941633   0.0019217442   0.0072171462
        0.0003158967  -0.0000561535  -0.0000589792   0.0000177361  -0.0002217444
       -0.0000056454  -0.0001062217   0.0000284135  -0.0000124829  -0.0000119813
       -0.0000047733  -0.0000443277  -0.0000155829   0.0000175155   0.0000035617
       -0.0000251207  -0.0000322979  -0.0000330007   0.0000909213   0.0000803590
       -0.0000295853   0.0001158420   0.0000150735  -0.0000682274  -0.0000203536
        0.0000375402   0.0000317444   0.0000058618  -0.0000202736  -0.0000070271
       -0.0000347087   0.0000278795   0.0000592508  -0.0000016857  -0.0000596378
       -0.0001276747  -0.0001713105   0.0002034062   0.0001310378  -0.0013501321
        0.0010772373   0.0000810239   0.0011938855  -0.0011747331  -0.0012279063
        0.0001855036   0.0005983555  -0.0000529451   0.0000266621  -0.0000773556
       -0.0000177201  -0.0000691587   0.0000506033   0.0000520248   0.0000374639
        0.0000156594   0.0000104086  -0.0000324436  -0.0000364247   0.0000174788
        0.0001584686  -0.0000393765   0.0000652718   0.0000520707  -0.0001987913
       -0.0000222607  -0.0000664118   0.0000127569  -0.0000172659   0.0000242691
       -0.0000004387   0.0000018638  -0.0000624693  -0.0000659894  -0.0000471471
        0.0001165564   0.0001132377  -0.0000136445  -0.0006348894  -0.0001353356
       -0.0001740670   0.0007841449   0.0046010372   0.0049849627  -0.0111003873
        0.0103150982  -0.0046820408  -0.0002719179  -0.0008500431  -0.0021846745
       -0.0001618968  -0.0000198231   0.0002846021   0.0007610274  -0.0010530039
       -0.0023236992  -0.0000086150  -0.0000452032   0.0000603944  -0.0000066524
       -0.0000096301   0.0000104768   0.0000139450   0.0000108065   0.0000123742
        0.0000234518  -0.0000005602   0.0000045075   0.0000264383   0.0000040668
        0.0000052721   0.0000195248  -0.0000083566  -0.0000026584   0.0000071870
       -0.0000143817  -0.0000013839  -0.0000198069   0.0000247901  -0.0000223826
       -0.0000072261  -0.0000317404  -0.0000150198   0.0000118898  -0.0000227859
       -0.0000186223   0.0000229864  -0.0000238768   0.0000073003   0.0000234854
       -0.0000138320   0.0000013887   0.0000248782   0.0000077414   0.0000074134
        0.0000058839   0.0000115448   0.0000066695  -0.0003871190   0.0005144100
        0.0001596830
       -0.0395482657   0.0319560703  -0.0129606122  -0.2108785938   0.0831055071
       -0.0338255700   0.6459188721  -0.0104207193   0.0033926534  -0.2464762804
       -0.1211827812   0.0501035398  -0.0689528359   0.0254072255  -0.0089935041
       -0.0006066956   0.0041003987  -0.0003232334  -0.0001055819  -0.0003926280
        0.0003450542   0.0001586478   0.0003211686   0.0001302599  -0.0001363286
       -0.0001976054   0.0000355834   0.0003621863  -0.0001409389  -0.0001836015
        0.0000169422   0.0004140930   0.0001830022  -0.0000550656  -0.0005756660
       -0.0000319840  -0.0002353208   0.0005450821   0.0004329007  -0.0000239217
       -0.0002137869   0.0000578022  -0.0000385263   0.0000023047  -0.0000593181
        0.0001748480   0.0000246686   0.0000133195   0.0001139708  -0.0003924772
       -0.0000579427  -0.0021950940   0.0001838900  -0.0005775991  -0.0040761625
       -0.0252070154   0.0120992285  -0.0054379061   0.0028267243  -0.0022100516
       -0.0000261209  -0.0021631213   0.0007080200  -0.0001402114   0.0003753845
        0.0002544896   0.0002825595  -0.0002386093  -0.0002362514  -0.0002619118
       -0.0001483535  -0.0001675519   0.0002262834   0.0003818428   0.0000739790
       -0.0004235081  -0.0004015044  -0.0003191526  -0.0003165082   0.0007275923
        0.0002503258   0.0001449966  -0.0000852767   0.0001228752   0.0000137495
       -0.0000888552   0.0000044354  -0.0002579718   0.0003372673   0.0001658715
        0.0002531881  -0.0008160412  -0.0000628019   0.0023428749   0.0016488428
        0.0000994314   0.0142915369   0.0235004533  -0.0109824099  -0.0710451811
        0.0129633998  -0.0062924175  -0.0045918321  -0.0264612804   0.0110539502
       -0.0025507513   0.0016500603  -0.0007529922  -0.0013745557  -0.0034557757
        0.0002105961  -0.0001108033  -0.0003541971  -0.0003055874   0.0000193288
       -0.0000051719  -0.0000104674   0.0000042101  -0.0000035474  -0.0000257317
       -0.0000047340   0.0000231943  -0.0000458265  -0.0000546164  -0.0000148804
        0.0000170958  -0.0000376808   0.0000174089  -0.0000589881   0.0000085409
       -0.0000553001  -0.0000317514   0.0000030357  -0.0000484430   0.0000467926
        0.0000359017   0.0000467663   0.0000447569  -0.0000468619   0.0000696402
        0.0000554571  -0.0000603723   0.0000476696  -0.0000380859  -0.0000637096
        0.0000319241  -0.0000199534  -0.0000808228  -0.0000304788  -0.0000561834
       -0.0000401548  -0.0000898328  -0.0000578875  -0.0041167859   0.0024757083
       -0.0012139639
        0.0314327782   0.0000456910   0.0061597434   0.0840625540  -0.1038022595
        0.0218229278  -0.0104207193   0.5382849198  -0.1745719530  -0.0765972356
       -0.1311764587   0.0367533330  -0.0236909178   0.0385990765  -0.0174493186
        0.0058896730   0.0012582965   0.0023614953   0.0002919416  -0.0008305749
        0.0002199120   0.0000863902   0.0002071336  -0.0001896360  -0.0001337219
       -0.0002078921  -0.0000101378   0.0002194600  -0.0001315183  -0.0001682789
       -0.0001458374   0.0003315768   0.0001387235   0.0002922562  -0.0004042209
       -0.0001872865  -0.0000965214   0.0005654483   0.0000537817  -0.0000194911
       -0.0002115574  -0.0001244565   0.0000378194   0.0001105139   0.0000318474
       -0.0000068164   0.0001413175   0.0001010846   0.0000476615  -0.0000216670
       -0.0003824383  -0.0003610309   0.0001323205   0.0003980245  -0.0252337137
       -0.0318312173   0.0125366392   0.0016833150  -0.0004630941  -0.0005931248
       -0.0002189912   0.0004860937  -0.0001381814   0.0002055519  -0.0002237748
        0.0000675507  -0.0001260928   0.0002402390  -0.0000620570   0.0002109869
        0.0001098759   0.0001688239  -0.0000897080  -0.0003079529  -0.0001590523
       -0.0000224747   0.0004466662   0.0000794517  -0.0001060190  -0.0003216470
       -0.0001486264   0.0000010180   0.0001840615   0.0000618653   0.0000332234
       -0.0001045485  -0.0000198200  -0.0000292597  -0.0000148237  -0.0001193831
        0.0001200697  -0.0000496245   0.0004199504  -0.0004445961  -0.0000510255
        0.0000621319   0.0645934971  -0.0289272416   0.0149682999  -0.0123667489
       -0.2450949728   0.0794883573  -0.0258862896  -0.0277646698   0.0103017631
        0.0071155217   0.0047418028  -0.0012545278  -0.0228644729  -0.0143656463
        0.0065480008  -0.0001892018  -0.0001800285  -0.0000138624  -0.0000351532
        0.0000081109   0.0000282640   0.0000087499   0.0000504205  -0.0000026157
        0.0000213414   0.0000036842  -0.0000118335   0.0000240161   0.0000163248
        0.0000219287   0.0000297451  -0.0000233899  -0.0000079585  -0.0000123793
       -0.0000262172   0.0000152229   0.0000724461   0.0000432876   0.0001378681
        0.0000012267  -0.0000365038  -0.0000458872   0.0000052362  -0.0000497900
        0.0000136968   0.0000103277  -0.0000066772  -0.0000007620   0.0000191422
       -0.0000093813  -0.0000184462   0.0000057412   0.0000157751   0.0000119929
       -0.0000102283   0.0000046719  -0.0000228087   0.0025859305   0.0006110666
        0.0027297719
       -0.0125301725   0.0062242043   0.0131325946  -0.0349139884   0.0212568082
       -0.0611872249   0.0033926534  -0.1745719530   0.1850809186   0.0303785836
        0.0372689391  -0.0595696797   0.0100307901  -0.0178169789   0.0069748737
       -0.0008087571   0.0038325906   0.0054729826   0.0008787401   0.0000153575
       -0.0000988148  -0.0002777116  -0.0001673758   0.0001244183   0.0000033233
        0.0000961530  -0.0000992142  -0.0001204401   0.0000579853   0.0001073648
        0.0001066283  -0.0001755108  -0.0001472236   0.0001457823   0.0004762050
       -0.0000585346  -0.0001552854   0.0001563271  -0.0000117428  -0.0001160941
        0.0000461668  -0.0000180660   0.0000169152  -0.0000657255  -0.0000203655
       -0.0000369588  -0.0000032776  -0.0001195033   0.0000773571  -0.0001128339
        0.0002235878  -0.0007576926  -0.0007163530   0.0006757420   0.0107506486
        0.0121791924  -0.0098481327  -0.0005486203  -0.0000503657   0.0000188154
        0.0001474879  -0.0001352227   0.0000272726  -0.0000515899   0.0001439141
        0.0000497595   0.0000267193  -0.0001262060   0.0000350667  -0.0001045223
       -0.0000377504  -0.0000812235   0.0000309612   0.0001393189   0.0000800100
        0.0000334096  -0.0002049195  -0.0000204977   0.0000181421   0.0001226614
        0.0000554876  -0.0000093746  -0.0000779397  -0.0000303680  -0.0000292300
        0.0000490187   0.0000062767   0.0000289702   0.0000185585   0.0000618241
       -0.0000614052   0.0000158004  -0.0002062368   0.0001528134  -0.0000086035
       -0.0000298097  -0.0280591127   0.0137279323  -0.0029796343   0.0059476406
        0.0795465248  -0.0781588196   0.0104001431   0.0108781161  -0.0046287835
       -0.0028795624  -0.0014393693   0.0016039976   0.0100792248   0.0064945742
       -0.0020802653   0.0001376557   0.0000908454   0.0001132116   0.0000108875
        0.0000062458  -0.0000131997   0.0000109224  -0.0000266007   0.0000219060
        0.0000078441   0.0000239699   0.0000029642  -0.0000409027   0.0000027838
        0.0000062679  -0.0000024288  -0.0000023608   0.0000227163   0.0000014185
        0.0000093144  -0.0000129253  -0.0001016897   0.0000005991  -0.0000921197
       -0.0000037491   0.0000118415   0.0000171955  -0.0000075166   0.0000256869
       -0.0000138507  -0.0000084010   0.0000013955   0.0000010337  -0.0000111879
        0.0000047130   0.0000053634  -0.0000088261  -0.0000065416  -0.0000081266
        0.0000016412  -0.0000087409   0.0000038758  -0.0011720833   0.0028308853
        0.0056088354
        0.0088336444  -0.0030152874   0.0013173087  -0.0545281399   0.0047017829
       -0.0022196409  -0.2464762804  -0.0765972356   0.0303785836   0.6457972299
        0.0037770426  -0.0046697392  -0.2425799109   0.0650720288  -0.0260465706
       -0.0549831420   0.0026600828   0.0038049886  -0.0000326189   0.0046777781
       -0.0013110709  -0.0006221809  -0.0004666438  -0.0002629548   0.0003554597
        0.0005359448   0.0001221408  -0.0005747216   0.0002654704   0.0003059287
        0.0002143180  -0.0007375403  -0.0001283022  -0.0003575466   0.0011614359
        0.0006808737  -0.0017782550  -0.0013308309   0.0007705416   0.0000919494
       -0.0001321137  -0.0001463285   0.0001710806   0.0001127170   0.0000753020
       -0.0004620913  -0.0004353339  -0.0000758350   0.0007744412   0.0011515394
        0.0002317787   0.0008401765  -0.0052009151  -0.0024415190   0.0152621989
        0.0661408503  -0.0316388551   0.0064244855  -0.0037475967   0.0036548641
        0.0000143156   0.0026013388  -0.0006036766  -0.0000024194  -0.0003686064
       -0.0003348580  -0.0003372457   0.0001858139   0.0003246346   0.0002706315
        0.0001320122   0.0001302941  -0.0001901209  -0.0003423703  -0.0000647789
        0.0006216992   0.0003325225   0.0003618337   0.0005161456  -0.0008255178
       -0.0002022146  -0.0001326359  -0.0000049781  -0.0001491933   0.0000347434
        0.0001527189   0.0000066610   0.0003422853  -0.0004165748  -0.0000818961
       -0.0000764264   0.0009228103  -0.0002094157  -0.0028239969  -0.0020595497
       -0.0002597933  -0.0492912910   0.0017665899  -0.0003103380   0.0145931655
       -0.0644336100   0.0280380361   0.0066790929   0.0027879179  -0.0008004558
       -0.0029708774  -0.0013761712   0.0004528900  -0.0430941046   0.0027667730
        0.0012066683  -0.0001396673  -0.0004662455  -0.0003356817   0.0000049880
       -0.0000402742  -0.0000271247  -0.0000134622  -0.0000244465  -0.0000413352
       -0.0000058647  -0.0000726540   0.0000852855  -0.0001584201   0.0000662242
        0.0000124244  -0.0000079136   0.0000238402   0.0000966184  -0.0000265473
        0.0001298501   0.0000767229  -0.0000368094   0.0000249746  -0.0001556596
       -0.0000448834  -0.0000453644  -0.0000227958   0.0000579865  -0.0000444672
       -0.0000684592   0.0000570029  -0.0000563462   0.0000535864   0.0000671077
       -0.0000347780   0.0000348377   0.0000850917   0.0000282499   0.0000634802
        0.0000434031   0.0001020503   0.0000735674  -0.0004050692  -0.0000049081
        0.0002486411
        0.0034153741  -0.0040305829   0.0022113682   0.0041367470   0.0103165711
       -0.0045835664  -0.1211827812  -0.1311764587   0.0372689391   0.0037770426
        0.5711041843  -0.2033727379   0.1240004169  -0.1360997733   0.0376271210
       -0.0093924299   0.0109302171  -0.0014008537  -0.0007327613  -0.0004318957
       -0.0002721293  -0.0006035919  -0.0002993580   0.0006800419  -0.0000450755
        0.0000324770  -0.0002364171   0.0001003006  -0.0000759096  -0.0000292210
        0.0000541796   0.0001490333   0.0000957200  -0.0001067032  -0.0002409631
       -0.0000601332  -0.0008218253   0.0002942765   0.0007247499  -0.0000219437
       -0.0003043625   0.0000207671  -0.0000209208   0.0000420232   0.0000300418
        0.0001500634  -0.0000837375   0.0000241608  -0.0001185261   0.0001974772
       -0.0001173691  -0.0020375378  -0.0010978476  -0.0008210165   0.0239739737
       -0.0251688367   0.0108663205  -0.0006269554  -0.0040975096   0.0033170771
        0.0001775543  -0.0007709930   0.0011146071  -0.0000673274   0.0000603411
       -0.0000424312   0.0000525446   0.0000144945  -0.0000713982  -0.0000104791
       -0.0000205477   0.0000122866   0.0000613595   0.0000477862  -0.0000857958
        0.0001561903  -0.0000550692  -0.0001666112   0.0000254842   0.0000128229
       -0.0000926975   0.0000518006   0.0000045223   0.0000072058   0.0000028649
       -0.0000072078   0.0000155503  -0.0000102759   0.0000337271  -0.0000109342
       -0.0001833849  -0.0000894031   0.0001849520   0.0003384476   0.0000390466
       -0.0001327803  -0.0019928273   0.0019596252  -0.0024758598  -0.0233388072
       -0.0293275902   0.0137968708   0.0011745326  -0.0040363243   0.0045999776
       -0.0016230703  -0.0000169064  -0.0006082754   0.0014585227  -0.2580735472
        0.1029268666  -0.0000776185  -0.0002237723  -0.0005515712   0.0000093918
        0.0000237308  -0.0000273194   0.0000376519  -0.0000162848   0.0000460875
        0.0000149528   0.0000242209  -0.0000105569  -0.0000652851   0.0000139627
        0.0000099565  -0.0000192156  -0.0000013049  -0.0000331704  -0.0000093289
        0.0000004303   0.0000104611   0.0000624569  -0.0000650139   0.0000638000
       -0.0000055429   0.0000090021   0.0000069165  -0.0000054533  -0.0000097385
        0.0000204998   0.0000081510   0.0000052700  -0.0000207101  -0.0000120834
        0.0000005439   0.0000011246  -0.0000024979   0.0000004693  -0.0000001351
       -0.0000034608   0.0000120886  -0.0000157435  -0.0001022929   0.0004925941
       -0.0004440359
       -0.0014159897   0.0023025164   0.0002883108  -0.0020562940  -0.0045772753
        0.0017892682   0.0501035398   0.0367533330  -0.0595696797  -0.0046697392
       -0.2033727379   0.1980037385  -0.0546737678   0.0356610630  -0.0600713994
        0.0097120371  -0.0012925288   0.0020532630   0.0004989017  -0.0015678106
       -0.0001352042   0.0002043981  -0.0000754585  -0.0005413928  -0.0003051903
        0.0000090987  -0.0000640321   0.0000575015  -0.0001369631  -0.0000055838
       -0.0000922813   0.0001139844   0.0000203182   0.0003650752  -0.0000739402
       -0.0001609901   0.0001752675   0.0003523935  -0.0000555519   0.0000313857
       -0.0000735292  -0.0001509505   0.0000898014   0.0001215190   0.0000292713
       -0.0001445811   0.0002100375   0.0000041296  -0.0000184060  -0.0000155722
        0.0000892887   0.0013217990   0.0005894669   0.0009202183  -0.0095693133
        0.0121162159  -0.0071261965   0.0012809599   0.0043904617   0.0048791330
       -0.0013191326   0.0005421779  -0.0001656039  -0.0000620642  -0.0001201920
       -0.0000147483  -0.0000481644   0.0000788098  -0.0000139252   0.0000764955
        0.0000163871   0.0000527449  -0.0001190277  -0.0000966519  -0.0000996191
       -0.0000764656   0.0005899898   0.0001858185   0.0001946653  -0.0000757223
       -0.0000646246   0.0000531234   0.0000528147  -0.0000156118   0.0000440654
       -0.0000776434  -0.0000084924  -0.0001116238   0.0000084447  -0.0001391465
        0.0000092667   0.0000608202   0.0003354079   0.0002217756  -0.0005893290
        0.0002617002   0.0002024253  -0.0024691329  -0.0017003159   0.0109575578
        0.0148585236  -0.0028821867  -0.0013812519   0.0039293170   0.0049794534
        0.0012334970  -0.0002129704  -0.0011992822  -0.0000873198   0.1027304951
       -0.0797801865  -0.0006570991  -0.0002908054   0.0001876348  -0.0000424661
        0.0000262858   0.0000084116  -0.0000433181  -0.0000098727   0.0000484852
       -0.0000106857   0.0000262944  -0.0000145543   0.0000376084   0.0000116625