      -----------------------------------------------------------      
     |                   =====================                   |     
     |                           x T B                           |     
     |                   =====================                   |     
     |                         S. Grimme                         |     
     |          Mulliken Center for Theoretical Chemistry        |     
     |                    University of Bonn                     |     
      -----------------------------------------------------------      

   * xtb version 6.7.1 (edcfbbe) compiled by 'albert@albert-system' on 2024-07-22

   xtb is free software: you can redistribute it and/or modify it under
   the terms of the GNU Lesser General Public License as published by
   the Free Software Foundation, either version 3 of the License, or
   (at your option) any later version.
   
   xtb is distributed in the hope that it will be useful,
   but WITHOUT ANY WARRANTY; without even the implied warranty of
   MERCHANTABILITY or FITNESS FOR A PARTICULAR PURPOSE.  See the
   GNU Lesser General Public License for more details.
   
   Cite this work as:
   * C. Bannwarth, E. Caldeweyher, S. Ehlert, A. Hansen, P. Pracht,
     J. Seibert, S. Spicher, S. Grimme, WIREs Comput. Mol. Sci., 2020, 11,
     e01493. DOI: 10.1002/wcms.1493
   
   for GFN2-xTB:
   * C. Bannwarth, S. Ehlert and S. Grimme., J. Chem. Theory Comput., 2019,
     15, 1652-1671. DOI: 10.1021/acs.jctc.8b01176
   for GFN1-xTB:
   * S. Grimme, C. Bannwarth, P. Shushkov, J. Chem. Theory Comput., 2017,
     13, 1989-2009. DOI: 10.1021/acs.jctc.7b00118
   for GFN0-xTB:
   * P. Pracht, E. Caldeweyher, S. Ehlert, S. Grimme, ChemRxiv, 2019, preprint.
     DOI: 10.26434/chemrxiv.8326202.v1
   for GFN-FF:
   * S. Spicher and S. Grimme, Angew. Chem. Int. Ed., 2020, 59, 15665-15673.
     DOI: 10.1002/anie.202004239
   
   for ALPB and GBSA implicit solvation:
   * S. Ehlert, M. Stahn, S. Spicher, S. Grimme, J. Chem. Theory Comput.,
     2021, 17, 4250-4261. DOI: 10.1021/acs.jctc.1c00471
   
   for ddCOSMO and CPCM-X implicit solvation:
   * M. Stahn, S. Ehlert, S. Grimme, J. Phys. Chem. A,
     2023, XX, XXXX-XXXX. DOI: 10.1021/acs.jpca.3c04382
   
   for DFT-D4:
   * E. Caldeweyher, C. Bannwarth and S. Grimme, J. Chem. Phys., 2017,
     147, 034112. DOI: 10.1063/1.4993215
   * E. Caldeweyher, S. Ehlert, A. Hansen, H. Neugebauer, S. Spicher,
     C. Bannwarth and S. Grimme, J. Chem. Phys., 2019, 150, 154122.
     DOI: 10.1063/1.5090222
   * E. Caldeweyher, J.-M. Mewes, S. Ehlert and S. Grimme, Phys. Chem. Chem. Phys.
     2020, 22, 8499-8512. DOI: 10.1039/D0CP00502A
   
   for sTDA-xTB:
   * S. Grimme and C. Bannwarth, J. Chem. Phys., 2016, 145, 054103.
     DOI: 10.1063/1.4959605
   
   in the mass-spec context:
   * V. Asgeirsson, C. Bauer and S. Grimme, Chem. Sci., 2017, 8, 4879.
     DOI: 10.1039/c7sc00601b
   * J. Koopman and S. Grimme, ACS Omega 2019, 4, 12, 15120-15133.
     DOI: 10.1021/acsomega.9b02011
   
   for metadynamics refer to:
   * S. Grimme, J. Chem. Theory Comput., 2019, 155, 2847-2862
     DOI: 10.1021/acs.jctc.9b00143
   
   for SPH calculations refer to:
   * S. Spicher and S. Grimme, J. Chem. Theory Comput., 2021, 17, 1701-1714
     DOI: 10.1021/acs.jctc.0c01306
   
   for ONIOM refer to:
   * C. Plett, A. Katbashev, S. Ehlert, S. Grimme, M. Bursch,
     Phys. Chem. Chem. Phys., 2023, 25, 17860-17868. DOI: 10.1039/D3CP02178E
   
   for DIPRO refer to:
   * J. Kohn, N. Gildemeister, S. Grimme, D. Fazzi, A. Hansen,
     J. Chem. Phys., 2023, just accepted.
   
   for PTB refer to:
   * S. Grimme, M. Mueller, A. Hansen, J. Chem. Phys., 2023, 158, 124111.
     DOI: 10.1063/5.0137838
   
   with help from (in alphabetical order)
   P. Atkinson, C. Bannwarth, F. Bohle, G. Brandenburg, E. Caldeweyher
   M. Checinski, S. Dohm, S. Ehlert, S. Ehrlich, I. Gerasimov, C. Hölzer
   A. Katbashev, J. Kohn, J. Koopman, C. Lavigne, S. Lehtola, F. März, M. Müller,
   F. Musil, H. Neugebauer, J. Pisarek, C. Plett, P. Pracht, F. Pultar,
   J. Seibert, P. Shushkov, S. Spicher, M. Stahn, M. Steiner, T. Strunk,
   J. Stückrath, T. Rose, and J. Unsleber
   
 * started run on 2025/07/16 at 18:02:19.779     
   ID    Z sym.   atoms
    1    7 N      1, 6, 17, 20, 31, 36
    2    6 C      2-5, 7-16, 18, 19, 21-30, 32-35
    3    1 H      37-52

           -------------------------------------------------
          |                Calculation Setup                |
           -------------------------------------------------

          program call               : xtb data2507/gas/α-2CbPN/α-2CbPN.xyz --gfn 2 --ohess vtight --parallel 40 --molden --ceasefiles --namespace data2507/gas/α-2CbPN/α-2CbPN_gas_S0_preOpt
          calculation namespace      : data2507/gas/α-2CbPN/α-2CbPN_gas_S0_preOpt
          coordinate file            : data2507/gas/α-2CbPN/α-2CbPN.xyz
          omp threads                :                    40


           -------------------------------------------------
          |                 G F N 2 - x T B                 |
           -------------------------------------------------

        Reference                      10.1021/acs.jctc.8b01176
      * Hamiltonian:
        H0-scaling (s, p, d)           1.850000    2.230000    2.230000
        zeta-weighting                 0.500000
      * Dispersion:
        s8                             2.700000
        a1                             0.520000
        a2                             5.000000
        s9                             5.000000
      * Repulsion:
        kExp                           1.500000    1.000000
        rExp                           1.000000
      * Coulomb:
        alpha                          2.000000
        third order                    shell-resolved
        anisotropic                    true
        a3                             3.000000
        a5                             4.000000
        cn-shift                       1.200000
        cn-exp                         4.000000
        max-rad                        5.000000


          ...................................................
          :                      SETUP                      :
          :.................................................:
          :  # basis functions                 160          :
          :  # atomic orbitals                 160          :
          :  # shells                           88          :
          :  # electrons                       166          :
          :  max. iterations                   250          :
          :  Hamiltonian                  GFN2-xTB          :
          :  restarted?                      false          :
          :  GBSA solvation                  false          :
          :  PC potential                    false          :
          :  electronic temp.          300.0000000     K    :
          :  accuracy                    1.0000000          :
          :  -> integral cutoff          0.2500000E+02      :
          :  -> integral neglect         0.1000000E-07      :
          :  -> SCF convergence          0.1000000E-05 Eh   :
          :  -> wf. convergence          0.1000000E-03 e    :
          :  Broyden damping             0.4000000          :
          :  net charge                          0          :
          :  unpaired electrons                  0          :
          ...................................................

 iter      E             dE          RMSdq      gap      omega  full diag
   1    -91.3601650 -0.913602E+02  0.476E+00    2.54       0.0  T
   2    -91.4209997 -0.608347E-01  0.315E+00    2.73       1.0  T
   3    -91.3492838  0.717159E-01  0.212E+00    2.19       1.0  T
   4    -91.4787242 -0.129440E+00  0.689E-01    2.23       1.0  T
   5    -91.4987083 -0.199841E-01  0.160E-01    2.14       1.0  T
   6    -91.4992249 -0.516567E-03  0.833E-02    2.20       1.0  T
   7    -91.4994452 -0.220385E-03  0.262E-02    2.21       1.0  T
   8    -91.4994551 -0.989463E-05  0.145E-02    2.21       1.0  T
   9    -91.4994584 -0.324149E-05  0.459E-03    2.21       3.0  T
  10    -91.4994590 -0.621566E-06  0.160E-03    2.21       8.6  T
  11    -91.4994590 -0.307112E-07  0.725E-04    2.21      19.1  T
  12    -91.4994590 -0.371084E-08  0.374E-04    2.21      37.1  T

   *** convergence criteria satisfied after 12 iterations ***

         #    Occupation            Energy/Eh            Energy/eV
      -------------------------------------------------------------
         1        2.0000           -0.6993776             -19.0310
       ...           ...                  ...                  ...
        77        2.0000           -0.4249136             -11.5625
        78        2.0000           -0.4005502             -10.8995
        79        2.0000           -0.3991331             -10.8610
        80        2.0000           -0.3902283             -10.6187
        81        2.0000           -0.3870054             -10.5310
        82        2.0000           -0.3865676             -10.5190
        83        2.0000           -0.3853620             -10.4862 (HOMO)
        84                         -0.3041897              -8.2774 (LUMO)
        85                         -0.2854631              -7.7678
        86                         -0.2757238              -7.5028
        87                         -0.2755077              -7.4969
        88                         -0.2502859              -6.8106
       ...                                ...                  ...
       160                          1.0891037              29.6360
      -------------------------------------------------------------
                  HL-Gap            0.0811723 Eh            2.2088 eV
             Fermi-level           -0.3447759 Eh           -9.3818 eV

 SCC (total)                   0 d,  0 h,  0 min,  0.085 sec
 SCC setup                      ...        0 min,  0.001 sec (  0.607%)
 Dispersion                     ...        0 min,  0.002 sec (  2.050%)
 classical contributions        ...        0 min,  0.000 sec (  0.063%)
 integral evaluation            ...        0 min,  0.005 sec (  5.728%)
 iterations                     ...        0 min,  0.071 sec ( 82.959%)
 molecular gradient             ...        0 min,  0.007 sec (  7.755%)
 printout                       ...        0 min,  0.001 sec (  0.742%)

         :::::::::::::::::::::::::::::::::::::::::::::::::::::
         ::                     SUMMARY                     ::
         :::::::::::::::::::::::::::::::::::::::::::::::::::::
         :: total energy             -89.923528253501 Eh    ::
         :: gradient norm              0.135100463668 Eh/a0 ::
         :: HOMO-LUMO gap              2.208810703673 eV    ::
         ::.................................................::
         :: SCC energy               -91.497507754887 Eh    ::
         :: -> isotropic ES            0.040098292523 Eh    ::
         :: -> anisotropic ES          0.005888473296 Eh    ::
         :: -> anisotropic XC          0.084225209622 Eh    ::
         :: -> dispersion             -0.078209178926 Eh    ::
         :: repulsion energy           1.573979501385 Eh    ::
         :: add. restraining           0.000000000000 Eh    ::
         :: total charge               0.000000000000 e     ::
         :::::::::::::::::::::::::::::::::::::::::::::::::::::

      ----------------------------------------------------------- 
     |                   =====================                   |
     |                        A N C O P T                        |
     |                   =====================                   |
     |               Approximate Normal Coordinate               |
     |                Rational Function Optimizer                |
      ----------------------------------------------------------- 

Optimization log is written to '/dev/null'
      ----------------------------------------------------------- 
     |                   =====================                   |
     |                        A N C O P T                        |
     |                   =====================                   |
     |               Approximate Normal Coordinate               |
     |                Rational Function Optimizer                |
      ----------------------------------------------------------- 

          ...................................................
          :                      SETUP                      :
          :.................................................:
          :   optimization level         verytight          :
          :   max. optcycles                  1040          :
          :   ANC micro-cycles                  20          :
          :   degrees of freedom               150          :
          :.................................................:
          :   RF solver                   davidson          :
          :   write xtbopt.log                true          :
          :   linear?                        false          :
          :   energy convergence         0.1000000E-06 Eh   :
          :   grad. convergence          0.2000000E-03 Eh/α :
          :   maxmium RF displ.          1.0000000          :
          :   Hlow (freq-cutoff)         0.1000000E-01      :
          :   Hmax (freq-cutoff)         5.0000000          :
          :   S6 in model hess.         20.0000000          :
          ...................................................

generating ANC from exact Hessian ...
Using Lindh-Hessian (1995)
 Shifting diagonal of input Hessian by   9.884135586227943E-003
 Lowest  eigenvalues of input Hessian
    0.000000    0.000000    0.000000    0.000000    0.000000    0.000000
    0.010000    0.010011    0.010148    0.010284    0.010409    0.011521
    0.011674    0.011995    0.012632    0.013039    0.014254    0.014254
 Highest eigenvalues
    2.107479    2.115688    2.168698    2.173105    2.530727    2.534523
 

........................................................................
.............................. CYCLE    1 ..............................
........................................................................

 iter      E             dE          RMSdq      gap      omega  full diag
   1    -91.4994590 -0.914995E+02  0.101E-04    2.21       0.0  T
   2    -91.4994590 -0.904947E-10  0.702E-05    2.21     197.5  T
   3    -91.4994590 -0.131593E-09  0.449E-05    2.21     308.8  T
     SCC iter.                  ...        0 min,  0.017 sec
     gradient                   ...        0 min,  0.006 sec
 * total energy  :   -89.9235283 Eh     change       -0.3143498E-08 Eh
   gradient norm :     0.1351036 Eh/α   predicted     0.0000000E+00 (-100.00%)
   displ. norm   :     0.3479679 α      lambda       -0.2124901E-01
   maximum displ.:     0.1712684 α      in ANC's #36, #15, #31, ...

........................................................................
.............................. CYCLE    2 ..............................
........................................................................

 iter      E             dE          RMSdq      gap      omega  full diag
   1    -91.5903535 -0.915904E+02  0.194E-01    2.19       0.0  T
   2    -91.5904364 -0.829008E-04  0.126E-01    2.21       1.0  T
   3    -91.5902938  0.142630E-03  0.799E-02    2.21       1.0  T
   4    -91.5905789 -0.285102E-03  0.143E-02    2.21       1.0  T
   5    -91.5905876 -0.874650E-05  0.520E-03    2.21       2.7  T
   6    -91.5905884 -0.824478E-06  0.280E-03    2.21       5.0  T
   7    -91.5905886 -0.141675E-06  0.108E-03    2.21      12.8  T
   8    -91.5905886 -0.671552E-07  0.278E-04    2.21      50.0  T
   9    -91.5905886 -0.124217E-08  0.128E-04    2.21     108.7  T
     SCC iter.                  ...        0 min,  0.044 sec
     gradient                   ...        0 min,  0.006 sec
 * total energy  :   -89.9377399 Eh     change       -0.1421166E-01 Eh
   gradient norm :     0.0508966 Eh/α   predicted    -0.1192536E-01 ( -16.09%)
   displ. norm   :     0.3319151 α      lambda       -0.5865435E-02
   maximum displ.:     0.1926107 α      in ANC's #15, #36, #31, ...

........................................................................
.............................. CYCLE    3 ..............................
........................................................................

 iter      E             dE          RMSdq      gap      omega  full diag
   1    -91.6259839 -0.916260E+02  0.151E-01    2.13       0.0  T
   2    -91.6260668 -0.829629E-04  0.998E-02    2.17       1.0  T
   3    -91.6259897  0.771281E-04  0.581E-02    2.15       1.0  T
   4    -91.6261926 -0.202893E-03  0.101E-02    2.17       1.4  T
   5    -91.6261972 -0.462281E-05  0.368E-03    2.16       3.8  T
   6    -91.6261975 -0.266374E-06  0.194E-03    2.16       7.2  T
   7    -91.6261976 -0.730408E-07  0.933E-04    2.16      14.9  T
   8    -91.6261976 -0.285230E-07  0.318E-04    2.16      43.6  T
     SCC iter.                  ...        0 min,  0.039 sec
     gradient                   ...        0 min,  0.006 sec
 * total energy  :   -89.9410755 Eh     change       -0.3335560E-02 Eh
   gradient norm :     0.0116330 Eh/α   predicted    -0.3255814E-02 (  -2.39%)
   displ. norm   :     0.3048040 α      lambda       -0.1498942E-02
   maximum displ.:     0.1864796 α      in ANC's #15, #2, #5, ...

........................................................................
.............................. CYCLE    4 ..............................
........................................................................

 iter      E             dE          RMSdq      gap      omega  full diag
   1    -91.6313357 -0.916313E+02  0.239E-01    2.13       0.0  T
   2    -91.6313948 -0.590816E-04  0.135E-01    2.14       1.0  T
   3    -91.6311966  0.198204E-03  0.493E-02    2.13       1.0  T
   4    -91.6314353 -0.238736E-03  0.734E-03    2.15       1.9  T
   5    -91.6314374 -0.207897E-05  0.347E-03    2.14       4.0  T
   6    -91.6314375 -0.126453E-06  0.222E-03    2.14       6.2  T
   7    -91.6314377 -0.160493E-06  0.609E-04    2.14      22.8  T
   8    -91.6314377 -0.154405E-07  0.201E-04    2.14      69.2  T
     SCC iter.                  ...        0 min,  0.039 sec
     gradient                   ...        0 min,  0.006 sec
 * total energy  :   -89.9412068 Eh     change       -0.1313062E-03 Eh
   gradient norm :     0.0186242 Eh/α   predicted    -0.8191338E-03 ( 523.83%)
   displ. norm   :     0.2796936 α      lambda       -0.1946446E-02
   maximum displ.:     0.1764387 α      in ANC's #15, #5, #2, ...

........................................................................
.............................. CYCLE    5 ..............................
........................................................................

 iter      E             dE          RMSdq      gap      omega  full diag
   1    -91.6352873 -0.916353E+02  0.215E-01    2.15       0.0  T
   2    -91.6353302 -0.428774E-04  0.120E-01    2.16       1.0  T
   3    -91.6352661  0.640512E-04  0.301E-02    2.15       1.0  T
   4    -91.6353500 -0.839033E-04  0.613E-03    2.16       2.3  T
   5    -91.6353518 -0.177000E-05  0.248E-03    2.15       5.6  T
   6    -91.6353518  0.387543E-08  0.140E-03    2.15       9.9  T
   7    -91.6353519 -0.762820E-07  0.395E-04    2.15      35.1  T
   8    -91.6353519 -0.672019E-08  0.153E-04    2.15      90.8  T
     SCC iter.                  ...        0 min,  0.039 sec
     gradient                   ...        0 min,  0.006 sec
 * total energy  :   -89.9422074 Eh     change       -0.1000636E-02 Eh
   gradient norm :     0.0131185 Eh/α   predicted    -0.1049357E-02 (   4.87%)
   displ. norm   :     0.1292759 α      lambda       -0.3233735E-03
   maximum displ.:     0.0930047 α      in ANC's #5, #15, #9, ...

........................................................................
.............................. CYCLE    6 ..............................
........................................................................

 iter      E             dE          RMSdq      gap      omega  full diag
   1    -91.6298211 -0.916298E+02  0.385E-02    2.16       0.0  T
   2    -91.6298222 -0.101521E-05  0.228E-02    2.15       1.0  T
   3    -91.6298138  0.840797E-05  0.129E-02    2.15       1.1  T
   4    -91.6298236 -0.988536E-05  0.173E-03    2.15       8.0  T
   5    -91.6298237 -0.104404E-06  0.778E-04    2.15      17.8  T
   6    -91.6298238 -0.145497E-07  0.399E-04    2.15      34.7  T
     SCC iter.                  ...        0 min,  0.029 sec
     gradient                   ...        0 min,  0.006 sec
 * total energy  :   -89.9424360 Eh     change       -0.2285353E-03 Eh
   gradient norm :     0.0039368 Eh/α   predicted    -0.1643895E-03 ( -28.07%)
   displ. norm   :     0.1953409 α      lambda       -0.2324518E-03
   maximum displ.:     0.1433554 α      in ANC's #5, #15, #9, ...

........................................................................
.............................. CYCLE    7 ..............................
........................................................................

 iter      E             dE          RMSdq      gap      omega  full diag
   1    -91.6290710 -0.916291E+02  0.487E-02    2.16       0.0  T
   2    -91.6290718 -0.803328E-06  0.281E-02    2.16       1.0  T
   3    -91.6290706  0.122200E-05  0.551E-03    2.16       2.5  T
   4    -91.6290722 -0.159538E-05  0.142E-03    2.16       9.7  T
   5    -91.6290722 -0.289839E-07  0.794E-04    2.16      17.5  T
   6    -91.6290722 -0.153118E-07  0.197E-04    2.16      70.6  T
     SCC iter.                  ...        0 min,  0.033 sec
     gradient                   ...        0 min,  0.006 sec
 * total energy  :   -89.9426058 Eh     change       -0.1698302E-03 Eh
   gradient norm :     0.0037479 Eh/α   predicted    -0.1206616E-03 ( -28.95%)
   displ. norm   :     0.1652174 α      lambda       -0.1295620E-03
   maximum displ.:     0.1321998 α      in ANC's #5, #9, #3, ...

........................................................................
.............................. CYCLE    8 ..............................
........................................................................

 iter      E             dE          RMSdq      gap      omega  full diag
   1    -91.6296683 -0.916297E+02  0.385E-02    2.16       0.0  T
   2    -91.6296689 -0.523510E-06  0.222E-02    2.16       1.0  T
   3    -91.6296674  0.145325E-05  0.455E-03    2.16       3.0  T
   4    -91.6296692 -0.176283E-05  0.103E-03    2.16      13.5  T
   5    -91.6296692 -0.382622E-08  0.621E-04    2.16      22.3  T
   6    -91.6296692 -0.128267E-07  0.218E-04    2.16      63.5  T
     SCC iter.                  ...        0 min,  0.030 sec
     gradient                   ...        0 min,  0.006 sec
 * total energy  :   -89.9427133 Eh     change       -0.1074914E-03 Eh
   gradient norm :     0.0039542 Eh/α   predicted    -0.6655074E-04 ( -38.09%)
   displ. norm   :     0.1677901 α      lambda       -0.1340507E-03
   maximum displ.:     0.1326629 α      in ANC's #5, #3, #9, ...

........................................................................
.............................. CYCLE    9 ..............................
........................................................................

 iter      E             dE          RMSdq      gap      omega  full diag
   1    -91.6305740 -0.916306E+02  0.606E-02    2.16       0.0  T
   2    -91.6305761 -0.212534E-05  0.343E-02    2.16       1.0  T
   3    -91.6305743  0.181211E-05  0.571E-03    2.16       2.4  T
   4    -91.6305771 -0.278973E-05  0.160E-03    2.16       8.7  T
   5    -91.6305771 -0.213664E-07  0.803E-04    2.16      17.3  T
   6    -91.6305771 -0.267492E-07  0.278E-04    2.16      49.9  T
     SCC iter.                  ...        0 min,  0.030 sec
     gradient                   ...        0 min,  0.006 sec
 * total energy  :   -89.9427924 Eh     change       -0.7912710E-04 Eh
   gradient norm :     0.0042079 Eh/α   predicted    -0.6891591E-04 ( -12.90%)
   displ. norm   :     0.1725278 α      lambda       -0.1836257E-03
   maximum displ.:     0.1345500 α      in ANC's #5, #3, #9, ...

........................................................................
.............................. CYCLE   10 ..............................
........................................................................

 iter      E             dE          RMSdq      gap      omega  full diag
   1    -91.6319149 -0.916319E+02  0.610E-02    2.16       0.0  T
   2    -91.6319167 -0.180906E-05  0.349E-02    2.16       1.0  T
   3    -91.6319131  0.359804E-05  0.712E-03    2.16       1.9  T
   4    -91.6319177 -0.458686E-05  0.160E-03    2.16       8.7  T
   5    -91.6319177 -0.291102E-07  0.728E-04    2.16      19.1  T
   6    -91.6319177 -0.174730E-07  0.218E-04    2.16      63.5  T
     SCC iter.                  ...        0 min,  0.029 sec
     gradient                   ...        0 min,  0.006 sec
 * total energy  :   -89.9429260 Eh     change       -0.1335752E-03 Eh
   gradient norm :     0.0034409 Eh/α   predicted    -0.9454703E-04 ( -29.22%)
   displ. norm   :     0.1656445 α      lambda       -0.1145062E-03
   maximum displ.:     0.1336166 α      in ANC's #5, #3, #9, ...

........................................................................
.............................. CYCLE   11 ..............................
........................................................................

 iter      E             dE          RMSdq      gap      omega  full diag
   1    -91.6318473 -0.916318E+02  0.429E-02    2.16       0.0  T
   2    -91.6318479 -0.543001E-06  0.251E-02    2.16       1.0  T
   3    -91.6318442  0.373007E-05  0.657E-03    2.16       2.1  T
   4    -91.6318483 -0.419656E-05  0.100E-03    2.16      13.8  T
   5    -91.6318484 -0.173616E-07  0.592E-04    2.16      23.4  T
   6    -91.6318484 -0.677377E-08  0.309E-04    2.16      44.9  T
     SCC iter.                  ...        0 min,  0.030 sec
     gradient                   ...        0 min,  0.006 sec
 * total energy  :   -89.9430287 Eh     change       -0.1026999E-03 Eh
   gradient norm :     0.0030568 Eh/α   predicted    -0.5882498E-04 ( -42.72%)
   displ. norm   :     0.1628940 α      lambda       -0.1170318E-03
   maximum displ.:     0.1291647 α      in ANC's #5, #3, #15, ...

........................................................................
.............................. CYCLE   12 ..............................
........................................................................

 iter      E             dE          RMSdq      gap      omega  full diag
   1    -91.6314475 -0.916314E+02  0.432E-02    2.16       0.0  T
   2    -91.6314478 -0.393593E-06  0.252E-02    2.16       1.0  T
   3    -91.6314470  0.866190E-06  0.364E-03    2.16       3.8  T
   4    -91.6314480 -0.104479E-05  0.965E-04    2.16      14.4  T
   5    -91.6314480 -0.196877E-07  0.534E-04    2.16      26.0  T
   6    -91.6314481 -0.647552E-08  0.228E-04    2.16      60.8  T
     SCC iter.                  ...        0 min,  0.030 sec
     gradient                   ...        0 min,  0.006 sec
 * total energy  :   -89.9431347 Eh     change       -0.1059821E-03 Eh
   gradient norm :     0.0020492 Eh/α   predicted    -0.6006954E-04 ( -43.32%)
   displ. norm   :     0.1861730 α      lambda       -0.1205140E-03
   maximum displ.:     0.1449060 α      in ANC's #5, #3, #15, ...

........................................................................
.............................. CYCLE   13 ..............................
........................................................................

 iter      E             dE          RMSdq      gap      omega  full diag
   1    -91.6310329 -0.916310E+02  0.491E-02    2.16       0.0  T
   2    -91.6310334 -0.433097E-06  0.286E-02    2.16       1.0  T
   3    -91.6310331  0.229476E-06  0.267E-03    2.16       5.2  T
   4    -91.6310335 -0.389620E-06  0.102E-03    2.16      13.5  T
   5    -91.6310335 -0.119390E-07  0.571E-04    2.16      24.3  T
   6    -91.6310336 -0.127123E-07  0.158E-04    2.16      87.7  T
     SCC iter.                  ...        0 min,  0.030 sec
     gradient                   ...        0 min,  0.006 sec
 * total energy  :   -89.9432441 Eh     change       -0.1093932E-03 Eh
   gradient norm :     0.0018269 Eh/α   predicted    -0.6234862E-04 ( -43.01%)
   displ. norm   :     0.3110754 α      lambda       -0.1207164E-03
   maximum displ.:     0.2368607 α      in ANC's #5, #3, #15, ...

........................................................................
.............................. CYCLE   14 ..............................
........................................................................

 iter      E             dE          RMSdq      gap      omega  full diag
   1    -91.6304522 -0.916305E+02  0.805E-02    2.16       0.0  T
   2    -91.6304532 -0.101406E-05  0.470E-02    2.16       1.0  T
   3    -91.6304527  0.437772E-06  0.385E-03    2.16       3.6  T
   4    -91.6304535 -0.818345E-06  0.155E-03    2.16       8.9  T
   5    -91.6304536 -0.224146E-07  0.825E-04    2.16      16.8  T
   6    -91.6304536 -0.321218E-07  0.221E-04    2.16      62.7  T
     SCC iter.                  ...        0 min,  0.030 sec
     gradient                   ...        0 min,  0.006 sec
 * total energy  :   -89.9434078 Eh     change       -0.1637051E-03 Eh
   gradient norm :     0.0026183 Eh/α   predicted    -0.6295778E-04 ( -61.54%)
   displ. norm   :     0.2274103 α      lambda       -0.1273493E-03
   maximum displ.:     0.1690606 α      in ANC's #5, #3, #2, ...

........................................................................
.............................. CYCLE   15 ..............................
........................................................................

 iter      E             dE          RMSdq      gap      omega  full diag
   1    -91.6304254 -0.916304E+02  0.582E-02    2.16       0.0  T
   2    -91.6304259 -0.527136E-06  0.340E-02    2.16       1.0  T
   3    -91.6304252  0.746017E-06  0.361E-03    2.16       3.8  T
   4    -91.6304262 -0.987569E-06  0.110E-03    2.16      12.6  T
   5    -91.6304262 -0.504005E-08  0.602E-04    2.16      23.0  T
   6    -91.6304262 -0.176024E-07  0.173E-04    2.16      80.3  T
     SCC iter.                  ...        0 min,  0.030 sec
     gradient                   ...        0 min,  0.006 sec
 * total energy  :   -89.9435308 Eh     change       -0.1230623E-03 Eh
   gradient norm :     0.0026233 Eh/α   predicted    -0.6697041E-04 ( -45.58%)
   displ. norm   :     0.3252895 α      lambda       -0.1861247E-03
   maximum displ.:     0.2364071 α      in ANC's #5, #3, #9, ...

........................................................................
.............................. CYCLE   16 ..............................
........................................................................

 iter      E             dE          RMSdq      gap      omega  full diag
   1    -91.6304133 -0.916304E+02  0.846E-02    2.16       0.0  T
   2    -91.6304145 -0.120785E-05  0.494E-02    2.16       1.0  T
   3    -91.6304120  0.243016E-05  0.613E-03    2.16       2.3  T
   4    -91.6304151 -0.305280E-05  0.163E-03    2.16       8.5  T
   5    -91.6304151  0.215209E-09  0.941E-04    2.16      14.7  T
   6    -91.6304151 -0.446160E-07  0.247E-04    2.16      56.1  T
     SCC iter.                  ...        0 min,  0.030 sec
     gradient                   ...        0 min,  0.006 sec
 * total energy  :   -89.9437079 Eh     change       -0.1770551E-03 Eh
   gradient norm :     0.0022046 Eh/α   predicted    -0.1029104E-03 ( -41.88%)
   displ. norm   :     0.4412732 α      lambda       -0.2389215E-03
   maximum displ.:     0.3194433 α      in ANC's #5, #3, #2, ...

........................................................................
.............................. CYCLE   17 ..............................
........................................................................

 iter      E             dE          RMSdq      gap      omega  full diag
   1    -91.6300781 -0.916301E+02  0.115E-01    2.17       0.0  T
   2    -91.6300805 -0.241094E-05  0.672E-02    2.17       1.0  T
   3    -91.6300746  0.592032E-05  0.931E-03    2.17       1.5  T
   4    -91.6300819 -0.725539E-05  0.229E-03    2.17       6.0  T
   5    -91.6300818  0.113947E-07  0.139E-03    2.17      10.0  T
   6    -91.6300819 -0.963673E-07  0.342E-04    2.17      40.6  T
   7    -91.6300819 -0.402403E-08  0.135E-04    2.17     102.9  T
     SCC iter.                  ...        0 min,  0.034 sec
     gradient                   ...        0 min,  0.006 sec
 * total energy  :   -89.9439277 Eh     change       -0.2197904E-03 Eh
   gradient norm :     0.0018981 Eh/α   predicted    -0.1427267E-03 ( -35.06%)
   displ. norm   :     0.7407705 α      lambda       -0.2348237E-03
   maximum displ.:     0.5409570 α      in ANC's #5, #3, #2, ...

........................................................................
.............................. CYCLE   18 ..............................
........................................................................

 iter      E             dE          RMSdq      gap      omega  full diag
   1    -91.6287842 -0.916288E+02  0.191E-01    2.17       0.0  T
   2    -91.6287913 -0.706661E-05  0.111E-01    2.18       1.0  T
   3    -91.6287718  0.194551E-04  0.166E-02    2.17       1.0  T
   4    -91.6287954 -0.235469E-04  0.391E-03    2.17       3.5  T
   5    -91.6287953  0.382908E-07  0.241E-03    2.17       5.7  T
   6    -91.6287956 -0.289140E-06  0.582E-04    2.17      23.8  T
   7    -91.6287956 -0.117342E-07  0.233E-04    2.17      59.5  T
     SCC iter.                  ...        0 min,  0.035 sec
     gradient                   ...        0 min,  0.006 sec
 * total energy  :   -89.9442210 Eh     change       -0.2932891E-03 Eh
   gradient norm :     0.0031307 Eh/α   predicted    -0.1460488E-03 ( -50.20%)
   displ. norm   :     0.3926779 α      lambda       -0.1538034E-03
   maximum displ.:     0.2937328 α      in ANC's #5, #3, #2, ...

........................................................................
.............................. CYCLE   19 ..............................
........................................................................

 iter      E             dE          RMSdq      gap      omega  full diag
   1    -91.6300669 -0.916301E+02  0.975E-02    2.17       0.0  T
   2    -91.6300689 -0.202483E-05  0.569E-02    2.18       1.0  T
   3    -91.6300632  0.573840E-05  0.894E-03    2.17       1.6  T
   4    -91.6300701 -0.691989E-05  0.206E-03    2.18       6.7  T
   5    -91.6300701  0.118996E-08  0.122E-03    2.17      11.4  T
   6    -91.6300702 -0.767927E-07  0.309E-04    2.18      44.8  T
   7    -91.6300702 -0.357012E-08  0.129E-04    2.18     107.9  T
     SCC iter.                  ...        0 min,  0.034 sec
     gradient                   ...        0 min,  0.006 sec
 * total energy  :   -89.9443581 Eh     change       -0.1371121E-03 Eh
   gradient norm :     0.0027129 Eh/α   predicted    -0.8876495E-04 ( -35.26%)
   displ. norm   :     0.3968833 α      lambda       -0.1401813E-03
   maximum displ.:     0.3012470 α      in ANC's #5, #3, #2, ...

........................................................................
.............................. CYCLE   20 ..............................
........................................................................

 iter      E             dE          RMSdq      gap      omega  full diag
   1    -91.6310977 -0.916311E+02  0.995E-02    2.18       0.0  T
   2    -91.6310999 -0.214024E-05  0.580E-02    2.18       1.0  T
   3    -91.6310963  0.358737E-05  0.759E-03    2.17       1.8  T
   4    -91.6311009 -0.463281E-05  0.212E-03    2.18       6.5  T
   5    -91.6311009 -0.151299E-07  0.117E-03    2.18      11.9  T
   6    -91.6311010 -0.789380E-07  0.282E-04    2.18      49.3  T
   7    -91.6311010 -0.294254E-08  0.133E-04    2.18     103.9  T
     SCC iter.                  ...        0 min,  0.035 sec
     gradient                   ...        0 min,  0.006 sec
 * total energy  :   -89.9444831 Eh     change       -0.1250326E-03 Eh
   gradient norm :     0.0022371 Eh/α   predicted    -0.8113570E-04 ( -35.11%)
   displ. norm   :     0.3739695 α      lambda       -0.1190111E-03
   maximum displ.:     0.2883359 α      in ANC's #5, #3, #2, ...
 * RMSD in coord.:     0.6495078 α      energy gain  -0.2095485E-01 Eh

generating ANC from exact Hessian ...
Using Lindh-Hessian (1995)
 Shifting diagonal of input Hessian by   9.687372963828988E-003
 Lowest  eigenvalues of input Hessian
    0.000000    0.000000    0.000000    0.000000    0.000000    0.000000
    0.010000    0.010048    0.010172    0.010289    0.010446    0.011671
    0.011951    0.012089    0.012691    0.013495    0.014368    0.014426
 Highest eigenvalues
    2.231712    2.235396    2.277155    2.284596    2.629533    2.639835
 

........................................................................
.............................. CYCLE   21 ..............................
........................................................................

 iter      E             dE          RMSdq      gap      omega  full diag
   1    -91.6320192 -0.916320E+02  0.926E-02    2.18       0.0  T
   2    -91.6320210 -0.180691E-05  0.540E-02    2.18       1.0  T
   3    -91.6320173  0.374020E-05  0.747E-03    2.17       1.9  T
   4    -91.6320220 -0.468487E-05  0.194E-03    2.18       7.1  T
   5    -91.6320220 -0.161986E-07  0.105E-03    2.18      13.2  T
   6    -91.6320220 -0.626924E-07  0.243E-04    2.18      57.0  T
   7    -91.6320220 -0.199668E-08  0.129E-04    2.18     107.9  T
     SCC iter.                  ...        0 min,  0.035 sec
     gradient                   ...        0 min,  0.006 sec
 * total energy  :   -89.9445898 Eh     change       -0.1067018E-03 Eh
   gradient norm :     0.0016182 Eh/α   predicted     0.0000000E+00 (-100.00%)
   displ. norm   :     0.0639770 α      lambda       -0.2286569E-04
   maximum displ.:     0.0459235 α      in ANC's #5, #9, #15, ...

........................................................................
.............................. CYCLE   22 ..............................
........................................................................

 iter      E             dE          RMSdq      gap      omega  full diag
   1    -91.6327417 -0.916327E+02  0.311E-02    2.18       0.0  T
   2    -91.6327423 -0.550103E-06  0.175E-02    2.18       1.0  T
   3    -91.6327420  0.240819E-06  0.265E-03    2.18       5.2  T
   4    -91.6327425 -0.467729E-06  0.837E-04    2.18      16.6  T
   5    -91.6327425 -0.958602E-08  0.517E-04    2.18      26.8  T
     SCC iter.                  ...        0 min,  0.025 sec
     gradient                   ...        0 min,  0.006 sec
 * total energy  :   -89.9446123 Eh     change       -0.2249155E-04 Eh
   gradient norm :     0.0014749 Eh/α   predicted    -0.1244854E-04 ( -44.65%)
   displ. norm   :     0.1919066 α      lambda       -0.7140553E-04
   maximum displ.:     0.1227545 α      in ANC's #5, #2, #9, ...

........................................................................
.............................. CYCLE   23 ..............................
........................................................................

 iter      E             dE          RMSdq      gap      omega  full diag
   1    -91.6347312 -0.916347E+02  0.718E-02    2.18       0.0  T
   2    -91.6347334 -0.214564E-05  0.412E-02    2.18       1.0  T
   3    -91.6347295  0.391339E-05  0.803E-03    2.18       1.7  T
   4    -91.6347344 -0.491065E-05  0.203E-03    2.18       6.8  T
   5    -91.6347345 -0.931271E-07  0.121E-03    2.18      11.4  T
   6    -91.6347345 -0.332616E-07  0.401E-04    2.18      34.5  T
   7    -91.6347345 -0.502669E-08  0.123E-04    2.18     112.6  T
     SCC iter.                  ...        0 min,  0.035 sec
     gradient                   ...        0 min,  0.006 sec
 * total energy  :   -89.9446485 Eh     change       -0.3622924E-04 Eh
   gradient norm :     0.0044200 Eh/α   predicted    -0.3628750E-04 (   0.16%)
   displ. norm   :     0.0553520 α      lambda       -0.4142785E-04
   maximum displ.:     0.0385615 α      in ANC's #5, #2, #4, ...

........................................................................
.............................. CYCLE   24 ..............................
........................................................................

 iter      E             dE          RMSdq      gap      omega  full diag
   1    -91.6339047 -0.916339E+02  0.232E-02    2.18       0.0  T
   2    -91.6339051 -0.369782E-06  0.130E-02    2.17       1.1  T
   3    -91.6339051 -0.792258E-08  0.172E-03    2.17       8.1  T
   4    -91.6339053 -0.133178E-06  0.563E-04    2.17      24.6  T
   5    -91.6339053  0.262261E-09  0.342E-04    2.17      40.5  T
     SCC iter.                  ...        0 min,  0.025 sec
     gradient                   ...        0 min,  0.006 sec
 * total energy  :   -89.9446803 Eh     change       -0.3172482E-04 Eh
   gradient norm :     0.0027988 Eh/α   predicted    -0.2078108E-04 ( -34.50%)
   displ. norm   :     0.1348926 α      lambda       -0.9516830E-04
   maximum displ.:     0.0949048 α      in ANC's #5, #2, #9, ...

........................................................................
.............................. CYCLE   25 ..............................
........................................................................

 iter      E             dE          RMSdq      gap      omega  full diag
   1    -91.6312615 -0.916313E+02  0.475E-02    2.17       0.0  T
   2    -91.6312628 -0.125865E-05  0.270E-02    2.17       1.0  T
   3    -91.6312622  0.552154E-06  0.467E-03    2.17       3.0  T
   4    -91.6312633 -0.103961E-05  0.129E-03    2.17      10.7  T
   5    -91.6312633 -0.202757E-07  0.796E-04    2.17      17.4  T
   6    -91.6312633 -0.200286E-07  0.205E-04    2.17      67.6  T
     SCC iter.                  ...        0 min,  0.030 sec
     gradient                   ...        0 min,  0.006 sec
 * total energy  :   -89.9446951 Eh     change       -0.1483292E-04 Eh
   gradient norm :     0.0040052 Eh/α   predicted    -0.4845085E-04 ( 226.64%)
   displ. norm   :     0.0623419 α      lambda       -0.6864805E-04
   maximum displ.:     0.0375740 α      in ANC's #5, #2, #3, ...

........................................................................
.............................. CYCLE   26 ..............................
........................................................................

 iter      E             dE          RMSdq      gap      omega  full diag
   1    -91.6318182 -0.916318E+02  0.416E-02    2.17       0.0  T
   2    -91.6318195 -0.132465E-05  0.230E-02    2.17       1.0  T
   3    -91.6318199 -0.311654E-06  0.210E-03    2.17       6.6  T
   4    -91.6318200 -0.193527E-06  0.910E-04    2.17      15.2  T
   5    -91.6318201 -0.121608E-07  0.432E-04    2.17      32.1  T
     SCC iter.                  ...        0 min,  0.025 sec
     gradient                   ...        0 min,  0.006 sec
 * total energy  :   -89.9447401 Eh     change       -0.4501978E-04 Eh
   gradient norm :     0.0021467 Eh/α   predicted    -0.3445940E-04 ( -23.46%)
   displ. norm   :     0.1143168 α      lambda       -0.3831176E-04
   maximum displ.:     0.0801506 α      in ANC's #5, #2, #3, ...

........................................................................
.............................. CYCLE   27 ..............................
........................................................................

 iter      E             dE          RMSdq      gap      omega  full diag
   1    -91.6323977 -0.916324E+02  0.309E-02    2.17       0.0  T
   2    -91.6323983 -0.658516E-06  0.174E-02    2.17       1.0  T
   3    -91.6323981  0.218425E-06  0.267E-03    2.17       5.2  T
   4    -91.6323986 -0.456037E-06  0.974E-04    2.17      14.2  T
   5    -91.6323986 -0.195965E-07  0.558E-04    2.17      24.8  T
     SCC iter.                  ...        0 min,  0.025 sec
     gradient                   ...        0 min,  0.006 sec
 * total energy  :   -89.9447723 Eh     change       -0.3221664E-04 Eh
   gradient norm :     0.0014718 Eh/α   predicted    -0.1940705E-04 ( -39.76%)
   displ. norm   :     0.2509266 α      lambda       -0.4891879E-04
   maximum displ.:     0.1760162 α      in ANC's #5, #2, #3, ...

........................................................................
.............................. CYCLE   28 ..............................
........................................................................

 iter      E             dE          RMSdq      gap      omega  full diag
   1    -91.6336594 -0.916337E+02  0.531E-02    2.18       0.0  T
   2    -91.6336611 -0.170654E-05  0.304E-02    2.18       1.0  T
   3    -91.6336595  0.166248E-05  0.579E-03    2.18       2.4  T
   4    -91.6336617 -0.225917E-05  0.190E-03    2.17       7.3  T
   5    -91.6336618 -0.956012E-07  0.105E-03    2.18      13.2  T
   6    -91.6336618 -0.249064E-07  0.381E-04    2.18      36.4  T
   7    -91.6336618 -0.436511E-08  0.866E-05    2.18     160.1  T
     SCC iter.                  ...        0 min,  0.035 sec
     gradient                   ...        0 min,  0.006 sec
 * total energy  :   -89.9448307 Eh     change       -0.5840494E-04 Eh
   gradient norm :     0.0015208 Eh/α   predicted    -0.2514530E-04 ( -56.95%)
   displ. norm   :     0.2308153 α      lambda       -0.3772238E-04
   maximum displ.:     0.1615532 α      in ANC's #5, #2, #3, ...

........................................................................
.............................. CYCLE   29 ..............................
........................................................................

 iter      E             dE          RMSdq      gap      omega  full diag
   1    -91.6333876 -0.916334E+02  0.436E-02    2.18       0.0  T
   2    -91.6333883 -0.783098E-06  0.254E-02    2.18       1.0  T
   3    -91.6333872  0.110965E-05  0.444E-03    2.18       3.1  T
   4    -91.6333886 -0.136515E-05  0.130E-03    2.18      10.6  T
   5    -91.6333886 -0.479091E-07  0.727E-04    2.18      19.1  T
   6    -91.6333887 -0.113431E-07  0.301E-04    2.18      46.1  T
     SCC iter.                  ...        0 min,  0.030 sec
     gradient                   ...        0 min,  0.006 sec
 * total energy  :   -89.9448806 Eh     change       -0.4984849E-04 Eh
   gradient norm :     0.0010396 Eh/α   predicted    -0.1931105E-04 ( -61.26%)
   displ. norm   :     0.2040865 α      lambda       -0.3171289E-04
   maximum displ.:     0.1421257 α      in ANC's #5, #2, #1, ...

........................................................................
.............................. CYCLE   30 ..............................
........................................................................

 iter      E             dE          RMSdq      gap      omega  full diag
   1    -91.6334335 -0.916334E+02  0.422E-02    2.18       0.0  T
   2    -91.6334340 -0.520861E-06  0.246E-02    2.18       1.0  T
   3    -91.6334327  0.129194E-05  0.457E-03    2.18       3.0  T
   4    -91.6334342 -0.148228E-05  0.119E-03    2.18      11.7  T
   5    -91.6334342 -0.465302E-07  0.604E-04    2.18      23.0  T
   6    -91.6334342 -0.812749E-08  0.226E-04    2.18      61.3  T
     SCC iter.                  ...        0 min,  0.029 sec
     gradient                   ...        0 min,  0.006 sec
 * total energy  :   -89.9449233 Eh     change       -0.4276123E-04 Eh
   gradient norm :     0.0009921 Eh/α   predicted    -0.1615399E-04 ( -62.22%)
   displ. norm   :     0.2338413 α      lambda       -0.3383536E-04
   maximum displ.:     0.1606703 α      in ANC's #5, #2, #1, ...

........................................................................
.............................. CYCLE   31 ..............................
........................................................................

 iter      E             dE          RMSdq      gap      omega  full diag
   1    -91.6329598 -0.916330E+02  0.513E-02    2.18       0.0  T
   2    -91.6329605 -0.731730E-06  0.300E-02    2.17       1.0  T
   3    -91.6329590  0.147801E-05  0.481E-03    2.18       2.9  T
   4    -91.6329608 -0.172604E-05  0.133E-03    2.17      10.4  T
   5    -91.6329608 -0.626795E-07  0.690E-04    2.17      20.1  T
   6    -91.6329608 -0.987693E-08  0.286E-04    2.17      48.5  T
     SCC iter.                  ...        0 min,  0.030 sec
     gradient                   ...        0 min,  0.006 sec
 * total energy  :   -89.9449680 Eh     change       -0.4464915E-04 Eh
   gradient norm :     0.0013940 Eh/α   predicted    -0.1733084E-04 ( -61.18%)
   displ. norm   :     0.2667792 α      lambda       -0.3414775E-04
   maximum displ.:     0.1841539 α      in ANC's #5, #2, #1, ...

........................................................................
.............................. CYCLE   32 ..............................
........................................................................

 iter      E             dE          RMSdq      gap      omega  full diag
   1    -91.6330950 -0.916331E+02  0.591E-02    2.18       0.0  T
   2    -91.6330959 -0.926361E-06  0.345E-02    2.17       1.0  T
   3    -91.6330934  0.254715E-05  0.626E-03    2.18       2.2  T
   4    -91.6330963 -0.290128E-05  0.162E-03    2.17       8.6  T
   5    -91.6330964 -0.897666E-07  0.789E-04    2.17      17.6  T
   6    -91.6330964 -0.120729E-07  0.334E-04    2.17      41.5  T
     SCC iter.                  ...        0 min,  0.030 sec
     gradient                   ...        0 min,  0.006 sec
 * total energy  :   -89.9450113 Eh     change       -0.4328283E-04 Eh
   gradient norm :     0.0012607 Eh/α   predicted    -0.1761806E-04 ( -59.30%)
   displ. norm   :     0.2440133 α      lambda       -0.2554017E-04
   maximum displ.:     0.1718877 α      in ANC's #5, #2, #1, ...

........................................................................
.............................. CYCLE   33 ..............................
........................................................................

 iter      E             dE          RMSdq      gap      omega  full diag
   1    -91.6331237 -0.916331E+02  0.521E-02    2.17       0.0  T
   2    -91.6331245 -0.743032E-06  0.304E-02    2.17       1.0  T
   3    -91.6331232  0.127246E-05  0.450E-03    2.17       3.1  T
   4    -91.6331247 -0.149866E-05  0.141E-03    2.17       9.8  T
   5    -91.6331248 -0.766645E-07  0.691E-04    2.17      20.1  T
   6    -91.6331248 -0.865495E-08  0.309E-04    2.17      44.9  T
     SCC iter.                  ...        0 min,  0.030 sec
     gradient                   ...        0 min,  0.006 sec
 * total energy  :   -89.9450436 Eh     change       -0.3231495E-04 Eh
   gradient norm :     0.0006753 Eh/α   predicted    -0.1310841E-04 ( -59.44%)
   displ. norm   :     0.1824481 α      lambda       -0.1591972E-04
   maximum displ.:     0.1331651 α      in ANC's #5, #2, #1, ...

........................................................................
.............................. CYCLE   34 ..............................
........................................................................

 iter      E             dE          RMSdq      gap      omega  full diag
   1    -91.6333995 -0.916334E+02  0.363E-02    2.17       0.0  T
   2    -91.6333999 -0.388618E-06  0.212E-02    2.17       1.0  T
   3    -91.6333994  0.501946E-06  0.301E-03    2.17       4.6  T
   4    -91.6334000 -0.608369E-06  0.107E-03    2.17      13.0  T
   5    -91.6334000 -0.415115E-07  0.510E-04    2.17      27.2  T
   6    -91.6334000 -0.475892E-08  0.216E-04    2.17      64.3  T
     SCC iter.                  ...        0 min,  0.029 sec
     gradient                   ...        0 min,  0.006 sec
 * total energy  :   -89.9450646 Eh     change       -0.2099645E-04 Eh
   gradient norm :     0.0003755 Eh/α   predicted    -0.8078311E-05 ( -61.53%)
   displ. norm   :     0.1209440 α      lambda       -0.1031199E-04
   maximum displ.:     0.0916147 α      in ANC's #5, #2, #1, ...

........................................................................
.............................. CYCLE   35 ..............................
........................................................................

 iter      E             dE          RMSdq      gap      omega  full diag
   1    -91.6336602 -0.916337E+02  0.223E-02    2.17       0.0  T
   2    -91.6336603 -0.165511E-06  0.130E-02    2.17       1.1  T
   3    -91.6336603  0.951828E-07  0.160E-03    2.17       8.7  T
   4    -91.6336604 -0.144010E-06  0.648E-04    2.17      21.4  T
   5    -91.6336604 -0.108491E-07  0.339E-04    2.17      40.9  T
     SCC iter.                  ...        0 min,  0.025 sec
     gradient                   ...        0 min,  0.006 sec
 * total energy  :   -89.9450786 Eh     change       -0.1407138E-04 Eh
   gradient norm :     0.0002972 Eh/α   predicted    -0.5190486E-05 ( -63.11%)
   displ. norm   :     0.0915305 α      lambda       -0.8104377E-05
   maximum displ.:     0.0707897 α      in ANC's #5, #2, #1, ...

........................................................................
.............................. CYCLE   36 ..............................
........................................................................

 iter      E             dE          RMSdq      gap      omega  full diag
   1    -91.6336679 -0.916337E+02  0.174E-02    2.17       0.0  T
   2    -91.6336680 -0.116561E-06  0.101E-02    2.17       1.4  T
   3    -91.6336680  0.806872E-07  0.138E-03    2.17      10.0  T
   4    -91.6336681 -0.126929E-06  0.466E-04    2.17      29.7  T
   5    -91.6336681 -0.233399E-08  0.215E-04    2.17      64.5  T
     SCC iter.                  ...        0 min,  0.025 sec
     gradient                   ...        0 min,  0.006 sec
 * total energy  :   -89.9450896 Eh     change       -0.1099658E-04 Eh
   gradient norm :     0.0002798 Eh/α   predicted    -0.4067858E-05 ( -63.01%)
   displ. norm   :     0.0793302 α      lambda       -0.6687745E-05
   maximum displ.:     0.0614989 α      in ANC's #5, #1, #2, ...

........................................................................
.............................. CYCLE   37 ..............................
........................................................................

 iter      E             dE          RMSdq      gap      omega  full diag
   1    -91.6337055 -0.916337E+02  0.168E-02    2.17       0.0  T
   2    -91.6337057 -0.118191E-06  0.964E-03    2.17       1.4  T
   3    -91.6337056  0.695325E-07  0.132E-03    2.17      10.5  T
   4    -91.6337057 -0.117953E-06  0.469E-04    2.17      29.6  T
   5    -91.6337057 -0.231306E-08  0.210E-04    2.17      65.9  T
     SCC iter.                  ...        0 min,  0.025 sec
     gradient                   ...        0 min,  0.006 sec
 * total energy  :   -89.9450983 Eh     change       -0.8662174E-05 Eh
   gradient norm :     0.0002753 Eh/α   predicted    -0.3356110E-05 ( -61.26%)
   displ. norm   :     0.0647027 α      lambda       -0.4473972E-05
   maximum displ.:     0.0508553 α      in ANC's #5, #1, #2, ...

........................................................................
.............................. CYCLE   38 ..............................
........................................................................

 iter      E             dE          RMSdq      gap      omega  full diag
   1    -91.6335850 -0.916336E+02  0.150E-02    2.17       0.0  T
   2    -91.6335851 -0.963326E-07  0.861E-03    2.17       1.6  T
   3    -91.6335850  0.127013E-06  0.145E-03    2.17       9.6  T
   4    -91.6335851 -0.173980E-06  0.421E-04    2.17      32.9  T
   5    -91.6335851 -0.859984E-09  0.194E-04    2.17      71.5  T
     SCC iter.                  ...        0 min,  0.025 sec
     gradient                   ...        0 min,  0.006 sec
 * total energy  :   -89.9451039 Eh     change       -0.5576914E-05 Eh
   gradient norm :     0.0002240 Eh/α   predicted    -0.2244903E-05 ( -59.75%)
   displ. norm   :     0.0428605 α      lambda       -0.2308972E-05
   maximum displ.:     0.0354902 α      in ANC's #5, #1, #8, ...

........................................................................
.............................. CYCLE   39 ..............................
........................................................................

 iter      E             dE          RMSdq      gap      omega  full diag
   1    -91.6335819 -0.916336E+02  0.100E-02    2.17       0.0  T
   2    -91.6335819 -0.454565E-07  0.575E-03    2.17       2.4  T
   3    -91.6335819  0.432299E-07  0.929E-04    2.17      14.9  T
   4    -91.6335820 -0.639170E-07  0.290E-04    2.17      47.8  T
     SCC iter.                  ...        0 min,  0.020 sec
     gradient                   ...        0 min,  0.006 sec
 * total energy  :   -89.9451068 Eh     change       -0.2938161E-05 Eh
   gradient norm :     0.0001502 Eh/α   predicted    -0.1159249E-05 ( -60.55%)
   displ. norm   :     0.0236553 α      lambda       -0.1147901E-05
   maximum displ.:     0.0214398 α      in ANC's #5, #1, #8, ...

........................................................................
.............................. CYCLE   40 ..............................
........................................................................

 iter      E             dE          RMSdq      gap      omega  full diag
   1    -91.6335765 -0.916336E+02  0.529E-03    2.17       0.0  T
   2    -91.6335765 -0.905403E-08  0.307E-03    2.17       4.5  T
   3    -91.6335765  0.238109E-07  0.654E-04    2.18      21.2  T
   4    -91.6335765 -0.290332E-07  0.145E-04    2.18      95.9  T
     SCC iter.                  ...        0 min,  0.020 sec
     gradient                   ...        0 min,  0.006 sec
 * total energy  :   -89.9451084 Eh     change       -0.1585839E-05 Eh
   gradient norm :     0.0001210 Eh/α   predicted    -0.5777649E-06 ( -63.57%)
   displ. norm   :     0.0153117 α      lambda       -0.8419584E-06
   maximum displ.:     0.0148297 α      in ANC's #5, #12, #8, ...

........................................................................
.............................. CYCLE   41 ..............................
........................................................................

 iter      E             dE          RMSdq      gap      omega  full diag
   1    -91.6335685 -0.916336E+02  0.366E-03    2.17       0.0  T
   2    -91.6335686 -0.318755E-08  0.213E-03    2.17       6.5  T
   3    -91.6335685  0.609847E-08  0.357E-04    2.17      38.8  T
   4    -91.6335686 -0.767497E-08  0.900E-05    2.17     154.1  T
     SCC iter.                  ...        0 min,  0.020 sec
     gradient                   ...        0 min,  0.006 sec
 * total energy  :   -89.9451096 Eh     change       -0.1224915E-05 Eh
   gradient norm :     0.0001031 Eh/α   predicted    -0.4217198E-06 ( -65.57%)
   displ. norm   :     0.0168296 α      lambda       -0.9719556E-06
   maximum displ.:     0.0147829 α      in ANC's #5, #12, #1, ...

........................................................................
.............................. CYCLE   42 ..............................
........................................................................

 iter      E             dE          RMSdq      gap      omega  full diag
   1    -91.6335610 -0.916336E+02  0.462E-03    2.17       0.0  T
   2    -91.6335610 -0.418247E-08  0.270E-03    2.17       5.1  T
   3    -91.6335610  0.184286E-08  0.254E-04    2.17      54.6  T
   4    -91.6335610 -0.322915E-08  0.106E-04    2.17     130.3  T
     SCC iter.                  ...        0 min,  0.020 sec
     gradient                   ...        0 min,  0.006 sec
 * total energy  :   -89.9451110 Eh     change       -0.1413773E-05 Eh
   gradient norm :     0.0001036 Eh/α   predicted    -0.4886346E-06 ( -65.44%)
   displ. norm   :     0.0272243 α      lambda       -0.1464834E-05
   maximum displ.:     0.0210274 α      in ANC's #5, #1, #2, ...
 * RMSD in coord.:     0.3469112 α      energy gain  -0.6279445E-03 Eh

generating ANC from exact Hessian ...
Using Lindh-Hessian (1995)
 Shifting diagonal of input Hessian by   9.658465185850446E-003
 Lowest  eigenvalues of input Hessian
    0.000000    0.000000    0.000000    0.000000    0.000000    0.000000
    0.010000    0.010100    0.010133    0.010303    0.010516    0.011648
    0.011985    0.012001    0.012637    0.013634    0.014409    0.014463
 Highest eigenvalues
    2.225868    2.235820    2.274255    2.281329    2.628958    2.639503
 

........................................................................
.............................. CYCLE   43 ..............................
........................................................................

 iter      E             dE          RMSdq      gap      omega  full diag
   1    -91.6335868 -0.916336E+02  0.773E-03    2.17       0.0  T
   2    -91.6335868 -0.133897E-07  0.450E-03    2.17       3.1  T
   3    -91.6335868  0.181575E-08  0.378E-04    2.17      36.7  T
   4    -91.6335868 -0.601570E-08  0.182E-04    2.17      76.3  T
     SCC iter.                  ...        0 min,  0.020 sec
     gradient                   ...        0 min,  0.006 sec
 * total energy  :   -89.9451131 Eh     change       -0.2092297E-05 Eh
   gradient norm :     0.0001122 Eh/α   predicted     0.0000000E+00 (-100.00%)
   displ. norm   :     0.0115942 α      lambda       -0.1824072E-07
   maximum displ.:     0.0107482 α      in ANC's #5, #1, #3, ...

........................................................................
.............................. CYCLE   44 ..............................
........................................................................

 iter      E             dE          RMSdq      gap      omega  full diag
   1    -91.6335540 -0.916336E+02  0.275E-03    2.17       0.0  T
   2    -91.6335540 -0.139319E-08  0.161E-03    2.17       8.6  T
   3    -91.6335540  0.755168E-08  0.353E-04    2.17      39.3  T
   4    -91.6335540 -0.861024E-08  0.587E-05    2.17     236.2  T
     SCC iter.                  ...        0 min,  0.020 sec
     gradient                   ...        0 min,  0.006 sec
 * total energy  :   -89.9451141 Eh     change       -0.9257898E-06 Eh
   gradient norm :     0.0001162 Eh/α   predicted    -0.3236218E-06 ( -65.04%)
   displ. norm   :     0.0173955 α      lambda       -0.9094119E-06
   maximum displ.:     0.0144420 α      in ANC's #5, #1, #8, ...

........................................................................
.............................. CYCLE   45 ..............................
........................................................................

 iter      E             dE          RMSdq      gap      omega  full diag
   1    -91.6335444 -0.916335E+02  0.540E-03    2.17       0.0  T
   2    -91.6335444 -0.120396E-07  0.309E-03    2.17       4.5  T
   3    -91.6335444 -0.318039E-10  0.311E-04    2.17      44.5  T
   4    -91.6335444 -0.448915E-08  0.139E-04    2.17     100.0  T
     SCC iter.                  ...        0 min,  0.020 sec
     gradient                   ...        0 min,  0.006 sec
 * total energy  :   -89.9451153 Eh     change       -0.1185618E-05 Eh
   gradient norm :     0.0002003 Eh/α   predicted    -0.4551262E-06 ( -61.61%)
   displ. norm   :     0.0267955 α      lambda       -0.1431924E-05
   maximum displ.:     0.0205506 α      in ANC's #5, #1, #8, ...

........................................................................
.............................. CYCLE   46 ..............................
........................................................................

 iter      E             dE          RMSdq      gap      omega  full diag
   1    -91.6335709 -0.916336E+02  0.788E-03    2.17       0.0  T
   2    -91.6335709 -0.208545E-07  0.454E-03    2.17       3.1  T
   3    -91.6335709 -0.116249E-08  0.381E-04    2.17      36.4  T
   4    -91.6335710 -0.614895E-08  0.187E-04    2.17      74.1  T
     SCC iter.                  ...        0 min,  0.020 sec
     gradient                   ...        0 min,  0.006 sec
 * total energy  :   -89.9451171 Eh     change       -0.1840394E-05 Eh
   gradient norm :     0.0001932 Eh/α   predicted    -0.7164058E-06 ( -61.07%)
   displ. norm   :     0.0372394 α      lambda       -0.1625430E-05
   maximum displ.:     0.0277746 α      in ANC's #5, #1, #3, ...

........................................................................
.............................. CYCLE   47 ..............................
........................................................................

 iter      E             dE          RMSdq      gap      omega  full diag
   1    -91.6335293 -0.916335E+02  0.129E-02    2.17       0.0  T
   2    -91.6335294 -0.848106E-07  0.730E-03    2.17       1.9  T
   3    -91.6335294 -0.130325E-07  0.638E-04    2.17      21.7  T
   4    -91.6335294 -0.172615E-07  0.337E-04    2.17      41.1  T
     SCC iter.                  ...        0 min,  0.020 sec
     gradient                   ...        0 min,  0.006 sec
 * total energy  :   -89.9451189 Eh     change       -0.1839189E-05 Eh
   gradient norm :     0.0003058 Eh/α   predicted    -0.8153395E-06 ( -55.67%)
   displ. norm   :     0.0490885 α      lambda       -0.2380439E-05
   maximum displ.:     0.0365917 α      in ANC's #5, #1, #8, ...

........................................................................
.............................. CYCLE   48 ..............................
........................................................................

 iter      E             dE          RMSdq      gap      omega  full diag
   1    -91.6334548 -0.916335E+02  0.125E-02    2.17       0.0  T
   2    -91.6334549 -0.240249E-07  0.729E-03    2.17       1.9  T
   3    -91.6334548  0.453867E-07  0.887E-04    2.17      15.6  T
   4    -91.6334549 -0.559456E-07  0.255E-04    2.17      54.4  T
     SCC iter.                  ...        0 min,  0.024 sec
     gradient                   ...        0 min,  0.006 sec
 * total energy  :   -89.9451216 Eh     change       -0.2647854E-05 Eh
   gradient norm :     0.0004529 Eh/α   predicted    -0.1195534E-05 ( -54.85%)
   displ. norm   :     0.0399078 α      lambda       -0.1513822E-05
   maximum displ.:     0.0298098 α      in ANC's #5, #1, #8, ...

........................................................................
.............................. CYCLE   49 ..............................
........................................................................

 iter      E             dE          RMSdq      gap      omega  full diag
   1    -91.6335608 -0.916336E+02  0.103E-02    2.17       0.0  T
   2    -91.6335608 -0.300133E-07  0.595E-03    2.17       2.3  T
   3    -91.6335608  0.622229E-08  0.550E-04    2.17      25.2  T
   4    -91.6335608 -0.165100E-07  0.238E-04    2.17      58.3  T
     SCC iter.                  ...        0 min,  0.020 sec
     gradient                   ...        0 min,  0.006 sec
 * total energy  :   -89.9451235 Eh     change       -0.1952683E-05 Eh
   gradient norm :     0.0002630 Eh/α   predicted    -0.7612023E-06 ( -61.02%)
   displ. norm   :     0.0412119 α      lambda       -0.1349037E-05
   maximum displ.:     0.0309690 α      in ANC's #5, #1, #8, ...

........................................................................
.............................. CYCLE   50 ..............................
........................................................................

 iter      E             dE          RMSdq      gap      omega  full diag
   1    -91.6335246 -0.916335E+02  0.109E-02    2.17       0.0  T
   2    -91.6335246 -0.419045E-07  0.632E-03    2.17       2.2  T
   3    -91.6335246  0.229570E-07  0.747E-04    2.17      18.6  T
   4    -91.6335246 -0.391512E-07  0.281E-04    2.17      49.4  T
     SCC iter.                  ...        0 min,  0.019 sec
     gradient                   ...        0 min,  0.006 sec
 * total energy  :   -89.9451253 Eh     change       -0.1759358E-05 Eh
   gradient norm :     0.0001474 Eh/α   predicted    -0.6756018E-06 ( -61.60%)
   displ. norm   :     0.0362022 α      lambda       -0.9836446E-06
   maximum displ.:     0.0279236 α      in ANC's #5, #1, #8, ...

........................................................................
.............................. CYCLE   51 ..............................
........................................................................

 iter      E             dE          RMSdq      gap      omega  full diag
   1    -91.6335618 -0.916336E+02  0.924E-03    2.17       0.0  T
   2    -91.6335618 -0.261909E-07  0.535E-03    2.17       2.6  T
   3    -91.6335618  0.362027E-07  0.774E-04    2.17      17.9  T
   4    -91.6335618 -0.489730E-07  0.226E-04    2.17      61.5  T
     SCC iter.                  ...        0 min,  0.020 sec
     gradient                   ...        0 min,  0.006 sec
 * total energy  :   -89.9451266 Eh     change       -0.1286152E-05 Eh
   gradient norm :     0.0001407 Eh/α   predicted    -0.4963715E-06 ( -61.41%)
   displ. norm   :     0.0258739 α      lambda       -0.5991723E-06
   maximum displ.:     0.0208999 α      in ANC's #5, #1, #12, ...

........................................................................
.............................. CYCLE   52 ..............................
........................................................................

 iter      E             dE          RMSdq      gap      omega  full diag
   1    -91.6335286 -0.916335E+02  0.615E-03    2.17       0.0  T
   2    -91.6335287 -0.910441E-08  0.358E-03    2.17       3.9  T
   3    -91.6335286  0.159752E-07  0.490E-04    2.17      28.3  T
   4    -91.6335287 -0.205294E-07  0.138E-04    2.17     100.6  T
     SCC iter.                  ...        0 min,  0.019 sec
     gradient                   ...        0 min,  0.006 sec
 * total energy  :   -89.9451274 Eh     change       -0.8417111E-06 Eh
   gradient norm :     0.0001029 Eh/α   predicted    -0.3024004E-06 ( -64.07%)
   displ. norm   :     0.0146898 α      lambda       -0.3484847E-06
   maximum displ.:     0.0125363 α      in ANC's #5, #1, #12, ...

........................................................................
.............................. CYCLE   53 ..............................
........................................................................

 iter      E             dE          RMSdq      gap      omega  full diag
   1    -91.6335593 -0.916336E+02  0.333E-03    2.17       0.0  T
   2    -91.6335593 -0.251863E-08  0.195E-03    2.17       7.1  T
   3    -91.6335593  0.803647E-08  0.332E-04    2.17      41.8  T
   4    -91.6335593 -0.959984E-08  0.725E-05    2.17     191.2  T
     SCC iter.                  ...        0 min,  0.019 sec
     gradient                   ...        0 min,  0.006 sec
 * total energy  :   -89.9451279 Eh     change       -0.4944549E-06 Eh
   gradient norm :     0.0000668 Eh/α   predicted    -0.1775362E-06 ( -64.09%)
   displ. norm   :     0.0112846 α      lambda       -0.2821406E-06
   maximum displ.:     0.0098949 α      in ANC's #5, #1, #8, ...

........................................................................
.............................. CYCLE   54 ..............................
........................................................................

 iter      E             dE          RMSdq      gap      omega  full diag
   1    -91.6335539 -0.916336E+02  0.251E-03    2.17       0.0  T
   2    -91.6335539 -0.176777E-08  0.146E-03    2.17       9.5  T
   3    -91.6335539  0.777719E-08  0.310E-04    2.17      44.8  T
   4    -91.6335539 -0.906472E-08  0.591E-05    2.17     234.6  T
     SCC iter.                  ...        0 min,  0.020 sec
     gradient                   ...        0 min,  0.006 sec
 * total energy  :   -89.9451283 Eh     change       -0.4084167E-06 Eh
   gradient norm :     0.0000608 Eh/α   predicted    -0.1437290E-06 ( -64.81%)
   displ. norm   :     0.0100276 α      lambda       -0.2561891E-06
   maximum displ.:     0.0087707 α      in ANC's #5, #1, #8, ...

........................................................................
.............................. CYCLE   55 ..............................
........................................................................

 iter      E             dE          RMSdq      gap      omega  full diag
   1    -91.6335408 -0.916335E+02  0.237E-03    2.17       0.0  T
   2    -91.6335408 -0.203397E-08  0.137E-03    2.17      10.1  T
   3    -91.6335408  0.705879E-08  0.315E-04    2.17      44.0  T
   4    -91.6335408 -0.834530E-08  0.652E-05    2.17     212.6  T
     SCC iter.                  ...        0 min,  0.020 sec
     gradient                   ...        0 min,  0.006 sec
 * total energy  :   -89.9451287 Eh     change       -0.3531236E-06 Eh
   gradient norm :     0.0000536 Eh/α   predicted    -0.1306582E-06 ( -63.00%)
   displ. norm   :     0.0100602 α      lambda       -0.2311991E-06
   maximum displ.:     0.0084667 α      in ANC's #5, #8, #3, ...

........................................................................
.............................. CYCLE   56 ..............................
........................................................................

 iter      E             dE          RMSdq      gap      omega  full diag
   1    -91.6335369 -0.916335E+02  0.252E-03    2.17       0.0  T
   2    -91.6335369 -0.264018E-08  0.146E-03    2.17       9.5  T
   3    -91.6335369  0.689374E-08  0.324E-04    2.17      42.8  T
   4    -91.6335369 -0.837284E-08  0.735E-05    2.17     188.8  T
     SCC iter.                  ...        0 min,  0.019 sec
     gradient                   ...        0 min,  0.006 sec
 * total energy  :   -89.9451290 Eh     change       -0.3271889E-06 Eh
   gradient norm :     0.0000490 Eh/α   predicted    -0.1180284E-06 ( -63.93%)
   displ. norm   :     0.0100717 α      lambda       -0.2138620E-06
   maximum displ.:     0.0084579 α      in ANC's #5, #8, #3, ...

........................................................................
.............................. CYCLE   57 ..............................
........................................................................

 iter      E             dE          RMSdq      gap      omega  full diag
   1    -91.6335300 -0.916335E+02  0.261E-03    2.17       0.0  T
   2    -91.6335300 -0.297412E-08  0.150E-03    2.17       9.2  T
   3    -91.6335300  0.627446E-08  0.313E-04    2.17      44.3  T
   4    -91.6335300 -0.786802E-08  0.758E-05    2.17     183.0  T
     SCC iter.                  ...        0 min,  0.019 sec
     gradient                   ...        0 min,  0.006 sec
 * total energy  :   -89.9451293 Eh     change       -0.2851767E-06 Eh
   gradient norm :     0.0000488 Eh/α   predicted    -0.1078490E-06 ( -62.18%)
   displ. norm   :     0.0085983 α      lambda       -0.1598642E-06
   maximum displ.:     0.0072337 α      in ANC's #5, #3, #8, ...

........................................................................
.............................. CYCLE   58 ..............................
........................................................................

 iter      E             dE          RMSdq      gap      omega  full diag
   1    -91.6335226 -0.916335E+02  0.239E-03    2.17       0.0  T
   2    -91.6335226 -0.255336E-08  0.137E-03    2.17      10.1  T
   3    -91.6335226  0.310897E-08  0.253E-04    2.17      54.8  T
   4    -91.6335226 -0.429286E-08  0.711E-05    2.17     195.0  T
     SCC iter.                  ...        0 min,  0.020 sec
     gradient                   ...        0 min,  0.006 sec
 * total energy  :   -89.9451295 Eh     change       -0.2119124E-06 Eh
   gradient norm :     0.0000358 Eh/α   predicted    -0.8208564E-07 ( -61.26%)
   displ. norm   :     0.0075442 α      lambda       -0.1206793E-06
   maximum displ.:     0.0064262 α      in ANC's #5, #3, #8, ...

........................................................................
.............................. CYCLE   59 ..............................
........................................................................

 iter      E             dE          RMSdq      gap      omega  full diag
   1    -91.6335203 -0.916335E+02  0.218E-03    2.17       0.0  T
   2    -91.6335203 -0.224145E-08  0.125E-03    2.17      11.1  T
   3    -91.6335203  0.890140E-09  0.173E-04    2.17      80.2  T
   4    -91.6335203 -0.179564E-08  0.653E-05    2.17     212.3  T
     SCC iter.                  ...        0 min,  0.019 sec
     gradient                   ...        0 min,  0.006 sec
 * total energy  :   -89.9451297 Eh     change       -0.1663146E-06 Eh
   gradient norm :     0.0000325 Eh/α   predicted    -0.6194084E-07 ( -62.76%)
   displ. norm   :     0.0063223 α      lambda       -0.9491541E-07
   maximum displ.:     0.0054638 α      in ANC's #5, #3, #9, ...

........................................................................
.............................. CYCLE   60 ..............................
........................................................................

 iter      E             dE          RMSdq      gap      omega  full diag
   1    -91.6335175 -0.916335E+02  0.186E-03    2.17       0.0  T
   2    -91.6335175 -0.154361E-08  0.107E-03    2.17      13.0  T
   3    -91.6335175  0.955538E-10  0.123E-04    2.17     112.5  T
   4    -91.6335175 -0.662027E-09  0.570E-05    2.17     243.3  T
     SCC iter.                  ...        0 min,  0.020 sec
     gradient                   ...        0 min,  0.006 sec
 * total energy  :   -89.9451298 Eh     change       -0.1307282E-06 Eh
   gradient norm :     0.0000317 Eh/α   predicted    -0.4838881E-07 ( -62.99%)
   displ. norm   :     0.0058981 α      lambda       -0.7320509E-07
   maximum displ.:     0.0051387 α      in ANC's #5, #1, #9, ...

........................................................................
.............................. CYCLE   61 ..............................
........................................................................

 iter      E             dE          RMSdq      gap      omega  full diag
   1    -91.6335154 -0.916335E+02  0.177E-03    2.17       0.0  T
   2    -91.6335154 -0.141699E-08  0.101E-03    2.17      13.7  T
   3    -91.6335154 -0.198725E-09  0.978E-05    2.17     141.8  T
   4    -91.6335154 -0.299323E-09  0.528E-05    2.17     262.4  T
     SCC iter.                  ...        0 min,  0.019 sec
     gradient                   ...        0 min,  0.006 sec
 * total energy  :   -89.9451299 Eh     change       -0.1154273E-06 Eh
   gradient norm :     0.0000298 Eh/α   predicted    -0.4113956E-07 ( -64.36%)
   displ. norm   :     0.0056982 α      lambda       -0.6300673E-07
   maximum displ.:     0.0049862 α      in ANC's #5, #1, #9, ...

........................................................................
.............................. CYCLE   62 ..............................
........................................................................

 iter      E             dE          RMSdq      gap      omega  full diag
   1    -91.6335136 -0.916335E+02  0.162E-03    2.17       0.0  T
   2    -91.6335136 -0.104563E-08  0.930E-04    2.17      14.9  T
   3    -91.6335136 -0.621299E-10  0.879E-05    2.17     157.8  T
     SCC iter.                  ...        0 min,  0.015 sec
     gradient                   ...        0 min,  0.006 sec
 * total energy  :   -89.9451300 Eh     change       -0.1019999E-06 Eh
[...]
    35   6 C        1.910     0.115    28.262     8.586
    36   7 N        0.911    -0.211    25.590     7.316
    37   1 H        0.926     0.063     2.168     2.302
    38   1 H        0.926     0.037     2.493     2.469
    39   1 H        0.926     0.040     2.450     2.448
    40   1 H        0.926     0.037     2.490     2.467
    41   1 H        0.926     0.037     2.491     2.468
    42   1 H        0.926     0.038     2.479     2.462
    43   1 H        0.926     0.037     2.492     2.468
    44   1 H        0.925     0.037     2.491     2.468
    45   1 H        0.926     0.037     2.493     2.469
    46   1 H        0.926     0.040     2.450     2.448
    47   1 H        0.926     0.037     2.490     2.467
    48   1 H        0.926     0.037     2.491     2.468
    49   1 H        0.926     0.038     2.479     2.462
    50   1 H        0.926     0.037     2.492     2.469
    51   1 H        0.925     0.037     2.491     2.468
    52   1 H        0.926     0.063     2.168     2.302

 Mol. C6AA /au·bohr⁶  :      45548.328121
 Mol. C8AA /au·bohr⁸  :    1166151.251361
 Mol. α(0) /au        :        342.975978


MOs/occ written to file <molden.input>


molecular dipole:
                 x           y           z       tot (Debye)
 q only:       -0.000      -2.090       0.000
   full:       -0.000      -3.465       0.000       8.808
molecular quadrupole (traceless):
                xx          xy          yy          xz          yz          zz
 q only:       19.612       0.000     -28.018      -3.484       0.009       8.406
  q+dip:       26.508      -0.001     -35.974      -7.203       0.014       9.466
   full:       23.958      -0.001     -42.330      -4.267       0.015      18.373

           -------------------------------------------------
          |                Geometry Summary                 |
           -------------------------------------------------

      molecular mass/u    :      460.4893483
   center of mass at/Å    :       -0.0000030       0.4390607       0.0000118
  moments of inertia/u·Å² :        0.3351307E+04   0.3876917E+04   0.5900457E+04
rotational constants/cm⁻¹ :        0.5030166E-02   0.4348206E-02   0.2857004E-02

 * 56 selected distances

     #   Z          #   Z                                           value/Å
     1   7 N        2   6 C                                       1.1457235
     3   6 C        4   6 C                                       1.3900859
     4   6 C        5   6 C                                       1.3889966
     5   6 C        6   7 N                                       1.3924778
     6   7 N        7   6 C                                       1.3885057
     7   6 C        8   6 C                                       1.3846310
     8   6 C        9   6 C                                       1.3830852
     9   6 C       10   6 C                                       1.3921115
    10   6 C       11   6 C                                       1.3809252
     7   6 C       12   6 C                                       1.4129191
    11   6 C       12   6 C                                       1.3882088
    12   6 C       13   6 C                                       1.4356287 (max)
    13   6 C       14   6 C                                       1.3851628
    14   6 C       15   6 C                                       1.3872153
    15   6 C       16   6 C                                       1.3903030
    16   6 C       17   7 N                                       1.3243336
     6   7 N       18   6 C                                       1.3755352
    13   6 C       18   6 C                                       1.4165760
    17   7 N       18   6 C                                       1.3213462
     5   6 C       19   6 C                                       1.4112426
    19   6 C       20   7 N                                       1.3924768
    20   7 N       21   6 C                                       1.3885172
    21   6 C       22   6 C                                       1.3846296
    22   6 C       23   6 C                                       1.3830832
    23   6 C       24   6 C                                       1.3921093
    24   6 C       25   6 C                                       1.3809261
    21   6 C       26   6 C                                       1.4129146
    25   6 C       26   6 C                                       1.3882084
    26   6 C       27   6 C                                       1.4356280
    27   6 C       28   6 C                                       1.3851611
    28   6 C       29   6 C                                       1.3872158
    29   6 C       30   6 C                                       1.3903031
    30   6 C       31   7 N                                       1.3243364
    20   7 N       32   6 C                                       1.3755393
    27   6 C       32   6 C                                       1.4165774
    31   7 N       32   6 C                                       1.3213481
    19   6 C       33   6 C                                       1.3889986
     3   6 C       34   6 C                                       1.4064691
    33   6 C       34   6 C                                       1.3900868
    35   6 C       36   7 N                                       1.1457115
     4   6 C       37   1 H                                       1.0799064
     8   6 C       38   1 H                                       1.0787528
     9   6 C       39   1 H                                       1.0796738
    10   6 C       40   1 H                                       1.0796115
    11   6 C       41   1 H                                       1.0794317
    14   6 C       42   1 H                                       1.0800889
    15   6 C       43   1 H                                       1.0784903 (min)
    16   6 C       44   1 H                                       1.0814272
    22   6 C       45   1 H                                       1.0787519
    23   6 C       46   1 H                                       1.0796733
    24   6 C       47   1 H                                       1.0796126
    25   6 C       48   1 H                                       1.0794316
    28   6 C       49   1 H                                       1.0800892
    29   6 C       50   1 H                                       1.0784910
    30   6 C       51   1 H                                       1.0814274
    33   6 C       52   1 H                                       1.0799054

 * 3 distinct bonds (by element types)

   Z      Z             #   av. dist./Å        max./Å        min./Å
   1 H    6 C          16     1.0796728     1.0814274     1.0784903
   6 C    6 C          28     1.3960501     1.4356287     1.3809252
   6 C    7 N          12     1.3246543     1.3924778     1.1457115

           -------------------------------------------------
          |               Frequency Printout                |
           -------------------------------------------------
 projected vibrational frequencies (cm⁻¹)
eigval :       -0.00    -0.00     0.00     0.00     0.00     0.00
eigval :       23.04    28.82    36.78    43.02    46.22    55.00
eigval :       91.25    97.05   101.51   106.02   122.33   136.25
eigval :      142.36   149.93   172.76   180.18   197.48   205.56
eigval :      261.57   274.80   282.62   283.75   312.90   313.10
eigval :      354.10   391.15   394.47   397.37   422.10   423.32
eigval :      425.71   431.29   438.08   448.63   481.96   482.17
eigval :      515.25   517.00   533.00   533.24   546.29   548.77
eigval :      556.32   574.08   591.39   591.89   596.86   604.68
eigval :      655.17   657.40   670.71   685.97   686.72   691.16
eigval :      714.20   723.90   725.43   752.39   762.76   771.87
eigval :      774.64   775.12   795.12   795.96   843.28   865.48
eigval :      868.44   882.47   891.47   902.82   902.91   905.46
eigval :      906.34   909.45   911.62   911.98   916.33   924.31
eigval :      924.51   964.50  1021.52  1021.76  1072.76  1072.95
eigval :     1076.53  1089.47  1095.24  1122.48  1137.27  1150.35
eigval :     1151.65  1168.94  1169.88  1179.96  1180.46  1214.28
eigval :     1216.07  1223.51  1223.83  1233.58  1266.82  1285.82
eigval :     1286.78  1295.13  1296.22  1316.16  1328.63  1344.91
eigval :     1345.11  1355.86  1356.44  1360.98  1378.61  1406.86
eigval :     1413.18  1428.60  1434.45  1463.77  1466.75  1481.81
eigval :     1481.97  1491.74  1510.72  1555.88  1567.28  1568.60
eigval :     1576.26  1576.57  1596.95  1597.03  1612.80  1613.83
eigval :     2374.33  2374.58  3068.01  3068.02  3078.06  3078.07
eigval :     3082.89  3082.90  3088.30  3088.31  3095.67  3095.83
eigval :     3098.27  3098.75  3101.50  3101.71  3102.22  3102.44
 reduced masses (amu)
   1: 11.92   2: 11.68   3: 11.82   4: 11.74   5: 11.91   6: 12.10   7: 11.21   8: 11.23
   9: 11.42  10: 11.99  11: 12.55  12: 11.78  13: 11.61  14: 13.65  15: 10.63  16: 11.39
  17: 11.38  18: 12.19  19: 10.35  20: 10.51  21: 11.76  22: 11.49  23: 11.28  24: 11.23
  25: 11.18  26: 10.95  27: 11.06  28: 10.53  29: 11.51  30: 11.75  31: 12.19  32: 11.84
  33: 10.19  34: 10.18  35: 10.27  36: 11.82  37: 10.28  38: 10.95  39: 11.23  40: 10.71
  41: 12.13  42: 11.48  43: 11.29  44: 11.35  45: 11.36  46: 11.03  47: 10.73  48: 10.40
  49: 11.59  50: 11.87  51: 11.98  52: 11.63  53: 11.60  54: 11.72  55: 11.31  56: 11.89
  57: 11.82  58: 11.75  59: 11.73  60: 11.55  61: 11.48  62: 11.60  63: 11.63  64: 11.52
  65: 11.37  66: 11.13  67:  3.92  68:  3.76  69:  3.64  70:  3.62  71: 11.81  72:  3.90
  73:  3.36  74:  3.95  75:  3.19  76:  4.02  77:  4.05  78:  3.96  79:  3.90  80: 10.64
  81:  4.19  82:  4.74  83: 11.03  84:  3.15  85:  3.13  86: 10.88  87: 11.47  88: 11.45
  89:  6.25  90:  6.08  91:  9.59  92:  6.33  93:  7.19  94:  6.98  95:  8.94  96:  4.15
  97:  3.35  98:  5.93  99:  4.01 100:  2.00 101:  2.48 102:  5.48 103:  4.65 104:  3.94
 105:  6.26 106:  6.90 107:  7.90 108:  7.86 109:  9.12 110:  9.25 111:  9.20 112: 11.76
 113: 10.82 114:  9.34 115:  9.76 116: 11.12 117: 11.25 118: 11.03 119: 11.35 120: 10.27
 121:  9.90 122: 10.39 123: 11.89 124: 10.55 125: 10.61 126: 10.48 127: 10.52 128: 11.71
 129: 11.92 130: 11.62 131: 12.08 132: 12.05 133: 11.67 134: 11.65 135: 11.68 136: 11.68
 137: 11.74 138: 11.74 139: 12.79 140: 12.79 141:  1.79 142:  1.79 143:  1.81 144:  1.81
 145:  1.76 146:  1.76 147:  1.81 148:  1.81 149:  1.86 150:  1.86 151:  1.84 152:  1.84
 153:  1.88 154:  1.89 155:  1.90 156:  1.90
 IR intensities (km·mol⁻¹)
   1:  0.46   2:  0.13   3:  0.09   4:  0.37   5:  0.12   6:  0.29   7:  0.00   8:  0.01
   9:  0.91  10:  0.84  11:  0.31  12:  0.94  13:  0.59  14:  1.90  15:  0.00  16:  2.89
  17:  6.54  18:  9.92  19:  0.32  20:  0.69  21:  5.23  22:  0.26  23:  0.03  24:  2.36
  25:  2.53  26:  1.06  27:  1.91  28:  1.21  29:  3.17  30:  0.86  31:  0.16  32:  5.07
  33:  0.03  34:  0.36  35:  1.08  36:  3.50  37:  3.40  38:  2.41  39:  5.65  40:  0.25
  41:  5.04  42:  4.27  43:  0.16  44:  8.77  45:  6.23  46:  0.12  47: 11.29  48:  0.44
  49:  0.91  50:  1.40  51:  1.27  52:  0.35  53:  0.21  54:  2.45  55:  3.40  56:  0.44
  57:  7.02  58:  0.01  59: 11.45  60:  0.75  61:  2.09  62:  3.24  63:  7.17  64:  1.38
  65:  3.53  66:  1.21  67:  4.39  68: 82.58  69: 10.32  70:  1.51  71:  0.43  72:  4.61
  73:  0.16  74:  4.29  75:  0.67  76:  0.74  77:  0.00  78:  0.36  79:  0.88  80:  0.17
  81:  2.19  82:  0.34  83: 13.64  84:  0.16  85:  0.01  86:  0.00  87:  0.08  88:  2.84
  89:  0.26  90:  0.19  91:  5.35  92:  0.85  93:  1.28  94:  0.00  95:  6.68  96:  8.01
  97:  0.02  98:  0.20  99:  0.68 100:  0.01 101:  6.93 102:  0.12 103: 13.27 104: 20.65
 105: 30.05 106:  9.34 107:  2.58 108: 32.56 109:  0.00 110:  0.07 111: 86.76 112:  0.03
 113: 56.22 114:  0.14 115: 10.60 116: 25.05 117: 22.85 118:  0.47 119: 63.33 120:229.18
 121: 16.89 122:268.93 123:251.52 124: 16.05 125: 71.70 126:  7.64 127: 28.50 128:436.87
 129:128.12 130: 99.62 131:  0.01 132: 59.11 133: 12.58 134: 41.79 135: 23.71 136:  1.16
 137: 26.42 138: 37.07 139:443.62 140:147.10 141: 18.04 142: 12.50 143: 15.13 144: 14.66
 145:  0.43 146:  0.10 147: 14.68 148: 14.26 149: 51.30 150: 62.55 151:  1.96 152:  4.56
 153: 69.49 154: 53.80 155: 44.73 156: 19.05
 Raman intensities (Ä⁴*amu⁻¹)
   1:  0.00   2:  0.00   3:  0.00   4:  0.00   5:  0.00   6:  0.00   7:  0.00   8:  0.00
   9:  0.00  10:  0.00  11:  0.00  12:  0.00  13:  0.00  14:  0.00  15:  0.00  16:  0.00
  17:  0.00  18:  0.00  19:  0.00  20:  0.00  21:  0.00  22:  0.00  23:  0.00  24:  0.00
  25:  0.00  26:  0.00  27:  0.00  28:  0.00  29:  0.00  30:  0.00  31:  0.00  32:  0.00
  33:  0.00  34:  0.00  35:  0.00  36:  0.00  37:  0.00  38:  0.00  39:  0.00  40:  0.00
  41:  0.00  42:  0.00  43:  0.00  44:  0.00  45:  0.00  46:  0.00  47:  0.00  48:  0.00
  49:  0.00  50:  0.00  51:  0.00  52:  0.00  53:  0.00  54:  0.00  55:  0.00  56:  0.00
  57:  0.00  58:  0.00  59:  0.00  60:  0.00  61:  0.00  62:  0.00  63:  0.00  64:  0.00
  65:  0.00  66:  0.00  67:  0.00  68:  0.00  69:  0.00  70:  0.00  71:  0.00  72:  0.00
  73:  0.00  74:  0.00  75:  0.00  76:  0.00  77:  0.00  78:  0.00  79:  0.00  80:  0.00
  81:  0.00  82:  0.00  83:  0.00  84:  0.00  85:  0.00  86:  0.00  87:  0.00  88:  0.00
  89:  0.00  90:  0.00  91:  0.00  92:  0.00  93:  0.00  94:  0.00  95:  0.00  96:  0.00
  97:  0.00  98:  0.00  99:  0.00 100:  0.00 101:  0.00 102:  0.00 103:  0.00 104:  0.00
 105:  0.00 106:  0.00 107:  0.00 108:  0.00 109:  0.00 110:  0.00 111:  0.00 112:  0.00
 113:  0.00 114:  0.00 115:  0.00 116:  0.00 117:  0.00 118:  0.00 119:  0.00 120:  0.00
 121:  0.00 122:  0.00 123:  0.00 124:  0.00 125:  0.00 126:  0.00 127:  0.00 128:  0.00
 129:  0.00 130:  0.00 131:  0.00 132:  0.00 133:  0.00 134:  0.00 135:  0.00 136:  0.00
 137:  0.00 138:  0.00 139:  0.00 140:  0.00 141:  0.00 142:  0.00 143:  0.00 144:  0.00
 145:  0.00 146:  0.00 147:  0.00 148:  0.00 149:  0.00 150:  0.00 151:  0.00 152:  0.00
 153:  0.00 154:  0.00 155:  0.00 156:  0.00
 output can be read by thermo (or use thermo option).
 writing <g98.out> molden fake output.
 recommended (thermochemical) frequency scaling factor: 1.0
           -------------------------------------------------
          |             Thermodynamic Functions             |
           -------------------------------------------------

Molecule has the following symmetry elements: (C2) 
It seems to be the C2 point group
c2  symmetry found (for desy threshold:  0.10E+00) used in thermo

          ...................................................
          :                      SETUP                      :
          :.................................................:
          :  # frequencies                         150      :
          :  # imaginary freq.                       0      :
          :  linear?                             false      :
          :  only rotor calc.                    false      :
          :  symmetry                               c2      :
          :  rotational number                       2      :
          :  scaling factor                  1.0000000      :
          :  rotor cutoff                   50.0000000 cm⁻¹ :
          :  imag. cutoff                  -20.0000000 cm⁻¹ :
          :.................................................:

    mode    ω/cm⁻¹     T·S(HO)/kcal·mol⁻¹    T·S(FR)/kcal·mol⁻¹   T·S(vib)
   ------------------------------------------------------------------------
       1     23.04    -1.89433 (  4.31%)    -1.28608 ( 95.69%)    -1.31230
       2     28.82    -1.76176 (  9.94%)    -1.21972 ( 90.06%)    -1.27361
       3     36.78    -1.61752 ( 22.66%)    -1.14746 ( 77.34%)    -1.25395
       4     43.02    -1.52500 ( 35.40%)    -1.10106 ( 64.60%)    -1.25115
       5     46.22    -1.48262 ( 42.21%)    -1.07979 ( 57.79%)    -1.24983
       6     55.00    -1.38014 ( 59.42%)    -1.02830 ( 40.58%)    -1.23735
       7     91.25    -1.08323 ( 91.73%)    -0.87834 (  8.27%)    -1.06628
       8     97.05    -1.04731 ( 93.42%)    -0.86007 (  6.58%)    -1.03498
       9    101.51    -1.02120 ( 94.44%)    -0.84676 (  5.56%)    -1.01150
      10    106.02    -0.99596 ( 95.29%)    -0.83388 (  4.71%)    -0.98832
      11    122.33    -0.91330 ( 97.28%)    -0.79149 (  2.72%)    -0.90999
      12    136.25    -0.85148 ( 98.22%)    -0.75957 (  1.78%)    -0.84984
      13    142.36    -0.82645 ( 98.50%)    -0.74658 (  1.50%)    -0.82526
      14    149.93    -0.79698 ( 98.78%)    -0.73122 (  1.22%)    -0.79618
      15    172.76    -0.71711 ( 99.30%)    -0.68923 (  0.70%)    -0.71692
      16    180.18    -0.69366 ( 99.41%)    -0.67678 (  0.59%)    -0.69356
      17    197.48    -0.64293 ( 99.59%)    -0.64962 (  0.41%)    -0.64296
      18    205.56    -0.62096 ( 99.65%)    -0.63774 (  0.35%)    -0.62102
      19    261.57    -0.49233 ( 99.87%)    -0.56637 (  0.13%)    -0.49243
      20    274.80    -0.46686 ( 99.89%)    -0.55175 (  0.11%)    -0.46695
      21    282.62    -0.45253 ( 99.90%)    -0.54343 (  0.10%)    -0.45261
      22    283.75    -0.45049 ( 99.90%)    -0.54225 (  0.10%)    -0.45058
   ------------------------------------------------------------------------

   temp. (K)  partition function   enthalpy   heat capacity  entropy
                                   cal/mol     cal/K/mol   cal/K/mol   J/K/mol
 298.15  VIB  0.583E+11            15400.430     99.495     93.750
         ROT  0.106E+08              888.752      2.981     35.123
         INT  0.616E+18            16289.182    102.476    128.873
         TR   0.956E+28             1481.254      4.968     44.250
         TOT                       17770.4361   107.4437   173.1230   724.3464

       T/K    H(0)-H(T)+PV         H(T)/Eh          T*S/Eh         G(T)/Eh
   ------------------------------------------------------------------------
    298.15    0.283190E-01    0.403301E+00    0.822563E-01    0.321045E+00
   ------------------------------------------------------------------------

         :::::::::::::::::::::::::::::::::::::::::::::::::::::
         ::                  THERMODYNAMIC                  ::
         :::::::::::::::::::::::::::::::::::::::::::::::::::::
         :: total free energy         -89.624085113678 Eh   ::
         ::.................................................::
         :: total energy              -89.945130105756 Eh   ::
         :: zero point energy           0.374982300957 Eh   ::
         :: G(RRHO) w/o ZPVE           -0.053937308878 Eh   ::
         :: G(RRHO) contrib.            0.321044992078 Eh   ::
         :::::::::::::::::::::::::::::::::::::::::::::::::::::

optimized geometry written to: xtbopt.xyz


           -------------------------------------------------
          | TOTAL ENERGY              -89.945130105756 Eh   |
          | TOTAL ENTHALPY            -89.541828812281 Eh   |
          | TOTAL FREE ENERGY         -89.624085113678 Eh   |
          | GRADIENT NORM               0.000040752043 Eh/α |
          | HOMO-LUMO GAP               2.171436568429 eV   |
           -------------------------------------------------

------------------------------------------------------------------------
 * finished run on 2025/07/16 at 18:02:23.651     
------------------------------------------------------------------------
 total:
 * wall-time:     0 d,  0 h,  0 min,  3.870 sec
 *  cpu-time:     0 d,  0 h,  2 min, 30.672 sec
 * ratio c/w:    38.934 speedup
 SCF:
 * wall-time:     0 d,  0 h,  0 min,  0.086 sec
 *  cpu-time:     0 d,  0 h,  0 min,  3.420 sec
 * ratio c/w:    39.764 speedup
 ANC optimizer:
 * wall-time:     0 d,  0 h,  0 min,  2.375 sec
 *  cpu-time:     0 d,  0 h,  1 min, 34.999 sec
 * ratio c/w:    39.994 speedup
 analytical hessian:
 * wall-time:     0 d,  0 h,  0 min,  1.306 sec
 *  cpu-time:     0 d,  0 h,  0 min, 48.640 sec
 * ratio c/w:    37.231 speedup

