$hessian                                                                        
        0.6392922058  -0.0000009667  -0.0815928799  -0.2540915501   0.0000022928
        0.1829409672   0.0018438174  -0.0000001241   0.0090526364   0.0015218862
        0.0000000864  -0.0000950696  -0.0184293309  -0.0000002723  -0.0212698939
       -0.2353980150  -0.0000008441  -0.0539616431  -0.0589872704   0.0000002215
        0.0070214611   0.0095871800   0.0000002452   0.0152095159   0.0074005961
       -0.0000001094  -0.0058060849   0.0000287015  -0.0000000171  -0.0003974389
       -0.0002145395  -0.0000000050  -0.0004558440   0.0007965628  -0.0000000014
        0.0003135604  -0.0001199033   0.0000000021  -0.0003922967   0.0004841969
       -0.0000000059  -0.0000733262  -0.0002938467   0.0000000118   0.0005704000
       -0.0005425385  -0.0000000012  -0.0004904747   0.0003213188   0.0000000140
        0.0014005457  -0.0019673642   0.0000000127  -0.0008619972   0.0027474328
       -0.0000000199   0.0016185606  -0.0054213587   0.0000000375  -0.0010710927
        0.0000078546   0.0000332464  -0.0001013232   0.0000284302  -0.0000252008
       -0.0000238177  -0.0000117068   0.0000128946   0.0000187901  -0.0000169999
       -0.0000037563   0.0000150029   0.0000229528  -0.0000148842   0.0000134015
        0.0000589599  -0.0000514991  -0.0000614502  -0.0000752501   0.0000000189
        0.0000917412   0.0000589590   0.0000514995  -0.0000614513   0.0000229470
        0.0000148806   0.0000134009  -0.0000170058   0.0000037550   0.0000150018
       -0.0000117065  -0.0000128941   0.0000187903   0.0000284298   0.0000251992
       -0.0000238165   0.0000078548  -0.0000332507  -0.0001013180   0.0004529145
        0.0007833000  -0.0015277141  -0.0003939650   0.0004608431   0.0001019741
        0.0002736405  -0.0000673011   0.0002405193   0.0000174189   0.0001401006
       -0.0000170193  -0.0000266617  -0.0000008170  -0.0000226322  -0.0001007695
        0.0000822461  -0.0000851798   0.0000332337   0.0000000196   0.0001454439
       -0.0001007919  -0.0000822807  -0.0000851908  -0.0000266488   0.0000008099
       -0.0000226259   0.0000174165  -0.0001401016  -0.0000170145   0.0002736413
        0.0000673092   0.0002405183  -0.0003939560  -0.0004608325   0.0001019807
        0.0004529586  -0.0007832419  -0.0015277406  -0.0649092844  -0.0000008875
       -0.0709305394  -0.0257606276   0.0000003091   0.0225765446   0.0000161143
        0.0000000122   0.0003410736   0.0009094914  -0.0000000168  -0.0005064823
       -0.0000177717   0.0000000019   0.0000358104   0.0000236613  -0.0000000012
        0.0000276711   0.0000234730  -0.0000000039   0.0000180606   0.0000278085
       -0.0000000152  -0.0000211656   0.0000269871  -0.0000000006  -0.0000399298
        0.0001239336  -0.0000000104  -0.0001235618  -0.0000255110   0.0000499543
        0.0000239875   0.0000026042   0.0000041171  -0.0000074632  -0.0000018989
       -0.0000291158   0.0000039306   0.0000033757  -0.0000079342   0.0000524978
        0.0000033752   0.0000079326   0.0000524980  -0.0000019014   0.0000291140
        0.0000039334   0.0000026031  -0.0000041173  -0.0000074616  -0.0000255131
       -0.0000499525   0.0000239900   0.0002398099   0.0001273191  -0.0002247775
       -0.0000469258  -0.0000720633  -0.0000282366   0.0000417178  -0.0000063384
       -0.0000018783  -0.0000152279  -0.0000477856  -0.0000057486  -0.0000152297
        0.0000477802  -0.0000057466   0.0000417163   0.0000063357  -0.0000018779
       -0.0000469276   0.0000720605  -0.0000282350   0.0002398169  -0.0001273131
       -0.0002247699
       -0.0000009667   0.1074343396   0.0000080881   0.0000027204  -0.0339237543
       -0.0000034777   0.0000001737   0.0034680863  -0.0000005273  -0.0000000201
       -0.0003133466   0.0000000575  -0.0000004506  -0.0000036082  -0.0000001770
       -0.0000009563  -0.0489633214  -0.0000005268   0.0000004668  -0.0021210710
        0.0000001041   0.0000000722   0.0090786694  -0.0000002461  -0.0000000686
        0.0008149496  -0.0000001031  -0.0000000245   0.0006901785   0.0000000225
        0.0000000226   0.0000956166  -0.0000000075  -0.0000000089  -0.0000552508
       -0.0000000061   0.0000000091  -0.0000064716   0.0000000113  -0.0000000143
        0.0000103849  -0.0000000057   0.0000000044  -0.0000080225  -0.0000000207
        0.0000000006   0.0000438059   0.0000000118  -0.0000000058   0.0000684811
       -0.0000000445   0.0000000175  -0.0001532281   0.0000000449  -0.0000000202
       -0.0006056505  -0.0000000145   0.0000000472   0.0006220706  -0.0000000047
       -0.0000614989  -0.0000084647  -0.0000331652   0.0000122311   0.0000282281
       -0.0000280555   0.0000018231   0.0000001749   0.0000085875   0.0000065977
        0.0000027653  -0.0000160965   0.0000034759   0.0000144768   0.0000086516
        0.0000109090  -0.0000218304  -0.0000251518   0.0000000034   0.0000223600
       -0.0000000057  -0.0000109181  -0.0000218329   0.0000251721  -0.0000034747
        0.0000144853  -0.0000086584  -0.0000065990   0.0000027563   0.0000160998
       -0.0000018249   0.0000001760  -0.0000085862  -0.0000122271   0.0000282491
        0.0000280500   0.0000614900  -0.0000084501   0.0000331961   0.0000788624
       -0.0005715736   0.0003931919   0.0001657915  -0.0001555995  -0.0000271893
       -0.0000277622   0.0000408665  -0.0000880527  -0.0000124855  -0.0000595109
        0.0000113691   0.0000681218   0.0000447370  -0.0000003118  -0.0001782136
        0.0000560831   0.0000114262   0.0000000011  -0.0000906300   0.0000000057
        0.0001782262   0.0000560725  -0.0000114349  -0.0000681217   0.0000447344
        0.0000003174   0.0000124814  -0.0000595086  -0.0000113675   0.0000277667
        0.0000408624   0.0000880562  -0.0001657928  -0.0001556217   0.0000271892
       -0.0000788590  -0.0005715646  -0.0003932622  -0.0000009644  -0.0337969081
       -0.0000032455  -0.0000000505   0.0007706929   0.0000000389   0.0000000076
       -0.0004738884   0.0000000129   0.0000000049  -0.0015655119   0.0000000436
       -0.0000000032  -0.0000045945   0.0000000015  -0.0000000001   0.0000069242
        0.0000000014   0.0000000023  -0.0000026810   0.0000000028   0.0000000025
       -0.0000121719   0.0000000014  -0.0000000004   0.0000217792  -0.0000000016
       -0.0000000026   0.0001231737   0.0000000035  -0.0000224416   0.0000016205
        0.0000138135  -0.0000009132   0.0000079065   0.0000031978  -0.0000009838
        0.0000014624   0.0000030786  -0.0000021629  -0.0000004230   0.0000041027
        0.0000021634  -0.0000004242  -0.0000041041   0.0000009844   0.0000014602
       -0.0000030797   0.0000009141   0.0000079028  -0.0000031988   0.0000224416
        0.0000016166  -0.0000138154  -0.0000356762  -0.0000164847   0.0000143947
        0.0000090469   0.0000234200   0.0000073590  -0.0000029378   0.0000065788
       -0.0000008316   0.0000087438   0.0000198652  -0.0000002137  -0.0000087455
        0.0000198649   0.0000002133   0.0000029363   0.0000065813   0.0000008304
       -0.0000090464   0.0000234222  -0.0000073584   0.0000356784  -0.0000164822
       -0.0000144008
       -0.0815928799   0.0000080881   0.7116260258   0.2153242602  -0.0000034958
       -0.3046823919   0.0165780559  -0.0000004333  -0.0363608407   0.0017722845
        0.0000000611   0.0030397763  -0.0271030409  -0.0000001551  -0.0095275750
       -0.0685574372  -0.0000005018  -0.0828020898   0.0232174504   0.0000000698
        0.0039869286   0.0004032275  -0.0000002619  -0.0049776559  -0.0038732928
       -0.0000000809  -0.0038064148  -0.0013397652   0.0000000090   0.0003698521
       -0.0000657328  -0.0000000143  -0.0006839706  -0.0000231636   0.0000000079
        0.0000731385   0.0000104073  -0.0000000048  -0.0000827781  -0.0000204007
        0.0000000000  -0.0000575042   0.0000301463  -0.0000000005  -0.0001135916
        0.0000594378   0.0000000033   0.0002058511  -0.0001103028  -0.0000000072
       -0.0003747173   0.0005411729   0.0000000052   0.0004492196  -0.0004448080
        0.0000000114   0.0001471804   0.0010604472  -0.0000000096   0.0007882503
        0.0000724815   0.0000813213   0.0000316109   0.0000032956  -0.0000244226
        0.0000501826  -0.0000050212   0.0000361391  -0.0000144619  -0.0000022037
        0.0000130056  -0.0000108981  -0.0000255172   0.0000211485  -0.0000292432
        0.0000088241  -0.0000975931   0.0000219227   0.0000078037  -0.0000000056
        0.0000640862   0.0000088286   0.0000975925   0.0000219152  -0.0000255155
       -0.0000211477  -0.0000292412  -0.0000021995  -0.0000130048  -0.0000108969
       -0.0000050234  -0.0000361393  -0.0000144579   0.0000032960   0.0000244221
        0.0000501831   0.0000724794  -0.0000813201   0.0000316153  -0.0013233926
       -0.0012017685  -0.0027350192   0.0003224481   0.0002094604  -0.0002067896
        0.0000829955   0.0001827837   0.0001660851  -0.0001878507   0.0000820850
       -0.0000108492  -0.0000112689  -0.0001878933   0.0002442330   0.0000804416
        0.0005950343  -0.0002788887  -0.0001070201   0.0000000054   0.0003970011
        0.0000804597  -0.0005950459  -0.0002788780  -0.0000112712   0.0001879034
        0.0002442364  -0.0001878486  -0.0000820886  -0.0000108481   0.0000829973
       -0.0001827810   0.0001660881   0.0003224602  -0.0002094694  -0.0002067866
       -0.0013234500   0.0012016848  -0.0027350937  -0.0723998430  -0.0000032537
       -0.2752238394  -0.0018990025   0.0000000084   0.0028415929   0.0002049501
       -0.0000000003   0.0000666452   0.0006334100   0.0000000344   0.0003632941
       -0.0000205941   0.0000000026   0.0000308463   0.0000117355   0.0000000032
        0.0000307336   0.0000169190  -0.0000000007   0.0000165649   0.0000254792
        0.0000000044  -0.0000140689   0.0000178503  -0.0000000015  -0.0000295487
       -0.0000208549   0.0000000023  -0.0000149967  -0.0000037815   0.0000067934
       -0.0000156270   0.0000080437  -0.0000202950   0.0000023110   0.0000021719
       -0.0000139748   0.0000185506  -0.0000087063  -0.0000164216   0.0000220714
       -0.0000087059   0.0000164236   0.0000220711   0.0000021737   0.0000139751
        0.0000185495   0.0000080445   0.0000202955   0.0000023113  -0.0000037813
       -0.0000067934  -0.0000156271  -0.0001552709  -0.0000134395  -0.0001019698
        0.0000152920   0.0000383553   0.0000097300  -0.0000334452  -0.0000274295
       -0.0000342686  -0.0000079790   0.0000151764  -0.0000011583  -0.0000079776
       -0.0000151756  -0.0000011596  -0.0000334454   0.0000274299  -0.0000342684
        0.0000152934  -0.0000383539   0.0000097308  -0.0001552705   0.0000134386
       -0.0001019704
       -0.2540915501   0.0000027204   0.2153242602   0.6864489831  -0.0000015147
       -0.1330133630  -0.0712671756  -0.0000003758  -0.0293491828  -0.0153404604
       -0.0000004389  -0.0281311341   0.0067820899  -0.0000000202   0.0026454996
       -0.0642416556   0.0000003763   0.0228997581   0.0091263052  -0.0000001280
       -0.0054712549  -0.0068763536  -0.0000000669  -0.0056914067  -0.0044384730
        0.0000000409   0.0026573696  -0.0000149043   0.0000000208   0.0004008762
        0.0002474171  -0.0000000009   0.0001649554  -0.0004535521   0.0000000024
       -0.0002313441   0.0001200570  -0.0000000050   0.0002492661  -0.0003552580
        0.0000000084   0.0000162146   0.0001948470  -0.0000000109  -0.0004247949
        0.0003369026   0.0000000090   0.0003768165  -0.0002582954  -0.0000000137
       -0.0009700017   0.0012068139  -0.0000000008   0.0006073497  -0.0018325985
        0.0000000054  -0.0007738550   0.0022469586  -0.0000000334   0.0000151555
        0.0000173614  -0.0000678229   0.0000743283  -0.0000130204  -0.0000276153
        0.0000455341   0.0000181546   0.0000155418  -0.0000180411   0.0000237007
        0.0000179092  -0.0000024922  -0.0000153258  -0.0000189165  -0.0000184705
       -0.0000005991  -0.0000613541  -0.0000076429  -0.0001259168  -0.0000000100
        0.0000896035  -0.0000005956   0.0000613466  -0.0000076378  -0.0000153183
        0.0000189166  -0.0000184718   0.0000237036  -0.0000179073  -0.0000024887
        0.0000181530  -0.0000155377  -0.0000180410  -0.0000130168   0.0000276176
        0.0000455331   0.0000173645   0.0000678246   0.0000743252   0.0036795116
       -0.0004028489   0.0080938835   0.0000379014  -0.0009056653   0.0005394665
       -0.0003468886  -0.0002077032  -0.0005785735   0.0001554713  -0.0003892975
        0.0000389272  -0.0000567933   0.0005849173  -0.0003074750  -0.0005230311
       -0.0021194349   0.0015171710  -0.0011001846  -0.0000000308  -0.0002528482
       -0.0005230600   0.0021194808   0.0015171445  -0.0000567897  -0.0005849139
       -0.0003074924   0.0001554662   0.0003893083   0.0000389221  -0.0003468984
        0.0002077110  -0.0005785928   0.0000378528   0.0009056896   0.0005394662
        0.0036794980   0.0004031618   0.0080944323   0.0045097449  -0.0000000592
       -0.0034798587  -0.2908185852  -0.0000008633  -0.0552558448  -0.0053462644
       -0.0000000563  -0.0014306563   0.0000556370  -0.0000000030  -0.0001339020
        0.0000030318   0.0000000023  -0.0000085529  -0.0000053504   0.0000000053
       -0.0000181316  -0.0000194299  -0.0000000022  -0.0000107703  -0.0000094110
        0.0000000094   0.0000062436   0.0000066610  -0.0000000001  -0.0000032225
        0.0000509958   0.0000000077  -0.0000718294   0.0000207274  -0.0000475389
        0.0000035884  -0.0000044720   0.0000016234   0.0000147847   0.0000009849
        0.0000434199  -0.0000046625  -0.0000086797  -0.0000073431  -0.0000368397
       -0.0000086792   0.0000073457  -0.0000368387   0.0000009874  -0.0000434156
       -0.0000046615  -0.0000044713  -0.0000016190   0.0000147873   0.0000207295
        0.0000475410   0.0000035861  -0.0002925487   0.0002023046   0.0001066963
       -0.0000152720  -0.0000369194   0.0000398564  -0.0000468336   0.0000258156
        0.0000415491  -0.0000008323  -0.0000055398   0.0000924531  -0.0000008315
        0.0000055464   0.0000924533  -0.0000468294  -0.0000258137   0.0000415556
       -0.0000152714   0.0000369233   0.0000398572  -0.0002925360  -0.0002023123
        0.0001067061
        0.0000022928  -0.0339237543  -0.0000034958  -0.0000015147   0.1163092564
        0.0000062066  -0.0000004773  -0.0428417186  -0.0000014686  -0.0000003105
        0.0019441474  -0.0000004311   0.0000000327  -0.0015840128  -0.0000000309
        0.0000005028   0.0007342856   0.0000000714  -0.0000001752   0.0024396008
        0.0000000330   0.0000000400   0.0005227262   0.0000000511   0.0000000221
       -0.0000236438  -0.0000000472  -0.0000000142  -0.0000904889   0.0000000098
        0.0000000055   0.0000102881  -0.0000000242   0.0000000100  -0.0000053520
        0.0000000020   0.0000000005   0.0000002045   0.0000000035  -0.0000000004
        0.0000019850  -0.0000000001   0.0000000046   0.0000007803  -0.0000000069
        0.0000000007  -0.0000090766   0.0000000049  -0.0000000024  -0.0000016315
       -0.0000000220   0.0000000090   0.0000485172   0.0000000230  -0.0000000075
       -0.0000193972   0.0000000045  -0.0000000153  -0.0002279736   0.0000000042
       -0.0000074898  -0.0000053116   0.0000564268   0.0000025432  -0.0000069251
        0.0000036815  -0.0000003087   0.0000148354   0.0000125955   0.0000117093
        0.0000001147  -0.0000038566   0.0000053500   0.0000322395   0.0000085266
        0.0000131396  -0.0000718000  -0.0000525004  -0.0000000042   0.0000327873
        0.0000000026  -0.0000131414  -0.0000717897   0.0000525020  -0.0000053486
        0.0000322439  -0.0000085279  -0.0000117069   0.0000001146   0.0000038563
        0.0000003094   0.0000148332  -0.0000125932  -0.0000025428  -0.0000069164
       -0.0000036836   0.0000074826  -0.0000053091  -0.0000564223   0.0006321268
       -0.0045440174   0.0204317265  -0.0009907416  -0.0009613705   0.0009763716
       -0.0003098613  -0.0006608816  -0.0010735754   0.0002322231  -0.0002249552
        0.0000527490  -0.0001903056   0.0002966072  -0.0009060669   0.0008878601
       -0.0014062923   0.0007081563  -0.0000000275   0.0008910733  -0.0000000020
       -0.0008878915  -0.0014062750  -0.0007081083   0.0001903043   0.0002966023
        0.0009060717  -0.0002322221  -0.0002249523  -0.0000527429   0.0003098890
       -0.0006608785   0.0010735805   0.0009907832  -0.0009612797  -0.0009763252
       -0.0006318909  -0.0045446722  -0.0204320274   0.0000002546  -0.0008126988
       -0.0000003597  -0.0000008118  -0.0301740690  -0.0000002987  -0.0000000668
        0.0013327919  -0.0000000374  -0.0000000060  -0.0000077234  -0.0000000015
       -0.0000000008  -0.0000022010  -0.0000000008  -0.0000000005  -0.0000013340
       -0.0000000006   0.0000000002   0.0000008823   0.0000000011   0.0000000008
       -0.0000012512   0.0000000021  -0.0000000001  -0.0000018498   0.0000000008
        0.0000000015  -0.0000034651   0.0000000007  -0.0000063368   0.0000018385
       -0.0000028026  -0.0000074337   0.0000042843  -0.0000017412  -0.0000066710
        0.0000121176  -0.0000046797  -0.0000079794  -0.0000040731  -0.0000072372
        0.0000079794  -0.0000040734   0.0000072366   0.0000066706   0.0000121142
        0.0000046784   0.0000074327   0.0000042819   0.0000017415   0.0000063357
        0.0000018363   0.0000028042   0.0001379477   0.0002443324   0.0003901928
       -0.0000207056  -0.0000661013   0.0000264915   0.0000405090   0.0001114777
        0.0002064736  -0.0000080072  -0.0000346908   0.0000311088   0.0000080082
       -0.0000346918  -0.0000311075  -0.0000405129   0.0001114750  -0.0002064776
        0.0000207065  -0.0000660991  -0.0000264890  -0.0001379553   0.0002443229
       -0.0003902007
        0.1829409672  -0.0000034777  -0.3046823919  -0.1330133630   0.0000062066
        0.6054316976  -0.0436199067  -0.0000021477  -0.1722442643  -0.0105862301
       -0.0000002640  -0.0102813594  -0.0014340117  -0.0000000729  -0.0052806975
        0.0369061411   0.0000001181   0.0077453102  -0.0150585336   0.0000000247
        0.0042590132   0.0055384072   0.0000000363   0.0056461421   0.0028462667
       -0.0000000815  -0.0025215850   0.0001512658  -0.0000000222  -0.0006450671
        0.0000078354   0.0000000002   0.0001381418   0.0002606544   0.0000000114
        0.0000315734  -0.0000331013  -0.0000000015  -0.0000328042   0.0001621236
        0.0000000068   0.0000177870  -0.0000753741  -0.0000000015   0.0002801775
       -0.0002721247   0.0000000220  -0.0002874796   0.0001877195  -0.0000000026
        0.0007420029  -0.0010629283   0.0000000041  -0.0005057660   0.0013899789
       -0.0000000187   0.0002162868  -0.0016676011  -0.0000000142  -0.0004664466
       -0.0001855373  -0.0002782697   0.0000540376  -0.0000040728   0.0000298002
       -0.0000749362   0.0000117910  -0.0000129872   0.0000272328   0.0000521513
       -0.0000263652   0.0000182923   0.0000215116  -0.0000521398  -0.0000249583
       -0.0000220506   0.0002198760   0.0000404109  -0.0000450783  -0.0000000398
        0.0000027688  -0.0000220547  -0.0002198970   0.0000404266   0.0000215221
        0.0000521456  -0.0000249587   0.0000521565   0.0000263712   0.0000182994
        0.0000117918   0.0000129945   0.0000272309  -0.0000040661  -0.0000297956
       -0.0000749359  -0.0001855274   0.0002782785   0.0000540233   0.0051710460
        0.0160632910  -0.0237631014  -0.0003113766  -0.0009026378   0.0003759225
        0.0006778347   0.0008315487   0.0005507331  -0.0000378581   0.0000771420
       -0.0000659382  -0.0000034007   0.0006004793   0.0003670840  -0.0005319114
       -0.0011257974   0.0005554920  -0.0000803068  -0.0000000143  -0.0009347888
       -0.0005319645   0.0011257908   0.0005554728  -0.0000033816  -0.0006004634
        0.0003670885  -0.0000378675  -0.0000771243  -0.0000659327   0.0006778630
       -0.0008315122   0.0005507260  -0.0003113951   0.0009027169   0.0003759161
        0.0051714080  -0.0160633145  -0.0237624377   0.0194409843  -0.0000003303
       -0.0285483394  -0.0523573135  -0.0000002844  -0.0534242037   0.0000357893
        0.0000000897   0.0005824737  -0.0002414796   0.0000000251  -0.0003376862
        0.0000102033   0.0000000069  -0.0000002842   0.0000000078   0.0000000167
       -0.0000669317  -0.0000347707  -0.0000000000  -0.0000093991  -0.0000420292
        0.0000000196   0.0000275132  -0.0000144630   0.0000000002   0.0000361567
        0.0000390441   0.0000000144  -0.0000538185   0.0000318751  -0.0000031442
        0.0000141058  -0.0000085088   0.0000040642   0.0000335090  -0.0000123760
        0.0000991608  -0.0000077809  -0.0000024106   0.0000115991  -0.0000918450
       -0.0000024094  -0.0000115958  -0.0000918418  -0.0000123691  -0.0000991511
       -0.0000077779  -0.0000085072  -0.0000040558   0.0000335160   0.0000318752
        0.0000031512   0.0000141067   0.0001395165   0.0000502152  -0.0003790316
        0.0000267990  -0.0002470998   0.0000489818  -0.0000746459  -0.0001896858
       -0.0001164073  -0.0000779516  -0.0001085848   0.0000209952  -0.0000779472
        0.0001085863   0.0000209920  -0.0000746472   0.0001896910  -0.0001164056
        0.0000267991   0.0002471036   0.0000489863   0.0001395235  -0.0000502142
       -0.0003790241
        0.0018438174   0.0000001737   0.0165780559  -0.0712671756  -0.0000004773
       -0.0436199067   0.4937054345  -0.0000002598   0.0223089636  -0.1960793255
       -0.0000018204  -0.0321338867  -0.0383863015   0.0000001004   0.0112682283
        0.0044474692   0.0000000365  -0.0037012223  -0.0045653701   0.0000000015
        0.0006702004   0.0011068733   0.0000000965   0.0042979135   0.0064344749
       -0.0000001491  -0.0000016606   0.0000662237  -0.0000000641  -0.0008623569
        0.0000302572   0.0000000048   0.0004442214  -0.0000774115   0.0000000326
       -0.0000002088  -0.0000121095   0.0000000121   0.0001655180  -0.0000549583
        0.0000000165   0.0000710140   0.0001026499   0.0000000131   0.0000211311
       -0.0000237728   0.0000000112  -0.0001063676   0.0001090281   0.0000000170
        0.0000778633  -0.0003529053  -0.0000000013  -0.0001878662   0.0006112283
        0.0000000344  -0.0003608246  -0.0000010800  -0.0000000062   0.0001285637
       -0.0002157843  -0.0003827625   0.0001211130  -0.0000322594   0.0000004927
       -0.0000502416   0.0000339328  -0.0000223880   0.0000154099   0.0000466514
        0.0000199615   0.0000065555   0.0000084227  -0.0000977258   0.0000005270
       -0.0001052768   0.0003620586   0.0000509872   0.0000922639  -0.0000000318
        0.0000173737  -0.0001052844  -0.0003620597   0.0000510081   0.0000084334
        0.0000977415   0.0000005226   0.0000466494  -0.0000199472   0.0000065649
        0.0000339259   0.0000224031   0.0000154085  -0.0000322563  -0.0000004741
       -0.0000502414  -0.0002157629   0.0003827915   0.0001211027  -0.0738675922
       -0.0368207116   0.0175495230   0.0059455729   0.0088217678  -0.0047693727
       -0.0006886973   0.0026049143   0.0004074696  -0.0002596867   0.0002036238
       -0.0001363705  -0.0045625872   0.0010353205   0.0019884639  -0.0155289348
       -0.0225053340   0.0117476322   0.0023912220   0.0000000573   0.0000180098
       -0.0155297683   0.0225052269   0.0117473535  -0.0045625436  -0.0010354067
        0.0019885376  -0.0002597222  -0.0002036227  -0.0001363589  -0.0006885293
       -0.0026049238   0.0004075609   0.0059456034  -0.0088210972  -0.0047689694
       -0.0738698449   0.0368229466   0.0175501154  -0.0016436686   0.0000000276
        0.0033968757  -0.0088258910  -0.0000002539  -0.0251956787  -0.0106553526
       -0.0000002025  -0.0051515052   0.0000975521  -0.0000000737  -0.0001885704
       -0.0000003767   0.0000000006  -0.0000144087  -0.0000287757  -0.0000000501
       -0.0000814878  -0.0000525855  -0.0000000185  -0.0000192280  -0.0000567872
       -0.0000000523   0.0000297202  -0.0000493897  -0.0000000180   0.0000676733
       -0.0001019120   0.0000000243   0.0000314238   0.0000371412  -0.0000577509
       -0.0000110793  -0.0000144161   0.0000229019   0.0000210583  -0.0000094352
        0.0001029986  -0.0000079261  -0.0000005244   0.0000333122  -0.0001321908
       -0.0000005301  -0.0000333004  -0.0001321844  -0.0000094383  -0.0001029831
       -0.0000079229  -0.0000144280  -0.0000228847   0.0000210673   0.0000371386
        0.0000577686  -0.0000110798   0.0002853504   0.0006671091  -0.0008235289
        0.0001640193   0.0005806951  -0.0001566304   0.0000494907  -0.0001797691
       -0.0002891761  -0.0006856050  -0.0013065268   0.0004835574  -0.0006856328
        0.0013065219   0.0004835416   0.0000494793   0.0001797751  -0.0002891914
        0.0001640216  -0.0005806712  -0.0001566046   0.0002853619  -0.0006671726
       -0.0008235810
       -0.0000001241   0.0034680863  -0.0000004333  -0.0000003758  -0.0428417186
       -0.0000021477  -0.0000002598   0.3932681303   0.0000019267  -0.0000013073
       -0.0552448666  -0.0000005621   0.0000001619   0.0073485135   0.0000000183
        0.0000001063  -0.0091988069   0.0000000630  -0.0000001646  -0.0000998376
        0.0000000485   0.0000001541  -0.0016183471   0.0000001191   0.0000002400
        0.0115946482  -0.0000002532   0.0000000407   0.0003033472  -0.0000000793
       -0.0000000499  -0.0001896289   0.0000000737  -0.0000000004  -0.0002986716
        0.0000000222  -0.0000000107   0.0000043991  -0.0000000196   0.0000000325
        0.0000537897   0.0000000173  -0.0000000226   0.0000126350   0.0000000404
       -0.0000000283   0.0000665807  -0.0000000490   0.0000000206  -0.0000909748
        0.0000001185  -0.0000001133   0.0002240762  -0.0000001096   0.0000001354
       -0.0000691378   0.0000000098  -0.0000001368  -0.0012793217   0.0000000025
        0.0002175137  -0.0001638205   0.0000439452   0.0000098737   0.0000252002
        0.0000347094  -0.0000228352   0.0000007026   0.0000369761   0.0000243385
       -0.0000026561   0.0000063958  -0.0000062988  -0.0000142228  -0.0000307756
        0.0000293665   0.0000191954  -0.0001004836  -0.0000000114   0.0000406140
        0.0000000173  -0.0000293519   0.0000191876   0.0001004439   0.0000062942
       -0.0000142153   0.0000307805  -0.0000243327  -0.0000026382  -0.0000063943
        0.0000228386   0.0000006953  -0.0000369777  -0.0000098742   0.0000251834
       -0.0000347082  -0.0002174977  -0.0001638103  -0.0000439757  -0.0372415596
       -0.1238461282   0.0442731122  -0.0061821842  -0.0277261473   0.0129161985
        0.0040950841  -0.0005528407   0.0021209404  -0.0003631223  -0.0004405043
        0.0002519680   0.0000181835   0.0022242519   0.0012413858  -0.0111493732
       -0.0070825111   0.0038416476   0.0000000512  -0.0008141385  -0.0000000121
        0.0111492396  -0.0070817763  -0.0038412875  -0.0000183470   0.0022242019
       -0.0012412939   0.0003631417  -0.0004405312  -0.0002519819  -0.0040951151
       -0.0005530659  -0.0021208493   0.0061829721  -0.0277267316  -0.0129159728
        0.0372432461  -0.1238466789  -0.0442720509   0.0000000331   0.0108709468
       -0.0000001581  -0.0000000647  -0.0008356727  -0.0000001502  -0.0000005007
        0.0006293409  -0.0000001735  -0.0000000029   0.0003509601  -0.0000000158
        0.0000000006  -0.0000285181  -0.0000000009   0.0000000000   0.0000025688
       -0.0000000036  -0.0000000016  -0.0000124960  -0.0000000006  -0.0000000013
       -0.0000106884   0.0000000021   0.0000000017  -0.0000001592   0.0000000010
        0.0000000049   0.0001696756  -0.0000000096   0.0000125633  -0.0000209348
       -0.0000174153  -0.0000118868   0.0000095022  -0.0000021702  -0.0000027411
        0.0000358419  -0.0000149796  -0.0000013566  -0.0000034818  -0.0000194302
        0.0000013557  -0.0000034824   0.0000194263   0.0000027393   0.0000358332
        0.0000149771   0.0000118828   0.0000095011   0.0000021735  -0.0000125640
       -0.0000209305   0.0000174182  -0.0011645373   0.0012286172  -0.0010158331
       -0.0004562626  -0.0010578587   0.0004106710  -0.0000612469  -0.0001379769
       -0.0005059086   0.0000186921  -0.0003815739   0.0000092535  -0.0000187009
       -0.0003815402  -0.0000092365   0.0000612509  -0.0001379561   0.0005058876
        0.0004562962  -0.0010578739  -0.0004106575   0.0011645089   0.0012286459
        0.0010157696
        0.0090526364  -0.0000005273  -0.0363608407  -0.0293491828  -0.0000014686
       -0.1722442643   0.0223089636   0.0000019267   0.4177963136  -0.0379452920
       -0.0000006532  -0.0683651532   0.0231183133   0.0000000883   0.0030337181
       -0.0073672071   0.0000001757   0.0018248594   0.0039717993  -0.0000000023
       -0.0005567643  -0.0015381638  -0.0000000100  -0.0028774464  -0.0005068518
       -0.0000002253  -0.0015676136   0.0000635205   0.0000000157   0.0005819148
        0.0001034890  -0.0000000092  -0.0009033514   0.0002075215  -0.0000000064
        0.0001039147   0.0000017777  -0.0000000035  -0.0003113819   0.0001076395
       -0.0000000169  -0.0001091061  -0.0000641142   0.0000000055  -0.0000651636
        0.0000636889  -0.0000000244   0.0002271452  -0.0002199817   0.0000000102
       -0.0002754839   0.0007218611  -0.0000000052   0.0004227305  -0.0010998155
        0.0000000613   0.0006906431   0.0002599267   0.0000000344   0.0000805834
        0.0002680838   0.0004016895  -0.0003198942   0.0000188020  -0.0001173441
        0.0000086420  -0.0000112301   0.0000851820  -0.0000587734  -0.0000581811
        0.0000571792   0.0000141343  -0.0000760925  -0.0000302835   0.0000562983
        0.0001115836  -0.0003915672  -0.0002489108  -0.0003361445   0.0000000319
        0.0004558351   0.0001116053   0.0003915839  -0.0002489343  -0.0000760936
        0.0000302774   0.0000562927  -0.0000581802  -0.0000571817   0.0000141298
       -0.0000112346  -0.0000851889  -0.0000587637   0.0000187978   0.0001173342
        0.0000086407   0.0002680855  -0.0004016976  -0.0003198718   0.0151121794
        0.0387748577  -0.0623684665   0.0013906486   0.0092399190  -0.0025027835
        0.0001887114   0.0022264085   0.0057693291  -0.0006186745   0.0008397135
       -0.0002964664   0.0011473197  -0.0003793944   0.0049749405   0.0067075883