$hessian                                                                        
        0.6415782876  -0.0324456358  -0.0599821823  -0.2449762185  -0.0419220682
        0.0225337833   0.0162285565  -0.0820956536  -0.0068015892  -0.0430541230
        0.0183225154   0.0056873523   0.0060557260  -0.0151213065  -0.0006854346
        0.0012381122   0.0009689118  -0.0004123865   0.0000351695  -0.0006162594
       -0.0000098243   0.0003654150  -0.0000079833   0.0001495134  -0.0006164907
       -0.0004494096  -0.0000396769   0.0005519823   0.0003113246   0.0000312734
       -0.0002671815   0.0001139710  -0.0000656209   0.0000872646   0.0000061381
       -0.0000053732  -0.0000606652   0.0000017871   0.0000152949   0.0000112464
        0.0000595892   0.0000147062   0.0000093250  -0.0000519013   0.0000054583
       -0.0000131057   0.0001186322   0.0000238956   0.0000888369  -0.0000678397
       -0.0000107987  -0.0000440501   0.0000464025   0.0000039709   0.0000549661
       -0.0000107710  -0.0000001262  -0.0000254420  -0.0000653433  -0.0000131573
        0.0000039027   0.0000747498   0.0000215805   0.0000081389  -0.0002468704
        0.0000603312   0.0001447443   0.0004299693  -0.0000757261  -0.0007078265
        0.0001777970  -0.0001401693  -0.0171585321  -0.0022766626   0.0005364931
        0.0091668676   0.0193316503   0.0009667799   0.0001011702  -0.0003974601
       -0.0002904346  -0.0001444117   0.0003543108   0.0000259545   0.0002329606
       -0.0000132000   0.0000206400  -0.0002049279  -0.0001387742  -0.0000287589
        0.0000619221  -0.0000387185  -0.0000126658  -0.0000255138  -0.0000098920
        0.0000102258   0.0000055084  -0.0000102691  -0.0000087266   0.0000025212
       -0.0000016922  -0.0000059623   0.0000058067  -0.0000053043  -0.0000037572
       -0.0000064639  -0.0000047194   0.0000006383   0.0000086496  -0.0000084593
        0.0000017157   0.0000079546  -0.0000062262  -0.0000046452   0.0000013091
       -0.0000017086  -0.0000058664   0.0000005747  -0.0000060165   0.0000000274
       -0.0000026029  -0.0000041255  -0.0000010295   0.0000103693  -0.0000131107
       -0.0000027668  -0.0000023274   0.0000269230  -0.0000022418  -0.0001038657
        0.0000907201   0.0000066969   0.0001903632  -0.0001994546   0.0000086324
        0.0160945343  -0.0218992571  -0.0014012409   0.0024952563   0.0739498947
        0.0020207146  -0.2942748360   0.0905201002   0.0299635621  -0.0437758310
       -0.0094402371   0.0004325950  -0.0250481520  -0.0097356243   0.0021322744
        0.0011364060  -0.0000752377   0.0009596361  -0.0000298607   0.0000303212
        0.0000257921   0.0000073907   0.0000529743   0.0000112003  -0.0000282823
       -0.0000272933   0.0000002305   0.0000049589  -0.0000216656  -0.0000008588
        0.0000074143  -0.0000080530   0.0000023512   0.0000088428   0.0000037224
        0.0000086114   0.0000118048   0.0000034413   0.0000022242   0.0000021883
        0.0000075820   0.0000071255  -0.0000075781   0.0000052379   0.0000061561
       -0.0000043220  -0.0000138828  -0.0000002855   0.0000363957  -0.0000273057
        0.0000147478   0.0000850076  -0.0001298998   0.0000485366  -0.0000669880
       -0.0000959612  -0.0000091454   0.0000043325  -0.0000288573  -0.0000008972
       -0.0000144595   0.0000088328   0.0000010869  -0.0000077958   0.0000004031
       -0.0000017919  -0.0000074175   0.0000014580  -0.0000029182  -0.0000042404
        0.0000011798  -0.0000032168  -0.0000030222   0.0000019505  -0.0000044584
       -0.0000010199   0.0000024230  -0.0000036965   0.0000014788   0.0000013678
       -0.0000029084  -0.0000025084   0.0000066049  -0.0000032376   0.0000114425
        0.0000042436   0.0000042031  -0.0001755706  -0.0000446097   0.0000020381
       -0.0252994715   0.0127475907   0.0042755261
       -0.0324456358   0.6716674041   0.0320312923  -0.1193574896  -0.1351336787
        0.0091833432  -0.0284074803  -0.0310033432   0.0019173629   0.0007338729
        0.0041104233   0.0008882644   0.0003069345  -0.0010611639   0.0001569596
        0.0002036190   0.0002635855  -0.0000516516   0.0000827752  -0.0000994581
        0.0000397304   0.0000677375   0.0000100594  -0.0000023848  -0.0002003778
       -0.0001505809   0.0000132562   0.0002082264   0.0001758588   0.0000186505
       -0.0000963946   0.0000412472  -0.0000322857   0.0000241118  -0.0000162861
       -0.0000063079  -0.0000212241  -0.0000011661   0.0000044649  -0.0000036800
        0.0000156067   0.0000039261  -0.0000024137  -0.0000167369   0.0000021981
        0.0000018655   0.0000443022   0.0000090002   0.0000467883  -0.0000113156
       -0.0000042834  -0.0000203476   0.0000015147  -0.0000007981   0.0000148660
       -0.0000092314  -0.0000010049  -0.0000037886  -0.0000179047  -0.0000048944
       -0.0000071725   0.0000309510   0.0000094865   0.0000039232  -0.0001193458
        0.0000244803   0.0000500189   0.0000984383  -0.0000194483  -0.0001123800
        0.0000282842  -0.0001315513   0.0002711748   0.0012353553  -0.0000888149
        0.0010088283  -0.0033790418  -0.0000311542  -0.0003419072  -0.0002149517
        0.0001564818   0.0000801661  -0.0002894201  -0.0000011004  -0.0001504082
       -0.0000811383   0.0000232525   0.0003059945  -0.0001765780  -0.0000082481
       -0.0003034525   0.0001963302   0.0000106139   0.0001395238   0.0000676598
       -0.0000579356  -0.0000289098  -0.0000149230   0.0000321120   0.0000243926
       -0.0000047720  -0.0000188102  -0.0000070828   0.0000190270  -0.0000158083
        0.0000015001  -0.0000235381   0.0000118201  -0.0000147491   0.0000492394
       -0.0000403703  -0.0000492967  -0.0000100455   0.0000400428   0.0000222269
        0.0000092790  -0.0000127560  -0.0000203552  -0.0000040403   0.0000153683
        0.0000175444  -0.0000200569   0.0000166577  -0.0000032833   0.0000334759
       -0.0000313442   0.0000046362  -0.0001552373   0.0000542945  -0.0000137571
        0.0001549490  -0.0000475106   0.0001322498   0.0001190603  -0.0000054425
       -0.0025554858  -0.0040141881  -0.0005903155   0.0265154838  -0.0350865790
       -0.0045795708   0.1614030441  -0.1744153455  -0.0241225239  -0.0095973981
       -0.3001699930  -0.0134864184   0.0134419588   0.0064519395  -0.0016920405
       -0.0007939089  -0.0056230679  -0.0007493819  -0.0000281567   0.0000235660
       -0.0000170788   0.0000105536   0.0000198098  -0.0000062924   0.0000134174
        0.0000012886  -0.0000002583  -0.0000029531  -0.0000060123  -0.0000009538
        0.0000057358  -0.0000009255  -0.0000004380   0.0000035682   0.0000058276
        0.0000027247   0.0000050243   0.0000014310   0.0000011609  -0.0000012863
        0.0000040394   0.0000031959  -0.0000038835  -0.0000001284   0.0000021656
        0.0000025806  -0.0000010733   0.0000019344   0.0000303341  -0.0000113401
        0.0000096303  -0.0000065575  -0.0001261996   0.0000439141   0.0000238164
        0.0000300597  -0.0000083233   0.0000061467   0.0000160218   0.0000048987
        0.0000054125   0.0000009492  -0.0000043909   0.0000015175  -0.0000049452
        0.0000033606  -0.0000056683  -0.0000005773   0.0000040356  -0.0000062371
        0.0000044034  -0.0000020716  -0.0000059627   0.0000036482   0.0000015884
       -0.0000006452   0.0000052019  -0.0000035628   0.0000039529   0.0000007472
       -0.0000038013  -0.0000019301  -0.0000040416   0.0000025087  -0.0000184564
       -0.0000044855  -0.0000068262  -0.0000067965  -0.0000762511   0.0000109279
       -0.0105786109   0.0066181231   0.0011330490
       -0.0599821823   0.0320312923   0.1253668250   0.0168693444  -0.0001908989
       -0.0528901592  -0.0032002723   0.0080716098   0.0019664098   0.0039585606
       -0.0020369316  -0.0061887740  -0.0008103416   0.0019189010  -0.0001298306
        0.0000132778   0.0000814599  -0.0001841742  -0.0000265688  -0.0000785003
        0.0000085756   0.0000874473   0.0000478285   0.0000431256  -0.0000032066
        0.0001120615  -0.0000900159  -0.0000128916  -0.0000076039  -0.0000000398
        0.0000141522   0.0000033538  -0.0000044003  -0.0000048517  -0.0000028866
        0.0000025787  -0.0000016015  -0.0000014060   0.0000062659   0.0000007728
        0.0000010031   0.0000015904  -0.0000020114   0.0000003704   0.0000071588
        0.0000032403  -0.0000107523   0.0000207674  -0.0000026040   0.0000070508
       -0.0000007147  -0.0000020882  -0.0000031796   0.0000015812  -0.0000025242
       -0.0000004830   0.0000109515   0.0000006143   0.0000014690   0.0000064763
        0.0000042681   0.0000091634   0.0000019026  -0.0000020021   0.0000044990
       -0.0000005747  -0.0001372634  -0.0001038995   0.0000503171   0.0000931540
        0.0001562090   0.0002085962   0.0022340504   0.0000757556   0.0006296202
       -0.0010510858  -0.0024176939   0.0002593381  -0.0000325627  -0.0000284811
       -0.0009239958   0.0000446419  -0.0000471276  -0.0000391981  -0.0000245361
       -0.0000171533   0.0000975355   0.0000242927   0.0000173173   0.0000044783
       -0.0000094972   0.0000073667  -0.0000163672   0.0000039698  -0.0000072468
       -0.0000098798   0.0000013923   0.0000020257   0.0000002177  -0.0000020948
       -0.0000038909  -0.0000057100  -0.0000018732   0.0000044867   0.0000020337
        0.0000012285  -0.0000011057  -0.0000120163  -0.0000016575   0.0000046709
       -0.0000029812  -0.0000015713   0.0000005603  -0.0000035517  -0.0000002768
       -0.0000042290  -0.0000021062   0.0000023312   0.0000053482  -0.0000005214
        0.0000005642   0.0000022149  -0.0000031490   0.0000028208   0.0000090948
        0.0000011986  -0.0000043707  -0.0000064378  -0.0000062188   0.0000099734
       -0.0000143954   0.0000468506  -0.0000398909   0.0000270072   0.0000081978
       -0.0016043268   0.0018932698   0.0061876476   0.0013676383  -0.0090180359
       -0.0009469797   0.0346402813  -0.0169868650  -0.0469684782   0.0003218341
       -0.0134260535  -0.0364497393   0.0043107726   0.0016651979   0.0008539053
        0.0011394569  -0.0009899038   0.0088844128   0.0000060624  -0.0000013235
       -0.0000104032  -0.0000122489  -0.0000076824   0.0000120419   0.0000043726
        0.0000023501   0.0000033844  -0.0000005329   0.0000021754   0.0000040412
        0.0000007766   0.0000017841   0.0000061567  -0.0000006192   0.0000010164
        0.0000056500  -0.0000005021  -0.0000002731   0.0000067393  -0.0000004700
       -0.0000003440   0.0000050654  -0.0000003172   0.0000011710   0.0000034033
        0.0000014713   0.0000016131   0.0000048841  -0.0000201070   0.0000051287
        0.0000097423   0.0000309077   0.0000768660  -0.0000355733   0.0000084255
        0.0000197290  -0.0000192584   0.0000022148  -0.0000016298   0.0000026049
        0.0000001256  -0.0000024509  -0.0000031845   0.0000001719  -0.0000020631
       -0.0000055076  -0.0000003083  -0.0000021291  -0.0000048278   0.0000007209
       -0.0000014603  -0.0000056281   0.0000000121   0.0000000683  -0.0000002811
        0.0000014057  -0.0000020791  -0.0000029234   0.0000010950   0.0000016268
        0.0000010390   0.0000011700  -0.0000059516  -0.0000031165   0.0000006280
       -0.0000019730  -0.0000056392   0.0000155355   0.0000068637  -0.0000367030
        0.0017740832  -0.0008464592   0.0002693114
       -0.2449762185  -0.1193574896   0.0168693444   0.6236439233  -0.0192823557
       -0.0666197124  -0.0936744450   0.0203940910   0.0077013216   0.0220395400
        0.0119794692  -0.0013821989  -0.0083110419   0.0131331746   0.0020732771
       -0.0009533023  -0.0008244317  -0.0001021924   0.0000448830   0.0006169148
       -0.0001429763  -0.0003088794  -0.0000254249  -0.0000972061   0.0005137990
        0.0003715920   0.0000682628  -0.0004523471  -0.0003501396  -0.0000213249
        0.0002328918  -0.0000897523   0.0000639800  -0.0000563989   0.0000781048
        0.0000166102   0.0000599411  -0.0000167530  -0.0000158176  -0.0000143212
       -0.0000465082  -0.0000092418  -0.0000269319   0.0000475869  -0.0000032604
        0.0000158643  -0.0000961042  -0.0000193689  -0.0000953014   0.0000283153
        0.0000064542   0.0000377358  -0.0000279039  -0.0000017197  -0.0000468150
        0.0000074006   0.0000002371   0.0000172800   0.0000539961   0.0000113654
        0.0000152535  -0.0000800007  -0.0000210783  -0.0000130749   0.0002727178
       -0.0000483732   0.0000180155  -0.0002433515   0.0000604417   0.0004813093
       -0.0002373675  -0.0000971575   0.0099419914   0.0019952608  -0.0004773553
       -0.0053384923  -0.0099199090  -0.0002510067   0.0000437338   0.0001134363
        0.0001157984   0.0000931509  -0.0001177338  -0.0000146823  -0.0001326678
        0.0000142815  -0.0000087200   0.0000699410   0.0000990740   0.0000187751
       -0.0000164102   0.0000250527  -0.0000052383   0.0000113766   0.0000018889
       -0.0000075029   0.0000034758   0.0000014090   0.0000074475   0.0000053596
       -0.0000007274  -0.0000001674  -0.0000046516   0.0000030364   0.0000052229
       -0.0000046925   0.0000065019   0.0000010800   0.0000005458   0.0000010734
        0.0000032171  -0.0000060372   0.0000087269  -0.0000016787  -0.0000050916
       -0.0000013590   0.0000054579  -0.0000013738   0.0000068836  -0.0000042840
        0.0000032055  -0.0000037520   0.0000016999  -0.0000087330   0.0000063502
        0.0000027142   0.0000090374  -0.0000286981   0.0000153570   0.0000768049
       -0.0000399456   0.0000030897  -0.0001633280  -0.0000330171  -0.0000079518
       -0.0061655667   0.0099998673   0.0006325418  -0.0016158491  -0.0271932792
       -0.0008249276  -0.0663124964   0.0297922305   0.0091467989  -0.0020806339
       -0.0025669632   0.0004336381  -0.2198418921   0.1159588183   0.0325522565
       -0.0035195929  -0.0269671002  -0.0008267472   0.0000236671  -0.0000909726
        0.0000345864  -0.0000047392  -0.0000501651  -0.0000043832   0.0000501688
       -0.0000204490  -0.0000041283  -0.0000068326   0.0000013257   0.0000001184
       -0.0000210007  -0.0000048023  -0.0000011601  -0.0000119180  -0.0000119453
       -0.0000067326  -0.0000127689  -0.0000083520  -0.0000030944  -0.0000017003
       -0.0000143062  -0.0000074824   0.0000072459  -0.0000092259  -0.0000058305
       -0.0000127651   0.0000151127  -0.0000002862  -0.0000313343  -0.0000090041
        0.0000087303   0.0000007097  -0.0001285265   0.0000480530   0.0000149551
        0.0000495217   0.0000035602  -0.0000001591   0.0000130970  -0.0000017658
        0.0000048878  -0.0000027456  -0.0000024990   0.0000002362   0.0000021541
        0.0000018064   0.0000000362   0.0000031591   0.0000017277  -0.0000013523
        0.0000015148   0.0000015699   0.0000001715   0.0000013814   0.0000007034
       -0.0000018147   0.0000000497  -0.0000011265  -0.0000011826   0.0000033485
       -0.0000037695   0.0000026789  -0.0000052761   0.0000014327   0.0000101260
        0.0000001796   0.0000008115   0.0001022099   0.0000272200   0.0000058203
       -0.0033419983   0.0027705193   0.0011288395
       -0.0419220682  -0.1351336787  -0.0001908989  -0.0192823557   0.6839910715
        0.0372065063  -0.0530064573  -0.3694940814  -0.0123870191   0.0615705142
       -0.0576799185  -0.0114325636  -0.0047716140   0.0190898546   0.0003927714
       -0.0017513899  -0.0011489075   0.0006554643   0.0000476062   0.0008517673
       -0.0000370902  -0.0004077732  -0.0000421196  -0.0001587284   0.0006311205
        0.0004528762   0.0000107557  -0.0005087354  -0.0003589833  -0.0000301123
        0.0002459605  -0.0001126022   0.0000687572  -0.0000513485   0.0000463071
        0.0000130688   0.0000820290  -0.0000037056  -0.0000129221  -0.0000101833
       -0.0000585030  -0.0000109998  -0.0000238752   0.0000492400  -0.0000054952
        0.0000254701  -0.0001101774  -0.0000236316  -0.0001029424   0.0000473275
        0.0000054357   0.0000444476  -0.0000328575  -0.0000075676  -0.0000540884
        0.0000084504  -0.0000067028   0.0000265992   0.0000765012   0.0000069625
       -0.0000030007  -0.0000790320  -0.0000255958  -0.0000056408   0.0003030125
       -0.0000452382  -0.0000680868  -0.0003715451  -0.0000044959   0.0008616886
       -0.0000874886   0.0001431350   0.0173085344  -0.0003137645  -0.0006863232
       -0.0089302218  -0.0123254885  -0.0007701395   0.0010186837  -0.0003516153
        0.0001793151  -0.0000067254   0.0001786818  -0.0000235831   0.0000768028
        0.0000308251  -0.0000473750  -0.0000620213   0.0002369604   0.0000270227
        0.0000962867  -0.0000176256  -0.0000122896  -0.0000371994  -0.0000181958
        0.0000015276   0.0000186429  -0.0000030022   0.0000050051  -0.0000119503
        0.0000043833   0.0000130315   0.0000044690  -0.0000074011   0.0000099208
        0.0000090193   0.0000181120  -0.0000143022  -0.0000114250  -0.0000156656
        0.0000163706  -0.0000024096   0.0000261691  -0.0000213734  -0.0000059978
       -0.0000215396   0.0000160280   0.0000156689   0.0000001953  -0.0000169245
       -0.0000072300   0.0000085869  -0.0000127695  -0.0000010529  -0.0000051278
        0.0000048262   0.0000045039   0.0000129426   0.0000071643   0.0002254859
       -0.0002971716   0.0000302137  -0.0006001017  -0.0000581176   0.0000013158
       -0.0074040395   0.0112252107   0.0009441882  -0.0116086679  -0.0379215885
        0.0007995658  -0.0222732717   0.0533123751   0.0057445760  -0.0257248641
       -0.0167194696   0.0019118920   0.1164047131  -0.1197000310  -0.0198910526
       -0.0034043646  -0.0165231053  -0.0007993331   0.0000202002  -0.0000426106
       -0.0000431421  -0.0000037737  -0.0000569037  -0.0000260609   0.0000018176
        0.0000030147   0.0000036385  -0.0000030010   0.0000103789   0.0000052045
       -0.0000204575  -0.0000017677   0.0000001576  -0.0000161735  -0.0000139888
       -0.0000101924  -0.0000163922  -0.0000109216  -0.0000083550  -0.0000045972
       -0.0000185835  -0.0000161278   0.0000106446  -0.0000162010  -0.0000146860
        0.0000012051   0.0000089457  -0.0000033300  -0.0000305221   0.0000112659
        0.0000179481  -0.0002221970  -0.0002373803  -0.0001142183   0.0000457454
        0.0001260409   0.0000275085   0.0000084562   0.0000162505   0.0000039252
       -0.0000026162   0.0000008563   0.0000003083   0.0000062361   0.0000084784
       -0.0000034164   0.0000043429   0.0000042873  -0.0000015798   0.0000032397
        0.0000011275  -0.0000015640   0.0000041556  -0.0000053485  -0.0000054036
        0.0000024722  -0.0000076940  -0.0000051820  -0.0000013860  -0.0000088829
       -0.0000046385  -0.0000028235  -0.0000055223  -0.0000040854   0.0000141156
       -0.0000019169  -0.0000042986   0.0001268128   0.0000171486  -0.0000104580
        0.0034173521  -0.0007384132  -0.0013222450
        0.0225337833   0.0091833432  -0.0528901592  -0.0666197124   0.0372065063
        0.1264510137   0.0031002213  -0.0211423998  -0.0470323526   0.0014531993
       -0.0059627406   0.0020137131   0.0013484214  -0.0004786716   0.0063310715
       -0.0000885179   0.0004095355  -0.0006377388   0.0001176265  -0.0000320507
       -0.0000207164   0.0000082558   0.0000651363   0.0000219538  -0.0000513954
        0.0000051554  -0.0000325436   0.0000391760   0.0000096372   0.0000020964
       -0.0000220633   0.0000165280  -0.0000160682   0.0000055395  -0.0000080468
        0.0000007887  -0.0000075943  -0.0000004503  -0.0000004178   0.0000041677
        0.0000044084  -0.0000053038  -0.0000006019  -0.0000047441   0.0000005857
        0.0000051036   0.0000016459   0.0000161415   0.0000066393  -0.0000001923
       -0.0000048493  -0.0000041835   0.0000003551   0.0000013047   0.0000056496
       -0.0000018959   0.0000108779  -0.0000015534  -0.0000065265   0.0000073749
        0.0000028470   0.0000144839   0.0000070952   0.0000002171  -0.0000238252
       -0.0000058051  -0.0001151227  -0.0000260123   0.0000248467  -0.0000701027
       -0.0000901679   0.0000318823   0.0005485297  -0.0002412188  -0.0018083741
       -0.0000342154  -0.0000210466   0.0011532279   0.0000738198  -0.0000390971
        0.0000647238  -0.0000086375   0.0000270458   0.0000229409   0.0000063084
       -0.0000048475   0.0000000974   0.0000050252  -0.0000039029   0.0000031118
       -0.0000044787   0.0000054486   0.0000087873   0.0000098331  -0.0000046347
       -0.0000081507   0.0000017022  -0.0000016479   0.0000059299   0.0000003820
       -0.0000072101   0.0000014557   0.0000001908   0.0000014133   0.0000107128
        0.0000023407  -0.0000019591  -0.0000017951  -0.0000034034   0.0000053766
        0.0000059255  -0.0000018431   0.0000001643   0.0000071379  -0.0000008478
       -0.0000012196   0.0000084238  -0.0000015888   0.0000077895   0.0000117487
       -0.0000001422   0.0000039774   0.0000063287   0.0000029177   0.0000102015
        0.0000062541  -0.0000025911  -0.0000049123   0.0000061366   0.0000123201
       -0.0000031406  -0.0000115831  -0.0000375221  -0.0000061229   0.0000011753
       -0.0001226742  -0.0004303690  -0.0007518916  -0.0008546017   0.0010809158
       -0.0062962711   0.0060820099   0.0001110548   0.0001405013  -0.0010822295
       -0.0007888704   0.0019099310   0.0319717083  -0.0205683614  -0.0396565268
        0.0003999801   0.0025820021   0.0015618708   0.0000071846  -0.0000130885
       -0.0000072490   0.0000028507   0.0000111375   0.0000075986  -0.0000072992
        0.0000035828  -0.0000145931   0.0000007540   0.0000009657  -0.0000093164
        0.0000016333   0.0000007752  -0.0000043460   0.0000004411  -0.0000002687
       -0.0000005285   0.0000014772  -0.0000013801   0.0000042680   0.0000010334
       -0.0000017116   0.0000066701   0.0000007045  -0.0000006604   0.0000061037
        0.0000028138  -0.0000015203   0.0000027886   0.0000066442   0.0000031428
        0.0000078500   0.0000038377   0.0000384852  -0.0000295773   0.0000010338
        0.0000048154  -0.0000056951   0.0000023104   0.0000014087   0.0000053955
        0.0000012325  -0.0000037974   0.0000020243   0.0000024966  -0.0000060603
        0.0000012050   0.0000015719  -0.0000049388   0.0000053728   0.0000011217
       -0.0000019303   0.0000063066  -0.0000013370   0.0000021429   0.0000120696
       -0.0000008025   0.0000023045   0.0000105471  -0.0000013240   0.0000051346
        0.0000113398  -0.0000015146  -0.0000009856   0.0000037900  -0.0000015736
       -0.0000026226  -0.0000032770  -0.0000008918   0.0000032748  -0.0000001718
        0.0013633085  -0.0008840452   0.0093048045
        0.0162285565  -0.0284074803  -0.0032002723  -0.0936744450  -0.0530064573
        0.0031002213   0.6188114180   0.0358830234  -0.0688490834  -0.2324704474
        0.0996124889   0.0308234023  -0.0069658394   0.0292116913   0.0016842941
       -0.0020915739  -0.0026061708   0.0005185758  -0.0000731986   0.0008506219
       -0.0003607007  -0.0007169137   0.0000263944  -0.0001245745   0.0008675362
        0.0004804155   0.0000594763  -0.0007518012  -0.0005418108  -0.0000894767
        0.0003821389  -0.0001853024   0.0000883903  -0.0000991126  -0.0000052385
        0.0000132034   0.0001195871   0.0000384199  -0.0000076484  -0.0000064096
       -0.0000234156  -0.0000025584  -0.0000041396   0.0000567415  -0.0000037123
        0.0000025010  -0.0001439157  -0.0000239183  -0.0001397842   0.0000696357
        0.0000192662   0.0000518031  -0.0000151756   0.0000084250  -0.0000730422
        0.0000103190   0.0000054444   0.0000456282   0.0000993063   0.0000253164
       -0.0000350051  -0.0000869096  -0.0000211861  -0.0000115305   0.0004129184
       -0.0000677556  -0.0002033579  -0.0003816040   0.0000911584   0.0007677528
       -0.0012539146   0.0003641035   0.0155192300  -0.0027379517  -0.0002547437
       -0.0077376578  -0.0066261209  -0.0006822284   0.0016052906  -0.0008914970
       -0.0000911090   0.0000952789   0.0006029775  -0.0000146043   0.0003412895
        0.0000854199  -0.0000939491  -0.0005135869   0.0004623633   0.0000282917
        0.0004916611  -0.0002977371  -0.0000068670  -0.0002130023  -0.0001076527
        0.0000704670   0.0000582493   0.0000149341  -0.0000407445  -0.0000402283
        0.0000090059   0.0000274917   0.0000125218  -0.0000330920   0.0000249236
        0.0000071026   0.0000474195  -0.0000313177   0.0000077930  -0.0000723676
        0.0000651409   0.0000712181   0.0000340841  -0.0000707801  -0.0000353192
       -0.0000214840   0.0000286337   0.0000419845   0.0000110003  -0.0000317530
       -0.0000204370   0.0000347817  -0.0000302634   0.0000207243  -0.0000480194
        0.0000435657  -0.0000068129   0.0002391421  -0.0000759946   0.0002131624
       -0.0004655027   0.0000838584  -0.0008431753  -0.0002787801  -0.0000040767
       -0.0085463118   0.0025304114   0.0017804097  -0.0452026441  -0.0123202824
        0.0050997064  -0.0080218471   0.0202862350   0.0017293232  -0.0042928665
       -0.0032088035   0.0010824710  -0.0003312941   0.0253361157   0.0016452718
       -0.2433820261  -0.1036942719   0.0263324559   0.0001260589   0.0000008265
       -0.0000739532  -0.0000558041  -0.0000712337   0.0000524555  -0.0000568545
       -0.0000225104  -0.0000054804  -0.0000320287   0.0000102580   0.0000042924
       -0.0000185852   0.0000003602   0.0000035385  -0.0000137893  -0.0000154485
       -0.0000053849  -0.0000130765  -0.0000141844   0.0000017178   0.0000033508
       -0.0000113104  -0.0000053070   0.0000141334  -0.0000120394  -0.0000050973
        0.0000326799  -0.0000002440  -0.0000047804  -0.0000780975  -0.0000238577
       -0.0000699193   0.0001312123   0.0004035447  -0.0001144461  -0.0000202244
        0.0000968373   0.0000370307   0.0000169444  -0.0000234933  -0.0000064258
       -0.0000084110  -0.0000073894   0.0000011339   0.0000018343   0.0000065836
       -0.0000092458   0.0000059306   0.0000021860  -0.0000080612   0.0000084607
       -0.0000024023   0.0000006822   0.0000084478  -0.0000035385  -0.0000035691
        0.0000028792  -0.0000026866   0.0000045094  -0.0000044329  -0.0000005831
        0.0000054330  -0.0000058870   0.0000123428  -0.0000055254   0.0000444468
        0.0000012120  -0.0000010004   0.0001397841   0.0000460727  -0.0000297640
        0.0005124102   0.0006457892  -0.0004268030
       -0.0820956536  -0.0310033432   0.0080716098   0.0203940910  -0.3694940814
       -0.0211423998   0.0358830234   0.6819548097   0.0295264998   0.0659190992
       -0.1178749162  -0.0137650791   0.0324457561  -0.0446110413  -0.0052189528
        0.0031811428   0.0016322471  -0.0004841686   0.0002329837  -0.0007614373
       -0.0000247920   0.0003729204   0.0000687206   0.0000539678  -0.0006154245
       -0.0005685825   0.0000710024   0.0004813101   0.0003542289   0.0000399863
       -0.0001895490   0.0000910603  -0.0000666185   0.0000608558  -0.0000317515
       -0.0000139623  -0.0000574162   0.0000116572   0.0000112995   0.0000142871
        0.0000710447   0.0000130914   0.0000300823  -0.0000492677   0.0000034630
       -0.0000400467   0.0001087446   0.0000193623   0.0001012222  -0.0000447948
       -0.0000040679  -0.0000433170   0.0000360239   0.0000095118   0.0000487180
       -0.0000035523   0.0000082507  -0.0000238651  -0.0000599552  -0.0000045098
        0.0000283382   0.0000807823   0.0000272040  -0.0000018264  -0.0002701886
        0.0000439918   0.0005046642   0.0006573795  -0.0002294221  -0.0012499203
       -0.0011949701  -0.0006279891  -0.0171350369  -0.0082155921  -0.0002929007
        0.0102876085   0.0110466312   0.0006138287  -0.0017382901   0.0008019471
        0.0000371409   0.0000971628  -0.0004891000   0.0000061648  -0.0001436932
        0.0000551437   0.0000455054   0.0000321082  -0.0001821275  -0.0000208637
        0.0000468173  -0.0000429861   0.0000047141  -0.0000500229  -0.0000173696
        0.0000541749  -0.0000068872   0.0000141968  -0.0000227291  -0.0000063740
       -0.0000022555  -0.0000022689   0.0000044140  -0.0000002086  -0.0000086591
       -0.0000116224  -0.0000168752   0.0000190369   0.0000339183  -0.0000077614
       -0.0000049841   0.0000239722  -0.0000288793   0.0000105470   0.0000056053
        0.0000176131  -0.0000124123  -0.0000065792  -0.0000052319   0.0000169712
       -0.0000064384   0.0000075988   0.0000054677  -0.0000139910  -0.0000081553
        0.0000205807  -0.0000138542   0.0000647448  -0.0000492686  -0.0002538316
        0.0003304362  -0.0000371823   0.0007757405   0.0000846164  -0.0000092001
       -0.0003281297  -0.0092353597  -0.0008033651   0.0133471850   0.0457250358
       -0.0009502409   0.0259811716  -0.0415380914  -0.0050614248  -0.0029062360
       -0.0004244491  -0.0001115869   0.0015091709  -0.0199065723  -0.0023850764
       -0.1051136086  -0.0967849150   0.0127141305  -0.0000542797   0.0001266908
       -0.0000592723   0.0000103937   0.0000967181   0.0000057999  -0.0000493320
       -0.0000327160  -0.0000043442  -0.0000105227  -0.0000092392  -0.0000065667
        0.0000130052   0.0000012826  -0.0000010961   0.0000114049   0.0000142307
        0.0000106587   0.0000115367   0.0000057877   0.0000080716   0.0000007784
        0.0000128756   0.0000176594  -0.0000117127   0.0000142320   0.0000164281
       -0.0000085221  -0.0000150746   0.0000032625   0.0000384091  -0.0000300075
       -0.0000264665  -0.0001169885  -0.0003088667  -0.0006375883  -0.0000675206
        0.0000326387  -0.0000125683   0.0000028726  -0.0000268193  -0.0000069158
        0.0000004055  -0.0000077665   0.0000051748  -0.0000024290  -0.0000073019
       -0.0000015828   0.0000019209  -0.0000060241  -0.0000008084   0.0000022136
       -0.0000047839   0.0000028958   0.0000027033   0.0000014348   0.0000068487
        0.0000019034   0.0000031999   0.0000094280   0.0000013376   0.0000069312
        0.0000082070   0.0000052934   0.0000102078  -0.0000037809   0.0000151866
        0.0000061323   0.0000076217  -0.0000556125  -0.0000160816   0.0000165436
        0.0004658004  -0.0002085316   0.0005490124
       -0.0068015892   0.0019173629   0.0019664098   0.0077013216  -0.0123870191
       -0.0470323526  -0.0688490834   0.0295264998   0.1264737180   0.0308558588
       -0.0202552783  -0.0540827469   0.0030742599  -0.0041563068  -0.0022891692
       -0.0000183418   0.0002452798  -0.0012322692   0.0001626280   0.0001208800