      -----------------------------------------------------------      
     |                   =====================                   |     
     |                           x T B                           |     
     |                   =====================                   |     
     |                         S. Grimme                         |     
     |          Mulliken Center for Theoretical Chemistry        |     
     |                    University of Bonn                     |     
      -----------------------------------------------------------      

   * xtb version 6.7.1 (edcfbbe) compiled by 'albert@albert-system' on 2024-07-22

   xtb is free software: you can redistribute it and/or modify it under
   the terms of the GNU Lesser General Public License as published by
   the Free Software Foundation, either version 3 of the License, or
   (at your option) any later version.
   
   xtb is distributed in the hope that it will be useful,
   but WITHOUT ANY WARRANTY; without even the implied warranty of
   MERCHANTABILITY or FITNESS FOR A PARTICULAR PURPOSE.  See the
   GNU Lesser General Public License for more details.
   
   Cite this work as:
   * C. Bannwarth, E. Caldeweyher, S. Ehlert, A. Hansen, P. Pracht,
     J. Seibert, S. Spicher, S. Grimme, WIREs Comput. Mol. Sci., 2020, 11,
     e01493. DOI: 10.1002/wcms.1493
   
   for GFN2-xTB:
   * C. Bannwarth, S. Ehlert and S. Grimme., J. Chem. Theory Comput., 2019,
     15, 1652-1671. DOI: 10.1021/acs.jctc.8b01176
   for GFN1-xTB:
   * S. Grimme, C. Bannwarth, P. Shushkov, J. Chem. Theory Comput., 2017,
     13, 1989-2009. DOI: 10.1021/acs.jctc.7b00118
   for GFN0-xTB:
   * P. Pracht, E. Caldeweyher, S. Ehlert, S. Grimme, ChemRxiv, 2019, preprint.
     DOI: 10.26434/chemrxiv.8326202.v1
   for GFN-FF:
   * S. Spicher and S. Grimme, Angew. Chem. Int. Ed., 2020, 59, 15665-15673.
     DOI: 10.1002/anie.202004239
   
   for ALPB and GBSA implicit solvation:
   * S. Ehlert, M. Stahn, S. Spicher, S. Grimme, J. Chem. Theory Comput.,
     2021, 17, 4250-4261. DOI: 10.1021/acs.jctc.1c00471
   
   for ddCOSMO and CPCM-X implicit solvation:
   * M. Stahn, S. Ehlert, S. Grimme, J. Phys. Chem. A,
     2023, XX, XXXX-XXXX. DOI: 10.1021/acs.jpca.3c04382
   
   for DFT-D4:
   * E. Caldeweyher, C. Bannwarth and S. Grimme, J. Chem. Phys., 2017,
     147, 034112. DOI: 10.1063/1.4993215
   * E. Caldeweyher, S. Ehlert, A. Hansen, H. Neugebauer, S. Spicher,
     C. Bannwarth and S. Grimme, J. Chem. Phys., 2019, 150, 154122.
     DOI: 10.1063/1.5090222
   * E. Caldeweyher, J.-M. Mewes, S. Ehlert and S. Grimme, Phys. Chem. Chem. Phys.
     2020, 22, 8499-8512. DOI: 10.1039/D0CP00502A
   
   for sTDA-xTB:
   * S. Grimme and C. Bannwarth, J. Chem. Phys., 2016, 145, 054103.
     DOI: 10.1063/1.4959605
   
   in the mass-spec context:
   * V. Asgeirsson, C. Bauer and S. Grimme, Chem. Sci., 2017, 8, 4879.
     DOI: 10.1039/c7sc00601b
   * J. Koopman and S. Grimme, ACS Omega 2019, 4, 12, 15120-15133.
     DOI: 10.1021/acsomega.9b02011
   
   for metadynamics refer to:
   * S. Grimme, J. Chem. Theory Comput., 2019, 155, 2847-2862
     DOI: 10.1021/acs.jctc.9b00143
   
   for SPH calculations refer to:
   * S. Spicher and S. Grimme, J. Chem. Theory Comput., 2021, 17, 1701-1714
     DOI: 10.1021/acs.jctc.0c01306
   
   for ONIOM refer to:
   * C. Plett, A. Katbashev, S. Ehlert, S. Grimme, M. Bursch,
     Phys. Chem. Chem. Phys., 2023, 25, 17860-17868. DOI: 10.1039/D3CP02178E
   
   for DIPRO refer to:
   * J. Kohn, N. Gildemeister, S. Grimme, D. Fazzi, A. Hansen,
     J. Chem. Phys., 2023, just accepted.
   
   for PTB refer to:
   * S. Grimme, M. Mueller, A. Hansen, J. Chem. Phys., 2023, 158, 124111.
     DOI: 10.1063/5.0137838
   
   with help from (in alphabetical order)
   P. Atkinson, C. Bannwarth, F. Bohle, G. Brandenburg, E. Caldeweyher
   M. Checinski, S. Dohm, S. Ehlert, S. Ehrlich, I. Gerasimov, C. Hölzer
   A. Katbashev, J. Kohn, J. Koopman, C. Lavigne, S. Lehtola, F. März, M. Müller,
   F. Musil, H. Neugebauer, J. Pisarek, C. Plett, P. Pracht, F. Pultar,
   J. Seibert, P. Shushkov, S. Spicher, M. Stahn, M. Steiner, T. Strunk,
   J. Stückrath, T. Rose, and J. Unsleber
   
 * started run on 2025/09/07 at 01:23:15.919     
   ID    Z sym.   atoms
    1    8 O      1
    2    6 C      2-6, 8-25, 27-34
    3    7 N      7
    4   16 S      26
    5    1 H      35-53

           -------------------------------------------------
          |                Calculation Setup                |
           -------------------------------------------------

          program call               : xtb data2507/toluene/CTM/CTM_toluene_S0_finalOpt.xtbopt.xyz --gfn 2 --uhf 2 --gbsa toluene --ohess vtight --parallel 40 --molden --ceasefiles --namespace data2507/toluene/CTM/CTM_toluene_T1_preOpt
          calculation namespace      : data2507/toluene/CTM/CTM_toluene_T1_preOpt
          coordinate file            : data2507/toluene/CTM/CTM_toluene_S0_finalOpt.xtbopt.xyz
          omp threads                :                    40


           -------------------------------------------------
          |                 G F N 2 - x T B                 |
           -------------------------------------------------

        Reference                      10.1021/acs.jctc.8b01176
      * Hamiltonian:
        H0-scaling (s, p, d)           1.850000    2.230000    2.230000
        zeta-weighting                 0.500000
      * Dispersion:
        s8                             2.700000
        a1                             0.520000
        a2                             5.000000
        s9                             5.000000
      * Repulsion:
        kExp                           1.500000    1.000000
        rExp                           1.000000
      * Coulomb:
        alpha                          2.000000
        third order                    shell-resolved
        anisotropic                    true
        a3                             3.000000
        a5                             4.000000
        cn-shift                       1.200000
        cn-exp                         4.000000
        max-rad                        5.000000

      * Solvation model:               GBSA
        Solvent                        toluene
        Parameter file                 internal GFN2-xTB/GBSA
        Dielectric constant                7.0000E+00
        Reference state                gsolv [1 M gas/solution]
        Free energy shift                  4.5239E-03 Eh       2.8388E+00 kcal/mol
        Temperature                        2.9815E+02 K
        Density                            8.6700E-01 kg/L
        Solvent mass                       9.2140E+01 g/mol
        Interaction kernel             Still
        Born radius scaling (c1)           1.5686E+00
        Born radii integrator          GBOBC
        Born offset                        0.0000E+00 a0       0.0000E+00 AA
        H-bond correction              false
        Ion screening                  false
        Surface tension                    1.0000E-05 Eh       1.5569E+01 dyn/cm
        Grid points                               230 per atom

          ...................................................
          :                      SETUP                      :
          :.................................................:
          :  # basis functions                 161          :
          :  # atomic orbitals                 160          :
          :  # shells                           88          :
          :  # electrons                       160          :
          :  max. iterations                   250          :
          :  Hamiltonian                  GFN2-xTB          :
          :  restarted?                      false          :
          :  GBSA solvation                   true          :
          :  PC potential                    false          :
          :  electronic temp.          300.0000000     K    :
          :  accuracy                    1.0000000          :
          :  -> integral cutoff          0.2500000E+02      :
          :  -> integral neglect         0.1000000E-07      :
          :  -> SCF convergence          0.1000000E-05 Eh   :
          :  -> wf. convergence          0.1000000E-03 e    :
          :  Broyden damping             0.4000000          :
          :  net charge                          0          :
          :  unpaired electrons                  2          :
          ...................................................

 iter      E             dE          RMSdq      gap      omega  full diag
   1    -87.6963736 -0.876964E+02  0.475E+00    0.86       0.0  T
   2    -87.6170128  0.793608E-01  0.283E+00    0.18       1.0  T
   3    -87.5951499  0.218629E-01  0.235E+00    1.56       1.0  T
   4    -87.7842159 -0.189066E+00  0.116E+00    0.72       1.0  T
   5    -87.7937945 -0.957854E-02  0.129E+00    0.68       1.0  T
   6    -87.7905965  0.319791E-02  0.135E+00    0.69       1.0  T
   7    -87.7887253  0.187121E-02  0.841E-01    0.35       1.0  T
   8    -87.8222210 -0.334956E-01  0.606E-01    0.40       1.0  T
   9    -87.8312193 -0.899834E-02  0.244E-01    0.40       1.0  T
  10    -87.8317477 -0.528396E-03  0.156E-01    0.45       1.0  T
  11    -87.8329372 -0.118949E-02  0.954E-02    0.42       1.0  T
  12    -87.8333688 -0.431605E-03  0.294E-02    0.43       1.0  T
  13    -87.8333128  0.559910E-04  0.411E-02    0.42       1.0  T
  14    -87.8333730 -0.602209E-04  0.162E-02    0.43       1.0  T
  15    -87.8333882 -0.152128E-04  0.625E-03    0.43       2.2  T
  16    -87.8333892 -0.919501E-06  0.388E-03    0.43       3.5  T
  17    -87.8333899 -0.785195E-06  0.221E-03    0.43       6.2  T
  18    -87.8333901 -0.112771E-06  0.938E-04    0.43      14.6  T
  19    -87.8333901 -0.389191E-07  0.457E-04    0.43      30.1  T

   *** convergence criteria satisfied after 19 iterations ***

         #    Occupation            Energy/Eh            Energy/eV
      -------------------------------------------------------------
         1        2.0000           -0.7330767             -19.9480
       ...           ...                  ...                  ...
        75        2.0000           -0.4129447             -11.2368
        76        2.0000           -0.3943204             -10.7300
        77        2.0000           -0.3922130             -10.6727
        78        1.8488           -0.3794314             -10.3249
        79        1.7240           -0.3787087             -10.3052
        80        1.4272           -0.3775136             -10.2727
        81        0.9997           -0.2761397              -7.5141 (HOMO)
        82        0.0002           -0.2604220              -7.0864 (LUMO)
        83        0.0001           -0.2592771              -7.0553
        84                         -0.2393596              -6.5133
        85                         -0.2381150              -6.4794
        86                         -0.2341769              -6.3723
       ...                                ...                  ...
       160                          0.7281062              19.8128
      -------------------------------------------------------------
                  HL-Gap            0.0157177 Eh            0.4277 eV
             Fermi-level           -0.3230989 Eh           -8.7920 eV
 
 transition dipole moment (au) for excitation:          80          81
     X       Y       Z   
  -1.2396   0.6684  -0.0949  total (au/Debye):    1.412   3.588
 dE (eV)             :    2.759
 oscillator strength :  0.19043E+00

 SCC (total)                   0 d,  0 h,  0 min,  0.139 sec
 SCC setup                      ...        0 min,  0.001 sec (  0.877%)
 Dispersion                     ...        0 min,  0.002 sec (  1.166%)
 classical contributions        ...        0 min,  0.000 sec (  0.032%)
 integral evaluation            ...        0 min,  0.010 sec (  6.888%)
 iterations                     ...        0 min,  0.105 sec ( 75.029%)
 molecular gradient             ...        0 min,  0.006 sec (  4.580%)
 printout                       ...        0 min,  0.016 sec ( 11.364%)

         :::::::::::::::::::::::::::::::::::::::::::::::::::::
         ::                     SUMMARY                     ::
         :::::::::::::::::::::::::::::::::::::::::::::::::::::
         :: total energy             -86.287802364441 Eh    ::
         :: total w/o Gsasa/hb       -86.253431623402 Eh    ::
         :: gradient norm              0.090839266243 Eh/a0 ::
         :: HOMO-LUMO gap              0.427700399751 eV    ::
         ::.................................................::
         :: SCC energy               -87.833701025483 Eh    ::
         :: -> isotropic ES            0.046040601340 Eh    ::
         :: -> anisotropic ES          0.002538682216 Eh    ::
         :: -> anisotropic XC          0.043250596446 Eh    ::
         :: -> dispersion             -0.072103244105 Eh    ::
         :: -> Gsolv                  -0.045209951687 Eh    ::
         ::    -> Gelec               -0.010839210649 Eh    ::
         ::    -> Gsasa               -0.038894620910 Eh    ::
         ::    -> Ghb                  0.000000000000 Eh    ::
         ::    -> Gshift               0.004523879872 Eh    ::
         :: repulsion energy           1.545898661043 Eh    ::
         :: add. restraining           0.000000000000 Eh    ::
         :: total charge               0.000000000013 e     ::
         :::::::::::::::::::::::::::::::::::::::::::::::::::::

      ----------------------------------------------------------- 
     |                   =====================                   |
     |                        A N C O P T                        |
     |                   =====================                   |
     |               Approximate Normal Coordinate               |
     |                Rational Function Optimizer                |
      ----------------------------------------------------------- 

Optimization log is written to '/dev/null'
      ----------------------------------------------------------- 
     |                   =====================                   |
     |                        A N C O P T                        |
     |                   =====================                   |
     |               Approximate Normal Coordinate               |
     |                Rational Function Optimizer                |
      ----------------------------------------------------------- 

          ...................................................
          :                      SETUP                      :
          :.................................................:
          :   optimization level         verytight          :
          :   max. optcycles                  1060          :
          :   ANC micro-cycles                  20          :
          :   degrees of freedom               153          :
          :.................................................:
          :   RF solver                   davidson          :
          :   write xtbopt.log                true          :
          :   linear?                        false          :
          :   energy convergence         0.1000000E-06 Eh   :
          :   grad. convergence          0.2000000E-03 Eh/α :
          :   maxmium RF displ.          1.0000000          :
          :   Hlow (freq-cutoff)         0.1000000E-01      :
          :   Hmax (freq-cutoff)         5.0000000          :
          :   S6 in model hess.         20.0000000          :
          ...................................................

generating ANC from exact Hessian ...
Using Lindh-Hessian (1995)
 Shifting diagonal of input Hessian by   9.855470502305836E-003
 Lowest  eigenvalues of input Hessian
    0.000000    0.000000    0.000000    0.000000    0.000000    0.000000
    0.010000    0.010014    0.010416    0.010761    0.011206    0.011719
    0.012555    0.013155    0.013492    0.013783    0.015331    0.017698
 Highest eigenvalues
    2.050363    2.090452    2.140900    2.181442    2.189862    2.224265
 

........................................................................
.............................. CYCLE    1 ..............................
........................................................................

 iter      E             dE          RMSdq      gap      omega  full diag
   1    -87.8333901 -0.878334E+02  0.223E-04    0.43       0.0  T
   2    -87.8333898  0.313937E-06  0.211E-03    0.43       6.5  T
   3    -87.8333901 -0.316594E-06  0.140E-04    0.43      98.4  T
   4    -87.8333901 -0.409486E-09  0.633E-05    0.43     216.9  T
     SCC iter.                  ...        0 min,  0.022 sec
     gradient                   ...        0 min,  0.006 sec
 * total energy  :   -86.2878024 Eh     change       -0.6095249E-08 Eh
   gradient norm :     0.0908606 Eh/α   predicted     0.0000000E+00 (-100.00%)
   displ. norm   :     0.1192560 α      lambda       -0.4913973E-02
   maximum displ.:     0.0374111 α      in ANC's #12, #43, #8, ...

........................................................................
.............................. CYCLE    2 ..............................
........................................................................

 iter      E             dE          RMSdq      gap      omega  full diag
   1    -87.8114985 -0.878115E+02  0.414E-01    0.62       0.0  T
   2    -87.7249491  0.865493E-01  0.125E+00    0.21       1.0  T
   3    -87.8170210 -0.920719E-01  0.335E-01    0.51       1.0  T
   4    -87.8218415 -0.482049E-02  0.116E-01    0.53       1.0  T
   5    -87.8217916  0.498387E-04  0.131E-01    0.54       1.0  T
   6    -87.8225530 -0.761372E-03  0.207E-02    0.54       1.0  T
   7    -87.8224326  0.120420E-03  0.449E-02    0.53       1.0  T
   8    -87.8224660 -0.334265E-04  0.422E-02    0.54       1.0  T
   9    -87.8225346 -0.685301E-04  0.250E-02    0.54       1.0  T
  10    -87.8225660 -0.314314E-04  0.458E-03    0.54       3.0  T
  11    -87.8225670 -0.102225E-05  0.147E-03    0.54       9.4  T
  12    -87.8225671 -0.109852E-06  0.280E-04    0.54      49.1  T
  13    -87.8225671  0.548981E-07  0.964E-04    0.54      14.2  T
     SCC iter.                  ...        0 min,  0.072 sec
     gradient                   ...        0 min,  0.006 sec
 * total energy  :   -86.2911266 Eh     change       -0.3324223E-02 Eh
   gradient norm :     0.0382562 Eh/α   predicted    -0.2492055E-02 ( -25.03%)
   displ. norm   :     0.1401895 α      lambda       -0.1521341E-02
   maximum displ.:     0.0583103 α      in ANC's #8, #9, #6, ...

........................................................................
.............................. CYCLE    3 ..............................
........................................................................

 iter      E             dE          RMSdq      gap      omega  full diag
   1    -87.8138548 -0.878139E+02  0.320E-01    0.66       0.0  T
   2    -87.7435789  0.702759E-01  0.115E+00    0.36       1.0  T
   3    -87.8166020 -0.730231E-01  0.244E-01    0.58       1.0  T
   4    -87.8198094 -0.320737E-02  0.671E-02    0.62       1.0  T
   5    -87.8197035  0.105816E-03  0.755E-02    0.62       1.0  T
   6    -87.8198866 -0.183057E-03  0.261E-02    0.62       1.0  T
   7    -87.8198622  0.243667E-04  0.274E-02    0.61       1.0  T
   8    -87.8199031 -0.408694E-04  0.123E-02    0.62       1.1  T
   9    -87.8199107 -0.762904E-05  0.446E-03    0.62       3.1  T
  10    -87.8199115 -0.772749E-06  0.703E-04    0.62      19.5  T
  11    -87.8199115 -0.205939E-07  0.567E-04    0.62      24.2  T
     SCC iter.                  ...        0 min,  0.058 sec
     gradient                   ...        0 min,  0.006 sec
 * total energy  :   -86.2920392 Eh     change       -0.9126407E-03 Eh
   gradient norm :     0.0071361 Eh/α   predicted    -0.7758112E-03 ( -14.99%)
   displ. norm   :     0.1120947 α      lambda       -0.2098717E-03
   maximum displ.:     0.0485921 α      in ANC's #8, #9, #6, ...

........................................................................
.............................. CYCLE    4 ..............................
........................................................................

 iter      E             dE          RMSdq      gap      omega  full diag
   1    -87.8203690 -0.878204E+02  0.103E-01    0.65       0.0  T
   2    -87.7872188  0.331501E-01  0.757E-01    0.56       1.0  T
   3    -87.8208664 -0.336476E-01  0.360E-02    0.64       1.0  T
   4    -87.8205532  0.313233E-03  0.852E-02    0.64       1.0  T
   5    -87.8208650 -0.311808E-03  0.201E-02    0.64       1.0  T
   6    -87.8208864 -0.213930E-04  0.424E-03    0.64       3.2  T
   7    -87.8208872 -0.822574E-06  0.132E-03    0.64      10.4  T
   8    -87.8208872 -0.646579E-07  0.756E-04    0.64      18.2  T
   9    -87.8208873 -0.154100E-07  0.228E-04    0.64      60.4  T
     SCC iter.                  ...        0 min,  0.048 sec
     gradient                   ...        0 min,  0.006 sec
 * total energy  :   -86.2921887 Eh     change       -0.1494640E-03 Eh
   gradient norm :     0.0041399 Eh/α   predicted    -0.1062567E-03 ( -28.91%)
   displ. norm   :     0.1608438 α      lambda       -0.1526641E-03
   maximum displ.:     0.0704034 α      in ANC's #6, #8, #9, ...

........................................................................
.............................. CYCLE    5 ..............................
........................................................................

 iter      E             dE          RMSdq      gap      omega  full diag
   1    -87.8219458 -0.878219E+02  0.697E-02    0.65       0.0  T
   2    -87.8144298  0.751599E-02  0.350E-01    0.62       1.0  T
   3    -87.8219276 -0.749783E-02  0.600E-02    0.65       1.0  T
   4    -87.8215642  0.363453E-03  0.104E-01    0.65       1.0  T
   5    -87.8220189 -0.454661E-03  0.195E-02    0.65       1.0  T
   6    -87.8220379 -0.190132E-04  0.300E-03    0.65       4.6  T
   7    -87.8220381 -0.243819E-06  0.753E-04    0.65      18.3  T
   8    -87.8220381  0.107733E-07  0.688E-04    0.65      20.0  T
     SCC iter.                  ...        0 min,  0.042 sec
     gradient                   ...        0 min,  0.006 sec
 * total energy  :   -86.2922992 Eh     change       -0.1105201E-03 Eh
   gradient norm :     0.0059378 Eh/α   predicted    -0.7841620E-04 ( -29.05%)
   displ. norm   :     0.1961595 α      lambda       -0.1250696E-03
   maximum displ.:     0.0922400 α      in ANC's #6, #8, #9, ...

........................................................................
.............................. CYCLE    6 ..............................
........................................................................

 iter      E             dE          RMSdq      gap      omega  full diag
   1    -87.8225631 -0.878226E+02  0.662E-02    0.65       0.0  T
   2    -87.8223779  0.185200E-03  0.859E-02    0.66       1.0  T
   3    -87.8221318  0.246090E-03  0.107E-01    0.65       1.0  T
   4    -87.8205079  0.162397E-02  0.177E-01    0.67       1.0  T
   5    -87.8225612 -0.205335E-02  0.134E-02    0.65       1.0  T
   6    -87.8225700 -0.879511E-05  0.357E-03    0.65       3.8  T
   7    -87.8225705 -0.485688E-06  0.148E-03    0.65       9.3  T
   8    -87.8225706 -0.501540E-07  0.639E-04    0.65      21.5  T
   9    -87.8225706 -0.234907E-07  0.241E-04    0.65      56.9  T
     SCC iter.                  ...        0 min,  0.048 sec
     gradient                   ...        0 min,  0.006 sec
 * total energy  :   -86.2923924 Eh     change       -0.9313767E-04 Eh
   gradient norm :     0.0054166 Eh/α   predicted    -0.6497421E-04 ( -30.24%)
   displ. norm   :     0.2030660 α      lambda       -0.1039977E-03
   maximum displ.:     0.0981589 α      in ANC's #6, #3, #2, ...

........................................................................
.............................. CYCLE    7 ..............................
........................................................................

 iter      E             dE          RMSdq      gap      omega  full diag
   1    -87.8224994 -0.878225E+02  0.707E-02    0.65       0.0  T
   2    -87.8198369  0.266253E-02  0.225E-01    0.68       1.0  T
   3    -87.8223666 -0.252972E-02  0.631E-02    0.65       1.0  T
   4    -87.8217809  0.585677E-03  0.121E-01    0.66       1.0  T
   5    -87.8225525 -0.771612E-03  0.147E-02    0.65       1.0  T
   6    -87.8225598 -0.730092E-05  0.308E-03    0.65       4.5  T
   7    -87.8225602 -0.334546E-06  0.929E-04    0.65      14.8  T
   8    -87.8225602 -0.162275E-07  0.316E-04    0.65      43.5  T
     SCC iter.                  ...        0 min,  0.042 sec
     gradient                   ...        0 min,  0.006 sec
 * total energy  :   -86.2924687 Eh     change       -0.7638124E-04 Eh
   gradient norm :     0.0029669 Eh/α   predicted    -0.5415668E-04 ( -29.10%)
   displ. norm   :     0.1577929 α      lambda       -0.6417699E-04
   maximum displ.:     0.0805256 α      in ANC's #2, #3, #6, ...

........................................................................
.............................. CYCLE    8 ..............................
........................................................................

 iter      E             dE          RMSdq      gap      omega  full diag
   1    -87.8224365 -0.878224E+02  0.523E-02    0.65       0.0  T
   2    -87.8200514  0.238501E-02  0.202E-01    0.67       1.0  T
   3    -87.8224271 -0.237561E-02  0.378E-02    0.65       1.0  T
   4    -87.8222343  0.192717E-03  0.752E-02    0.65       1.0  T
   5    -87.8224828 -0.248439E-03  0.979E-03    0.65       1.4  T
   6    -87.8224863 -0.354626E-05  0.120E-03    0.65      11.4  T
   7    -87.8224863 -0.236499E-07  0.771E-04    0.65      17.8  T
   8    -87.8224864 -0.127719E-07  0.271E-04    0.65      50.6  T
     SCC iter.                  ...        0 min,  0.042 sec
     gradient                   ...        0 min,  0.006 sec
 * total energy  :   -86.2925161 Eh     change       -0.4738773E-04 Eh
   gradient norm :     0.0018784 Eh/α   predicted    -0.3290183E-04 ( -30.57%)
   displ. norm   :     0.1901023 α      lambda       -0.4294336E-04
   maximum displ.:     0.1100590 α      in ANC's #2, #3, #6, ...

........................................................................
.............................. CYCLE    9 ..............................
........................................................................

 iter      E             dE          RMSdq      gap      omega  full diag
   1    -87.8223482 -0.878223E+02  0.487E-02    0.65       0.0  T
   2    -87.8210894  0.125880E-02  0.142E-01    0.67       1.0  T
   3    -87.8222383 -0.114883E-02  0.523E-02    0.65       1.0  T
   4    -87.8223138 -0.755452E-04  0.421E-02    0.65       1.0  T
   5    -87.8223678 -0.540453E-04  0.804E-03    0.65       1.7  T
   6    -87.8223707 -0.282874E-05  0.363E-03    0.65       3.8  T
   7    -87.8223711 -0.466129E-06  0.893E-04    0.65      15.4  T
   8    -87.8223712 -0.243212E-07  0.241E-04    0.65      57.1  T
     SCC iter.                  ...        0 min,  0.042 sec
     gradient                   ...        0 min,  0.006 sec
 * total energy  :   -86.2925618 Eh     change       -0.4563029E-04 Eh
   gradient norm :     0.0032148 Eh/α   predicted    -0.2181675E-04 ( -52.19%)
   displ. norm   :     0.1004588 α      lambda       -0.3461905E-04
   maximum displ.:     0.0621013 α      in ANC's #2, #3, #6, ...

........................................................................
.............................. CYCLE   10 ..............................
........................................................................

 iter      E             dE          RMSdq      gap      omega  full diag
   1    -87.8223033 -0.878223E+02  0.234E-02    0.65       0.0  T
   2    -87.8220684  0.234869E-03  0.706E-02    0.65       1.0  T
   3    -87.8222760 -0.207574E-03  0.245E-02    0.66       1.0  T
   4    -87.8221885  0.874918E-04  0.469E-02    0.65       1.0  T
   5    -87.8223071 -0.118649E-03  0.223E-03    0.65       6.2  T
   6    -87.8223074 -0.297099E-06  0.807E-04    0.65      17.0  T
   7    -87.8223075 -0.946531E-08  0.416E-04    0.65      33.0  T
     SCC iter.                  ...        0 min,  0.037 sec
     gradient                   ...        0 min,  0.006 sec
 * total energy  :   -86.2925933 Eh     change       -0.3152889E-04 Eh
   gradient norm :     0.0027298 Eh/α   predicted    -0.1748490E-04 ( -44.54%)
   displ. norm   :     0.1956552 α      lambda       -0.6989596E-04
   maximum displ.:     0.1195882 α      in ANC's #2, #3, #6, ...

........................................................................
.............................. CYCLE   11 ..............................
........................................................................

 iter      E             dE          RMSdq      gap      omega  full diag
   1    -87.8221362 -0.878221E+02  0.489E-02    0.66       0.0  T
   2    -87.8202604  0.187582E-02  0.192E-01    0.64       1.0  T
   3    -87.8220507 -0.179027E-02  0.475E-02    0.66       1.0  T
   4    -87.8218308  0.219874E-03  0.826E-02    0.65       1.0  T
   5    -87.8221596 -0.328759E-03  0.878E-03    0.66       1.6  T
   6    -87.8221645 -0.491151E-05  0.117E-03    0.66      11.8  T
   7    -87.8221645 -0.137290E-07  0.777E-04    0.66      17.7  T
   8    -87.8221645 -0.108732E-07  0.334E-04    0.66      41.1  T
     SCC iter.                  ...        0 min,  0.042 sec
     gradient                   ...        0 min,  0.006 sec
 * total energy  :   -86.2926499 Eh     change       -0.5663601E-04 Eh
   gradient norm :     0.0016885 Eh/α   predicted    -0.3628714E-04 ( -35.93%)
   displ. norm   :     0.3423886 α      lambda       -0.5897081E-04
   maximum displ.:     0.2169486 α      in ANC's #2, #3, #6, ...

........................................................................
.............................. CYCLE   12 ..............................
........................................................................

 iter      E             dE          RMSdq      gap      omega  full diag
   1    -87.8211171 -0.878211E+02  0.798E-02    0.67       0.0  T
   2    -87.8165637  0.455337E-02  0.290E-01    0.64       1.0  T
   3    -87.8209297 -0.436598E-02  0.729E-02    0.67       1.0  T
   4    -87.8201027  0.827051E-03  0.158E-01    0.65       1.0  T
   5    -87.8211631 -0.106046E-02  0.150E-02    0.66       1.0  T
   6    -87.8211775 -0.144054E-04  0.298E-03    0.66       4.6  T
   7    -87.8211777 -0.230215E-06  0.121E-03    0.66      11.4  T
   8    -87.8211778 -0.126165E-07  0.572E-04    0.66      24.0  T
   9    -87.8211778 -0.710001E-08  0.299E-04    0.66      45.9  T
     SCC iter.                  ...        0 min,  0.048 sec
     gradient                   ...        0 min,  0.006 sec
 * total energy  :   -86.2927104 Eh     change       -0.6050103E-04 Eh
   gradient norm :     0.0026866 Eh/α   predicted    -0.3102306E-04 ( -48.72%)
   displ. norm   :     0.1212127 α      lambda       -0.2862764E-04
   maximum displ.:     0.0821417 α      in ANC's #2, #3, #1, ...

........................................................................
.............................. CYCLE   13 ..............................
........................................................................

 iter      E             dE          RMSdq      gap      omega  full diag
   1    -87.8214706 -0.878215E+02  0.246E-02    0.66       0.0  T
   2    -87.8214636  0.699421E-05  0.177E-02    0.66       1.0  T
   3    -87.8210081  0.455517E-03  0.835E-02    0.67       1.0  T
   4    -87.8214379 -0.429808E-03  0.313E-02    0.66       1.0  T
   5    -87.8214703 -0.324416E-04  0.326E-03    0.66       4.2  T
   6    -87.8214709 -0.567531E-06  0.131E-03    0.66      10.5  T
   7    -87.8214709 -0.363565E-07  0.498E-04    0.66      27.6  T
   8    -87.8214709 -0.767031E-08  0.102E-04    0.66     134.3  T
     SCC iter.                  ...        0 min,  0.042 sec
     gradient                   ...        0 min,  0.006 sec
 * total energy  :   -86.2927367 Eh     change       -0.2631173E-04 Eh
   gradient norm :     0.0023159 Eh/α   predicted    -0.1453059E-04 ( -44.78%)
   displ. norm   :     0.1627243 α      lambda       -0.4761305E-04
   maximum displ.:     0.1123792 α      in ANC's #2, #3, #1, ...

........................................................................
.............................. CYCLE   14 ..............................
........................................................................

 iter      E             dE          RMSdq      gap      omega  full diag
   1    -87.8221633 -0.878222E+02  0.348E-02    0.66       0.0  T
   2    -87.8219843  0.179038E-03  0.676E-02    0.67       1.0  T
   3    -87.8220271 -0.427953E-04  0.524E-02    0.66       1.0  T
   4    -87.8217357  0.291332E-03  0.847E-02    0.67       1.0  T
   5    -87.8221660 -0.430278E-03  0.492E-03    0.66       2.8  T
   6    -87.8221676 -0.158552E-05  0.173E-03    0.66       8.0  T
   7    -87.8221677 -0.633913E-07  0.758E-04    0.66      18.1  T
   8    -87.8221677 -0.152247E-07  0.208E-04    0.66      65.9  T
     SCC iter.                  ...        0 min,  0.042 sec
     gradient                   ...        0 min,  0.006 sec
 * total energy  :   -86.2927781 Eh     change       -0.4131920E-04 Eh
   gradient norm :     0.0012355 Eh/α   predicted    -0.2444114E-04 ( -40.85%)
   displ. norm   :     0.3454290 α      lambda       -0.5602177E-04
   maximum displ.:     0.2402532 α      in ANC's #2, #3, #1, ...

........................................................................
.............................. CYCLE   15 ..............................
........................................................................

 iter      E             dE          RMSdq      gap      omega  full diag
   1    -87.8222994 -0.878223E+02  0.732E-02    0.66       0.0  T
   2    -87.8217064  0.593067E-03  0.132E-01    0.67       1.0  T
   3    -87.8217995 -0.931718E-04  0.105E-01    0.66       1.0  T
   4    -87.8201284  0.167114E-02  0.186E-01    0.68       1.0  T
   5    -87.8223052 -0.217680E-02  0.134E-02    0.66       1.0  T
   6    -87.8223159 -0.106648E-04  0.468E-03    0.66       2.9  T
   7    -87.8223169 -0.988898E-06  0.143E-03    0.66       9.6  T
   8    -87.8223169 -0.595814E-07  0.470E-04    0.66      29.2  T
   9    -87.8223169 -0.172017E-08  0.366E-04    0.66      37.6  T
     SCC iter.                  ...        0 min,  0.050 sec
     gradient                   ...        0 min,  0.006 sec
 * total energy  :   -86.2928412 Eh     change       -0.6317609E-04 Eh
   gradient norm :     0.0019746 Eh/α   predicted    -0.2949732E-04 ( -53.31%)
   displ. norm   :     0.2550224 α      lambda       -0.3303999E-04
   maximum displ.:     0.1807005 α      in ANC's #2, #3, #1, ...

........................................................................
.............................. CYCLE   16 ..............................
........................................................................

 iter      E             dE          RMSdq      gap      omega  full diag
   1    -87.8222057 -0.878222E+02  0.499E-02    0.67       0.0  T
   2    -87.8221847  0.210526E-04  0.391E-02    0.66       1.0  T
   3    -87.8219523  0.232322E-03  0.896E-02    0.67       1.0  T
   4    -87.8221714 -0.219015E-03  0.258E-02    0.66       1.0  T
   5    -87.8221962 -0.248085E-04  0.127E-02    0.67       1.1  T
   6    -87.8222074 -0.111924E-04  0.156E-03    0.66       8.8  T
   7    -87.8222073  0.286974E-08  0.170E-03    0.66       8.1  T
   8    -87.8222074 -0.947580E-07  0.274E-04    0.66      50.1  T
   9    -87.8222074 -0.197549E-08  0.153E-04    0.66      89.9  T
     SCC iter.                  ...        0 min,  0.048 sec
     gradient                   ...        0 min,  0.006 sec
 * total energy  :   -86.2928860 Eh     change       -0.4474630E-04 Eh
   gradient norm :     0.0022762 Eh/α   predicted    -0.1699785E-04 ( -62.01%)
   displ. norm   :     0.1914414 α      lambda       -0.4381607E-04
   maximum displ.:     0.1351668 α      in ANC's #2, #3, #1, ...

........................................................................
.............................. CYCLE   17 ..............................
........................................................................

 iter      E             dE          RMSdq      gap      omega  full diag
   1    -87.8222207 -0.878222E+02  0.372E-02    0.67       0.0  T
   2    -87.8222161  0.460645E-05  0.237E-02    0.67       1.0  T
   3    -87.8213646  0.851468E-03  0.120E-01    0.68       1.0  T
   4    -87.8222180 -0.853377E-03  0.936E-03    0.67       1.5  T
   5    -87.8222183 -0.284585E-06  0.693E-03    0.67       2.0  T
   6    -87.8222209 -0.263865E-05  0.224E-03    0.67       6.1  T
   7    -87.8222211 -0.129201E-06  0.639E-04    0.67      21.5  T
   8    -87.8222211 -0.236174E-07  0.122E-04    0.67     112.3  T
     SCC iter.                  ...        0 min,  0.043 sec
     gradient                   ...        0 min,  0.006 sec
 * total energy  :   -86.2929269 Eh     change       -0.4096073E-04 Eh
   gradient norm :     0.0019017 Eh/α   predicted    -0.2271123E-04 ( -44.55%)
   displ. norm   :     0.4812695 α      lambda       -0.7317094E-04
   maximum displ.:     0.3380337 α      in ANC's #2, #3, #1, ...

........................................................................
.............................. CYCLE   18 ..............................
........................................................................

 iter      E             dE          RMSdq      gap      omega  full diag
   1    -87.8214654 -0.878215E+02  0.940E-02    0.67       0.0  T
   2    -87.8214204  0.450321E-04  0.653E-02    0.67       1.0  T
   3    -87.8188081  0.261229E-02  0.251E-01    0.70       1.0  T
   4    -87.8211307 -0.232257E-02  0.723E-02    0.67       1.0  T
   5    -87.8214404 -0.309690E-03  0.207E-02    0.68       1.0  T
   6    -87.8214676 -0.272768E-04  0.492E-03    0.67       2.8  T
   7    -87.8214683 -0.686973E-06  0.204E-03    0.67       6.7  T
   8    -87.8214686 -0.242850E-06  0.439E-04    0.67      31.3  T
   9    -87.8214686  0.437183E-09  0.373E-04    0.67      36.9  T
     SCC iter.                  ...        0 min,  0.048 sec
     gradient                   ...        0 min,  0.006 sec
 * total energy  :   -86.2930142 Eh     change       -0.8724174E-04 Eh
   gradient norm :     0.0011284 Eh/α   predicted    -0.4035496E-04 ( -53.74%)
   displ. norm   :     0.4201646 α      lambda       -0.4316042E-04
   maximum displ.:     0.2996882 α      in ANC's #2, #3, #1, ...

........................................................................
.............................. CYCLE   19 ..............................
........................................................................

 iter      E             dE          RMSdq      gap      omega  full diag
   1    -87.8213594 -0.878214E+02  0.806E-02    0.68       0.0  T
   2    -87.8213085  0.509034E-04  0.582E-02    0.68       1.0  T
   3    -87.8193717  0.193681E-02  0.192E-01    0.66       1.0  T
   4    -87.8203175 -0.945769E-03  0.141E-01    0.69       1.0  T
   5    -87.8213588 -0.104130E-02  0.812E-03    0.68       1.7  T
   6    -87.8213624 -0.361671E-05  0.339E-03    0.68       4.1  T
   7    -87.8213628 -0.422315E-06  0.107E-03    0.68      12.9  T
   8    -87.8213629 -0.486602E-07  0.252E-04    0.68      54.6  T
   9    -87.8213629 -0.165832E-08  0.120E-04    0.68     114.3  T
     SCC iter.                  ...        0 min,  0.048 sec
     gradient                   ...        0 min,  0.006 sec
 * total energy  :   -86.2930600 Eh     change       -0.4581445E-04 Eh
   gradient norm :     0.0012175 Eh/α   predicted    -0.2327487E-04 ( -49.20%)
   displ. norm   :     0.2093358 α      lambda       -0.1604980E-04
   maximum displ.:     0.1543562 α      in ANC's #2, #3, #1, ...

........................................................................
.............................. CYCLE   20 ..............................
........................................................................

 iter      E             dE          RMSdq      gap      omega  full diag
   1    -87.8223926 -0.878224E+02  0.397E-02    0.68       0.0  T
   2    -87.8223081  0.844677E-04  0.446E-02    0.68       1.0  T
   3    -87.8218482  0.459963E-03  0.925E-02    0.67       1.0  T
   4    -87.8220881 -0.239962E-03  0.949E-02    0.68       1.0  T
   5    -87.8223929 -0.304773E-03  0.573E-03    0.68       2.4  T
   6    -87.8223951 -0.218923E-05  0.124E-03    0.68      11.0  T
   7    -87.8223951 -0.357450E-07  0.618E-04    0.68      22.2  T
   8    -87.8223951 -0.112794E-07  0.146E-04    0.68      93.8  T
     SCC iter.                  ...        0 min,  0.043 sec
     gradient                   ...        0 min,  0.006 sec
 * total energy  :   -86.2930765 Eh     change       -0.1650265E-04 Eh
   gradient norm :     0.0012130 Eh/α   predicted    -0.8182449E-05 ( -50.42%)
   displ. norm   :     0.1326072 α      lambda       -0.9654039E-05
   maximum displ.:     0.1007171 α      in ANC's #2, #3, #1, ...
 * RMSD in coord.:     0.4861132 α      energy gain  -0.5274130E-02 Eh

generating ANC from exact Hessian ...
Using Lindh-Hessian (1995)
 Shifting diagonal of input Hessian by   9.850332278408791E-003
 Lowest  eigenvalues of input Hessian
    0.000000    0.000000    0.000000    0.000000    0.000000    0.000000
    0.010000    0.010017    0.010405    0.010836    0.011191    0.011673
    0.012579    0.013149    0.013484    0.013764    0.015482    0.017578
 Highest eigenvalues
    2.046544    2.058407    2.118385    2.135384    2.186449    2.221659
 

........................................................................
.............................. CYCLE   21 ..............................
........................................................................

 iter      E             dE          RMSdq      gap      omega  full diag
   1    -87.8227939 -0.878228E+02  0.250E-02    0.68       0.0  T
   2    -87.8227575  0.363637E-04  0.276E-02    0.68       1.0  T
   3    -87.8224986  0.258934E-03  0.681E-02    0.67       1.0  T
   4    -87.8227193 -0.220706E-03  0.511E-02    0.68       1.0  T
   5    -87.8227943 -0.749311E-04  0.385E-03    0.68       3.6  T
   6    -87.8227947 -0.456972E-06  0.106E-03    0.68      13.0  T
   7    -87.8227947 -0.260363E-07  0.258E-04    0.68      53.2  T
   8    -87.8227947 -0.258729E-08  0.132E-04    0.68     104.3  T
     SCC iter.                  ...        0 min,  0.043 sec
     gradient                   ...        0 min,  0.006 sec
 * total energy  :   -86.2930873 Eh     change       -0.1077226E-04 Eh
   gradient norm :     0.0006833 Eh/α   predicted     0.0000000E+00 (-100.00%)
   displ. norm   :     0.0268212 α      lambda       -0.4586778E-05
   maximum displ.:     0.0122081 α      in ANC's #1, #2, #6, ...

........................................................................
.............................. CYCLE   22 ..............................
........................................................................

 iter      E             dE          RMSdq      gap      omega  full diag
   1    -87.8225635 -0.878226E+02  0.779E-03    0.68       0.0  T
   2    -87.8225606  0.293367E-05  0.953E-03    0.68       1.4  T
   3    -87.8225511  0.947417E-05  0.156E-02    0.68       1.0  T
   4    -87.8225469  0.424947E-05  0.169E-02    0.68       1.0  T
   5    -87.8225635 -0.166084E-04  0.177E-03    0.68       7.7  T
   6    -87.8225636 -0.123593E-06  0.491E-04    0.68      28.0  T
   7    -87.8225636 -0.511994E-08  0.122E-04    0.68     112.3  T
     SCC iter.                  ...        0 min,  0.037 sec
     gradient                   ...        0 min,  0.006 sec
 * total energy  :   -86.2930929 Eh     change       -0.5664656E-05 Eh
   gradient norm :     0.0002811 Eh/α   predicted    -0.2302371E-05 ( -59.36%)
   displ. norm   :     0.0904394 α      lambda       -0.1081951E-04
   maximum displ.:     0.0410530 α      in ANC's #1, #2, #6, ...

........................................................................
.............................. CYCLE   23 ..............................
........................................................................

 iter      E             dE          RMSdq      gap      omega  full diag
   1    -87.8223070 -0.878223E+02  0.243E-02    0.68       0.0  T
   2    -87.8223054  0.163163E-05  0.163E-02    0.68       1.0  T
   3    -87.8222354  0.699321E-04  0.500E-02    0.68       1.0  T
   4    -87.8222978 -0.623527E-04  0.120E-02    0.68       1.1  T
   5    -87.8223065 -0.874548E-05  0.316E-03    0.68       4.4  T
   6    -87.8223072 -0.631656E-06  0.767E-04    0.68      17.9  T
   7    -87.8223072 -0.146768E-07  0.184E-04    0.68      74.8  T
     SCC iter.                  ...        0 min,  0.037 sec
     gradient                   ...        0 min,  0.006 sec
 * total energy  :   -86.2931046 Eh     change       -0.1166116E-04 Eh
   gradient norm :     0.0008627 Eh/α   predicted    -0.5430387E-05 ( -53.43%)
   displ. norm   :     0.0955207 α      lambda       -0.7500226E-05
   maximum displ.:     0.0475042 α      in ANC's #1, #2, #3, ...

........................................................................
.............................. CYCLE   24 ..............................
........................................................................

 iter      E             dE          RMSdq      gap      omega  full diag
   1    -87.8223949 -0.878224E+02  0.244E-02    0.68       0.0  T
   2    -87.8223876  0.726219E-05  0.180E-02    0.68       1.0  T
   3    -87.8218958  0.491827E-03  0.883E-02    0.69       1.0  T
   4    -87.8223938 -0.498059E-03  0.704E-03    0.68       2.0  T
   5    -87.8223934  0.438463E-06  0.692E-03    0.68       2.0  T
   6    -87.8223952 -0.174195E-05  0.968E-04    0.68      14.2  T
   7    -87.8223952 -0.216357E-07  0.273E-04    0.68      50.4  T
   8    -87.8223952 -0.297386E-08  0.118E-04    0.68     116.0  T
     SCC iter.                  ...        0 min,  0.042 sec
     gradient                   ...        0 min,  0.006 sec
 * total energy  :   -86.2931129 Eh     change       -0.8322928E-05 Eh
   gradient norm :     0.0007929 Eh/α   predicted    -0.3771811E-05 ( -54.68%)
   displ. norm   :     0.0839079 α      lambda       -0.5736978E-05
   maximum displ.:     0.0460261 α      in ANC's #1, #2, #3, ...

........................................................................
.............................. CYCLE   25 ..............................
........................................................................

 iter      E             dE          RMSdq      gap      omega  full diag
   1    -87.8225679 -0.878226E+02  0.194E-02    0.68       0.0  T
   2    -87.8225664  0.148024E-05  0.130E-02    0.68       1.1  T
   3    -87.8223653  0.201152E-03  0.637E-02    0.69       1.0  T
   4    -87.8225579 -0.192690E-03  0.133E-02    0.68       1.0  T
   5    -87.8225676 -0.963137E-05  0.308E-03    0.68       4.5  T
   6    -87.8225681 -0.487338E-06  0.919E-04    0.68      15.0  T
   7    -87.8225681 -0.187714E-07  0.278E-04    0.68      49.4  T
     SCC iter.                  ...        0 min,  0.037 sec
     gradient                   ...        0 min,  0.006 sec
 * total energy  :   -86.2931199 Eh     change       -0.7020724E-05 Eh
   gradient norm :     0.0004964 Eh/α   predicted    -0.2878421E-05 ( -59.00%)
   displ. norm   :     0.0876114 α      lambda       -0.6297500E-05
   maximum displ.:     0.0517686 α      in ANC's #1, #2, #3, ...

........................................................................
.............................. CYCLE   26 ..............................
........................................................................

 iter      E             dE          RMSdq      gap      omega  full diag
   1    -87.8228160 -0.878228E+02  0.183E-02    0.68       0.0  T
   2    -87.8228136  0.241708E-05  0.142E-02    0.68       1.0  T
   3    -87.8227574  0.562022E-04  0.434E-02    0.68       1.0  T
   4    -87.8227844 -0.270408E-04  0.216E-02    0.68       1.0  T
   5    -87.8228151 -0.307093E-04  0.519E-03    0.68       2.6  T
   6    -87.8228163 -0.116287E-05  0.706E-04    0.68      19.5  T
   7    -87.8228163 -0.389566E-08  0.441E-04    0.68      31.1  T
   8    -87.8228163 -0.700386E-08  0.109E-04    0.68     125.8  T
     SCC iter.                  ...        0 min,  0.042 sec
     gradient                   ...        0 min,  0.006 sec
 * total energy  :   -86.2931279 Eh     change       -0.7939175E-05 Eh
   gradient norm :     0.0003213 Eh/α   predicted    -0.3163958E-05 ( -60.15%)
   displ. norm   :     0.1079425 α      lambda       -0.7363497E-05
   maximum displ.:     0.0660027 α      in ANC's #1, #2, #3, ...

........................................................................
.............................. CYCLE   27 ..............................
........................................................................

 iter      E             dE          RMSdq      gap      omega  full diag
   1    -87.8229080 -0.878229E+02  0.216E-02    0.68       0.0  T
   2    -87.8228881  0.198960E-04  0.219E-02    0.68       1.0  T
   3    -87.8226995  0.188590E-03  0.568E-02    0.68       1.0  T
   4    -87.8228295 -0.129948E-03  0.496E-02    0.68       1.0  T
   5    -87.8229081 -0.786012E-04  0.354E-03    0.68       3.9  T
   6    -87.8229087 -0.586357E-06  0.740E-04    0.68      18.6  T
   7    -87.8229087 -0.121944E-07  0.569E-04    0.68      24.1  T
     SCC iter.                  ...        0 min,  0.037 sec
     gradient                   ...        0 min,  0.006 sec
 * total energy  :   -86.2931372 Eh     change       -0.9297488E-05 Eh
   gradient norm :     0.0006157 Eh/α   predicted    -0.3701290E-05 ( -60.19%)
   displ. norm   :     0.1257342 α      lambda       -0.7783671E-05
   maximum displ.:     0.0784869 α      in ANC's #1, #2, #3, ...

........................................................................
.............................. CYCLE   28 ..............................
........................................................................

 iter      E             dE          RMSdq      gap      omega  full diag
   1    -87.8229169 -0.878229E+02  0.246E-02    0.68       0.0  T
   2    -87.8228782  0.387270E-04  0.278E-02    0.68       1.0  T
   3    -87.8226330  0.245166E-03  0.669E-02    0.68       1.0  T
   4    -87.8228515 -0.218437E-03  0.477E-02    0.68       1.0  T
   5    -87.8229176 -0.661625E-04  0.203E-03    0.68       6.8  T
   6    -87.8229177 -0.106908E-06  0.113E-03    0.68      12.2  T
   7    -87.8229178 -0.583235E-07  0.523E-04    0.68      26.3  T
   8    -87.8229178 -0.794225E-08  0.753E-05    0.68     182.4  T
     SCC iter.                  ...        0 min,  0.043 sec
     gradient                   ...        0 min,  0.006 sec
 * total energy  :   -86.2931471 Eh     change       -0.9959235E-05 Eh
   gradient norm :     0.0007283 Eh/α   predicted    -0.3919945E-05 ( -60.64%)
   displ. norm   :     0.1420244 α      lambda       -0.8233285E-05
   maximum displ.:     0.0902036 α      in ANC's #1, #2, #3, ...

........................................................................
.............................. CYCLE   29 ..............................
........................................................................

 iter      E             dE          RMSdq      gap      omega  full diag
   1    -87.8228523 -0.878229E+02  0.273E-02    0.68       0.0  T
   2    -87.8228156  0.367118E-04  0.281E-02    0.69       1.0  T
   3    -87.8224480  0.367613E-03  0.793E-02    0.67       1.0  T
   4    -87.8227722 -0.324226E-03  0.527E-02    0.68       1.0  T
   5    -87.8228530 -0.807689E-04  0.202E-03    0.68       6.8  T
   6    -87.8228531 -0.156256E-06  0.111E-03    0.68      12.4  T
   7    -87.8228532 -0.426017E-07  0.456E-04    0.68      30.1  T
   8    -87.8228532 -0.757723E-08  0.122E-04    0.68     112.3  T
     SCC iter.                  ...        0 min,  0.043 sec
     gradient                   ...        0 min,  0.006 sec
 * total energy  :   -86.2931577 Eh     change       -0.1060319E-04 Eh
   gradient norm :     0.0006194 Eh/α   predicted    -0.4153986E-05 ( -60.82%)
   displ. norm   :     0.1578032 α      lambda       -0.8752904E-05
   maximum displ.:     0.1017345 α      in ANC's #1, #2, #3, ...

........................................................................
.............................. CYCLE   30 ..............................
........................................................................

 iter      E             dE          RMSdq      gap      omega  full diag
   1    -87.8227636 -0.878228E+02  0.296E-02    0.68       0.0  T
   2    -87.8227280  0.355400E-04  0.284E-02    0.69       1.0  T
   3    -87.8221908  0.537242E-03  0.945E-02    0.67       1.0  T
   4    -87.8226990 -0.508199E-03  0.474E-02    0.68       1.0  T
   5    -87.8227640 -0.649470E-04  0.278E-03    0.68       4.9  T
   6    -87.8227644 -0.403625E-06  0.826E-04    0.68      16.6  T
   7    -87.8227644 -0.163821E-07  0.438E-04    0.68      31.4  T
     SCC iter.                  ...        0 min,  0.037 sec
     gradient                   ...        0 min,  0.006 sec
 * total energy  :   -86.2931690 Eh     change       -0.1125301E-04 Eh
   gradient norm :     0.0003780 Eh/α   predicted    -0.4428154E-05 ( -60.65%)
   displ. norm   :     0.1732542 α      lambda       -0.9127385E-05
   maximum displ.:     0.1129505 α      in ANC's #1, #2, #3, ...

........................................................................
.............................. CYCLE   31 ..............................
........................................................................

 iter      E             dE          RMSdq      gap      omega  full diag
   1    -87.8227647 -0.878228E+02  0.319E-02    0.68       0.0  T
   2    -87.8227158  0.488818E-04  0.324E-02    0.69       1.0  T
   3    -87.8221325  0.583238E-03  0.100E-01    0.67       1.0  T
   4    -87.8227116 -0.579041E-03  0.421E-02    0.68       1.0  T
   5    -87.8227650 -0.534607E-04  0.317E-03    0.68       4.3  T
   6    -87.8227656 -0.562191E-06  0.106E-03    0.68      13.0  T
   7    -87.8227656 -0.370336E-07  0.478E-04    0.68      28.7  T
   8    -87.8227657 -0.646270E-08  0.150E-04    0.68      91.4  T
     SCC iter.                  ...        0 min,  0.043 sec
     gradient                   ...        0 min,  0.006 sec
 * total energy  :   -86.2931809 Eh     change       -0.1188791E-04 Eh
   gradient norm :     0.0003514 Eh/α   predicted    -0.4625363E-05 ( -61.09%)
   displ. norm   :     0.1945507 α      lambda       -0.9597949E-05
   maximum displ.:     0.1278763 α      in ANC's #1, #2, #3, ...

........................................................................
.............................. CYCLE   32 ..............................
........................................................................

 iter      E             dE          RMSdq      gap      omega  full diag
   1    -87.8227512 -0.878228E+02  0.353E-02    0.68       0.0  T
   2    -87.8227352  0.159916E-04  0.266E-02    0.68       1.0  T
   3    -87.8221606  0.574630E-03  0.974E-02    0.67       1.0  T
   4    -87.8225251 -0.364503E-03  0.735E-02    0.69       1.0  T
   5    -87.8227516 -0.226538E-03  0.242E-03    0.68       5.7  T
   6    -87.8227519 -0.280725E-06  0.140E-03    0.68       9.8  T
   7    -87.8227520 -0.564076E-07  0.456E-04    0.68      30.1  T
   8    -87.8227520 -0.706075E-08  0.142E-04    0.68      96.6  T
     SCC iter.                  ...        0 min,  0.042 sec
     gradient                   ...        0 min,  0.006 sec
 * total energy  :   -86.2931930 Eh     change       -0.1211098E-04 Eh
   gradient norm :     0.0005064 Eh/α   predicted    -0.4879975E-05 ( -59.71%)
   displ. norm   :     0.1832226 α      lambda       -0.8001765E-05
   maximum displ.:     0.1218458 α      in ANC's #1, #2, #3, ...

........................................................................
.............................. CYCLE   33 ..............................
........................................................................

 iter      E             dE          RMSdq      gap      omega  full diag
   1    -87.8228499 -0.878228E+02  0.332E-02    0.68       0.0  T
   2    -87.8228008  0.491532E-04  0.336E-02    0.68       1.0  T
   3    -87.8223162  0.484533E-03  0.909E-02    0.67       1.0  T
   4    -87.8226776 -0.361349E-03  0.744E-02    0.68       1.0  T
   5    -87.8228507 -0.173109E-03  0.363E-03    0.68       3.8  T
   6    -87.8228513 -0.609885E-06  0.118E-03    0.68      11.6  T
   7    -87.8228513 -0.592747E-07  0.526E-04    0.68      26.1  T
   8    -87.8228514 -0.790460E-08  0.109E-04    0.68     126.1  T
     SCC iter.                  ...        0 min,  0.042 sec
     gradient                   ...        0 min,  0.006 sec
 * total energy  :   -86.2932030 Eh     change       -0.1005615E-04 Eh
   gradient norm :     0.0005415 Eh/α   predicted    -0.4060787E-05 ( -59.62%)
   displ. norm   :     0.1525835 α      lambda       -0.6053793E-05
   maximum displ.:     0.1033139 α      in ANC's #1, #2, #3, ...

........................................................................
.............................. CYCLE   34 ..............................
........................................................................

 iter      E             dE          RMSdq      gap      omega  full diag
   1    -87.8230060 -0.878230E+02  0.275E-02    0.68       0.0  T
   2    -87.8229500  0.559184E-04  0.343E-02    0.68       1.0  T
   3    -87.8227709  0.179142E-03  0.612E-02    0.68       1.0  T
   4    -87.8228621 -0.912103E-04  0.660E-02    0.69       1.0  T
   5    -87.8230069 -0.144773E-03  0.417E-03    0.68       3.3  T
   6    -87.8230077 -0.794910E-06  0.834E-04    0.68      16.5  T
   7    -87.8230077 -0.288009E-07  0.443E-04    0.68      31.0  T
     SCC iter.                  ...        0 min,  0.044 sec
     gradient                   ...        0 min,  0.007 sec
 * total energy  :   -86.2932107 Eh     change       -0.7653004E-05 Eh
   gradient norm :     0.0004268 Eh/α   predicted    -0.3058946E-05 ( -60.03%)
   displ. norm   :     0.1175644 α      lambda       -0.4490138E-05
   maximum displ.:     0.0816504 α      in ANC's #1, #2, #3, ...

........................................................................
.............................. CYCLE   35 ..............................
........................................................................

 iter      E             dE          RMSdq      gap      omega  full diag
   1    -87.8231269 -0.878231E+02  0.215E-02    0.68       0.0  T
   2    -87.8230746  0.522790E-04  0.323E-02    0.68       1.0  T
   3    -87.8230240  0.506046E-04  0.412E-02    0.68       1.0  T
   4    -87.8230460 -0.219746E-04  0.492E-02    0.68       1.0  T
   5    -87.8231277 -0.817775E-04  0.408E-03    0.68       3.4  T
   6    -87.8231285 -0.758657E-06  0.629E-04    0.68      21.8  T
   7    -87.8231285 -0.146862E-07  0.286E-04    0.68      48.1  T
     SCC iter.                  ...        0 min,  0.037 sec
     gradient                   ...        0 min,  0.006 sec
 * total energy  :   -86.2932164 Eh     change       -0.5720396E-05 Eh
   gradient norm :     0.0002710 Eh/α   predicted    -0.2260480E-05 ( -60.48%)
   displ. norm   :     0.0877459 α      lambda       -0.3350674E-05
   maximum displ.:     0.0627673 α      in ANC's #1, #2, #3, ...

........................................................................
.............................. CYCLE   36 ..............................
........................................................................

 iter      E             dE          RMSdq      gap      omega  full diag
   1    -87.8232148 -0.878232E+02  0.163E-02    0.68       0.0  T
   2    -87.8231847  0.300934E-04  0.254E-02    0.68       1.0  T
   3    -87.8231705  0.142137E-04  0.274E-02    0.68       1.0  T
   4    -87.8231577  0.128441E-04  0.387E-02    0.69       1.0  T
   5    -87.8232153 -0.575698E-04  0.385E-03    0.68       3.6  T
   6    -87.8232159 -0.664097E-06  0.649E-04    0.68      21.2  T
   7    -87.8232159 -0.111300E-07  0.160E-04    0.68      86.1  T
     SCC iter.                  ...        0 min,  0.037 sec
     gradient                   ...        0 min,  0.006 sec
 * total energy  :   -86.2932207 Eh     change       -0.4263896E-05 Eh
   gradient norm :     0.0001894 Eh/α   predicted    -0.1683733E-05 ( -60.51%)
   displ. norm   :     0.0651393 α      lambda       -0.2526803E-05
   maximum displ.:     0.0477590 α      in ANC's #1, #2, #5, ...

........................................................................
.............................. CYCLE   37 ..............................
........................................................................

 iter      E             dE          RMSdq      gap      omega  full diag
   1    -87.8232336 -0.878232E+02  0.124E-02    0.68       0.0  T
   2    -87.8232210  0.126435E-04  0.183E-02    0.68       1.0  T
   3    -87.8232167  0.421526E-05  0.177E-02    0.68       1.0  T
   4    -87.8231719  0.448579E-04  0.358E-02    0.69       1.0  T
   5    -87.8232338 -0.618701E-04  0.301E-03    0.68       4.6  T
   6    -87.8232342 -0.426098E-06  0.545E-04    0.68      25.2  T
   7    -87.8232342 -0.771954E-08  0.861E-05    0.68     159.6  T
     SCC iter.                  ...        0 min,  0.037 sec
     gradient                   ...        0 min,  0.006 sec
 * total energy  :   -86.2932240 Eh     change       -0.3298988E-05 Eh
   gradient norm :     0.0002172 Eh/α   predicted    -0.1269356E-05 ( -61.52%)
   displ. norm   :     0.0554126 α      lambda       -0.2221130E-05
   maximum displ.:     0.0407517 α      in ANC's #1, #2, #5, ...

........................................................................
.............................. CYCLE   38 ..............................
........................................................................

 iter      E             dE          RMSdq      gap      omega  full diag
   1    -87.8232061 -0.878232E+02  0.110E-02    0.68       0.0  T
   2    -87.8232007  0.543803E-05  0.124E-02    0.69       1.1  T
   3    -87.8231810  0.196734E-04  0.207E-02    0.68       1.0  T
   4    -87.8231614  0.196517E-04  0.315E-02    0.69       1.0  T
   5    -87.8232061 -0.447296E-04  0.240E-03    0.68       5.7  T
   6    -87.8232064 -0.271992E-06  0.534E-04    0.68      25.7  T
   7    -87.8232064 -0.741970E-08  0.820E-05    0.68     167.5  T
     SCC iter.                  ...        0 min,  0.037 sec
     gradient                   ...        0 min,  0.006 sec
 * total energy  :   -86.2932269 Eh     change       -0.2890916E-05 Eh
   gradient norm :     0.0002456 Eh/α   predicted    -0.1114135E-05 ( -61.46%)
   displ. norm   :     0.0517048 α      lambda       -0.1987498E-05
   maximum displ.:     0.0378092 α      in ANC's #1, #2, #5, ...

........................................................................
.............................. CYCLE   39 ..............................
........................................................................

 iter      E             dE          RMSdq      gap      omega  full diag
   1    -87.8231640 -0.878232E+02  0.106E-02    0.69       0.0  T
   2    -87.8231634  0.638225E-06  0.759E-03    0.69       1.8  T
   3    -87.8231460  0.174134E-04  0.228E-02    0.68       1.0  T
   4    -87.8231601 -0.140968E-04  0.850E-03    0.69       1.6  T
   5    -87.8231636 -0.351130E-05  0.273E-03    0.69       5.0  T
   6    -87.8231641 -0.503380E-06  0.428E-04    0.69      32.1  T
   7    -87.8231641 -0.449342E-08  0.107E-04    0.69     128.9  T
     SCC iter.                  ...        0 min,  0.037 sec
     gradient                   ...        0 min,  0.006 sec
 * total energy  :   -86.2932294 Eh     change       -0.2527281E-05 Eh
   gradient norm :     0.0002236 Eh/α   predicted    -0.9964179E-06 ( -60.57%)
   displ. norm   :     0.0438913 α      lambda       -0.1493795E-05
   maximum displ.:     0.0322883 α      in ANC's #1, #6, #3, ...

........................................................................
.............................. CYCLE   40 ..............................
........................................................................

 iter      E             dE          RMSdq      gap      omega  full diag
   1    -87.8231025 -0.878231E+02  0.903E-03    0.69       0.0  T
   2    -87.8231015  0.103312E-05  0.671E-03    0.69       2.0  T
   3    -87.8230275  0.739546E-04  0.344E-02    0.69       1.0  T
   4    -87.8231025 -0.749812E-04  0.102E-03    0.69      13.4  T
   5    -87.8231025  0.379362E-07  0.144E-03    0.69       9.5  T
   6    -87.8231025 -0.723386E-07  0.242E-04    0.69      56.8  T
   7    -87.8231025 -0.645315E-09  0.920E-05    0.69     149.3  T
     SCC iter.                  ...        0 min,  0.037 sec
     gradient                   ...        0 min,  0.006 sec
 * total energy  :   -86.2932313 Eh     change       -0.1903541E-05 Eh
   gradient norm :     0.0001731 Eh/α   predicted    -0.7518620E-06 ( -60.50%)
   displ. norm   :     0.0322833 α      lambda       -0.1043463E-05
   maximum displ.:     0.0240848 α      in ANC's #1, #3, #6, ...

........................................................................
.............................. CYCLE   41 ..............................
........................................................................

 iter      E             dE          RMSdq      gap      omega  full diag
   1    -87.8230857 -0.878231E+02  0.635E-03    0.69       0.0  T
   2    -87.8230839  0.179468E-05  0.670E-03    0.69       2.0  T
   3    -87.8230711  0.128000E-04  0.150E-02    0.69       1.0  T
   4    -87.8230782 -0.705411E-05  0.145E-02    0.69       1.0  T
   5    -87.8230858 -0.758695E-05  0.398E-04    0.69      34.5  T
   6    -87.8230858 -0.694565E-08  0.210E-04    0.69      65.5  T
   7    -87.8230858 -0.767514E-09  0.914E-05    0.69     150.2  T
     SCC iter.                  ...        0 min,  0.037 sec
     gradient                   ...        0 min,  0.006 sec
 * total energy  :   -86.2932327 Eh     change       -0.1371946E-05 Eh
   gradient norm :     0.0001345 Eh/α   predicted    -0.5236758E-06 ( -61.83%)
   displ. norm   :     0.0264843 α      lambda       -0.9021632E-06
   maximum displ.:     0.0195979 α      in ANC's #1, #3, #6, ...

........................................................................
.............................. CYCLE   42 ..............................
........................................................................

 iter      E             dE          RMSdq      gap      omega  full diag
   1    -87.8230665 -0.878231E+02  0.491E-03    0.69       0.0  T
   2    -87.8230630  0.352542E-05  0.798E-03    0.69       1.7  T
   3    -87.8230624  0.547622E-06  0.828E-03    0.69       1.7  T
   4    -87.8230631 -0.725120E-06  0.106E-02    0.69       1.3  T
   5    -87.8230665 -0.340184E-05  0.759E-04    0.69      18.1  T
   6    -87.8230666 -0.312042E-07  0.118E-04    0.69     116.8  T
   7    -87.8230666  0.348862E-09  0.133E-04    0.69     103.5  T
     SCC iter.                  ...        0 min,  0.037 sec
     gradient                   ...        0 min,  0.006 sec
 * total energy  :   -86.2932339 Eh     change       -0.1239954E-05 Eh
   gradient norm :     0.0001205 Eh/α   predicted    -0.4551064E-06 ( -63.30%)
   displ. norm   :     0.0297730 α      lambda       -0.1069580E-05
   maximum displ.:     0.0212842 α      in ANC's #1, #3, #7, ...
 * RMSD in coord.:     0.2596235 α      energy gain  -0.1574188E-03 Eh

generating ANC from exact Hessian ...
Using Lindh-Hessian (1995)
 Shifting diagonal of input Hessian by   9.850057107120683E-003
 Lowest  eigenvalues of input Hessian
    0.000000    0.000000    0.000000    0.000000    0.000000    0.000000
    0.010000    0.010017    0.010379    0.010843    0.011181    0.011684
    0.012548    0.013145    0.013479    0.013746    0.015501    0.017605
 Highest eigenvalues
    2.046481    2.059872    2.118140    2.135676    2.187230    2.223294
 

........................................................................
.............................. CYCLE   43 ..............................
........................................................................

 iter      E             dE          RMSdq      gap      omega  full diag
   1    -87.8230521 -0.878231E+02  0.524E-03    0.69       0.0  T
   2    -87.8230473  0.486384E-05  0.931E-03    0.69       1.5  T
   3    -87.8230486 -0.135603E-05  0.789E-03    0.69       1.7  T
   4    -87.8230482  0.449460E-06  0.114E-02    0.69       1.2  T
   5    -87.8230522 -0.398238E-05  0.138E-03    0.69      10.0  T
   6    -87.8230523 -0.107192E-06  0.175E-04    0.69      78.5  T
   7    -87.8230523  0.299082E-09  0.167E-04    0.69      82.4  T
     SCC iter.                  ...        0 min,  0.037 sec
     gradient                   ...        0 min,  0.006 sec
 * total energy  :   -86.2932354 Eh     change       -0.1466829E-05 Eh
   gradient norm :     0.0001385 Eh/α   predicted     0.0000000E+00 (-100.00%)
   displ. norm   :     0.0096821 α      lambda       -0.1764527E-07
   maximum displ.:     0.0068769 α      in ANC's #1, #2, #3, ...

........................................................................
.............................. CYCLE   44 ..............................
........................................................................

 iter      E             dE          RMSdq      gap      omega  full diag
   1    -87.8230665 -0.878231E+02  0.173E-03    0.69       0.0  T
   2    -87.8230664  0.770950E-07  0.194E-03    0.69       7.1  T
   3    -87.8230663  0.482823E-07  0.220E-03    0.69       6.2  T
   4    -87.8230665 -0.127003E-06  0.244E-04    0.69      56.4  T
   5    -87.8230665  0.202926E-07  0.600E-04    0.69      22.9  T
     SCC iter.                  ...        0 min,  0.026 sec
     gradient                   ...        0 min,  0.006 sec
 * total energy  :   -86.2932360 Eh     change       -0.6523105E-06 Eh
   gradient norm :     0.0001033 Eh/α   predicted    -0.2417681E-06 ( -62.94%)
   displ. norm   :     0.0343092 α      lambda       -0.1305108E-05
   maximum displ.:     0.0208501 α      in ANC's #1, #2, #3, ...

........................................................................
.............................. CYCLE   45 ..............................
........................................................................

 iter      E             dE          RMSdq      gap      omega  full diag
   1    -87.8230921 -0.878231E+02  0.675E-03    0.69       0.0  T
   2    -87.8230717  0.204194E-04  0.180E-02    0.69       1.0  T
   3    -87.8230887 -0.169673E-04  0.863E-03    0.69       1.6  T
   4    -87.8230881  0.560663E-06  0.120E-02    0.69       1.1  T
   5    -87.8230923 -0.424159E-05  0.125E-03    0.69      11.0  T
   6    -87.8230925 -0.103531E-06  0.109E-04    0.69     126.3  T
   7    -87.8230925 -0.239993E-09  0.432E-05    0.69     318.0  T
     SCC iter.                  ...        0 min,  0.037 sec
     gradient                   ...        0 min,  0.006 sec
 * total energy  :   -86.2932380 Eh     change       -0.1966617E-05 Eh
   gradient norm :     0.0001752 Eh/α   predicted    -0.7594909E-06 ( -61.38%)
   displ. norm   :     0.0614189 α      lambda       -0.2107377E-05
   maximum displ.:     0.0373295 α      in ANC's #1, #2, #3, ...

........................................................................
.............................. CYCLE   46 ..............................
........................................................................

 iter      E             dE          RMSdq      gap      omega  full diag
   1    -87.8230416 -0.878230E+02  0.108E-02    0.69       0.0  T
   2    -87.8230363  0.529838E-05  0.133E-02    0.69       1.0  T
   3    -87.8230199  0.164610E-04  0.211E-02    0.69       1.0  T
   4    -87.8230052  0.146885E-04  0.243E-02    0.68       1.0  T
   5    -87.8230411 -0.359161E-04  0.330E-03    0.69       4.2  T
   6    -87.8230418 -0.702735E-06  0.304E-04    0.69      45.2  T
   7    -87.8230418 -0.175720E-08  0.147E-04    0.69      93.7  T
     SCC iter.                  ...        0 min,  0.037 sec
     gradient                   ...        0 min,  0.006 sec
 * total energy  :   -86.2932405 Eh     change       -0.2514621E-05 Eh
   gradient norm :     0.0002182 Eh/α   predicted    -0.1067319E-05 ( -57.56%)
   displ. norm   :     0.0580341 α      lambda       -0.1512890E-05
   maximum displ.:     0.0362226 α      in ANC's #1, #2, #3, ...

........................................................................
.............................. CYCLE   47 ..............................
........................................................................

 iter      E             dE          RMSdq      gap      omega  full diag
   1    -87.8230699 -0.878231E+02  0.890E-03    0.69       0.0  T
   2    -87.8230698  0.107147E-06  0.552E-03    0.69       2.5  T
   3    -87.8230576  0.121879E-04  0.162E-02    0.69       1.0  T
   4    -87.8230633 -0.567184E-05  0.101E-02    0.69       1.4  T
   5    -87.8230698 -0.644868E-05  0.223E-03    0.69       6.2  T
   6    -87.8230700 -0.202897E-06  0.208E-04    0.69      66.1  T
   7    -87.8230700  0.384304E-09  0.158E-04    0.69      87.1  T
     SCC iter.                  ...        0 min,  0.037 sec
     gradient                   ...        0 min,  0.006 sec
 * total energy  :   -86.2932424 Eh     change       -0.1890881E-05 Eh
   gradient norm :     0.0002198 Eh/α   predicted    -0.7588870E-06 ( -59.87%)
   displ. norm   :     0.0492071 α      lambda       -0.1277247E-05
   maximum displ.:     0.0313988 α      in ANC's #1, #2, #3, ...

........................................................................
.............................. CYCLE   48 ..............................
........................................................................

 iter      E             dE          RMSdq      gap      omega  full diag
   1    -87.8230927 -0.878231E+02  0.665E-03    0.69       0.0  T
   2    -87.8230926  0.154662E-06  0.448E-03    0.69       3.1  T
   3    -87.8230846  0.802109E-05  0.146E-02    0.69       1.0  T
   4    -87.8230910 -0.639193E-05  0.581E-03    0.69       2.4  T
   5    -87.8230925 -0.156579E-05  0.184E-03    0.69       7.5  T
   6    -87.8230928 -0.240609E-06  0.146E-04    0.69      93.8  T
   7    -87.8230928  0.633804E-09  0.149E-04    0.69      92.2  T
     SCC iter.                  ...        0 min,  0.037 sec
     gradient                   ...        0 min,  0.006 sec
 * total energy  :   -86.2932441 Eh     change       -0.1685256E-05 Eh
   gradient norm :     0.0001643 Eh/α   predicted    -0.6399825E-06 ( -62.02%)
   displ. norm   :     0.0514910 α      lambda       -0.1421551E-05
   maximum displ.:     0.0333267 α      in ANC's #1, #2, #3, ...

........................................................................
.............................. CYCLE   49 ..............................
........................................................................

 iter      E             dE          RMSdq      gap      omega  full diag
   1    -87.8231128 -0.878231E+02  0.675E-03    0.69       0.0  T
   2    -87.8231079  0.495584E-05  0.963E-03    0.69       1.4  T
   3    -87.8231019  0.595670E-05  0.133E-02    0.69       1.0  T
   4    -87.8231069 -0.503107E-05  0.141E-02    0.69       1.0  T
   5    -87.8231129 -0.597566E-05  0.517E-04    0.69      26.6  T
   6    -87.8231129 -0.142642E-07  0.216E-04    0.69      63.7  T
   7    -87.8231129 -0.116363E-08  0.698E-05    0.69     196.8  T
     SCC iter.                  ...        0 min,  0.037 sec
     gradient                   ...        0 min,  0.006 sec
 * total energy  :   -86.2932459 Eh     change       -0.1828821E-05 Eh
   gradient norm :     0.0001351 Eh/α   predicted    -0.7118203E-06 ( -61.08%)
   displ. norm   :     0.0558483 α      lambda       -0.1383203E-05
   maximum displ.:     0.0366385 α      in ANC's #1, #2, #3, ...

........................................................................
.............................. CYCLE   50 ..............................
........................................................................

 iter      E             dE          RMSdq      gap      omega  full diag
   1    -87.8231271 -0.878231E+02  0.740E-03    0.69       0.0  T
   2    -87.8231251  0.196278E-05  0.797E-03    0.69       1.7  T
   3    -87.8231171  0.805674E-05  0.132E-02    0.69       1.0  T
   4    -87.8231029  0.141623E-04  0.219E-02    0.69       1.0  T
   5    -87.8231272 -0.242515E-04  0.557E-04    0.69      24.7  T
   6    -87.8231272 -0.131681E-07  0.287E-04    0.69      47.8  T
   7    -87.8231272 -0.184130E-08  0.747E-05    0.69     183.9  T
     SCC iter.                  ...        0 min,  0.037 sec
     gradient                   ...        0 min,  0.006 sec
 * total energy  :   -86.2932476 Eh     change       -0.1710041E-05 Eh
   gradient norm :     0.0001553 Eh/α   predicted    -0.6936857E-06 ( -59.43%)
   displ. norm   :     0.0491960 α      lambda       -0.1024215E-05
   maximum displ.:     0.0328050 α      in ANC's #1, #2, #3, ...

........................................................................
.............................. CYCLE   51 ..............................
........................................................................

 iter      E             dE          RMSdq      gap      omega  full diag
   1    -87.8231278 -0.878231E+02  0.646E-03    0.69       0.0  T
   2    -87.8231250  0.285513E-05  0.762E-03    0.69       1.8  T
   3    -87.8231117  0.133071E-04  0.159E-02    0.69       1.0  T
   4    -87.8231242 -0.125635E-04  0.112E-02    0.69       1.2  T
   5    -87.8231278 -0.361061E-05  0.109E-03    0.69      12.6  T
   6    -87.8231279 -0.478382E-07  0.310E-04    0.69      44.4  T
   7    -87.8231279 -0.188531E-08  0.779E-05    0.69     176.3  T
     SCC iter.                  ...        0 min,  0.037 sec
     gradient                   ...        0 min,  0.006 sec
 * total energy  :   -86.2932489 Eh     change       -0.1295382E-05 Eh
   gradient norm :     0.0001590 Eh/α   predicted    -0.5144604E-06 ( -60.29%)
   displ. norm   :     0.0423968 α      lambda       -0.8499050E-06
   maximum displ.:     0.0285420 α      in ANC's #1, #2, #3, ...

........................................................................
.............................. CYCLE   52 ..............................
........................................................................

 iter      E             dE          RMSdq      gap      omega  full diag
   1    -87.8231289 -0.878231E+02  0.535E-03    0.69       0.0  T
   2    -87.8231286  0.303086E-06  0.385E-03    0.69       3.6  T
   3    -87.8231023  0.263422E-04  0.206E-02    0.69       1.0  T
   4    -87.8231289 -0.266415E-04  0.611E-04    0.69      22.5  T
   5    -87.8231289 -0.946306E-08  0.466E-04    0.69      29.4  T
   6    -87.8231289 -0.581437E-08  0.125E-04    0.69     110.2  T
     SCC iter.                  ...        0 min,  0.032 sec
     gradient                   ...        0 min,  0.006 sec
 * total energy  :   -86.2932501 Eh     change       -0.1131925E-05 Eh
   gradient norm :     0.0001294 Eh/α   predicted    -0.4273996E-06 ( -62.24%)
   displ. norm   :     0.0452345 α      lambda       -0.9445426E-06
   maximum displ.:     0.0306211 α      in ANC's #1, #2, #3, ...

[...]
    38   1 H        0.926     0.046     2.366     2.405
    39   1 H        0.926     0.047     2.363     2.404
    40   1 H        0.926     0.049     2.336     2.390
    41   1 H        0.926     0.049     2.327     2.386
    42   1 H        0.926     0.047     2.360     2.402
    43   1 H        0.926     0.045     2.377     2.411
    44   1 H        0.926     0.046     2.367     2.406
    45   1 H        0.926     0.046     2.376     2.411
    46   1 H        0.926     0.040     2.451     2.448
    47   1 H        0.926     0.038     2.476     2.461
    48   1 H        0.926     0.040     2.444     2.445
    49   1 H        0.926     0.048     2.348     2.396
    50   1 H        0.926     0.047     2.357     2.401
    51   1 H        0.926     0.046     2.371     2.408
    52   1 H        0.926     0.045     2.382     2.413
    53   1 H        0.926     0.045     2.385     2.415

 Mol. C6AA /au·bohr⁶  :      46399.924252
 Mol. C8AA /au·bohr⁸  :    1242748.649267
 Mol. α(0) /au        :        349.597555


MOs/occ written to file <molden.input>


molecular dipole:
                 x           y           z       tot (Debye)
 q only:       -2.674       3.606      -0.787
   full:       -2.732       3.502      -0.742      11.446
molecular quadrupole (traceless):
                xx          xy          yy          xz          yz          zz
 q only:       35.571      14.954     -22.797      -1.150      10.140     -12.774
  q+dip:       36.517      14.722     -15.572      -1.615      10.094     -20.945
   full:       31.257      15.363     -19.796      -0.391      10.710     -11.461

           -------------------------------------------------
          |                Geometry Summary                 |
           -------------------------------------------------

      molecular mass/u    :      453.5545827
   center of mass at/Å    :        0.0035074      -0.0066844       0.0256546
  moments of inertia/u·Å² :        0.2257057E+04   0.9635385E+04   0.1166162E+05
rotational constants/cm⁻¹ :        0.7468856E-02   0.1749555E-02   0.1445566E-02

 * 56 selected distances

     #   Z          #   Z                                           value/Å
     3   6 C        4   6 C                                       1.4129794
     4   6 C        5   6 C                                       1.3706906
     5   6 C        6   6 C                                       1.4039547
     6   6 C        7   7 N                                       1.3948024
     7   7 N        8   6 C                                       1.3792502
     8   6 C        9   6 C                                       1.3902939
     9   6 C       10   6 C                                       1.3833270
    10   6 C       11   6 C                                       1.3926970
    11   6 C       12   6 C                                       1.3868551
     8   6 C       13   6 C                                       1.4171988
    12   6 C       13   6 C                                       1.3846847
    13   6 C       14   6 C                                       1.4412745
    14   6 C       15   6 C                                       1.3844176
    15   6 C       16   6 C                                       1.3871052
    16   6 C       17   6 C                                       1.3927499
    17   6 C       18   6 C                                       1.3834117
     7   7 N       19   6 C                                       1.3783122
    14   6 C       19   6 C                                       1.4176427
    18   6 C       19   6 C                                       1.3906835
     6   6 C       20   6 C                                       1.4050448
     3   6 C       21   6 C                                       1.4167432
    20   6 C       21   6 C                                       1.3675964
    22   6 C       23   6 C                                       1.4126251
    23   6 C       24   6 C                                       1.3736149
    24   6 C       25   6 C                                       1.3909371
    25   6 C       26  16 S                                       1.7493458
    26  16 S       27   6 C                                       1.7537776 (max)
    27   6 C       28   6 C                                       1.3854662
    28   6 C       29   6 C                                       1.3835377
    29   6 C       30   6 C                                       1.3904074
    30   6 C       31   6 C                                       1.3832381
    27   6 C       32   6 C                                       1.4052886
    31   6 C       32   6 C                                       1.3899585
    25   6 C       33   6 C                                       1.4094812
    32   6 C       33   6 C                                       1.4450943
    22   6 C       34   6 C                                       1.4031288
    33   6 C       34   6 C                                       1.3827184
     4   6 C       35   1 H                                       1.0792514
     5   6 C       36   1 H                                       1.0803254
     9   6 C       37   1 H                                       1.0787386
    10   6 C       38   1 H                                       1.0795145
    11   6 C       39   1 H                                       1.0795827
    12   6 C       40   1 H                                       1.0790040
    15   6 C       41   1 H                                       1.0790430
    16   6 C       42   1 H                                       1.0795780
    17   6 C       43   1 H                                       1.0795324
    18   6 C       44   1 H                                       1.0789235
    20   6 C       45   1 H                                       1.0800971
    21   6 C       46   1 H                                       1.0802623
    23   6 C       47   1 H                                       1.0800007
    24   6 C       48   1 H                                       1.0794385
    28   6 C       49   1 H                                       1.0788835
    29   6 C       50   1 H                                       1.0794932
    30   6 C       51   1 H                                       1.0797200
    31   6 C       52   1 H                                       1.0793176
    34   6 C       53   1 H                                       1.0785775 (min)

 * 4 distinct bonds (by element types)

   Z      Z             #   av. dist./Å        max./Å        min./Å
   1 H    6 C          19     1.0794360     1.0803254     1.0785775
   6 C    6 C          32     1.3964015     1.4450943     1.3675964
   6 C    7 N           3     1.3841216     1.3948024     1.3783122
   6 C   16 S           2     1.7515617     1.7537776     1.7493458

           -------------------------------------------------
          |               Frequency Printout                |
           -------------------------------------------------
 projected vibrational frequencies (cm⁻¹)
eigval :       -0.00    -0.00    -0.00     0.00     0.00     0.00
eigval :       14.64    19.84    23.34    43.45    51.08    68.98
eigval :       97.57   102.42   108.40   123.71   125.57   142.63
eigval :      163.48   178.22   213.48   233.66   248.94   260.47
eigval :      264.60   268.76   285.43   303.82   346.84   379.77
eigval :      382.65   391.79   395.19   403.00   411.37   416.60
eigval :      426.07   431.68   439.94   465.28   480.29   497.78
eigval :      505.48   511.66   530.86   548.13   567.07   580.01
eigval :      585.18   593.41   598.76   610.29   636.80   653.60
eigval :      666.18   673.50   685.99   694.07   697.17   708.54
eigval :      724.32   753.48   766.85   769.09   773.63   799.16
eigval :      803.59   814.42   831.27   859.05   862.96   867.11
eigval :      871.68   894.12   900.70   902.62   903.17   904.36
eigval :      906.97   910.20   918.47   920.47   921.27   928.03
eigval :      933.69   980.47   997.30  1007.77  1037.31  1063.62
eigval :     1066.64  1074.97  1081.18  1108.61  1129.60  1132.36
eigval :     1147.38  1149.36  1157.85  1167.69  1172.93  1173.87
eigval :     1179.13  1189.88  1219.25  1221.44  1226.93  1234.15
eigval :     1242.66  1252.91  1268.61  1275.25  1284.04  1320.28
eigval :     1326.17  1330.94  1337.29  1343.31  1363.85  1385.01
eigval :     1399.12  1403.82  1406.15  1411.55  1419.07  1429.82
eigval :     1442.05  1448.76  1458.28  1459.92  1474.68  1485.54
eigval :     1519.02  1556.85  1557.20  1563.49  1566.25  1569.02
eigval :     1572.57  1591.25  3076.86  3078.37  3081.95  3083.31
eigval :     3083.87  3084.40  3088.23  3088.33  3089.81  3090.66
eigval :     3092.83  3093.40  3094.49  3095.79  3096.90  3098.19
eigval :     3101.49  3102.23  3103.23
 reduced masses (amu)
   1: 14.93   2: 12.22   3: 12.73   4: 13.53   5: 12.68   6: 13.51   7: 12.77   8: 11.78
   9: 15.97  10: 12.16  11: 11.27  12: 11.70  13: 11.35  14: 10.61  15: 12.06  16: 12.47
  17: 12.65  18: 10.01  19: 11.78  20: 13.41  21: 12.93  22: 13.61  23: 11.53  24: 13.85
  25: 11.19  26: 10.33  27: 12.57  28: 12.04  29: 11.46  30:  9.94  31:  9.51  32: 12.78
  33: 11.65  34: 10.82  35: 10.71  36: 10.13  37: 12.23  38: 12.23  39: 14.14  40: 11.37
  41: 16.78  42: 12.53  43: 10.82  44: 11.04  45:  9.75  46: 11.27  47: 12.42  48: 11.65
  49: 11.33  50: 11.29  51: 11.40  52: 11.38  53: 12.31  54: 11.98  55: 11.34  56: 11.19
  57: 11.28  58: 12.52  59: 14.03  60: 11.55  61: 11.54  62: 10.88  63:  3.73  64:  3.65
  65:  3.76  66:  6.09  67:  6.97  68:  7.77  69:  3.57  70:  3.32  71:  3.37  72:  3.36
  73:  3.28  74: 11.45  75:  4.00  76:  4.07  77:  4.24  78:  4.37  79:  9.89  80:  4.08
  81:  3.43  82:  3.35  83:  3.33  84:  3.83  85: 10.55  86: 10.60  87:  8.28  88: 10.82
  89: 11.38  90:  5.84  91:  6.36  92:  5.43  93:  8.98  94:  7.70  95:  3.84  96:  4.68
  97:  6.08  98:  4.14  99:  5.87 100:  4.47 101:  2.57 102:  2.50 103:  1.97 104:  5.44
 105:  4.91 106:  6.04 107:  5.76 108:  5.63 109:  7.84 110:  4.49 111:  6.59 112:  7.57
 113:  7.26 114: 11.50 115: 10.72 116: 11.63 117: 11.32 118: 10.49 119: 10.42 120:  8.96
 121:  8.56 122: 10.83 123: 10.20 124:  9.90 125: 10.56 126: 11.13 127: 10.08 128: 10.42
 129: 10.66 130: 10.78 131: 10.34 132: 11.43 133: 11.54 134: 11.52 135: 11.53 136: 11.61
 137: 11.55 138: 11.58 139: 11.56 140: 11.65 141:  1.78 142:  1.78 143:  1.76 144:  1.78
 145:  1.76 146:  1.76 147:  1.85 148:  1.84 149:  1.81 150:  1.81 151:  1.85 152:  1.87
 153:  1.87 154:  1.83 155:  1.87 156:  1.86 157:  1.91 158:  1.91 159:  1.91
 IR intensities (km·mol⁻¹)
   1:  0.10   2:  1.62   3:  0.90   4:  2.92   5:  0.41   6:  3.11   7:  0.43   8:  0.97
   9:  0.29  10:  1.78  11:  0.87  12:  4.33  13:  2.43  14:  0.07  15:  0.16  16:  4.00
  17:  1.24  18:  0.06  19:  9.11  20:  0.23  21: 19.14  22:  3.42  23: 17.77  24:  2.29
  25:  0.67  26:  8.88  27: 14.55  28:  5.18  29:  4.32  30:  1.69  31:  8.71  32:  1.30
  33:  5.50  34:  1.25  35:  0.92  36:  4.75  37:  8.34  38:  0.19  39:  3.04  40: 16.36
  41: 15.57  42: 25.26  43: 50.16  44:  2.63  45:  2.32  46:  1.51  47: 12.99  48:  7.58
  49:  2.79  50: 10.89  51:  7.97  52:  8.55  53: 19.11  54:  3.71  55:  4.42  56:  0.41
  57:  0.62  58: 13.02  59:  7.26  60:  7.26  61: 52.51  62:  8.96  63: 59.50  64: 43.50
  65: 10.46  66: 13.81  67:  6.91  68: 14.30  69: 45.16  70: 26.80  71:  4.03  72:  3.76
  73: 34.35  74: 12.18  75: 25.17  76:  1.77  77:  1.66  78:  0.20  79: 13.65  80:  2.65
  81:  8.30  82: 21.26  83:  7.71  84:  3.15  85: 20.15  86:105.36  87: 12.55  88:  5.71
  89:192.11  90:  3.87  91: 68.57  92: 70.50  93:  5.65  94: 99.58  95:  2.75  96: 10.67
  97: 39.97  98: 23.88  99: 14.42 100: 45.88 101:  4.87 102:  1.74 103:  0.94 104:  2.60
 105: 53.41 106:  2.76 107:175.29 108: 83.31 109:  4.50 110:  2.39 111:  0.34 112: 31.88
 113: 77.64 114:  4.43 115: 28.50 116: 94.52 117:283.34 118: 34.89 119:434.95 120: 27.61
 121:  7.11 122:252.04 123:216.90 124:189.80 125: 21.36 126:218.76 127:100.71 128:  2.98
 129:  4.04 130:  4.35 131: 57.56 132:162.98 133:387.65 134: 17.21 135: 82.20 136: 49.33
 137:303.49 138:695.95 139:119.87 140:674.22 141: 11.60 142:  3.16 143:  2.87 144:168.79
 145:  0.60 146:  5.64 147: 29.26 148: 80.14 149: 43.31 150: 12.72 151: 34.33 152:232.20
 153:297.39 154:199.70 155: 16.94 156:332.55 157:470.18 158:162.77 159:248.75
 Raman intensities (Ä⁴*amu⁻¹)
   1:  0.00   2:  0.00   3:  0.00   4:  0.00   5:  0.00   6:  0.00   7:  0.00   8:  0.00
   9:  0.00  10:  0.00  11:  0.00  12:  0.00  13:  0.00  14:  0.00  15:  0.00  16:  0.00
  17:  0.00  18:  0.00  19:  0.00  20:  0.00  21:  0.00  22:  0.00  23:  0.00  24:  0.00
  25:  0.00  26:  0.00  27:  0.00  28:  0.00  29:  0.00  30:  0.00  31:  0.00  32:  0.00
  33:  0.00  34:  0.00  35:  0.00  36:  0.00  37:  0.00  38:  0.00  39:  0.00  40:  0.00
  41:  0.00  42:  0.00  43:  0.00  44:  0.00  45:  0.00  46:  0.00  47:  0.00  48:  0.00
  49:  0.00  50:  0.00  51:  0.00  52:  0.00  53:  0.00  54:  0.00  55:  0.00  56:  0.00
  57:  0.00  58:  0.00  59:  0.00  60:  0.00  61:  0.00  62:  0.00  63:  0.00  64:  0.00
  65:  0.00  66:  0.00  67:  0.00  68:  0.00  69:  0.00  70:  0.00  71:  0.00  72:  0.00
  73:  0.00  74:  0.00  75:  0.00  76:  0.00  77:  0.00  78:  0.00  79:  0.00  80:  0.00
  81:  0.00  82:  0.00  83:  0.00  84:  0.00  85:  0.00  86:  0.00  87:  0.00  88:  0.00
  89:  0.00  90:  0.00  91:  0.00  92:  0.00  93:  0.00  94:  0.00  95:  0.00  96:  0.00
  97:  0.00  98:  0.00  99:  0.00 100:  0.00 101:  0.00 102:  0.00 103:  0.00 104:  0.00
 105:  0.00 106:  0.00 107:  0.00 108:  0.00 109:  0.00 110:  0.00 111:  0.00 112:  0.00
 113:  0.00 114:  0.00 115:  0.00 116:  0.00 117:  0.00 118:  0.00 119:  0.00 120:  0.00
 121:  0.00 122:  0.00 123:  0.00 124:  0.00 125:  0.00 126:  0.00 127:  0.00 128:  0.00
 129:  0.00 130:  0.00 131:  0.00 132:  0.00 133:  0.00 134:  0.00 135:  0.00 136:  0.00
 137:  0.00 138:  0.00 139:  0.00 140:  0.00 141:  0.00 142:  0.00 143:  0.00 144:  0.00
 145:  0.00 146:  0.00 147:  0.00 148:  0.00 149:  0.00 150:  0.00 151:  0.00 152:  0.00
 153:  0.00 154:  0.00 155:  0.00 156:  0.00 157:  0.00 158:  0.00 159:  0.00
 output can be read by thermo (or use thermo option).
 writing <g98.out> molden fake output.
 recommended (thermochemical) frequency scaling factor: 1.0
           -------------------------------------------------
          |             Thermodynamic Functions             |
           -------------------------------------------------

Molecule has no symmetry elements
It seems to be the C1 point group
c1  symmetry found (for desy threshold:  0.10E+00) used in thermo

          ...................................................
          :                      SETUP                      :
          :.................................................:
          :  # frequencies                         153      :
          :  # imaginary freq.                       0      :
          :  linear?                             false      :
          :  only rotor calc.                    false      :
          :  symmetry                               c1      :
          :  rotational number                       1      :
          :  scaling factor                  1.0000000      :
          :  rotor cutoff                   50.0000000 cm⁻¹ :
          :  imag. cutoff                  -20.0000000 cm⁻¹ :
          :.................................................:

    mode    ω/cm⁻¹     T·S(HO)/kcal·mol⁻¹    T·S(FR)/kcal·mol⁻¹   T·S(vib)
   ------------------------------------------------------------------------
       1     14.64    -2.16274 (  0.73%)    -1.42038 ( 99.27%)    -1.42580
       2     19.84    -1.98273 (  2.42%)    -1.33034 ( 97.58%)    -1.34612
       3     23.34    -1.88668 (  4.53%)    -1.28227 ( 95.47%)    -1.30965
       4     43.45    -1.51914 ( 36.32%)    -1.09813 ( 63.68%)    -1.25103
       5     51.08    -1.42370 ( 52.14%)    -1.05020 ( 47.86%)    -1.24493
       6     68.98    -1.24695 ( 78.37%)    -0.96122 ( 21.63%)    -1.18513
       7     97.57    -1.04421 ( 93.55%)    -0.85850 (  6.45%)    -1.03223
       8    102.42    -1.01599 ( 94.63%)    -0.84411 (  5.37%)    -1.00676
       9    108.40    -0.98313 ( 95.67%)    -0.82732 (  4.33%)    -0.97638
      10    123.71    -0.90684 ( 97.40%)    -0.78817 (  2.60%)    -0.90375
      11    125.57    -0.89825 ( 97.55%)    -0.78375 (  2.45%)    -0.89544
      12    142.63    -0.82538 ( 98.51%)    -0.74602 (  1.49%)    -0.82420
      13    163.48    -0.74812 ( 99.13%)    -0.70561 (  0.87%)    -0.74775
      14    178.22    -0.69976 ( 99.38%)    -0.68003 (  0.62%)    -0.69964
      15    213.48    -0.60039 ( 99.70%)    -0.62655 (  0.30%)    -0.60047
      16    233.66    -0.55178 ( 99.79%)    -0.59979 (  0.21%)    -0.55188
      17    248.94    -0.51821 ( 99.84%)    -0.58103 (  0.16%)    -0.51831
      18    260.47    -0.49452 ( 99.86%)    -0.56761 (  0.14%)    -0.49461
      19    264.60    -0.48634 ( 99.87%)    -0.56295 (  0.13%)    -0.48644
      20    268.76    -0.47829 ( 99.88%)    -0.55833 (  0.12%)    -0.47839
      21    285.43    -0.44749 ( 99.91%)    -0.54050 (  0.09%)    -0.44758
   ------------------------------------------------------------------------

   temp. (K)  partition function   enthalpy   heat capacity  entropy
                                   cal/mol     cal/K/mol   cal/K/mol   J/K/mol
 298.15  VIB  0.380E+11            14884.916     98.412     89.971
         ROT  0.385E+08              888.752      2.981     37.689
         INT  0.146E+19            15773.669    101.393    127.660
         TR   0.935E+28             1481.254      4.968     44.205
         TOT                       17254.9225   106.3608   171.8646   719.0813

       T/K    H(0)-H(T)+PV         H(T)/Eh          T*S/Eh         G(T)/Eh
   ------------------------------------------------------------------------
    298.15    0.274975E-01    0.418902E+00    0.816584E-01    0.337244E+00
   ------------------------------------------------------------------------

         :::::::::::::::::::::::::::::::::::::::::::::::::::::
         ::                  THERMODYNAMIC                  ::
         :::::::::::::::::::::::::::::::::::::::::::::::::::::
         :: total free energy         -85.956015166209 Eh   ::
         ::.................................................::
         :: total energy              -86.293259098947 Eh   ::
         :: zero point energy           0.391404862487 Eh   ::
         :: G(RRHO) w/o ZPVE           -0.054160929749 Eh   ::
         :: G(RRHO) contrib.            0.337243932738 Eh   ::
         :::::::::::::::::::::::::::::::::::::::::::::::::::::

optimized geometry written to: xtbopt.xyz


           -------------------------------------------------
          | TOTAL ENERGY              -86.293259098947 Eh   |
          | TOTAL ENTHALPY            -85.874356767156 Eh   |
          | TOTAL FREE ENERGY         -85.956015166209 Eh   |
          | GRADIENT NORM               0.000046817467 Eh/α |
          | HOMO-LUMO GAP               0.689514821060 eV   |
           -------------------------------------------------

------------------------------------------------------------------------
 * finished run on 2025/09/07 at 01:23:21.029     
------------------------------------------------------------------------
 total:
 * wall-time:     0 d,  0 h,  0 min,  5.109 sec
 *  cpu-time:     0 d,  0 h,  3 min, 20.768 sec
 * ratio c/w:    39.296 speedup
 SCF:
 * wall-time:     0 d,  0 h,  0 min,  0.140 sec
 *  cpu-time:     0 d,  0 h,  0 min,  5.565 sec
 * ratio c/w:    39.807 speedup
 ANC optimizer:
 * wall-time:     0 d,  0 h,  0 min,  3.488 sec
 *  cpu-time:     0 d,  0 h,  2 min, 19.518 sec
 * ratio c/w:    39.995 speedup
 analytical hessian:
 * wall-time:     0 d,  0 h,  0 min,  1.361 sec
 *  cpu-time:     0 d,  0 h,  0 min, 51.444 sec
 * ratio c/w:    37.798 speedup

