 Entering Gaussian System
 *********************************************
 Gaussian 98:
 frequency output generated by the xtb code
 *********************************************
                         Standard orientation:
 --------------------------------------------------------------------
  Center     Atomic     Atomic              Coordinates (Angstroms)
  Number     Number      Type              X           Y           Z
 --------------------------------------------------------------------
    1          6             0        9.518120    0.319404   -4.087149
    2          6             0        8.175746    0.058352   -3.898205
    3          6             0        7.683338   -0.201219   -2.628147
    4          6             0        8.523715   -0.190201   -1.520976
    5          6             0        9.890498    0.036716   -1.730159
    6          6             0       10.377296    0.296698   -2.998169
    7          8             0       10.809331   -0.002626   -0.708004
    8          6             0       10.339972   -0.287230    0.553376
    9          6             0       11.277202   -0.335209    1.569098
   10          6             0       10.882215   -0.581924    2.875769
   11          6             0        9.542558   -0.759998    3.156868
   12          6             0        8.599471   -0.713909    2.141222
   13          6             0        8.981154   -0.501662    0.821685
   14          7             0        8.057759   -0.447203   -0.227899
   15          6             0        6.677910   -0.600322    0.015705
   16          6             0        6.181258   -1.792260    0.542582
   17          6             0        4.831877   -1.933088    0.789107
   18          6             0        3.951600   -0.886629    0.509670
   19          6             0        2.529393   -1.030811    0.779353
   20          7             0        2.108100   -2.075986    1.505293
   21          7             0        0.849358   -2.355061    1.473316
   22          6             0       -0.043121   -1.564708    0.897928
   23          6             0       -1.395265   -2.073022    0.713888
   24          6             0       -1.921842   -3.003874    1.610929
   25          6             0       -3.205576   -3.482804    1.450468
   26          6             0       -3.983654   -3.053860    0.377211
   27          7             0       -5.301539   -3.529984    0.210251
   28          6             0       -5.548383   -4.880151   -0.053407
   29          6             0       -4.528060   -5.818639   -0.149091
   30          6             0       -4.808957   -7.150379   -0.415547
   31          6             0       -6.111953   -7.565809   -0.601916
   32          6             0       -7.140167   -6.636206   -0.538760
   33          6             0       -6.864796   -5.307236   -0.275307
   34          8             0       -7.935422   -4.442497   -0.262518
   35          6             0       -7.675626   -3.119002    0.007797
   36          6             0       -8.759613   -2.261279    0.042538
   37          6             0       -8.580707   -0.917646    0.339978
   38          6             0       -7.314544   -0.446532    0.623603
   39          6             0       -6.224608   -1.303050    0.585902
   40          6             0       -6.381000   -2.643740    0.255327
   41          6             0       -3.450872   -2.147337   -0.537724
   42          6             0       -2.171954   -1.660396   -0.370666
   43          6             0        0.395081   -0.255340    0.534182
   44          6             0       -0.485477    0.897241    0.387587
   45          6             0       -1.657658    1.016203    1.136793
   46          6             0       -2.482956    2.107569    0.969497
   47          6             0       -2.159512    3.101146    0.046242
   48          7             0       -3.020903    4.201439   -0.138695
   49          6             0       -4.323588    4.009576   -0.609192
   50          6             0       -4.799640    2.760198   -0.988246
   51          6             0       -6.096084    2.602812   -1.454576
   52          6             0       -6.936491    3.693051   -1.558524
   53          6             0       -6.466427    4.953083   -1.217240
   54          6             0       -5.172685    5.114506   -0.756141
   55          8             0       -4.768763    6.398307   -0.472900
   56          6             0       -3.480927    6.571305   -0.021494
   57          6             0       -3.089783    7.865483    0.268426
   58          6             0       -1.817944    8.119008    0.761481
   59          6             0       -0.951336    7.066725    0.978450
   60          6             0       -1.338579    5.767400    0.686907
   61          6             0       -2.597038    5.499348    0.161920
   62          6             0       -0.979693    2.996970   -0.688055
   63          6             0       -0.148589    1.910922   -0.511300
   64          7             0        1.694324   -0.076736    0.378184
   65          6             0        4.450235    0.301921   -0.026632
   66          6             0        5.799179    0.444951   -0.268786
   67          1             0        9.906457    0.527793   -5.071608
   68          1             0        7.497444    0.049929   -4.737596
   69          1             0        6.635309   -0.419892   -2.497346
   70          1             0       11.435179    0.474384   -3.112117
   71          1             0       12.312623   -0.169800    1.315539
   72          1             0       11.620698   -0.621014    3.660920
   73          1             0        9.215386   -0.932460    4.170727
   74          1             0        7.555245   -0.835610    2.381153
   75          1             0        6.860230   -2.606366    0.748008
   76          1             0        4.437543   -2.852339    1.193603
   77          1             0       -1.313513   -3.327839    2.441117
   78          1             0       -3.616799   -4.186529    2.158735
   79          1             0       -3.503670   -5.505964   -0.022844
   80          1             0       -3.995756   -7.857036   -0.479349
   81          1             0       -6.337271   -8.600693   -0.805932
   82          1             0       -8.168004   -6.922278   -0.698526
   83          1             0       -9.737995   -2.666535   -0.163088
   84          1             0       -9.431900   -0.255514    0.360270
   85          1             0       -7.161850    0.591476    0.876110
   86          1             0       -5.241943   -0.928213    0.822829
   87          1             0       -4.047188   -1.832314   -1.381156
   88          1             0       -1.761231   -0.972727   -1.095268
   89          1             0       -1.905944    0.263876    1.870386
   90          1             0       -3.382987    2.203829    1.558153
   91          1             0       -4.148364    1.903335   -0.925564
   92          1             0       -6.440369    1.619267   -1.734887
   93          1             0       -7.948119    3.576296   -1.913830
   94          1             0       -7.088900    5.829548   -1.307016
   95          1             0       -3.799510    8.661618    0.106670
   96          1             0       -1.521310    9.132251    0.982080
   97          1             0        0.034205    7.244508    1.380660
   98          1             0       -0.657120    4.953616    0.878012
   99          1             0       -0.726056    3.767624   -1.400525
  100          1             0        0.761365    1.818115   -1.083769
  101          1             0        3.766357    1.111120   -0.229975
  102          1             0        6.186852    1.369205   -0.671138
 --------------------------------------------------------------------
     1 basis functions        1 primitive gaussians
     1 alpha electrons        1 beta electrons
 
 Harmonic frequencies (cm**-1), IR intensities (km*mol⁻¹),
 Raman scattering activities (A**4/amu), Raman depolarization ratios,
 reduced masses (AMU), force constants (mDyne/A) and normal coordinates:
                      1                      2                      3
                        a                      a                      a 
 Frequencies --     7.5062                12.0735                12.9471
 Red. masses --    11.7168                11.5313                11.1562
 Frc consts  --     0.0000                 0.0000                 0.0000
 IR Inten    --     0.0424                 0.0436                 0.0657
 Raman Activ --     0.0000                 0.0000                 0.0000
 Depolar     --     0.0000                 0.0000                 0.0000
 Atom AN      X      Y      Z        X      Y      Z        X      Y      Z
   1   6     0.16   0.14   0.08     0.13  -0.29  -0.01    -0.01   0.23   0.05
   2   6     0.15   0.12   0.03     0.12  -0.24  -0.02    -0.01   0.25   0.05
   3   6     0.11   0.08   0.00     0.09  -0.15  -0.02    -0.00   0.17   0.03
   4   6     0.07   0.07   0.03     0.06  -0.11  -0.00     0.01   0.05   0.02
   5   6     0.07   0.09   0.09     0.07  -0.16   0.01     0.01   0.02   0.02
   6   6     0.12   0.13   0.12     0.11  -0.25   0.01     0.01   0.11   0.04
   7   8     0.04   0.10   0.15     0.06  -0.15   0.04     0.03  -0.10   0.01
   8   6    -0.01   0.06   0.10     0.02  -0.06   0.04     0.03  -0.16  -0.01
   9   6    -0.05   0.06   0.14    -0.00  -0.03   0.06     0.04  -0.27  -0.02
  10   6    -0.10   0.03   0.12    -0.04   0.04   0.06     0.05  -0.34  -0.04
  11   6    -0.11   0.00   0.06    -0.05   0.10   0.05     0.05  -0.31  -0.03
  12   6    -0.07   0.00   0.03    -0.03   0.07   0.03     0.04  -0.21  -0.02
  13   6    -0.02   0.03   0.05     0.01  -0.00   0.02     0.03  -0.13  -0.01
  14   7     0.02   0.04   0.01     0.03  -0.03   0.00     0.02  -0.03   0.01
  15   6     0.02   0.01  -0.04     0.02  -0.00  -0.02     0.02  -0.01   0.01
  16   6     0.02  -0.01  -0.08     0.00   0.02   0.03    -0.01  -0.03  -0.05
  17   6     0.01  -0.03  -0.12    -0.00   0.05   0.02    -0.01  -0.01  -0.05
  18   6     0.01  -0.04  -0.12     0.01   0.04  -0.04     0.01   0.03   0.02
  19   6     0.00  -0.06  -0.14     0.01   0.06  -0.04     0.01   0.04   0.03
  20   7     0.01  -0.07  -0.16     0.01   0.09  -0.02     0.01   0.04   0.02
  21   7     0.01  -0.07  -0.15     0.01   0.09  -0.02     0.01   0.04   0.03
  22   6     0.00  -0.06  -0.12     0.01   0.07  -0.03     0.01   0.05   0.03
  23   6    -0.01  -0.05  -0.09     0.01   0.06  -0.03     0.01   0.05   0.03
  24   6     0.01  -0.04  -0.08     0.03   0.05  -0.03     0.01   0.04   0.02
  25   6     0.00  -0.03  -0.04     0.03   0.04  -0.03     0.02   0.04   0.02
  26   6    -0.03  -0.01  -0.02     0.02   0.04  -0.03     0.02   0.04   0.02
  27   7    -0.04   0.00   0.02     0.03   0.02  -0.03     0.02   0.03   0.02
  28   6    -0.07   0.01   0.03     0.05   0.02  -0.04     0.03   0.03  -0.00
  29   6    -0.08  -0.01  -0.01     0.06   0.04  -0.06     0.04   0.04  -0.01
  30   6    -0.11  -0.00  -0.01     0.08   0.04  -0.08     0.05   0.04  -0.03
  31   6    -0.12   0.02   0.04     0.08   0.02  -0.08     0.05   0.04  -0.04
  32   6    -0.11   0.03   0.08     0.07   0.01  -0.06     0.04   0.03  -0.03
  33   6    -0.08   0.02   0.07     0.05   0.01  -0.04     0.03   0.02  -0.01
  34   8    -0.08   0.04   0.13     0.05  -0.01  -0.03     0.03   0.02   0.00
  35   6    -0.04   0.03   0.11     0.02  -0.01   0.00     0.02   0.01   0.02
  36   6    -0.03   0.05   0.16     0.01  -0.03   0.03     0.01   0.00   0.04
  37   6    -0.00   0.04   0.16    -0.01  -0.03   0.05    -0.00   0.00   0.06
  38   6     0.01   0.03   0.12    -0.01  -0.02   0.05    -0.00   0.01   0.06
  39   6     0.00   0.01   0.07    -0.00   0.00   0.02     0.00   0.02   0.05
  40   6    -0.03   0.02   0.07     0.02   0.01  -0.00     0.01   0.02   0.03
  41   6    -0.04  -0.02  -0.03     0.01   0.05  -0.02     0.01   0.04   0.02
  42   6    -0.03  -0.03  -0.07     0.01   0.06  -0.02     0.01   0.05   0.03
  43   6     0.00  -0.06  -0.12     0.01   0.07  -0.04     0.02   0.04   0.03
  44   6     0.00  -0.05  -0.11     0.01   0.06  -0.04     0.01   0.04   0.02
  45   6     0.03  -0.04  -0.08     0.02   0.06  -0.02     0.02   0.05   0.02
  46   6     0.03  -0.03  -0.06     0.01   0.05  -0.01     0.00   0.03   0.01
  47   6     0.02  -0.04  -0.07    -0.02   0.04  -0.02    -0.01   0.02  -0.02
  48   7     0.03  -0.03  -0.05    -0.05   0.03  -0.01    -0.03  -0.00  -0.04
  49   6     0.00  -0.02   0.02    -0.06  -0.01   0.05    -0.04  -0.04  -0.01
  50   6    -0.02  -0.01   0.03    -0.04  -0.01   0.04    -0.01  -0.06   0.02
  51   6    -0.05  -0.00   0.09    -0.06  -0.05   0.11    -0.02  -0.10   0.05
  52   6    -0.05   0.00   0.14    -0.10  -0.08   0.19    -0.05  -0.12   0.06
  53   6    -0.02  -0.00   0.13    -0.13  -0.07   0.19    -0.08  -0.10   0.03
  54   6    -0.00  -0.01   0.07    -0.11  -0.03   0.13    -0.07  -0.06  -0.00
  55   8     0.02  -0.02   0.07    -0.17  -0.03   0.16    -0.11  -0.06  -0.04
  56   6     0.04  -0.03  -0.00    -0.12   0.01   0.06    -0.09  -0.01  -0.08
  57   6     0.06  -0.03  -0.01    -0.15   0.02   0.06    -0.11   0.01  -0.12
  58   6     0.09  -0.04  -0.08    -0.12   0.06  -0.02    -0.10   0.05  -0.16
  59   6     0.09  -0.05  -0.13    -0.07   0.08  -0.10    -0.07   0.08  -0.16
  60   6     0.07  -0.04  -0.11    -0.05   0.08  -0.09    -0.05   0.06  -0.12
  61   6     0.05  -0.03  -0.05    -0.07   0.04  -0.02    -0.05   0.02  -0.08
  62   6    -0.01  -0.05  -0.10    -0.04   0.05  -0.05    -0.01   0.02  -0.02
  63   6    -0.01  -0.06  -0.12    -0.02   0.06  -0.05    -0.00   0.03   0.00
  64   7     0.00  -0.06  -0.14     0.01   0.07  -0.06     0.02   0.05   0.03
  65   6     0.00  -0.02  -0.08     0.03   0.01  -0.09     0.04   0.05   0.09
  66   6     0.01  -0.00  -0.05     0.03  -0.01  -0.08     0.04   0.03   0.09
  67   1     0.06   0.05   0.03     0.05  -0.10  -0.00    -0.00   0.08   0.02
  68   1     0.05   0.04   0.00     0.04  -0.08  -0.01    -0.01   0.10   0.02
  69   1     0.03   0.02  -0.01     0.02  -0.03  -0.01    -0.00   0.05   0.01
  70   1     0.03   0.04   0.05     0.03  -0.08   0.01     0.00   0.02   0.01
  71   1    -0.01   0.02   0.05     0.00  -0.02   0.02     0.01  -0.08  -0.01
  72   1    -0.04   0.01   0.04    -0.02   0.02   0.02     0.02  -0.12  -0.01
  73   1    -0.04  -0.01   0.01    -0.02   0.05   0.01     0.02  -0.11  -0.01
  74   1    -0.02  -0.01  -0.00    -0.01   0.03   0.00     0.01  -0.05  -0.00
  75   1     0.01  -0.00  -0.02    -0.00   0.01   0.02    -0.01  -0.02  -0.03
  76   1     0.00  -0.01  -0.04    -0.00   0.02   0.02    -0.01  -0.01  -0.03
  77   1     0.01  -0.02  -0.03     0.01   0.02  -0.01     0.00   0.01   0.01
  78   1     0.00  -0.01  -0.01     0.01   0.01  -0.01     0.01   0.01   0.01
  79   1    -0.02  -0.01  -0.01     0.02   0.02  -0.02     0.01   0.01  -0.00
  80   1    -0.03  -0.00  -0.01     0.03   0.01  -0.03     0.02   0.01  -0.01
  81   1    -0.04   0.01   0.01     0.03   0.01  -0.03     0.02   0.01  -0.02
  82   1    -0.03   0.01   0.03     0.02  -0.00  -0.02     0.01   0.01  -0.01
  83   1    -0.01   0.02   0.05     0.00  -0.01   0.01     0.00   0.00   0.01
  84   1     0.00   0.02   0.06    -0.01  -0.01   0.02    -0.00  -0.00   0.02
  85   1     0.01   0.01   0.03    -0.01  -0.01   0.02    -0.00   0.00   0.02
  86   1     0.00  -0.00   0.01    -0.00   0.00   0.01     0.00   0.01   0.02
  87   1    -0.02  -0.00  -0.00     0.00   0.01  -0.01     0.00   0.01   0.01
  88   1    -0.01  -0.01  -0.02    -0.00   0.02  -0.01     0.00   0.01   0.01
  89   1     0.01  -0.01  -0.02     0.01   0.02  -0.00     0.01   0.02   0.01
  90   1     0.01  -0.01  -0.01     0.01   0.01   0.00     0.00   0.01   0.00
  91   1    -0.01  -0.00  -0.00    -0.00   0.00  -0.00     0.00  -0.01   0.00
  92   1    -0.02   0.00   0.03    -0.01  -0.02   0.03     0.00  -0.03   0.02
  93   1    -0.02   0.00   0.05    -0.03  -0.03   0.07    -0.02  -0.04   0.02
  94   1    -0.01   0.00   0.05    -0.05  -0.03   0.07    -0.03  -0.04   0.01
  95   1     0.02  -0.01   0.01    -0.05  -0.00   0.03    -0.04  -0.00  -0.03
  96   1     0.03  -0.01  -0.02    -0.04   0.02  -0.01    -0.03   0.02  -0.06
  97   1     0.03  -0.02  -0.05    -0.02   0.03  -0.05    -0.02   0.03  -0.06
  98   1     0.02  -0.01  -0.04    -0.00   0.03  -0.04    -0.01   0.02  -0.04
  99   1    -0.01  -0.02  -0.03    -0.02   0.01  -0.02    -0.01   0.00  -0.01
 100   1    -0.01  -0.02  -0.04    -0.01   0.02  -0.02    -0.00   0.01  -0.00
 101   1    -0.00  -0.01  -0.02     0.01   0.00  -0.04     0.02   0.02   0.04
 102   1     0.00   0.00  -0.01     0.01  -0.01  -0.04     0.02   0.01   0.04
                      4                      5                      6
                        a                      a                      a 
 Frequencies --    14.3420                15.5823                20.4037
 Red. masses --    11.6578                11.3058                11.3721
 Frc consts  --     0.0000                 0.0000                 0.0000
 IR Inten    --     0.1214                 0.0213                 0.0364
 Raman Activ --     0.0000                 0.0000                 0.0000
 Depolar     --     0.0000                 0.0000                 0.0000
 Atom AN      X      Y      Z        X      Y      Z        X      Y      Z
   1   6    -0.02   0.01   0.01    -0.13  -0.03  -0.02    -0.05   0.06  -0.00
   2   6    -0.02   0.02   0.01    -0.12  -0.07   0.02    -0.04   0.03   0.00
   3   6    -0.03   0.02   0.00    -0.08  -0.06   0.03    -0.03   0.00   0.00
   4   6    -0.03  -0.00   0.01    -0.05  -0.01   0.01    -0.02   0.01  -0.00
   5   6    -0.03  -0.01   0.01    -0.06   0.03  -0.03    -0.03   0.04  -0.01
   6   6    -0.02  -0.01   0.02    -0.10   0.02  -0.05    -0.04   0.07  -0.01
   7   8    -0.04  -0.03   0.02    -0.04   0.10  -0.06    -0.02   0.06  -0.01
   8   6    -0.04  -0.03   0.01     0.00   0.09  -0.03    -0.01   0.03  -0.01
   9   6    -0.04  -0.05   0.01     0.03   0.14  -0.06    -0.00   0.04  -0.02
  10   6    -0.05  -0.05   0.01     0.07   0.15  -0.04     0.01   0.01  -0.02
  11   6    -0.05  -0.04   0.01     0.09   0.11  -0.00     0.02  -0.02  -0.01
  12   6    -0.05  -0.02   0.00     0.06   0.06   0.02     0.01  -0.03  -0.01
  13   6    -0.04  -0.02   0.01     0.02   0.05   0.01    -0.00  -0.01  -0.01
  14   7    -0.04  -0.00   0.00    -0.01   0.01   0.03    -0.01  -0.02  -0.00
  15   6    -0.04   0.00  -0.00    -0.00  -0.00   0.06    -0.01  -0.02   0.00
  16   6    -0.05   0.00  -0.01     0.02  -0.00   0.09    -0.00  -0.02   0.00
  17   6    -0.05   0.01  -0.01     0.02  -0.01   0.11    -0.00  -0.02   0.01
  18   6    -0.04   0.02  -0.00     0.00  -0.03   0.09    -0.01  -0.03   0.01
  19   6    -0.04   0.03  -0.00     0.00  -0.04   0.09    -0.01  -0.02   0.01
  20   7    -0.04   0.04   0.01    -0.00  -0.05   0.08    -0.01  -0.01   0.03
  21   7    -0.04   0.04   0.02    -0.00  -0.05   0.07    -0.01  -0.00   0.05
  22   6    -0.04   0.03   0.01     0.00  -0.04   0.06    -0.01  -0.01   0.03
  23   6    -0.04   0.02   0.01     0.00  -0.04   0.04    -0.01  -0.00   0.04
  24   6    -0.01  -0.00   0.00    -0.00  -0.06   0.01    -0.03   0.04   0.08
  25   6    -0.00  -0.03  -0.01    -0.01  -0.05  -0.01    -0.03   0.05   0.08
  26   6    -0.01  -0.04  -0.00    -0.00  -0.01   0.00    -0.01   0.00   0.05
  27   7     0.00  -0.08  -0.01    -0.01   0.01  -0.02    -0.01  -0.01   0.04
  28   6     0.05  -0.08  -0.03    -0.03   0.03  -0.09    -0.00  -0.02   0.07
  29   6     0.09  -0.04  -0.05    -0.04   0.02  -0.13    -0.01  -0.04   0.22
  30   6     0.14  -0.05  -0.07    -0.06   0.04  -0.21    -0.01  -0.05   0.25
  31   6     0.15  -0.10  -0.06    -0.06   0.07  -0.25     0.00  -0.04   0.14
  32   6     0.12  -0.14  -0.03    -0.05   0.09  -0.21     0.01  -0.02   0.00
  33   6     0.07  -0.13  -0.02    -0.03   0.07  -0.14     0.01  -0.01  -0.03
  34   8     0.04  -0.20   0.01    -0.02   0.10  -0.11     0.03   0.01  -0.21
  35   6    -0.01  -0.17   0.02     0.00   0.06  -0.01     0.01   0.01  -0.19
  36   6    -0.05  -0.21   0.05     0.02   0.08   0.03     0.02   0.03  -0.30
  37   6    -0.10  -0.21   0.06     0.04   0.06   0.11     0.01   0.03  -0.31
  38   6    -0.11  -0.16   0.05     0.04   0.02   0.15    -0.01   0.02  -0.20
  39   6    -0.08  -0.12   0.03     0.03   0.00   0.11    -0.02   0.01  -0.09
  40   6    -0.03  -0.12   0.01     0.01   0.03   0.03    -0.01   0.00  -0.08
  41   6    -0.04  -0.01   0.01     0.01   0.01   0.03     0.00  -0.04   0.02
  42   6    -0.05   0.02   0.02     0.01  -0.01   0.05     0.00  -0.04   0.02
  43   6    -0.04   0.03  -0.01     0.01  -0.04   0.07    -0.00  -0.02  -0.01
  44   6    -0.03   0.03  -0.01     0.01  -0.04   0.06     0.00  -0.02  -0.04
  45   6    -0.03   0.05  -0.01     0.02  -0.02   0.06     0.01   0.01  -0.03
  46   6    -0.01   0.06  -0.00     0.02  -0.02   0.05     0.02   0.02  -0.04
  47   6     0.00   0.06  -0.00     0.02  -0.04   0.03     0.03  -0.00  -0.06
  48   7     0.03   0.09   0.01     0.02  -0.04   0.01     0.05   0.01  -0.05
  49   6     0.01   0.11   0.04     0.01  -0.05   0.05     0.01   0.01   0.03
  50   6    -0.05   0.12   0.09    -0.01  -0.06   0.10     0.02   0.02  -0.02
  51   6    -0.07   0.16   0.12    -0.03  -0.07   0.15    -0.01   0.02   0.07
  52   6    -0.02   0.19   0.10    -0.02  -0.07   0.14    -0.05   0.00   0.20
  53   6     0.03   0.18   0.05    -0.01  -0.06   0.08    -0.06  -0.01   0.25
  54   6     0.05   0.14   0.02     0.01  -0.05   0.04    -0.03  -0.00   0.17
  55   8     0.13   0.16  -0.04     0.03  -0.05  -0.03    -0.04  -0.01   0.26
  56   6     0.12   0.10  -0.06     0.04  -0.03  -0.09     0.01  -0.01   0.08
  57   6     0.17   0.10  -0.11     0.07  -0.02  -0.17     0.02  -0.01   0.09
  58   6     0.19   0.06  -0.13     0.09  -0.00  -0.24     0.07   0.00  -0.05
  59   6     0.15   0.03  -0.10     0.09   0.00  -0.21     0.11   0.01  -0.18
  60   6     0.09   0.04  -0.06     0.06  -0.01  -0.13     0.11   0.02  -0.18
  61   6     0.08   0.07  -0.04     0.04  -0.03  -0.07     0.05   0.01  -0.05
  62   6    -0.01   0.04  -0.01     0.01  -0.06   0.02     0.01  -0.04  -0.08
  63   6    -0.02   0.02  -0.02     0.01  -0.06   0.03     0.00  -0.04  -0.06
  64   7    -0.04   0.02  -0.01     0.01  -0.04   0.09    -0.00  -0.03  -0.01
  65   6    -0.03   0.02   0.00    -0.01  -0.03   0.08    -0.01  -0.02   0.01
  66   6    -0.03   0.01   0.00    -0.02  -0.02   0.06    -0.01  -0.02   0.01
  67   1    -0.00   0.00   0.00    -0.05  -0.01  -0.01    -0.02   0.02  -0.00
  68   1    -0.01   0.01   0.00    -0.04  -0.03   0.01    -0.01   0.01   0.00
  69   1    -0.01   0.01  -0.00    -0.02  -0.02   0.02    -0.01  -0.01   0.00
  70   1    -0.01  -0.00   0.01    -0.03   0.02  -0.02    -0.01   0.03  -0.00
  71   1    -0.01  -0.02   0.01     0.01   0.05  -0.02    -0.00   0.02  -0.01
  72   1    -0.01  -0.02   0.00     0.03   0.06  -0.02     0.00   0.01  -0.01
  73   1    -0.02  -0.01   0.00     0.03   0.03   0.00     0.01  -0.01  -0.00
  74   1    -0.01  -0.00   0.00     0.02   0.01   0.01     0.00  -0.02  -0.00
  75   1    -0.01  -0.00  -0.00     0.01   0.00   0.03    -0.00  -0.01  -0.00
  76   1    -0.02   0.00  -0.00     0.01  -0.00   0.04    -0.00  -0.01   0.00
  77   1    -0.00   0.00  -0.00    -0.00  -0.03   0.00    -0.01   0.02   0.03
  78   1     0.00  -0.02  -0.01    -0.00  -0.02  -0.01    -0.01   0.02   0.03
  79   1     0.02  -0.00  -0.02    -0.01  -0.00  -0.03    -0.00  -0.02   0.09
  80   1     0.05  -0.00  -0.03    -0.02   0.01  -0.07    -0.00  -0.02   0.11
  81   1     0.06  -0.03  -0.02    -0.02   0.03  -0.09     0.00  -0.01   0.05
  82   1     0.04  -0.05  -0.01    -0.01   0.03  -0.07     0.01  -0.00  -0.03
  83   1    -0.01  -0.07   0.02     0.00   0.03  -0.00     0.01   0.01  -0.11
  84   1    -0.04  -0.07   0.02     0.01   0.02   0.04     0.00   0.01  -0.12
  85   1    -0.04  -0.05   0.02     0.02   0.00   0.06    -0.01   0.01  -0.06
  86   1    -0.03  -0.02   0.01     0.01  -0.01   0.04    -0.01  -0.00  -0.00
  87   1    -0.01  -0.00   0.01     0.00   0.01   0.01     0.00  -0.02   0.00
  88   1    -0.02   0.01   0.01     0.01   0.00   0.02     0.00  -0.02  -0.00
  89   1    -0.01   0.02  -0.00     0.01  -0.00   0.02     0.00   0.01  -0.00
  90   1    -0.00   0.02   0.00     0.01   0.00   0.02     0.01   0.01  -0.01
  91   1    -0.02   0.03   0.03    -0.00  -0.02   0.03     0.01   0.01  -0.03
  92   1    -0.03   0.05   0.05    -0.01  -0.02   0.05    -0.00   0.01   0.01
  93   1    -0.01   0.06   0.04    -0.01  -0.02   0.05    -0.02  -0.00   0.08
  94   1     0.02   0.06   0.01    -0.00  -0.02   0.02    -0.02  -0.01   0.10
  95   1     0.06   0.03  -0.04     0.02  -0.01  -0.05    -0.01  -0.00   0.06
  96   1     0.07   0.02  -0.05     0.03   0.00  -0.09     0.02   0.00  -0.01
  97   1     0.05   0.00  -0.03     0.03   0.00  -0.07     0.04   0.01  -0.08
  98   1     0.02   0.01  -0.01     0.02  -0.00  -0.03     0.04   0.01  -0.08
  99   1    -0.00   0.01  -0.01     0.00  -0.02  -0.00     0.00  -0.02  -0.03
 100   1    -0.01   0.00  -0.01     0.00  -0.02   0.01    -0.00  -0.02  -0.02
 101   1    -0.01   0.01   0.00    -0.01  -0.01   0.02    -0.00  -0.01   0.00
 102   1    -0.01   0.00   0.00    -0.01  -0.01   0.01    -0.00  -0.01   0.00
                      7                      8                      9
                        a                      a                      a 
 Frequencies --    24.9684                28.7998                34.8097
 Red. masses --    11.3243                11.4114                11.3430
 Frc consts  --     0.0000                 0.0000                 0.0000
 IR Inten    --     0.1607                 0.1448                 0.9078
 Raman Activ --     0.0000                 0.0000                 0.0000
 Depolar     --     0.0000                 0.0000                 0.0000
 Atom AN      X      Y      Z        X      Y      Z        X      Y      Z
   1   6     0.16   0.04  -0.01     0.06  -0.06  -0.01    -0.01   0.02   0.01
   2   6     0.15   0.01  -0.08     0.02   0.12  -0.00     0.00  -0.07   0.00
   3   6     0.10  -0.02  -0.10     0.00   0.19   0.00     0.01  -0.10  -0.00
   4   6     0.05  -0.01  -0.06     0.01   0.08  -0.00     0.00  -0.04   0.00
   5   6     0.05   0.02   0.00     0.04  -0.11  -0.02    -0.01   0.05   0.01
   6   6     0.10   0.05   0.03     0.06  -0.17  -0.02    -0.02   0.08   0.02
   7   8     0.00   0.04   0.06     0.06  -0.27  -0.03    -0.02   0.14   0.03
   8   6    -0.05   0.03   0.03     0.02  -0.12  -0.02    -0.00   0.04   0.01
   9   6    -0.10   0.06   0.07     0.02  -0.21  -0.02    -0.00   0.06   0.01
  10   6    -0.16   0.05   0.05    -0.01  -0.10  -0.01     0.02  -0.02  -0.00
  11   6    -0.17   0.01  -0.01    -0.03   0.11   0.01     0.03  -0.11  -0.01
  12   6    -0.12  -0.03  -0.06    -0.03   0.19   0.01     0.02  -0.12  -0.01
  13   6    -0.06  -0.01  -0.04    -0.01   0.07   0.00     0.01  -0.05   0.00
  14   7    -0.01  -0.05  -0.10    -0.01   0.16   0.01     0.01  -0.07   0.00
  15   6    -0.02  -0.06  -0.14    -0.00   0.15   0.01     0.01  -0.05  -0.00
  16   6    -0.01  -0.06  -0.15     0.02   0.14   0.02    -0.02  -0.03   0.01
  17   6    -0.01  -0.07  -0.14     0.02   0.12   0.02    -0.02  -0.00   0.01
  18   6    -0.01  -0.06  -0.12    -0.00   0.10   0.01    -0.00   0.00  -0.00
  19   6    -0.00  -0.04  -0.06     0.00   0.06   0.00    -0.00   0.03   0.01
  20   7     0.02  -0.04  -0.04     0.03   0.06   0.01     0.00   0.08   0.08
  21   7     0.01  -0.02   0.02     0.04   0.02   0.01     0.00   0.08   0.10
  22   6    -0.00   0.00   0.06     0.02  -0.02  -0.00     0.00   0.03   0.04
  23   6    -0.01   0.02   0.10     0.03  -0.05   0.00     0.00   0.02   0.08
  24   6    -0.01   0.03   0.11     0.05  -0.06   0.01     0.01   0.05   0.12
  25   6    -0.01   0.03   0.12     0.05  -0.07   0.02     0.01   0.04   0.15
  26   6    -0.02   0.02   0.12     0.04  -0.08   0.03     0.01  -0.00   0.14
  27   7    -0.01   0.00   0.12     0.03  -0.07   0.06     0.01  -0.02   0.17
  28   6     0.01   0.01   0.05    -0.02  -0.05   0.03     0.02   0.00   0.05
  29   6     0.01   0.01   0.13    -0.06  -0.10   0.11     0.03   0.01   0.07
  30   6     0.03   0.02   0.06    -0.10  -0.09   0.09     0.04   0.03  -0.05
  31   6     0.05   0.03  -0.08    -0.11  -0.02  -0.02     0.05   0.05  -0.20
  32   6     0.05   0.03  -0.16    -0.07   0.03  -0.09     0.05   0.05  -0.21
  33   6     0.03   0.03  -0.09    -0.02   0.02  -0.07     0.04   0.03  -0.08
  34   8     0.04   0.04  -0.20     0.02   0.08  -0.17     0.04   0.03  -0.09
  35   6     0.01   0.02  -0.09     0.05   0.04  -0.07     0.02   0.01   0.03
  36   6     0.01   0.02  -0.16     0.08   0.08  -0.09     0.03   0.01   0.02
  37   6    -0.01   0.01  -0.09     0.12   0.06  -0.02     0.02  -0.00   0.10
  38   6    -0.04  -0.01   0.05     0.12  -0.00   0.08     0.01  -0.03   0.19
  39   6    -0.04  -0.01   0.12     0.09  -0.04   0.11     0.01  -0.03   0.21
  40   6    -0.01   0.00   0.05     0.06  -0.02   0.03     0.01  -0.01   0.13
  41   6    -0.03   0.03   0.12     0.02  -0.08   0.02    -0.01  -0.04   0.10
  42   6    -0.03   0.03   0.11     0.02  -0.07   0.00    -0.01  -0.03   0.06
  43   6     0.00   0.00   0.06    -0.02  -0.01  -0.02    -0.00   0.01  -0.04
  44   6     0.01   0.01   0.10    -0.05  -0.03  -0.02    -0.01   0.00  -0.10
  45   6     0.03   0.01   0.13    -0.05  -0.05  -0.02    -0.01   0.02  -0.11
  46   6     0.02   0.01   0.14    -0.06  -0.05  -0.01    -0.02   0.01  -0.16
  47   6     0.00   0.01   0.13    -0.07  -0.05  -0.01    -0.02  -0.02  -0.19
  48   7    -0.02  -0.01   0.13    -0.07  -0.03   0.02     0.00  -0.00  -0.21
  49   6     0.00  -0.03   0.07    -0.07   0.01   0.02    -0.02   0.03  -0.14
  50   6     0.01  -0.05   0.13    -0.12   0.02   0.05    -0.06   0.04  -0.15
  51   6     0.03  -0.06   0.07    -0.12   0.06   0.05    -0.08   0.07  -0.09
  52   6     0.05  -0.06  -0.04    -0.08   0.09   0.02    -0.07   0.09  -0.03
  53   6     0.05  -0.04  -0.10    -0.02   0.08  -0.02    -0.04   0.07  -0.01
  54   6     0.02  -0.03  -0.05    -0.02   0.04  -0.02    -0.02   0.04  -0.06
  55   8     0.03  -0.01  -0.14     0.04   0.04  -0.07     0.01   0.03  -0.03
  56   6     0.00   0.01  -0.07     0.03  -0.01  -0.03    -0.00  -0.02   0.03
  57   6     0.01   0.02  -0.14     0.08  -0.02  -0.04    -0.01  -0.05   0.18
  58   6    -0.02   0.04  -0.09     0.07  -0.07  -0.01    -0.02  -0.09   0.23
  59   6    -0.04   0.04   0.03     0.02  -0.10   0.03    -0.02  -0.11   0.12
  60   6    -0.04   0.03   0.10    -0.02  -0.09   0.04    -0.01  -0.08  -0.02
  61   6    -0.02   0.01   0.05    -0.02  -0.04   0.01    -0.00  -0.03  -0.06
  62   6    -0.01   0.02   0.12    -0.08  -0.04  -0.02    -0.02  -0.04  -0.18
  63   6    -0.00   0.02   0.10    -0.07  -0.03  -0.03    -0.02  -0.03  -0.14
  64   7    -0.00  -0.02  -0.01    -0.03   0.03  -0.01    -0.00   0.00  -0.06
  65   6    -0.02  -0.06  -0.14    -0.02   0.11   0.01     0.02  -0.02  -0.03
  66   6    -0.02  -0.06  -0.15    -0.02   0.13   0.01     0.02  -0.04  -0.03
  67   1     0.06   0.02   0.00     0.02  -0.03  -0.01    -0.01   0.01   0.00
  68   1     0.06  -0.00  -0.03     0.00   0.06   0.00     0.00  -0.03  -0.00
  69   1     0.03  -0.01  -0.04    -0.01   0.09   0.00     0.01  -0.05  -0.00
  70   1     0.03   0.02   0.02     0.03  -0.09  -0.01    -0.01   0.04   0.01
  71   1    -0.03   0.03   0.04     0.01  -0.11  -0.01    -0.00   0.04   0.00
  72   1    -0.06   0.02   0.03    -0.00  -0.05  -0.00     0.01  -0.00  -0.00
  73   1    -0.06  -0.00  -0.01    -0.01   0.06   0.01     0.01  -0.05  -0.00
  74   1    -0.04  -0.02  -0.03    -0.01   0.10   0.01     0.01  -0.06  -0.00
  75   1    -0.00  -0.02  -0.05     0.01   0.05   0.01    -0.01  -0.01   0.01
  76   1    -0.00  -0.02  -0.04     0.01   0.03   0.01    -0.01   0.00   0.01
  77   1    -0.00   0.01   0.03     0.02  -0.01   0.00     0.01   0.03   0.04
  78   1    -0.00   0.01   0.04     0.02  -0.02   0.01     0.01   0.02   0.05
  79   1     0.00  -0.00   0.07    -0.01  -0.04   0.06     0.00  -0.00   0.05
  80   1     0.01   0.00   0.04    -0.04  -0.04   0.04     0.01   0.01  -0.01
  81   1     0.02   0.01  -0.04    -0.04  -0.00  -0.01     0.02   0.02  -0.09
  82   1     0.02   0.01  -0.08    -0.02   0.02  -0.05     0.02   0.02  -0.09
  83   1     0.01   0.01  -0.08     0.02   0.04  -0.05     0.01   0.01  -0.02
  84   1    -0.00   0.00  -0.04     0.04   0.03  -0.01     0.01   0.00   0.03
  85   1    -0.02  -0.01   0.03     0.04  -0.01   0.04     0.00  -0.01   0.07
  86   1    -0.02  -0.01   0.06     0.03  -0.03   0.05    -0.00  -0.02   0.08
  87   1    -0.01   0.01   0.04     0.00  -0.03   0.01    -0.01  -0.02   0.03
  88   1    -0.01   0.01   0.03     0.00  -0.02  -0.00    -0.00  -0.02   0.01
  89   1     0.01   0.00   0.04    -0.01  -0.01  -0.01    -0.00   0.01  -0.02
  90   1     0.01   0.00   0.04    -0.02  -0.02  -0.00    -0.01   0.01  -0.05
  91   1    -0.00  -0.01   0.06    -0.05  -0.00   0.02    -0.02   0.01  -0.06
  92   1     0.01  -0.02   0.04    -0.05   0.02   0.02    -0.03   0.02  -0.03
  93   1     0.02  -0.02  -0.02    -0.02   0.04   0.00    -0.02   0.03   0.00
  94   1     0.02  -0.01  -0.06     0.00   0.03  -0.01    -0.01   0.02   0.01
  95   1     0.01   0.01  -0.07     0.03   0.00  -0.02    -0.00  -0.01   0.07
  96   1    -0.00   0.02  -0.04     0.03  -0.02  -0.01    -0.01  -0.03   0.10
  97   1    -0.02   0.02   0.02     0.01  -0.04   0.02    -0.01  -0.04   0.04
  98   1    -0.02   0.01   0.05    -0.02  -0.03   0.02    -0.00  -0.03  -0.03
  99   1    -0.01   0.01   0.03    -0.03  -0.01  -0.01    -0.01  -0.02  -0.06
 100   1    -0.00   0.01   0.02    -0.02  -0.01  -0.01    -0.00  -0.01  -0.04
 101   1    -0.01  -0.02  -0.04    -0.01   0.03   0.00     0.01  -0.00  -0.01
 102   1    -0.01  -0.02  -0.04    -0.01   0.04   0.01     0.01  -0.02  -0.01
                     10                     11                     12
                        a                      a                      a 
 Frequencies --    37.6948                40.7720                44.9837
 Red. masses --    11.4805                11.5012                11.4977
 Frc consts  --     0.0000                 0.0000                 0.0000
 IR Inten    --     0.8642                 0.5411                 0.6883
 Raman Activ --     0.0000                 0.0000                 0.0000
 Depolar     --     0.0000                 0.0000                 0.0000
 Atom AN      X      Y      Z        X      Y      Z        X      Y      Z
   1   6    -0.03  -0.07   0.01     0.03   0.06  -0.00    -0.07  -0.05   0.01
   2   6     0.00  -0.20   0.02     0.03   0.03  -0.04    -0.07  -0.01   0.05
   3   6     0.02  -0.20   0.03     0.01  -0.01  -0.06    -0.05   0.02   0.07
   4   6     0.02  -0.06   0.03    -0.02  -0.02  -0.04    -0.02   0.02   0.05
   5   6    -0.01   0.08   0.03    -0.02   0.01  -0.00    -0.02  -0.01   0.01
   6   6    -0.03   0.08   0.02     0.01   0.05   0.02    -0.05  -0.05  -0.01
   7   8    -0.02   0.28   0.05    -0.05  -0.00   0.02     0.01  -0.02  -0.02
   8   6     0.03   0.09   0.02    -0.07  -0.01   0.01     0.03  -0.00  -0.00
   9   6     0.04   0.09   0.00    -0.10   0.02   0.03     0.06  -0.02  -0.03
  10   6     0.09  -0.06  -0.01    -0.13   0.01   0.02     0.09  -0.00  -0.01
  11   6     0.11  -0.22  -0.01    -0.14  -0.02  -0.01     0.09   0.03   0.02
  12   6     0.09  -0.22   0.01    -0.11  -0.04  -0.04     0.06   0.05   0.05
  13   6     0.05  -0.07   0.02    -0.08  -0.03  -0.03     0.03   0.04   0.04
  14   7     0.04  -0.07   0.04    -0.05  -0.06  -0.06     0.01   0.06   0.07
  15   6     0.03  -0.04   0.03    -0.05  -0.05  -0.07     0.01   0.04   0.08
  16   6    -0.01  -0.02   0.02    -0.05  -0.03  -0.05     0.01   0.03   0.05
  17   6    -0.02   0.02   0.00    -0.05  -0.01  -0.01     0.01   0.00  -0.01
  18   6     0.01   0.04  -0.01    -0.04   0.01   0.01    -0.00  -0.01  -0.03
  19   6     0.01   0.07  -0.03    -0.02   0.04   0.08    -0.01  -0.04  -0.09
  20   7     0.00   0.07  -0.03    -0.02   0.11   0.18    -0.03  -0.09  -0.18
  21   7     0.01   0.06  -0.05    -0.01   0.09   0.18    -0.04  -0.06  -0.19
  22   6     0.01   0.04  -0.07    -0.01   0.03   0.10    -0.03  -0.01  -0.13
  23   6     0.03   0.01  -0.09     0.02  -0.04   0.05    -0.05   0.01  -0.08
  24   6     0.05  -0.02  -0.11     0.05  -0.11  -0.01     0.01  -0.03  -0.08
  25   6     0.06  -0.05  -0.11     0.07  -0.16  -0.05     0.01  -0.05  -0.03
  26   6     0.05  -0.05  -0.10     0.07  -0.15  -0.05    -0.05  -0.03   0.03
  27   7     0.05  -0.04  -0.09     0.07  -0.12  -0.06    -0.05  -0.06   0.07
  28   6     0.00  -0.04  -0.01    -0.01  -0.10  -0.04    -0.05  -0.06   0.05
  29   6    -0.04  -0.09   0.08    -0.06  -0.15  -0.06    -0.06  -0.09   0.15
  30   6    -0.08  -0.10   0.16    -0.13  -0.14  -0.05    -0.07  -0.08   0.14
  31   6    -0.10  -0.06   0.16    -0.15  -0.07  -0.01    -0.06  -0.05   0.01
  32   6    -0.06  -0.01   0.07    -0.11  -0.02   0.01    -0.04  -0.02  -0.10
  33   6    -0.01  -0.01  -0.02    -0.04  -0.04  -0.00    -0.04  -0.03  -0.08
  34   8     0.03   0.04  -0.14     0.01   0.02   0.02    -0.02  -0.01  -0.22
  35   6     0.05   0.02  -0.07     0.07  -0.00   0.03    -0.04  -0.04  -0.04
  36   6     0.07   0.04  -0.03     0.11   0.05   0.07    -0.04  -0.04  -0.03
  37   6     0.10   0.03   0.02     0.18   0.04   0.08    -0.05  -0.07   0.10
  38   6     0.11  -0.01   0.05     0.21  -0.02   0.05    -0.07  -0.09   0.22
  39   6     0.09  -0.04   0.02     0.17  -0.07   0.01    -0.07  -0.09   0.21
  40   6     0.06  -0.02  -0.05     0.10  -0.06  -0.01    -0.05  -0.06   0.08
  41   6     0.02  -0.02  -0.08     0.06  -0.11  -0.02    -0.12   0.02   0.04
  42   6     0.01   0.01  -0.08     0.04  -0.05   0.03    -0.12   0.04  -0.02
  43   6     0.00   0.05  -0.05    -0.03   0.03   0.06    -0.00  -0.01  -0.09
  44   6    -0.02   0.04  -0.02    -0.02   0.03   0.04     0.04   0.03  -0.05
  45   6    -0.01   0.00  -0.01    -0.04   0.05  -0.00     0.05   0.05  -0.04
  46   6    -0.04  -0.01   0.03    -0.01   0.07  -0.02     0.08   0.09  -0.01
  47   6    -0.07   0.02   0.05     0.04   0.07   0.00     0.11   0.09   0.00
  48   7    -0.09   0.01   0.09     0.05   0.08  -0.03     0.10   0.09  -0.02
  49   6    -0.08   0.02   0.07     0.05   0.05  -0.04     0.10   0.02  -0.03
  50   6    -0.13   0.02   0.15     0.11   0.06  -0.12     0.16   0.00  -0.04
  51   6    -0.12   0.03   0.14     0.12   0.03  -0.13     0.17  -0.06  -0.04
  52   6    -0.08   0.05   0.06     0.07  -0.00  -0.06     0.12  -0.09  -0.04
  53   6    -0.04   0.06  -0.02     0.01  -0.00   0.02     0.06  -0.07  -0.03
  54   6    -0.04   0.04  -0.02     0.00   0.02   0.03     0.05  -0.02  -0.02
  55   8     0.00   0.06  -0.14    -0.06   0.02   0.15    -0.01  -0.00  -0.00
  56   6    -0.01   0.03  -0.07    -0.03   0.06   0.05    -0.02   0.05   0.01
  57   6     0.02   0.04  -0.12    -0.07   0.07   0.05    -0.09   0.07   0.05
  58   6    -0.00   0.02  -0.06    -0.05   0.11  -0.02    -0.11   0.12   0.05
  59   6    -0.05   0.00   0.05     0.01   0.14  -0.10    -0.05   0.17   0.03
  60   6    -0.08  -0.00   0.10     0.04   0.13  -0.10     0.02   0.15  -0.00
  61   6    -0.06   0.01   0.04     0.02   0.09  -0.02     0.03   0.09  -0.00
  62   6    -0.07   0.06   0.04     0.06   0.06   0.05     0.11   0.08   0.01
  63   6    -0.05   0.07  -0.00     0.04   0.04   0.07     0.08   0.05  -0.02
  64   7     0.00   0.07  -0.04    -0.03   0.02   0.05     0.00  -0.02  -0.08
  65   6     0.05   0.03  -0.01    -0.04  -0.01  -0.03    -0.00   0.01   0.03
  66   6     0.06  -0.01   0.01    -0.04  -0.04  -0.08     0.01   0.04   0.08
  67   1    -0.01  -0.02   0.00     0.01   0.03   0.00    -0.03  -0.02  -0.00
  68   1     0.00  -0.09   0.00     0.02   0.01  -0.02    -0.03  -0.00   0.02
  69   1     0.01  -0.09   0.01     0.00  -0.01  -0.03    -0.01   0.02   0.03
  70   1    -0.01   0.06   0.00     0.00   0.02   0.01    -0.01  -0.02  -0.01
  71   1     0.01   0.06   0.00    -0.03   0.01   0.02     0.02  -0.01  -0.02
  72   1     0.03  -0.01  -0.01    -0.04   0.01   0.01     0.03  -0.01  -0.01
  73   1     0.04  -0.10  -0.01    -0.05  -0.01  -0.01     0.03   0.01   0.01
  74   1     0.03  -0.10   0.00    -0.03  -0.02  -0.02     0.02   0.02   0.02
  75   1    -0.01  -0.01   0.01    -0.02  -0.01  -0.02     0.01   0.01   0.02
  76   1    -0.02   0.01  -0.00    -0.01   0.00   0.01     0.00  -0.00  -0.01
  77   1     0.02  -0.01  -0.03     0.01  -0.03  -0.00     0.02  -0.01  -0.04
  78   1     0.02  -0.02  -0.03     0.02  -0.06  -0.02     0.02  -0.02  -0.01
  79   1    -0.01  -0.04   0.02    -0.01  -0.06  -0.03    -0.02  -0.03   0.07
  80   1    -0.03  -0.04   0.07    -0.05  -0.05  -0.02    -0.02  -0.03   0.06
  81   1    -0.04  -0.02   0.06    -0.06  -0.02  -0.00    -0.02  -0.01  -0.00
  82   1    -0.02   0.01   0.02    -0.04   0.01   0.01    -0.01   0.00  -0.06
  83   1     0.02   0.02  -0.02     0.03   0.03   0.03    -0.01  -0.00  -0.04
  84   1     0.03   0.01   0.01     0.06   0.02   0.03    -0.01  -0.02   0.03
  85   1     0.04  -0.01   0.03     0.08  -0.01   0.01    -0.02  -0.03   0.09
  86   1     0.03  -0.02   0.01     0.06  -0.03  -0.00    -0.02  -0.03   0.09
  87   1     0.00  -0.00  -0.02     0.02  -0.03  -0.01    -0.05   0.01   0.02
  88   1    -0.00   0.01  -0.02     0.01  -0.00   0.02    -0.05   0.02  -0.00
  89   1     0.00  -0.01  -0.01    -0.03   0.01  -0.01     0.01   0.01  -0.02
  90   1    -0.01  -0.01   0.01    -0.01   0.02  -0.02     0.02   0.03  -0.00
  91   1    -0.05  -0.00   0.06     0.04   0.02  -0.05     0.06   0.01  -0.01
  92   1    -0.04   0.01   0.06     0.05   0.01  -0.06     0.06  -0.02  -0.01
  93   1    -0.02   0.02   0.02     0.02  -0.01  -0.02     0.04  -0.04  -0.01
  94   1    -0.00   0.02  -0.03    -0.01  -0.01   0.02     0.01  -0.03  -0.01
  95   1     0.02   0.02  -0.06    -0.03   0.01   0.03    -0.04   0.01   0.02
  96   1     0.01   0.01  -0.03    -0.02   0.03  -0.00    -0.05   0.04   0.02
  97   1    -0.02  -0.00   0.03     0.01   0.05  -0.05    -0.02   0.06   0.01
  98   1    -0.04  -0.00   0.05     0.02   0.04  -0.04     0.02   0.05  -0.01
  99   1    -0.03   0.02   0.02     0.03   0.02   0.02     0.04   0.03   0.01
 100   1    -0.02   0.03  -0.00     0.02   0.01   0.03     0.02   0.01  -0.00
 101   1     0.02   0.01  -0.01    -0.01  -0.00  -0.01    -0.00   0.00   0.01
 102   1     0.03  -0.01   0.00    -0.01  -0.01  -0.03     0.00   0.02   0.03
                     13                     14                     15
                        a                      a                      a 
 Frequencies --    50.9557                60.1301                61.1873
 Red. masses --    11.8995                11.8136                11.5402
 Frc consts  --     0.0000                 0.0000                 0.0000
 IR Inten    --     0.8643                 0.3060                 1.3035
 Raman Activ --     0.0000                 0.0000                 0.0000
 Depolar     --     0.0000                 0.0000                 0.0000
 Atom AN      X      Y      Z        X      Y      Z        X      Y      Z
   1   6    -0.04   0.21   0.02    -0.02   0.09   0.02    -0.07   0.21   0.05
   2   6    -0.04   0.19   0.01    -0.01   0.06   0.01    -0.05   0.12   0.06
   3   6    -0.02   0.05  -0.01     0.00  -0.01   0.00    -0.00  -0.03   0.04
   4   6    -0.01  -0.07  -0.02     0.01  -0.06  -0.00     0.02  -0.10   0.03
   5   6    -0.01  -0.08  -0.02     0.01  -0.04  -0.00     0.01  -0.05   0.01
   6   6    -0.02   0.07   0.00    -0.01   0.04   0.01    -0.04   0.11   0.02
   7   8     0.01  -0.26  -0.05     0.03  -0.10  -0.02     0.05  -0.20  -0.04
   8   6    -0.01  -0.08  -0.02     0.02  -0.03  -0.01     0.06  -0.08  -0.01
   9   6    -0.03   0.06   0.01     0.01   0.05   0.00     0.07   0.03  -0.02
  10   6    -0.06   0.20   0.03     0.01   0.10   0.01     0.09   0.13   0.01
  11   6    -0.06   0.20   0.02     0.02   0.07   0.01     0.10   0.13   0.04
  12   6    -0.04   0.07  -0.01     0.02  -0.01   0.00     0.09   0.02   0.04
  13   6    -0.01  -0.07  -0.02     0.02  -0.05  -0.00     0.07  -0.09   0.02
  14   7     0.00  -0.20  -0.04     0.03  -0.13  -0.01     0.05  -0.21   0.03
  15   6     0.00  -0.15  -0.02     0.02  -0.08   0.00     0.05  -0.12   0.04
  16   6    -0.01  -0.12   0.02    -0.01  -0.06   0.01     0.00  -0.05   0.17
  17   6    -0.01  -0.09   0.05    -0.01  -0.03   0.01    -0.01   0.01   0.13
  18   6     0.01  -0.07   0.05     0.01  -0.01   0.01     0.01  -0.02  -0.04
  19   6     0.01  -0.02   0.06     0.01   0.01   0.00    -0.00   0.02  -0.08
  20   7    -0.03   0.01   0.10     0.01   0.00  -0.02    -0.01   0.06  -0.03
  21   7    -0.04   0.04   0.07     0.01  -0.00  -0.03    -0.01   0.06  -0.04
  22   6    -0.00   0.03   0.02     0.01   0.01  -0.02    -0.01   0.02  -0.08
  23   6     0.00   0.04  -0.03     0.01   0.03  -0.04    -0.00  -0.01  -0.03
  24   6    -0.03   0.05  -0.04    -0.01   0.05  -0.03     0.07  -0.05  -0.03
  25   6    -0.02   0.05  -0.08    -0.02   0.07  -0.04     0.08  -0.08   0.04
  26   6     0.02   0.04  -0.11     0.01   0.06  -0.06    -0.00  -0.06   0.10
  27   7     0.03   0.04  -0.17     0.02   0.05  -0.10    -0.02  -0.07   0.20
  28   6     0.02   0.02  -0.06     0.03   0.03  -0.03    -0.02  -0.04   0.08
  29   6     0.01  -0.00   0.03     0.03   0.03   0.08    -0.03  -0.04  -0.02
  30   6     0.00  -0.02   0.13     0.04   0.01   0.14    -0.03  -0.01  -0.14
  31   6    -0.00  -0.02   0.15     0.05   0.01   0.09    -0.04   0.00  -0.14
  32   6     0.01  -0.01   0.06     0.05   0.01  -0.01    -0.03  -0.00  -0.04
  33   6     0.02   0.01  -0.05     0.04   0.03  -0.08    -0.03  -0.03   0.08
  34   8     0.03   0.03  -0.17     0.05   0.04  -0.21    -0.03  -0.04   0.21
  35   6     0.01   0.01  -0.06     0.01   0.01  -0.04     0.00  -0.01   0.06
  36   6     0.00  -0.01   0.05    -0.02  -0.02   0.08     0.03   0.03  -0.10
  37   6    -0.01  -0.03   0.13    -0.04  -0.05   0.20     0.05   0.05  -0.20
  38   6    -0.00  -0.02   0.11    -0.04  -0.03   0.19     0.05   0.02  -0.14
  39   6     0.01  -0.00   0.00    -0.02  -0.00   0.09     0.02  -0.01  -0.00
  40   6     0.01   0.02  -0.07    -0.00   0.02  -0.02     0.01  -0.03   0.08
  41   6     0.05   0.03  -0.10     0.02   0.06  -0.06    -0.08  -0.03   0.09
  42   6     0.04   0.03  -0.06     0.03   0.04  -0.04    -0.08  -0.00   0.02
  43   6     0.03   0.02   0.01     0.01   0.02   0.01    -0.00   0.01  -0.12
  44   6     0.05   0.03  -0.02    -0.02  -0.01   0.02    -0.01   0.02  -0.08
  45   6     0.03   0.03  -0.05     0.00  -0.03   0.07     0.04   0.01  -0.01
  46   6     0.03   0.03  -0.08    -0.04  -0.06   0.10     0.03   0.02   0.05
  47   6     0.04   0.02  -0.09    -0.10  -0.06   0.08    -0.03   0.03   0.05
  48   7     0.05   0.01  -0.14    -0.12  -0.05   0.18    -0.06   0.03   0.11
  49   6     0.01  -0.01  -0.04    -0.07  -0.00   0.04    -0.04   0.03   0.06
  50   6    -0.03  -0.02   0.07    -0.04   0.03  -0.10    -0.04   0.02   0.07
  51   6    -0.07  -0.04   0.18     0.01   0.08  -0.26    -0.02   0.03   0.01
  52   6    -0.06  -0.04   0.18     0.04   0.10  -0.29    -0.00   0.03  -0.05
  53   6    -0.02  -0.02   0.06     0.01   0.07  -0.13    -0.01   0.03  -0.04
  54   6     0.02  -0.00  -0.05    -0.05   0.01   0.06    -0.03   0.03   0.01
  55   8     0.07   0.01  -0.22    -0.10  -0.02   0.31    -0.04   0.03   0.02
  56   6     0.02   0.00  -0.08    -0.04  -0.03   0.12    -0.03   0.03   0.01
  57   6    -0.01  -0.01   0.01     0.03  -0.03   0.03    -0.02   0.04  -0.04
  58   6    -0.05  -0.02   0.12     0.09  -0.04  -0.13    -0.01   0.05  -0.05
  59   6    -0.07  -0.02   0.15     0.09  -0.05  -0.18    -0.03   0.05  -0.01
  60   6    -0.03  -0.01   0.07     0.02  -0.06  -0.09    -0.04   0.04   0.04
  61   6     0.01   0.00  -0.05    -0.04  -0.05   0.07    -0.04   0.03   0.05
  62   6     0.07   0.02  -0.05    -0.15  -0.05   0.01    -0.08   0.03  -0.03
  63   6     0.07   0.03  -0.02    -0.10  -0.02  -0.02    -0.07   0.03  -0.09
  64   7     0.04  -0.01   0.03     0.01   0.03   0.02    -0.00   0.00  -0.14
  65   6     0.03  -0.09   0.02     0.04  -0.02   0.01     0.06  -0.08  -0.14
  66   6     0.02  -0.13  -0.01     0.05  -0.05   0.01     0.07  -0.14  -0.10
  67   1    -0.01   0.09   0.01    -0.01   0.04   0.01    -0.03   0.10   0.02
  68   1    -0.01   0.09   0.00    -0.01   0.03   0.01    -0.02   0.05   0.02
  69   1    -0.01   0.01  -0.01     0.00  -0.01   0.00     0.00  -0.03   0.01
  70   1    -0.01   0.02   0.00    -0.00   0.02   0.00    -0.01   0.05   0.00
  71   1    -0.01   0.01   0.00     0.00   0.02   0.00     0.02   0.01  -0.01
  72   1    -0.02   0.09   0.01     0.00   0.05   0.01     0.03   0.06   0.00
  73   1    -0.02   0.09   0.01     0.00   0.03   0.01     0.03   0.06   0.02
  74   1    -0.01   0.02  -0.00     0.01  -0.01   0.00     0.03   0.01   0.02
  75   1    -0.01  -0.04   0.01    -0.01  -0.02   0.00    -0.01  -0.01   0.08
  76   1    -0.01  -0.02   0.02    -0.01  -0.00   0.00    -0.01   0.02   0.06
  77   1    -0.02   0.02  -0.00    -0.01   0.01  -0.01     0.04  -0.02  -0.02
  78   1    -0.02   0.02  -0.02    -0.01   0.02  -0.01     0.04  -0.03   0.01
  79   1     0.00  -0.00   0.00     0.01   0.01   0.03    -0.01  -0.01  -0.01
  80   1    -0.00  -0.01   0.06     0.01   0.00   0.07    -0.01  -0.00  -0.06
  81   1    -0.00  -0.01   0.07     0.02  -0.00   0.04    -0.01   0.01  -0.07
  82   1     0.00  -0.00   0.02     0.02   0.00  -0.02    -0.01   0.00  -0.01
  83   1    -0.00  -0.00   0.02    -0.00  -0.01   0.02     0.01   0.01  -0.04
  84   1    -0.01  -0.01   0.06    -0.02  -0.02   0.08     0.02   0.02  -0.09
  85   1    -0.00  -0.01   0.05    -0.02  -0.01   0.08     0.02   0.01  -0.06
  86   1     0.00  -0.00  -0.00    -0.01  -0.00   0.03     0.00  -0.01   0.01
  87   1     0.02   0.01  -0.04     0.01   0.02  -0.02    -0.04  -0.01   0.04
  88   1     0.02   0.01  -0.01     0.01   0.01  -0.01    -0.04   0.01   0.00
  89   1     0.01   0.01  -0.01     0.02  -0.01   0.03     0.02   0.00  -0.00
  90   1     0.01   0.01  -0.03    -0.00  -0.02   0.04     0.02   0.00   0.03
  91   1    -0.01  -0.01   0.02    -0.02   0.01  -0.02    -0.01   0.00   0.03
  92   1    -0.03  -0.01   0.07     0.01   0.03  -0.10    -0.00   0.01   0.00
  93   1    -0.03  -0.01   0.08     0.03   0.04  -0.13     0.00   0.01  -0.03
  94   1    -0.01  -0.01   0.02     0.01   0.02  -0.04     0.00   0.01  -0.02
  95   1    -0.00  -0.00  -0.01     0.01  -0.01   0.02    -0.00   0.01  -0.02
  96   1    -0.02  -0.01   0.05     0.04  -0.01  -0.06    -0.00   0.02  -0.03
  97   1    -0.03  -0.01   0.07     0.04  -0.02  -0.09    -0.01   0.02  -0.01
  98   1    -0.01  -0.01   0.03     0.01  -0.02  -0.04    -0.01   0.01   0.02
  99   1     0.03   0.01  -0.01    -0.06  -0.01  -0.01    -0.03   0.01  -0.01
 100   1     0.03   0.01   0.00    -0.04   0.00  -0.02    -0.03   0.01  -0.04
 101   1     0.01  -0.02   0.01     0.02   0.00   0.00     0.02  -0.03  -0.08
 102   1     0.01  -0.04  -0.01     0.02  -0.02   0.00     0.03  -0.05  -0.05
                     16                     17                     18
                        a                      a                      a 
 Frequencies --    64.0023                71.1528                76.2480
 Red. masses --    10.3174                10.0035                10.8914
 Frc consts  --     0.0000                 0.0000                 0.0000
 IR Inten    --    12.4069                10.8085                 3.0795
 Raman Activ --     0.0000                 0.0000                 0.0000
 Depolar     --     0.0000                 0.0000                 0.0000
 Atom AN      X      Y      Z        X      Y      Z        X      Y      Z
   1   6    -0.04  -0.07  -0.01     0.02  -0.01  -0.01    -0.07  -0.06   0.01
   2   6    -0.06   0.02   0.02     0.02  -0.01  -0.02    -0.08  -0.01   0.03
   3   6    -0.04   0.03   0.03     0.01   0.01  -0.02    -0.07   0.03   0.04
   4   6    -0.00  -0.06   0.00     0.00   0.02  -0.01    -0.05   0.02   0.02
   5   6    -0.00  -0.09  -0.01     0.00   0.02  -0.00    -0.05  -0.01   0.01
   6   6    -0.02  -0.11  -0.02     0.01   0.00  -0.00    -0.06  -0.06  -0.00
   7   8     0.01  -0.09  -0.02    -0.01   0.03   0.00    -0.05   0.00   0.01
   8   6    -0.00   0.02   0.01    -0.01   0.01  -0.00    -0.04   0.01   0.01
   9   6    -0.03   0.16   0.04    -0.02  -0.02  -0.00    -0.04   0.01   0.01
  10   6    -0.05   0.21   0.04    -0.02  -0.03  -0.01    -0.04   0.00   0.01
  11   6    -0.03   0.06   0.01    -0.02  -0.02  -0.01    -0.04  -0.01   0.01
  12   6    -0.01  -0.06  -0.01    -0.02   0.00  -0.01    -0.04  -0.01   0.01
  13   6     0.01  -0.05  -0.00    -0.01   0.01  -0.01    -0.04   0.01   0.02
  14   7     0.02  -0.11  -0.01    -0.01   0.03  -0.02    -0.04   0.03   0.03
  15   6     0.01  -0.06   0.01    -0.01   0.01  -0.02    -0.04   0.02   0.02
  16   6    -0.05  -0.17  -0.30     0.01   0.02   0.00    -0.04  -0.02  -0.08
  17   6    -0.06  -0.14  -0.32     0.01   0.01   0.03    -0.04  -0.03  -0.11
  18   6     0.02   0.01   0.00     0.00   0.00   0.03    -0.02   0.00  -0.04
  19   6     0.01   0.01  -0.01     0.01   0.01   0.05    -0.02   0.01  -0.05
  20   7     0.02  -0.05  -0.10    -0.00   0.01   0.05    -0.02   0.14   0.13
  21   7     0.02  -0.04  -0.10    -0.00   0.02   0.05    -0.02   0.12   0.15
  22   6     0.02   0.01  -0.03    -0.00   0.02   0.05    -0.01   0.01   0.00
  23   6     0.01   0.01  -0.02     0.00   0.03   0.03    -0.00   0.00   0.01
  24   6     0.07  -0.04  -0.03     0.10  -0.22  -0.17    -0.06   0.12   0.10
  25   6     0.07  -0.05  -0.00     0.11  -0.22  -0.19    -0.06   0.11   0.07
  26   6     0.02  -0.02   0.05    -0.00   0.02  -0.02     0.02  -0.01  -0.03
  27   7     0.02  -0.03   0.10     0.01   0.02  -0.04     0.02  -0.01  -0.05
  28   6     0.02  -0.02   0.04     0.01   0.01  -0.03     0.01  -0.00  -0.02
  29   6     0.01  -0.01  -0.00     0.00   0.01  -0.07     0.01  -0.00  -0.01
  30   6     0.01  -0.00  -0.05    -0.01  -0.00  -0.01     0.01  -0.00  -0.01
  31   6     0.01   0.01  -0.05    -0.02  -0.02   0.11     0.01   0.00  -0.02
  32   6     0.01   0.00  -0.01    -0.02  -0.01   0.11     0.01   0.00  -0.02
  33   6     0.01  -0.01   0.04     0.00   0.00   0.02     0.01  -0.00  -0.02
  34   8     0.02  -0.01   0.09     0.01   0.00  -0.03     0.01   0.00   0.01
  35   6     0.03   0.00   0.02     0.00   0.01  -0.05     0.02   0.00   0.01
  36   6     0.04   0.02  -0.05    -0.00   0.00  -0.09     0.02   0.01   0.06
  37   6     0.06   0.03  -0.09    -0.02  -0.00  -0.07     0.04   0.01   0.04
  38   6     0.05   0.02  -0.05    -0.04  -0.01   0.01     0.05   0.01  -0.02
  39   6     0.04  -0.00   0.02    -0.03  -0.00   0.04     0.05   0.01  -0.06
  40   6     0.03  -0.01   0.05    -0.00   0.01  -0.02     0.03   0.00  -0.03
  41   6    -0.03   0.02   0.06    -0.10   0.26   0.17     0.07  -0.12  -0.10
  42   6    -0.03   0.04   0.03    -0.10   0.27   0.19     0.07  -0.11  -0.08
  43   6     0.01   0.03   0.03     0.01   0.02   0.06    -0.01  -0.03  -0.17
  44   6     0.00   0.02   0.02     0.02   0.03   0.04    -0.01  -0.03  -0.18
  45   6    -0.02   0.01  -0.01     0.13   0.14   0.20     0.15   0.05   0.05
  46   6    -0.03  -0.01  -0.03     0.12   0.13   0.16     0.18   0.09   0.17
  47   6    -0.03   0.00  -0.02     0.00  -0.01  -0.04     0.05   0.02   0.05
  48   7    -0.03   0.00  -0.03     0.01  -0.01  -0.07     0.02   0.01   0.14
  49   6    -0.03   0.02  -0.02     0.00  -0.01  -0.03     0.04  -0.02   0.10
  50   6    -0.04   0.02  -0.03    -0.01  -0.02   0.02     0.06  -0.05   0.17
  51   6    -0.05   0.04  -0.01    -0.01  -0.02   0.02     0.10  -0.08   0.09
  52   6    -0.05   0.04   0.01     0.01  -0.01  -0.03     0.11  -0.08  -0.05
  53   6    -0.03   0.04   0.01     0.01  -0.00  -0.06     0.08  -0.06  -0.09
  54   6    -0.03   0.02  -0.00     0.01  -0.00  -0.05     0.05  -0.03  -0.00
  55   8    -0.02   0.02  -0.00     0.02  -0.01  -0.04     0.03  -0.02  -0.01
  56   6    -0.01   0.01  -0.01     0.00  -0.02   0.01     0.01   0.01   0.03
  57   6    -0.01   0.00  -0.00    -0.01  -0.04   0.10    -0.00   0.01   0.02
  58   6    -0.00  -0.00  -0.00    -0.00  -0.06   0.11    -0.01   0.03   0.03
  59   6    -0.01  -0.01  -0.01     0.02  -0.06   0.01     0.01   0.04   0.04
  60   6    -0.02  -0.01  -0.02     0.03  -0.05  -0.07     0.02   0.03   0.06
  61   6    -0.02   0.00  -0.02     0.01  -0.02  -0.04     0.01   0.02   0.08
  62   6    -0.01   0.02   0.01    -0.11  -0.13  -0.20    -0.12  -0.08  -0.20
  63   6     0.01   0.03   0.03    -0.09  -0.11  -0.16    -0.14  -0.11  -0.31
  64   7     0.02   0.05   0.05     0.01   0.01   0.06    -0.02  -0.06  -0.22
  65   6     0.09   0.14   0.35    -0.01  -0.00   0.01    -0.02   0.05   0.08
  66   6     0.09   0.10   0.34    -0.02   0.00  -0.02    -0.01   0.06   0.10
  67   1    -0.02  -0.03  -0.00     0.01  -0.01  -0.00    -0.02  -0.03  -0.00
  68   1    -0.02   0.02   0.01     0.01  -0.01  -0.01    -0.03   0.00   0.01
  69   1    -0.01   0.03   0.02     0.00   0.00  -0.01    -0.02   0.02   0.02
  70   1    -0.00  -0.04  -0.01     0.00  -0.00   0.00    -0.02  -0.02  -0.01
  71   1    -0.01   0.07   0.02    -0.00  -0.01   0.00    -0.01   0.00   0.01
  72   1    -0.02   0.10   0.02    -0.01  -0.01  -0.00    -0.01   0.00   0.00
  73   1    -0.01   0.02   0.00    -0.01  -0.01  -0.00    -0.01  -0.01   0.00
  74   1    -0.00  -0.05  -0.01    -0.01   0.00  -0.00    -0.01  -0.01   0.00
  75   1    -0.03  -0.07  -0.15     0.00   0.01  -0.00    -0.01  -0.01  -0.04
  76   1    -0.03  -0.06  -0.16     0.01   0.00   0.01    -0.02  -0.02  -0.06
  77   1     0.03  -0.02  -0.02     0.05  -0.12  -0.09    -0.03   0.06   0.05
  78   1     0.03  -0.03  -0.00     0.06  -0.12  -0.09    -0.03   0.05   0.04
  79   1     0.00  -0.01  -0.00     0.00   0.00  -0.05     0.00  -0.00   0.00
  80   1     0.00  -0.00  -0.02    -0.00  -0.00  -0.01     0.00  -0.00   0.00
  81   1     0.00   0.00  -0.02    -0.01  -0.01   0.05     0.00   0.00  -0.01
  82   1     0.00   0.00  -0.00    -0.01  -0.00   0.05     0.00  -0.00  -0.01
  83   1     0.01   0.01  -0.02     0.00  -0.00  -0.04     0.00   0.00   0.03
  84   1     0.02   0.01  -0.04    -0.01  -0.00  -0.03     0.01   0.00   0.02
  85   1     0.02   0.01  -0.02    -0.02  -0.00   0.02     0.02   0.00  -0.01
  86   1     0.01  -0.00   0.01    -0.01   0.00   0.03     0.02   0.00  -0.03
  87   1    -0.02   0.01   0.03    -0.05   0.13   0.08     0.03  -0.06  -0.05
  88   1    -0.02   0.02   0.01    -0.05   0.13   0.09     0.03  -0.05  -0.04
  89   1    -0.01   0.00  -0.00     0.07   0.07   0.10     0.08   0.03   0.04
  90   1    -0.01  -0.01  -0.02     0.06   0.07   0.08     0.09   0.05   0.10
  91   1    -0.01   0.01  -0.01    -0.01  -0.01   0.02     0.02  -0.01   0.08
  92   1    -0.02   0.01  -0.01    -0.01  -0.01   0.02     0.03  -0.03   0.04
  93   1    -0.01   0.01   0.01     0.00  -0.00  -0.01     0.04  -0.03  -0.04
  94   1    -0.01   0.01   0.01     0.01  -0.00  -0.02     0.02  -0.02  -0.05
  95   1    -0.00   0.00   0.00    -0.00  -0.01   0.04    -0.00   0.00  -0.00
  96   1     0.00  -0.00   0.00    -0.00  -0.02   0.05    -0.01   0.01   0.01
  97   1    -0.00  -0.01  -0.00     0.01  -0.02  -0.00     0.00   0.02   0.01
  98   1    -0.01  -0.00  -0.01     0.01  -0.02  -0.04     0.01   0.01   0.01
  99   1     0.00   0.01   0.00    -0.06  -0.07  -0.10    -0.07  -0.03  -0.08
 100   1     0.01   0.01   0.02    -0.05  -0.06  -0.08    -0.07  -0.05  -0.14
 101   1     0.04   0.07   0.18    -0.01  -0.00   0.00    -0.00   0.02   0.04
 102   1     0.05   0.05   0.17    -0.01   0.00  -0.01     0.00   0.03   0.05
                     19                     20                     21
                        a                      a                      a 
 Frequencies --    93.2661                94.7492               106.5910
 Red. masses --    11.7547                11.6150                11.5618
 Frc consts  --     0.0000                 0.0000                 0.0000
 IR Inten    --     0.3356                 4.5956                 5.2563
 Raman Activ --     0.0000                 0.0000                 0.0000
 Depolar     --     0.0000                 0.0000                 0.0000
 Atom AN      X      Y      Z        X      Y      Z        X      Y      Z
   1   6     0.19  -0.01  -0.03     0.02   0.00  -0.02     0.08   0.05  -0.04
   2   6     0.18   0.06  -0.04     0.02   0.00  -0.04     0.08  -0.01  -0.08
   3   6     0.15   0.08  -0.04     0.01  -0.01  -0.04     0.05  -0.06  -0.10
   4   6     0.13   0.02  -0.03    -0.01  -0.01  -0.04     0.02  -0.05  -0.08
   5   6     0.14  -0.01  -0.03    -0.00  -0.00  -0.02     0.02  -0.00  -0.03
   6   6     0.17  -0.04  -0.02     0.01   0.00  -0.01     0.05   0.05  -0.01
   7   8     0.16   0.00  -0.03    -0.02   0.01  -0.00    -0.01  -0.00  -0.01
   8   6     0.13   0.03  -0.03    -0.04   0.00  -0.01    -0.04  -0.02  -0.02
   9   6     0.13   0.10  -0.03    -0.06   0.03   0.01    -0.07   0.03   0.01
  10   6     0.15   0.10  -0.03    -0.08   0.01   0.00    -0.10   0.02  -0.00
  11   6     0.16  -0.00  -0.04    -0.08  -0.03  -0.02    -0.11  -0.04  -0.05
  12   6     0.16  -0.06  -0.04    -0.06  -0.05  -0.04    -0.07  -0.07  -0.08
  13   6     0.13  -0.02  -0.04    -0.03  -0.03  -0.03    -0.04  -0.06  -0.07
  14   7     0.12  -0.02  -0.04    -0.02  -0.04  -0.05    -0.01  -0.10  -0.10
  15   6     0.10  -0.00  -0.02    -0.02   0.01  -0.02    -0.01  -0.00  -0.04
  16   6     0.05  -0.01  -0.07    -0.02   0.02  -0.01    -0.01   0.05   0.10
  17   6     0.05   0.01  -0.04    -0.01   0.06   0.07     0.01   0.13   0.25
  18   6     0.04   0.02   0.03     0.01   0.09   0.12     0.03   0.15   0.26
  19   6     0.02   0.03   0.06     0.01   0.10   0.11     0.02   0.10   0.20
  20   7     0.00   0.11   0.17    -0.01   0.24   0.31    -0.01  -0.08  -0.08
  21   7     0.00   0.10   0.19     0.02   0.15   0.16     0.00  -0.11  -0.23
  22   6    -0.03   0.01   0.11     0.03  -0.04  -0.10     0.03  -0.02  -0.14
  23   6    -0.03  -0.02   0.10     0.06  -0.10  -0.15     0.01  -0.00  -0.15
  24   6    -0.10   0.00   0.08     0.11  -0.16  -0.19     0.02   0.07  -0.07
  25   6    -0.10  -0.00   0.03     0.07  -0.09  -0.11     0.01   0.08   0.01
  26   6    -0.08  -0.04  -0.00    -0.03   0.04   0.02    -0.01  -0.01  -0.01
  27   7    -0.10  -0.04  -0.07    -0.04   0.06   0.10    -0.02  -0.03   0.09
  28   6    -0.12  -0.04  -0.04    -0.01   0.05   0.05    -0.02  -0.03   0.08
  29   6    -0.14  -0.07  -0.02     0.01   0.07   0.05    -0.03  -0.04   0.15
  30   6    -0.16  -0.06  -0.02     0.04   0.07   0.03    -0.03  -0.02   0.05
  31   6    -0.17  -0.05  -0.04     0.05   0.04   0.01    -0.01   0.01  -0.13
  32   6    -0.15  -0.03  -0.05     0.03   0.03   0.00    -0.01   0.01  -0.13
  33   6    -0.12  -0.04  -0.04     0.00   0.03   0.02    -0.02  -0.01   0.00
  34   8    -0.14  -0.05  -0.04    -0.01   0.01  -0.02    -0.03  -0.03   0.08
  35   6    -0.12  -0.05  -0.02    -0.04   0.01  -0.01    -0.02  -0.02   0.06
  36   6    -0.14  -0.08   0.04    -0.06  -0.01  -0.07    -0.02  -0.02   0.05
  37   6    -0.15  -0.07   0.03    -0.11  -0.01  -0.04    -0.02  -0.01  -0.01
  38   6    -0.15  -0.05  -0.05    -0.13   0.01   0.04    -0.01   0.00  -0.07
  39   6    -0.13  -0.03  -0.09    -0.11   0.03   0.09    -0.01   0.00  -0.05
  40   6    -0.11  -0.04  -0.06    -0.06   0.03   0.06    -0.02  -0.02   0.03
  41   6    -0.02  -0.05   0.02    -0.06   0.08   0.03    -0.01  -0.10  -0.10
  42   6    -0.02  -0.05   0.07    -0.02  -0.00  -0.06    -0.01  -0.08  -0.16
  43   6    -0.01  -0.00   0.03    -0.00  -0.04  -0.16     0.02   0.03   0.07
  44   6    -0.01   0.00   0.02    -0.01  -0.06  -0.17    -0.01   0.00   0.03
  45   6    -0.00   0.02   0.03    -0.04  -0.15  -0.21     0.03   0.05   0.08
  46   6     0.00   0.03   0.02    -0.03  -0.13  -0.13     0.05   0.06   0.08
  47   6    -0.01   0.01   0.00     0.03  -0.02   0.01     0.01   0.00   0.00
  48   7    -0.01   0.02  -0.00     0.02  -0.03   0.10     0.02   0.01  -0.01
  49   6    -0.01   0.02   0.00     0.04  -0.04   0.04     0.02  -0.00   0.02
  50   6    -0.02   0.02   0.01     0.08  -0.04  -0.01     0.01  -0.02   0.08
  51   6    -0.02   0.02   0.01     0.08  -0.06  -0.03     0.01  -0.03   0.07
  52   6    -0.01   0.02  -0.01     0.06  -0.07   0.02     0.03  -0.02  -0.01
  53   6    -0.01   0.02  -0.02     0.03  -0.07   0.05     0.04  -0.01  -0.06
  54   6    -0.01   0.02  -0.01     0.03  -0.05   0.05     0.03  -0.00  -0.03
  55   8    -0.01   0.02  -0.01     0.02  -0.06   0.06     0.03  -0.00  -0.04
  56   6    -0.01   0.02   0.00     0.03  -0.03   0.01     0.01   0.00   0.01
  57   6    -0.02   0.02   0.01     0.06  -0.02  -0.09    -0.02  -0.01   0.08
  58   6    -0.02   0.02   0.01     0.06  -0.01  -0.09    -0.02  -0.00   0.07
  59   6    -0.01   0.03  -0.01     0.02  -0.02   0.04     0.02   0.01  -0.03
  60   6    -0.01   0.02  -0.02    -0.00  -0.03   0.12     0.04   0.02  -0.07
  61   6    -0.01   0.02  -0.01     0.02  -0.03   0.08     0.03   0.01  -0.03
  62   6    -0.02  -0.01  -0.01     0.07   0.07   0.06    -0.05  -0.06  -0.08
  63   6    -0.02  -0.01  -0.01     0.05   0.04  -0.03    -0.05  -0.06  -0.05
  64   7    -0.01  -0.02   0.00    -0.00  -0.01  -0.10     0.03   0.15   0.29
  65   6     0.08   0.03   0.08     0.02   0.09   0.11     0.03   0.11   0.17
  66   6     0.09   0.02   0.06     0.01   0.04   0.04     0.02   0.03   0.01
  67   1     0.06  -0.01  -0.01     0.01   0.00  -0.00     0.03   0.03  -0.01
  68   1     0.05   0.03  -0.01     0.01   0.00  -0.01     0.03  -0.01  -0.03
  69   1     0.04   0.04  -0.02     0.00  -0.00  -0.02     0.02  -0.03  -0.04
  70   1     0.05  -0.02   0.00     0.00   0.00   0.00     0.01   0.03   0.01
  71   1     0.04   0.05  -0.01    -0.02   0.02   0.01    -0.02   0.02   0.01
  72   1     0.04   0.05  -0.01    -0.03   0.01   0.01    -0.04   0.01   0.01
  73   1     0.05  -0.01  -0.01    -0.03  -0.01  -0.01    -0.04  -0.01  -0.02
  74   1     0.05  -0.04  -0.01    -0.02  -0.02  -0.02    -0.02  -0.03  -0.03
  75   1     0.01  -0.01  -0.03    -0.01  -0.00  -0.02    -0.01   0.01   0.02
  76   1     0.02  -0.00  -0.02    -0.01   0.02   0.03     0.00   0.05   0.10
  77   1    -0.05   0.00   0.04     0.05  -0.07  -0.08     0.01   0.04  -0.02
  78   1    -0.03   0.00   0.01     0.03  -0.04  -0.03     0.01   0.05   0.03
  79   1    -0.04  -0.03   0.00     0.00   0.02   0.01    -0.01  -0.02   0.07
  80   1    -0.05  -0.02   0.00     0.02   0.03   0.01    -0.01  -0.01   0.03
  81   1    -0.05  -0.01  -0.01     0.02   0.01   0.00    -0.00   0.01  -0.07
  82   1    -0.04  -0.00  -0.01     0.01   0.00  -0.01     0.00   0.01  -0.07
  83   1    -0.04  -0.03   0.02    -0.01  -0.01  -0.04    -0.01  -0.01   0.02
  84   1    -0.05  -0.03   0.02    -0.03  -0.01  -0.03    -0.00  -0.00  -0.00
  85   1    -0.04  -0.01  -0.02    -0.05   0.00   0.02     0.00   0.01  -0.04
  86   1    -0.04  -0.00  -0.04    -0.04   0.01   0.04    -0.00   0.00  -0.03
  87   1     0.01  -0.01  -0.00    -0.04   0.05   0.03    -0.01  -0.05  -0.03
  88   1    -0.00  -0.02   0.02    -0.02   0.01  -0.02    -0.01  -0.04  -0.06
  89   1    -0.00   0.01   0.01    -0.02  -0.07  -0.09     0.02   0.02   0.03
  90   1     0.00   0.01   0.01    -0.02  -0.06  -0.05     0.02   0.03   0.04
  91   1    -0.01   0.00   0.01     0.03  -0.01  -0.01    -0.00  -0.01   0.04
  92   1    -0.01   0.00   0.01     0.03  -0.02  -0.02     0.00  -0.01   0.03
  93   1    -0.00   0.01  -0.01     0.02  -0.02   0.00     0.01  -0.01  -0.01
  94   1    -0.00   0.01  -0.01     0.00  -0.02   0.02     0.01  -0.00  -0.03
  95   1    -0.01   0.00   0.01     0.02  -0.00  -0.05    -0.01  -0.00   0.04
  96   1    -0.01   0.01   0.01     0.02   0.00  -0.05    -0.01  -0.00   0.04
  97   1    -0.00   0.01  -0.00     0.00  -0.00   0.02     0.01   0.00  -0.02
  98   1     0.00   0.01  -0.01    -0.01  -0.01   0.06     0.02   0.01  -0.04
  99   1    -0.01  -0.01  -0.01     0.03   0.05   0.05    -0.03  -0.03  -0.04
 100   1    -0.01  -0.01  -0.01     0.02   0.03   0.00    -0.02  -0.03  -0.03
 101   1     0.03   0.02   0.04     0.01   0.03   0.04     0.01   0.04   0.06
 102   1     0.02   0.01   0.03     0.01   0.01   0.01     0.01  -0.00  -0.02
                     22                     23                     24
                        a                      a                      a 
 Frequencies --   116.2869               119.4918               120.7758
 Red. masses --    10.0090                10.0862                10.1165
 Frc consts  --     0.0000                 0.0000                 0.0000
 IR Inten    --     2.9150                11.6983                 0.2756
 Raman Activ --     0.0000                 0.0000                 0.0000
 Depolar     --     0.0000                 0.0000                 0.0000
 Atom AN      X      Y      Z        X      Y      Z        X      Y      Z
   1   6    -0.04   0.03   0.02     0.06  -0.10  -0.03    -0.01   0.16   0.02
   2   6    -0.03  -0.04   0.01     0.01   0.15  -0.01     0.05  -0.19  -0.03
   3   6    -0.01  -0.07   0.01    -0.02   0.22  -0.01     0.07  -0.30  -0.04
   4   6    -0.01  -0.03   0.01    -0.01   0.06  -0.01     0.05  -0.11  -0.03
   5   6    -0.01   0.01   0.01     0.00  -0.06  -0.01     0.02   0.05  -0.00
   6   6    -0.03   0.05   0.01     0.05  -0.20  -0.02    -0.02   0.27   0.03
   7   8    -0.01  -0.01   0.00    -0.01  -0.02  -0.00     0.03  -0.01  -0.01
   8   6    -0.00  -0.02   0.01    -0.02   0.04   0.00     0.03  -0.06  -0.02
   9   6     0.00  -0.05   0.00    -0.03   0.21   0.02     0.03  -0.21  -0.03
  10   6    -0.00  -0.03   0.00    -0.01   0.14   0.01    -0.00  -0.11  -0.02
  11   6    -0.01   0.04   0.02     0.02  -0.15  -0.03    -0.04   0.16   0.01
  12   6    -0.01   0.05   0.02     0.03  -0.24  -0.03    -0.03   0.22   0.01
  13   6    -0.00   0.01   0.01    -0.00  -0.09  -0.02     0.01   0.05  -0.01
  14   7    -0.00  -0.01   0.01    -0.02  -0.02  -0.02     0.03  -0.05  -0.03
  15   6    -0.00   0.01   0.00    -0.01   0.01   0.00     0.02   0.01  -0.01
  16   6    -0.02   0.00  -0.02    -0.01   0.05   0.10    -0.02   0.00  -0.07
  17   6    -0.02   0.01  -0.05    -0.01   0.07   0.14    -0.02   0.04  -0.06
  18   6    -0.00   0.02  -0.05    -0.02   0.04   0.05     0.01   0.09   0.03
  19   6     0.00   0.03  -0.04    -0.02   0.02   0.02     0.01   0.07   0.01
  20   7     0.01   0.03  -0.05    -0.04  -0.04  -0.08     0.02   0.03  -0.05
  21   7     0.00   0.04  -0.01    -0.04  -0.03  -0.08     0.02   0.01  -0.04
  22   6    -0.00   0.06   0.02    -0.03   0.03  -0.02    -0.00   0.02   0.01
  23   6    -0.01   0.06   0.03    -0.04   0.06   0.01    -0.02   0.03   0.04
  24   6     0.02  -0.00  -0.02    -0.06   0.12   0.06    -0.07   0.10   0.09
  25   6     0.03  -0.03  -0.03    -0.04   0.08   0.05    -0.06   0.07   0.06
  26   6     0.01  -0.00  -0.01    -0.01  -0.00  -0.00    -0.02  -0.01   0.01
  27   7     0.02  -0.01  -0.02    -0.00  -0.03  -0.01    -0.03  -0.03  -0.02
  28   6    -0.01  -0.03   0.06     0.00  -0.01  -0.06    -0.03  -0.01  -0.08
  29   6    -0.04  -0.08   0.21     0.02   0.01  -0.17    -0.02   0.01  -0.21
  30   6    -0.05  -0.06   0.13     0.01   0.00  -0.11    -0.03  -0.00  -0.13
  31   6    -0.03   0.00  -0.14    -0.01  -0.03   0.09    -0.05  -0.04   0.10
  32   6    -0.01   0.03  -0.21    -0.02  -0.04   0.15    -0.06  -0.05   0.17
  33   6     0.00   0.00  -0.05    -0.01  -0.02   0.03    -0.04  -0.03   0.03
  34   8    -0.00  -0.01   0.02    -0.00  -0.01  -0.01    -0.04  -0.02  -0.03
  35   6     0.00  -0.02   0.06     0.01  -0.00  -0.04    -0.02  -0.01  -0.05
  36   6    -0.03  -0.06   0.22     0.04   0.04  -0.14    -0.00   0.02  -0.16
  37   6    -0.03  -0.04   0.13     0.06   0.02  -0.08     0.00   0.00  -0.08
  38   6     0.01   0.02  -0.16     0.04  -0.03   0.12    -0.03  -0.05   0.13
  39   6     0.03   0.05  -0.24     0.02  -0.07   0.17    -0.04  -0.07   0.18
  40   6     0.02   0.01  -0.08     0.00  -0.03   0.06    -0.03  -0.04   0.05
  41   6    -0.02   0.06   0.04    -0.01  -0.03  -0.03     0.01  -0.05  -0.02
  42   6    -0.04   0.10   0.07    -0.02   0.00  -0.03     0.00  -0.04  -0.01
  43   6     0.01   0.05   0.02    -0.01   0.03   0.01    -0.01   0.02   0.02
  44   6     0.01   0.05   0.03    -0.01   0.02  -0.00    -0.02   0.01   0.01
  45   6     0.05   0.07   0.09     0.03   0.05   0.05     0.00   0.02   0.03
  46   6     0.03   0.05   0.07     0.02   0.05   0.05     0.00   0.03   0.03
  47   6    -0.00  -0.00  -0.00    -0.00   0.00  -0.00     0.00  -0.00   0.00
  48   7    -0.01  -0.01  -0.02    -0.00   0.01   0.00     0.01   0.00  -0.00
  49   6     0.03  -0.00  -0.09     0.03   0.00  -0.06     0.03  -0.01  -0.03
  50   6     0.11   0.02  -0.25     0.10   0.02  -0.19     0.07  -0.00  -0.09
  51   6     0.08  -0.01  -0.16     0.08  -0.01  -0.12     0.06  -0.02  -0.06
  52   6    -0.02  -0.06   0.13     0.00  -0.05   0.09     0.02  -0.04   0.05
  53   6    -0.07  -0.06   0.22    -0.04  -0.05   0.16    -0.01  -0.04   0.07
  54   6    -0.02  -0.02   0.06    -0.01  -0.01   0.04     0.01  -0.02   0.02
  55   8     0.00  -0.02   0.02    -0.00  -0.01   0.03     0.01  -0.02   0.02
  56   6     0.03  -0.01  -0.05     0.02  -0.00  -0.03     0.02  -0.01  -0.01
  57   6     0.12  -0.01  -0.20     0.08   0.01  -0.15     0.05  -0.00  -0.06
  58   6     0.10  -0.05  -0.13     0.07  -0.02  -0.10     0.05  -0.02  -0.04
  59   6    -0.02  -0.09   0.14    -0.02  -0.05   0.11     0.01  -0.03   0.05
  60   6    -0.07  -0.09   0.22    -0.05  -0.05   0.17    -0.01  -0.03   0.08
  61   6    -0.02  -0.03   0.07    -0.02  -0.01   0.06     0.00  -0.01   0.03
  62   6    -0.04  -0.01  -0.05    -0.04  -0.02  -0.06    -0.02  -0.02  -0.03
  63   6    -0.02   0.00  -0.04    -0.05  -0.02  -0.06    -0.03  -0.02  -0.03
  64   7     0.00   0.05  -0.01    -0.01   0.05   0.05    -0.01   0.07   0.04
  65   6     0.01   0.03  -0.03    -0.02  -0.00  -0.04     0.06   0.12   0.12
  66   6     0.01   0.02  -0.00    -0.02  -0.01  -0.05     0.06   0.07   0.08
  67   1    -0.02   0.02   0.01     0.03  -0.06  -0.01    -0.01   0.09   0.01
  68   1    -0.01  -0.02   0.00    -0.00   0.08   0.00     0.02  -0.10  -0.01
  69   1    -0.00  -0.03   0.01    -0.01   0.10  -0.00     0.03  -0.14  -0.01
  70   1    -0.01   0.03   0.00     0.02  -0.10  -0.01    -0.02   0.14   0.01
  71   1     0.00  -0.03  -0.00    -0.02   0.11   0.01     0.02  -0.10  -0.01
  72   1    -0.00  -0.01   0.00    -0.00   0.08   0.01    -0.00  -0.06  -0.01
  73   1    -0.00   0.02   0.01     0.01  -0.08  -0.01    -0.02   0.09   0.01
  74   1    -0.00   0.02   0.00     0.01  -0.11  -0.01    -0.01   0.10  -0.00
  75   1    -0.01  -0.00  -0.01    -0.01   0.01   0.04    -0.01  -0.01  -0.03
  76   1    -0.01   0.00  -0.02     0.00   0.03   0.06    -0.01   0.01  -0.04
  77   1     0.01  -0.01  -0.01    -0.02   0.05   0.03    -0.03   0.04   0.04
  78   1     0.02  -0.02  -0.01    -0.01   0.03   0.02    -0.02   0.03   0.02
  79   1    -0.01  -0.04   0.10     0.01   0.01  -0.08    -0.00   0.01  -0.09
  80   1    -0.02  -0.03   0.07     0.00   0.00  -0.06    -0.01   0.00  -0.07
  81   1    -0.01   0.01  -0.08    -0.00  -0.01   0.05    -0.02  -0.02   0.06
  82   1     0.00   0.02  -0.10    -0.01  -0.02   0.07    -0.02  -0.02   0.09
  83   1    -0.01  -0.03   0.11     0.01   0.02  -0.07     0.00   0.02  -0.08
  84   1    -0.01  -0.02   0.07     0.02   0.02  -0.05     0.01   0.01  -0.05
  85   1     0.01   0.02  -0.08     0.01  -0.02   0.06    -0.01  -0.02   0.07
  86   1     0.01   0.03  -0.11     0.00  -0.03   0.08    -0.01  -0.03   0.08
  87   1    -0.01   0.02   0.02    -0.00  -0.02  -0.02     0.01  -0.03  -0.01
  88   1    -0.02   0.05   0.03    -0.00  -0.01  -0.02     0.01  -0.02  -0.01
  89   1     0.03   0.03   0.04     0.02   0.02   0.03     0.01   0.01   0.02
  90   1     0.01   0.02   0.02     0.01   0.02   0.02     0.00   0.01   0.01
  91   1     0.05   0.02  -0.12     0.05   0.02  -0.09     0.03   0.01  -0.04
  92   1     0.04   0.00  -0.08     0.03   0.00  -0.06     0.02  -0.01  -0.03
  93   1    -0.02  -0.03   0.08    -0.01  -0.02   0.05     0.00  -0.02   0.03
  94   1    -0.04  -0.03   0.11    -0.03  -0.02   0.08    -0.01  -0.02   0.04
  95   1     0.06   0.01  -0.10     0.04   0.01  -0.08     0.02   0.00  -0.03
  96   1     0.05  -0.01  -0.07     0.03  -0.00  -0.06     0.02  -0.01  -0.02
  97   1    -0.02  -0.03   0.08    -0.01  -0.02   0.06    -0.00  -0.01   0.03
  98   1    -0.05  -0.04   0.10    -0.03  -0.02   0.08    -0.01  -0.01   0.04
  99   1    -0.02  -0.01  -0.02    -0.02  -0.01  -0.03    -0.01  -0.01  -0.01
 100   1    -0.01  -0.01  -0.02    -0.02  -0.02  -0.03    -0.01  -0.01  -0.01
 101   1     0.01   0.01  -0.01    -0.01  -0.01  -0.03     0.03   0.05   0.06
 102   1     0.01   0.01   0.00    -0.01  -0.01  -0.03     0.03   0.02   0.03
                     25                     26                     27
                        a                      a                      a 
 Frequencies --   124.3097               132.4388               152.2422
 Red. masses --    11.5811                11.4209                11.3866
 Frc consts  --     0.0000                 0.0000                 0.0000
 IR Inten    --     1.0911                 1.5856                 6.3101
 Raman Activ --     0.0000                 0.0000                 0.0000
 Depolar     --     0.0000                 0.0000                 0.0000
 Atom AN      X      Y      Z        X      Y      Z        X      Y      Z
   1   6    -0.06   0.07   0.04     0.07   0.00  -0.02    -0.02  -0.03   0.02
   2   6    -0.05   0.01   0.04     0.07  -0.02  -0.03    -0.03   0.01   0.04
   3   6    -0.02  -0.07   0.04     0.05  -0.00  -0.03    -0.01   0.04   0.05
   4   6    -0.00  -0.08   0.02     0.03   0.01  -0.02    -0.00   0.03   0.04
   5   6    -0.01  -0.07   0.01     0.03   0.03  -0.01    -0.00   0.01   0.02
   6   6    -0.04   0.01   0.02     0.05   0.03   0.00    -0.01  -0.03   0.01
   7   8     0.01  -0.14  -0.00     0.03   0.05  -0.01     0.01   0.02   0.01
   8   6     0.01  -0.05   0.01     0.02   0.01  -0.02     0.02   0.01   0.01
   9   6     0.00   0.09   0.02     0.03  -0.04  -0.02     0.05  -0.02  -0.01
  10   6     0.02   0.12   0.03     0.03  -0.04  -0.02     0.07  -0.01  -0.00
  11   6     0.04  -0.04   0.02     0.02   0.04  -0.02     0.07   0.03   0.03
  12   6     0.03  -0.14   0.02     0.02   0.07  -0.01     0.05   0.05   0.05
  13   6     0.02  -0.11   0.02     0.02   0.04  -0.02     0.02   0.04   0.04
  14   7     0.01  -0.10   0.02     0.01   0.01  -0.02     0.01   0.04   0.05
  15   6    -0.01   0.05   0.01     0.01  -0.04  -0.00    -0.00  -0.02  -0.02
  16   6    -0.10   0.10   0.01     0.04  -0.05  -0.00    -0.02  -0.06  -0.11
  17   6    -0.11   0.19  -0.06     0.05  -0.09   0.04    -0.03  -0.08  -0.17
  18   6    -0.05   0.22  -0.14     0.01  -0.10   0.09    -0.03  -0.06  -0.12
  19   6    -0.03   0.16  -0.12    -0.00  -0.12   0.08    -0.01   0.02   0.02
  20   7     0.13   0.10  -0.14     0.01  -0.16   0.05    -0.03   0.13   0.19
  21   7     0.16  -0.06  -0.05     0.02  -0.18   0.01    -0.01   0.11   0.09
  22   6     0.03  -0.11   0.05     0.02  -0.17   0.00     0.00  -0.01  -0.07
  23   6     0.05  -0.16   0.08     0.04  -0.19  -0.02     0.05  -0.08  -0.23
  24   6     0.01  -0.17   0.04     0.03  -0.18  -0.03     0.05  -0.04  -0.18
  25   6    -0.02  -0.08   0.02    -0.01  -0.09  -0.01     0.03   0.02  -0.10
  26   6     0.00  -0.00   0.03     0.01  -0.01   0.02     0.00   0.01  -0.09
  27   7    -0.00   0.05  -0.03    -0.00   0.05   0.02    -0.03   0.02   0.07
  28   6     0.01   0.05  -0.03     0.03   0.05   0.01    -0.02   0.02   0.08
  29   6     0.02   0.06  -0.03     0.06   0.08   0.02    -0.00   0.03   0.09
[...]
  68   1    -0.02  -0.00  -0.02     0.00   0.00   0.00     0.00   0.00   0.00
  69   1    -0.09  -0.02   0.01     0.00   0.00  -0.00     0.00   0.00  -0.00
  70   1    -0.04  -0.01   0.00     0.00   0.00  -0.00    -0.00  -0.00   0.00
  71   1    -0.51  -0.08   0.12     0.00   0.00  -0.00     0.00   0.00  -0.00
  72   1    -0.18   0.01  -0.20     0.00  -0.00   0.00     0.00  -0.00   0.00
  73   1    -0.01  -0.01   0.03     0.00   0.00  -0.00     0.00   0.00  -0.00
  74   1    -0.46  -0.06   0.11     0.00   0.00  -0.00     0.00   0.00  -0.00
  75   1    -0.10   0.12  -0.03     0.00  -0.00   0.00     0.00  -0.00   0.00
  76   1     0.17   0.40  -0.18    -0.00  -0.00   0.00    -0.00  -0.00   0.00
  77   1    -0.02   0.01  -0.03    -0.01   0.00  -0.01     0.00  -0.00   0.00
  78   1     0.01   0.01  -0.01     0.00   0.00  -0.00    -0.00  -0.00   0.00
  79   1    -0.00  -0.00  -0.00     0.07   0.02   0.01    -0.00  -0.00  -0.00
  80   1    -0.00   0.00   0.00     0.02  -0.02  -0.00     0.00  -0.00  -0.00
  81   1     0.00   0.00   0.00    -0.00  -0.01  -0.00    -0.00  -0.00  -0.00
  82   1    -0.00  -0.00  -0.00     0.02   0.01   0.00    -0.00  -0.00  -0.00
  83   1     0.00   0.00   0.00     0.67   0.27   0.14     0.04   0.02   0.01
  84   1     0.00  -0.00  -0.00     0.35  -0.27  -0.01     0.03  -0.02  -0.00
  85   1    -0.00  -0.00  -0.00    -0.01  -0.08  -0.02    -0.00  -0.01  -0.00
  86   1     0.00   0.00   0.00     0.37   0.14   0.09     0.01   0.00   0.00
  87   1     0.00  -0.00   0.00    -0.01   0.01  -0.01     0.00  -0.00   0.00
  88   1    -0.00  -0.00   0.00    -0.00  -0.00   0.00    -0.00  -0.00   0.00
  89   1     0.00   0.01  -0.01     0.00   0.00  -0.00     0.00   0.00  -0.00
  90   1     0.01  -0.00  -0.00     0.01  -0.00  -0.00    -0.01   0.00   0.01
  91   1     0.00  -0.00   0.00    -0.02   0.03  -0.00     0.24  -0.32   0.02
  92   1     0.00   0.00   0.00    -0.00  -0.00  -0.00     0.03   0.09   0.03
  93   1     0.00   0.00   0.00    -0.02  -0.00  -0.01     0.42   0.05   0.15
  94   1     0.00  -0.00   0.00    -0.02   0.03  -0.00     0.43  -0.60   0.06
  95   1    -0.00   0.00  -0.00    -0.00   0.00  -0.00    -0.00   0.00  -0.00
  96   1    -0.00  -0.00  -0.00     0.00   0.00   0.00     0.01   0.03   0.01
  97   1    -0.00  -0.00  -0.00    -0.00  -0.00  -0.00     0.03   0.00   0.01
  98   1    -0.00   0.00  -0.00    -0.01   0.01  -0.00     0.04  -0.04   0.01
  99   1    -0.00  -0.00   0.00     0.00   0.00  -0.00     0.00   0.00  -0.00
 100   1    -0.01   0.00   0.01     0.00  -0.00  -0.00    -0.00   0.00   0.00
 101   1     0.17  -0.20   0.05     0.00  -0.00   0.00     0.00  -0.00   0.00
 102   1    -0.03  -0.07   0.03    -0.00  -0.00   0.00    -0.00  -0.00   0.00
                    295                    296                    297
                        a                      a                      a 
 Frequencies --  3108.8943              3109.4633              3109.5625
 Red. masses --     1.9044                 1.9030                 1.9074
 Frc consts  --     0.0000                 0.0000                 0.0000
 IR Inten    --    68.8984                43.3468                74.6330
 Raman Activ --     0.0000                 0.0000                 0.0000
 Depolar     --     0.0000                 0.0000                 0.0000
 Atom AN      X      Y      Z        X      Y      Z        X      Y      Z
   1   6    -0.05  -0.03   0.13    -0.00  -0.00   0.00    -0.00  -0.00   0.00
   2   6     0.07   0.00   0.08     0.00   0.00   0.00     0.00   0.00   0.00
   3   6     0.14   0.03  -0.02     0.00   0.00  -0.00     0.00   0.00  -0.00
   4   6     0.00   0.00  -0.00     0.00   0.00  -0.00     0.00   0.00  -0.00
   5   6    -0.00   0.00  -0.00    -0.00   0.00  -0.00    -0.00  -0.00  -0.00
   6   6    -0.15  -0.02   0.02    -0.00  -0.00   0.00    -0.00  -0.00   0.00
   7   8     0.00  -0.00   0.00    -0.00  -0.00   0.00     0.00   0.00   0.00
   8   6     0.00   0.00  -0.00     0.00   0.00  -0.00     0.00   0.00  -0.00
   9   6     0.03   0.01  -0.01     0.00   0.00  -0.00     0.00   0.00  -0.00
  10   6     0.03  -0.00   0.03     0.00  -0.00   0.00     0.00  -0.00   0.00
  11   6    -0.01  -0.01   0.04    -0.00  -0.00   0.00    -0.00  -0.00   0.00
  12   6    -0.06  -0.01   0.01    -0.00  -0.00   0.00     0.00   0.00  -0.00
  13   6    -0.00  -0.00  -0.00    -0.00  -0.00  -0.00    -0.00   0.00  -0.00
  14   7     0.00  -0.00   0.00    -0.00  -0.00   0.00     0.00   0.00  -0.00
  15   6    -0.00   0.00  -0.00     0.00   0.00  -0.00    -0.00   0.00  -0.00
  16   6    -0.00   0.00  -0.00     0.00  -0.00   0.00     0.00  -0.00   0.00
  17   6     0.00   0.01  -0.00     0.00   0.00  -0.00    -0.00  -0.00   0.00
  18   6     0.00   0.00  -0.00    -0.00  -0.00   0.00     0.00   0.00  -0.00
  19   6     0.00   0.00  -0.00     0.00   0.00  -0.00    -0.00   0.00   0.00
  20   7    -0.00  -0.00   0.00    -0.00  -0.00   0.00     0.00   0.00  -0.00
  21   7    -0.00  -0.00   0.00     0.00   0.00  -0.00    -0.00  -0.00  -0.00
  22   6     0.00   0.00  -0.00     0.00   0.00   0.00     0.00  -0.00   0.00
  23   6     0.00   0.00   0.00     0.00   0.00  -0.00     0.00   0.00  -0.00
  24   6     0.00  -0.00   0.00    -0.00   0.00  -0.00     0.00  -0.00   0.00
  25   6    -0.00   0.00  -0.00    -0.00  -0.00   0.00    -0.00  -0.00   0.00
  26   6     0.00   0.00   0.00    -0.00   0.00  -0.00     0.00   0.00  -0.00
  27   7    -0.00  -0.00  -0.00     0.00  -0.00  -0.00     0.00  -0.00  -0.00
  28   6    -0.00  -0.00  -0.00     0.00   0.01   0.00     0.00   0.00   0.00
  29   6    -0.00  -0.00  -0.00     0.15   0.05   0.02     0.02   0.01   0.00
  30   6    -0.00   0.00   0.00     0.09  -0.07  -0.01     0.01  -0.01  -0.00
  31   6     0.00   0.00   0.00    -0.03  -0.13  -0.03    -0.00  -0.02  -0.00
  32   6     0.00   0.00   0.00    -0.14  -0.04  -0.02    -0.02  -0.01  -0.00
  33   6     0.00  -0.00  -0.00    -0.01   0.00   0.00    -0.00   0.00   0.00
  34   8    -0.00   0.00  -0.00     0.00  -0.00  -0.00     0.00  -0.00  -0.00
  35   6     0.00   0.00   0.00     0.00   0.00   0.00     0.00   0.00   0.00
  36   6     0.00   0.00   0.00    -0.00  -0.00  -0.00     0.00   0.00   0.00
  37   6     0.00  -0.00  -0.00     0.00  -0.00   0.00     0.00  -0.00  -0.00
  38   6    -0.00  -0.00  -0.00    -0.00  -0.01  -0.00    -0.00  -0.00  -0.00
  39   6    -0.00  -0.00  -0.00    -0.03  -0.01  -0.01    -0.01  -0.00  -0.00
  40   6    -0.00  -0.00   0.00    -0.00   0.00   0.00    -0.00   0.00   0.00
  41   6     0.00  -0.00   0.00    -0.00   0.00  -0.00     0.00  -0.00   0.00
  42   6    -0.00  -0.00   0.00     0.00   0.00  -0.00     0.00  -0.00   0.00
  43   6     0.00  -0.00  -0.00    -0.00   0.00  -0.00    -0.00   0.00  -0.00
  44   6    -0.00   0.00  -0.00    -0.00  -0.00   0.00     0.00   0.00  -0.00
  45   6     0.00   0.00  -0.00    -0.00  -0.00   0.00     0.00   0.00  -0.00
  46   6     0.00  -0.00  -0.00    -0.00   0.00   0.00     0.00  -0.00  -0.00
  47   6     0.00  -0.00   0.00    -0.00   0.00  -0.00     0.00   0.00  -0.00
  48   7    -0.00   0.00  -0.00     0.00   0.00   0.00    -0.00  -0.00  -0.00
  49   6    -0.00   0.00  -0.00    -0.00  -0.00  -0.00     0.00  -0.00   0.00
  50   6    -0.00   0.00  -0.00     0.00  -0.00   0.00     0.02  -0.02   0.00
  51   6     0.00   0.00   0.00    -0.00  -0.00  -0.00    -0.00  -0.01  -0.00
  52   6    -0.00  -0.00  -0.00    -0.00  -0.00  -0.00    -0.00   0.00  -0.00
  53   6    -0.00   0.00  -0.00    -0.00   0.00  -0.00     0.00  -0.00   0.00
  54   6     0.00  -0.00   0.00     0.00  -0.00   0.00    -0.00   0.00   0.00
  55   8     0.00   0.00   0.00     0.00   0.00   0.00    -0.00  -0.00  -0.00
  56   6    -0.00  -0.00  -0.00    -0.00  -0.00  -0.00     0.01   0.00   0.00
  57   6    -0.00   0.00  -0.00    -0.01   0.01  -0.00     0.09  -0.11   0.02
  58   6     0.00   0.00   0.00     0.01   0.02   0.00    -0.04  -0.15  -0.03
  59   6     0.00   0.00   0.00     0.01   0.00   0.01    -0.11  -0.02  -0.04
  60   6     0.00  -0.00   0.00     0.01  -0.01   0.00    -0.09   0.11  -0.03
  61   6    -0.00  -0.00   0.00    -0.00  -0.00  -0.00     0.00   0.01   0.00
  62   6    -0.00  -0.00   0.00     0.00   0.00  -0.00    -0.00  -0.00   0.00
  63   6    -0.00  -0.00   0.00    -0.00  -0.00   0.00    -0.00   0.00   0.00
  64   7    -0.00   0.00   0.00     0.00  -0.00   0.00     0.00  -0.00  -0.00
  65   6     0.00  -0.00   0.00     0.00  -0.00   0.00    -0.00   0.00  -0.00
  66   6    -0.00  -0.00   0.00     0.00   0.00  -0.00    -0.00  -0.00   0.00
  67   1     0.17   0.09  -0.42     0.00   0.00  -0.00     0.00   0.00  -0.00
  68   1    -0.21  -0.00  -0.26    -0.00  -0.00  -0.00    -0.00  -0.00  -0.00
  69   1    -0.47  -0.10   0.06    -0.00  -0.00   0.00    -0.00  -0.00   0.00
  70   1     0.49   0.08  -0.06     0.00   0.00  -0.00     0.00   0.00  -0.00
  71   1    -0.11  -0.02   0.03    -0.00  -0.00   0.00    -0.00  -0.00   0.00
  72   1    -0.09   0.00  -0.10    -0.00   0.00  -0.00    -0.00   0.00  -0.00
  73   1     0.04   0.02  -0.12     0.00   0.00  -0.00     0.00   0.00  -0.00
  74   1     0.22   0.03  -0.05     0.00   0.00  -0.00    -0.00  -0.00   0.00
  75   1     0.01  -0.01   0.00    -0.00   0.00  -0.00    -0.00   0.00  -0.00
  76   1    -0.01  -0.02   0.01    -0.00  -0.00   0.00     0.00   0.00  -0.00
  77   1    -0.00   0.00  -0.00     0.00  -0.00   0.00    -0.00   0.00  -0.00
  78   1    -0.00  -0.00   0.00     0.00   0.01  -0.01     0.00   0.00  -0.00
  79   1     0.00   0.00   0.00    -0.52  -0.16  -0.07    -0.07  -0.02  -0.01
  80   1     0.00  -0.00  -0.00    -0.28   0.24   0.02    -0.04   0.03   0.00
  81   1    -0.00  -0.00  -0.00     0.10   0.44   0.09     0.01   0.06   0.01
  82   1    -0.00  -0.00  -0.00     0.46   0.13   0.07     0.06   0.02   0.01
  83   1    -0.00  -0.00  -0.00     0.01   0.00   0.00    -0.00  -0.00  -0.00
  84   1    -0.00   0.00   0.00    -0.01   0.01   0.00    -0.01   0.01   0.00
  85   1     0.00   0.00   0.00     0.00   0.03   0.01     0.00   0.01   0.00
  86   1     0.00   0.00   0.00     0.11   0.04   0.03     0.03   0.01   0.01
  87   1    -0.00   0.00  -0.00     0.00  -0.00   0.00    -0.00   0.00  -0.00
  88   1     0.00   0.00  -0.00    -0.00  -0.00   0.00     0.00   0.00  -0.00
  89   1    -0.00  -0.00   0.00     0.00   0.00  -0.00    -0.00  -0.01   0.01
  90   1    -0.00   0.00   0.00     0.00  -0.00  -0.00    -0.01   0.00   0.00
  91   1     0.00  -0.00   0.00    -0.00   0.00  -0.00    -0.06   0.08  -0.01
  92   1    -0.00  -0.00  -0.00     0.00   0.00   0.00     0.01   0.02   0.01
  93   1     0.00   0.00   0.00     0.01   0.00   0.00     0.00   0.00   0.00
  94   1     0.00  -0.00   0.00     0.01  -0.01   0.00    -0.01   0.02  -0.00
  95   1     0.00  -0.00   0.00     0.04  -0.05   0.01    -0.32   0.36  -0.07
  96   1    -0.00  -0.00  -0.00    -0.02  -0.07  -0.01     0.14   0.48   0.11
  97   1    -0.00  -0.00  -0.00    -0.05  -0.01  -0.02     0.34   0.06   0.14
  98   1    -0.00   0.00  -0.00    -0.04   0.05  -0.01     0.31  -0.37   0.09
  99   1     0.00   0.00  -0.00    -0.00  -0.00   0.00     0.00   0.01  -0.01
 100   1     0.00  -0.00  -0.00     0.00  -0.00  -0.00     0.01  -0.00  -0.00
 101   1    -0.00   0.00  -0.00    -0.00   0.00  -0.00     0.00  -0.00   0.00
 102   1     0.01   0.01  -0.01    -0.00  -0.00   0.00     0.00   0.00  -0.00
                    298                    299                    300
                        a                      a                      a 
 Frequencies --  3110.1327              3112.4228              3113.3689
 Red. masses --     1.8986                 1.8769                 1.8741
 Frc consts  --     0.0000                 0.0000                 0.0000
 IR Inten    --    18.1792                34.7378                 8.9636
 Raman Activ --     0.0000                 0.0000                 0.0000
 Depolar     --     0.0000                 0.0000                 0.0000
 Atom AN      X      Y      Z        X      Y      Z        X      Y      Z
   1   6     0.02   0.01  -0.04    -0.00  -0.00   0.00    -0.00  -0.00   0.00
   2   6    -0.02  -0.00  -0.03     0.00   0.00   0.00     0.00   0.00   0.00
   3   6    -0.05  -0.01   0.01     0.00   0.00  -0.00     0.00   0.00  -0.00
   4   6    -0.00  -0.00   0.00     0.00   0.00  -0.00     0.00   0.00  -0.00
   5   6     0.00   0.00   0.00    -0.00  -0.00   0.00    -0.00  -0.00   0.00
   6   6     0.05   0.01  -0.01    -0.00  -0.00   0.00    -0.00  -0.00   0.00
   7   8    -0.00  -0.00   0.00    -0.00  -0.00   0.00    -0.00  -0.00   0.00
   8   6     0.00   0.00  -0.00    -0.00  -0.00  -0.00    -0.00  -0.00   0.00
   9   6     0.11   0.02  -0.03    -0.00  -0.00   0.00    -0.00  -0.00   0.00
  10   6     0.08  -0.00   0.09    -0.00   0.00  -0.00    -0.00   0.00  -0.00
  11   6    -0.04  -0.02   0.10     0.00   0.00  -0.00     0.00   0.00  -0.00
  12   6    -0.17  -0.02   0.04     0.00   0.00  -0.00     0.00   0.00  -0.00
  13   6    -0.01   0.00  -0.00     0.00  -0.00   0.00     0.00  -0.00   0.00
  14   7    -0.00  -0.00   0.00    -0.00  -0.00   0.00    -0.00  -0.00   0.00
  15   6     0.00   0.00  -0.00     0.00   0.00  -0.00     0.00  -0.00  -0.00
  16   6     0.00  -0.00   0.00    -0.00   0.00  -0.00    -0.00   0.00  -0.00
  17   6    -0.00  -0.00  -0.00     0.00   0.00  -0.00     0.00   0.00  -0.00
  18   6    -0.00   0.00   0.00     0.00  -0.00  -0.00     0.00  -0.00  -0.00
  19   6    -0.00  -0.00   0.00     0.00   0.00  -0.00     0.00   0.00  -0.00
  20   7     0.00   0.00  -0.00    -0.00  -0.00   0.00    -0.00  -0.00   0.00
  21   7    -0.00   0.00  -0.00     0.00  -0.00  -0.00     0.00   0.00   0.00
  22   6     0.00  -0.00   0.00     0.00   0.00   0.00    -0.00   0.00  -0.00
  23   6    -0.00  -0.00  -0.00     0.00  -0.00   0.00     0.00  -0.00   0.00
  24   6    -0.00   0.00  -0.00     0.00  -0.00   0.00     0.00  -0.00   0.00
  25   6    -0.00  -0.00   0.00    -0.00  -0.00   0.00    -0.00  -0.00   0.00
  26   6    -0.00  -0.00   0.00    -0.00  -0.00   0.00    -0.00  -0.00   0.00
  27   7     0.00   0.00   0.00     0.00   0.00   0.00     0.00   0.00   0.00
  28   6    -0.00  -0.00   0.00     0.00   0.00   0.00    -0.00   0.00  -0.00
  29   6    -0.00  -0.00  -0.00     0.02   0.01   0.00     0.00   0.00   0.00
  30   6    -0.00   0.00   0.00     0.01  -0.01  -0.00     0.00  -0.00  -0.00
  31   6     0.00   0.00   0.00    -0.00  -0.02  -0.00    -0.00  -0.00  -0.00
  32   6     0.00   0.00   0.00    -0.02  -0.00  -0.00    -0.00  -0.00  -0.00
  33   6     0.00  -0.00   0.00     0.00  -0.00  -0.00     0.00  -0.00  -0.00
  34   8     0.00   0.00   0.00     0.00   0.00   0.00     0.00   0.00   0.00
  35   6    -0.00  -0.00  -0.00    -0.00  -0.00  -0.00    -0.00  -0.00  -0.00
  36   6    -0.00  -0.00  -0.00    -0.06  -0.03  -0.01    -0.02  -0.01  -0.00
  37   6    -0.00   0.00  -0.00    -0.07   0.05   0.00    -0.02   0.02   0.00
  38   6     0.00   0.00   0.00     0.02   0.10   0.02     0.01   0.04   0.01
  39   6     0.00   0.00   0.00     0.20   0.08   0.05     0.08   0.03   0.02
  40   6     0.00  -0.00  -0.00     0.01  -0.00   0.00     0.00  -0.00   0.00
  41   6    -0.00   0.00  -0.00    -0.00   0.00  -0.01    -0.00   0.00  -0.00
  42   6     0.00   0.00  -0.00     0.00   0.00  -0.00    -0.00  -0.00   0.00
  43   6    -0.00   0.00   0.00    -0.00   0.00  -0.00     0.00  -0.00  -0.00
  44   6     0.00  -0.00  -0.00    -0.00  -0.00   0.00     0.00  -0.00  -0.00
  45   6     0.00   0.00  -0.00     0.00   0.00  -0.00     0.00  -0.00   0.00
  46   6    -0.00  -0.00   0.00     0.00  -0.00  -0.00    -0.00   0.00   0.00
  47   6    -0.00   0.00  -0.00    -0.00  -0.00   0.00     0.00   0.00  -0.00
  48   7     0.00  -0.00   0.00     0.00   0.00   0.00    -0.00  -0.00  -0.00
  49   6     0.00  -0.00   0.00    -0.00   0.00  -0.00     0.01  -0.00   0.00
  50   6     0.00  -0.00   0.00    -0.05   0.06  -0.00     0.13  -0.17   0.01
  51   6    -0.00  -0.00  -0.00     0.01   0.04   0.01    -0.03  -0.09  -0.03
  52   6    -0.00   0.00  -0.00     0.03   0.00   0.01    -0.08  -0.01  -0.03
  53   6     0.00  -0.00   0.00     0.02  -0.02   0.00    -0.03   0.05  -0.00
  54   6    -0.00   0.00  -0.00     0.00  -0.00  -0.00    -0.00   0.00   0.00
  55   8    -0.00  -0.00  -0.00     0.00   0.00   0.00    -0.00  -0.00  -0.00
  56   6     0.00  -0.00   0.00    -0.00  -0.00  -0.00     0.00   0.00   0.00
  57   6     0.00  -0.00   0.00     0.00  -0.01   0.00    -0.01   0.01  -0.00
  58   6    -0.00  -0.00  -0.00    -0.00  -0.01  -0.00     0.00   0.01   0.00
  59   6    -0.00  -0.00  -0.00    -0.01  -0.00  -0.00     0.01   0.00   0.00
  60   6    -0.00   0.00  -0.00    -0.01   0.01  -0.00     0.01  -0.01   0.00
  61   6     0.00   0.00  -0.00     0.00   0.00   0.00    -0.00  -0.00  -0.00
  62   6     0.00   0.00  -0.00    -0.00  -0.00   0.00     0.00   0.00  -0.00
  63   6    -0.00   0.00   0.00    -0.00   0.00   0.00     0.00  -0.00  -0.00
  64   7     0.00  -0.00  -0.00     0.00  -0.00   0.00    -0.00   0.00   0.00
  65   6    -0.00   0.00  -0.00     0.00  -0.00   0.00     0.00  -0.00   0.00
  66   6     0.00   0.01  -0.00    -0.00  -0.00   0.00    -0.00  -0.00   0.00
  67   1    -0.06  -0.03   0.14     0.00   0.00  -0.00     0.00   0.00  -0.00
  68   1     0.08   0.00   0.09    -0.00  -0.00  -0.00    -0.00  -0.00  -0.00
  69   1     0.17   0.04  -0.02    -0.00  -0.00   0.00    -0.00  -0.00   0.00
  70   1    -0.16  -0.03   0.02     0.00   0.00  -0.00     0.00   0.00  -0.00
  71   1    -0.37  -0.06   0.09     0.00   0.00  -0.00     0.00   0.00  -0.00
  72   1    -0.27   0.01  -0.29     0.00  -0.00   0.00     0.00  -0.00   0.00
  73   1     0.11   0.06  -0.34    -0.00  -0.00   0.00    -0.00  -0.00   0.00
  74   1     0.60   0.07  -0.14    -0.00  -0.00   0.00    -0.00  -0.00   0.00
  75   1    -0.01   0.01  -0.00     0.00  -0.00   0.00     0.00  -0.00   0.00
  76   1    -0.00  -0.00   0.00    -0.00  -0.00   0.00    -0.00  -0.00   0.00
  77   1     0.00  -0.00   0.00    -0.00   0.00  -0.01    -0.00   0.00  -0.00
  78   1     0.00   0.00  -0.00     0.00   0.01  -0.01     0.00   0.00  -0.00
  79   1     0.00   0.00   0.00    -0.07  -0.02  -0.01    -0.01  -0.00  -0.00
  80   1     0.00  -0.00  -0.00    -0.04   0.03   0.00    -0.01   0.01   0.00
  81   1    -0.00  -0.00  -0.00     0.01   0.05   0.01     0.00   0.01   0.00
  82   1    -0.00  -0.00  -0.00     0.05   0.02   0.01     0.01   0.00   0.00
  83   1     0.00   0.00   0.00     0.21   0.08   0.04     0.07   0.03   0.01
  84   1     0.00  -0.00  -0.00     0.22  -0.17  -0.00     0.08  -0.06  -0.00
  85   1    -0.00  -0.00  -0.00    -0.05  -0.30  -0.07    -0.02  -0.12  -0.03
  86   1    -0.00  -0.00  -0.00    -0.68  -0.26  -0.16    -0.27  -0.10  -0.06
  87   1     0.00  -0.00   0.00     0.01  -0.01   0.02     0.00  -0.00   0.00
  88   1    -0.00  -0.00   0.00    -0.00  -0.00   0.00     0.00   0.00  -0.00
  89   1    -0.00  -0.00   0.00    -0.00  -0.00   0.00     0.00  -0.00   0.00
  90   1     0.00  -0.00  -0.00    -0.01   0.00   0.01     0.02  -0.00  -0.01
  91   1    -0.00   0.00  -0.00     0.17  -0.23   0.02    -0.46   0.61  -0.05
  92   1     0.00   0.00   0.00    -0.04  -0.11  -0.03     0.10   0.30   0.08
  93   1     0.00   0.00   0.00    -0.10  -0.01  -0.04     0.24   0.03   0.09
  94   1    -0.00   0.00  -0.00    -0.05   0.07  -0.01     0.12  -0.16   0.02
  95   1    -0.00   0.00  -0.00    -0.02   0.02  -0.00     0.02  -0.03   0.01
  96   1     0.00   0.00   0.00     0.01   0.03   0.01    -0.01  -0.04  -0.01
  97   1     0.00   0.00   0.00     0.02   0.00   0.01    -0.03  -0.01  -0.01
  98   1     0.00  -0.00   0.00     0.02  -0.02   0.01    -0.03   0.04  -0.01
  99   1    -0.00  -0.00   0.00     0.00   0.00  -0.00    -0.00  -0.01   0.01
 100   1     0.00  -0.00  -0.00     0.00  -0.00  -0.00    -0.01   0.00   0.01
 101   1     0.01  -0.02   0.00    -0.00   0.00  -0.00    -0.00   0.00  -0.00
 102   1    -0.01  -0.02   0.01     0.00   0.00  -0.00     0.00   0.00  -0.00
