87
 energy: -134.003406351598 gnorm: 0.000038539794 xtb: 6.7.1 (edcfbbe)
C            9.55100779709565        0.15961976202604        1.23916406867634
C            8.68610019824557       -0.05135385133107       -0.01699924332362
C            9.57857459695805       -0.15957237034131       -1.26689014208999
C            7.91050595750236       -1.34592038742388        0.13580488467500
C            8.60023396155946       -2.54089499977130        0.28765171487904
C            7.94965690692062       -3.75488479374385        0.40694005134122
C            6.56786266312778       -3.78790261343739        0.36004802827412
C            5.85749743398901       -2.61555518096397        0.21155576071741
C            6.51236717659128       -1.38413874282549        0.11395133237876
N            5.77073312837609       -0.22127932990853       -0.02380386118058
C            4.35320757474747       -0.30286147431235       -0.02581969103512
C            3.64817000590965       -0.19028135148435       -1.21862844220837
C            2.26905928772526       -0.25761031201507       -1.21687997860076
C            1.56701313657004       -0.45256082994388       -0.02889340494990
C            0.09998542430262       -0.52658506595023       -0.02839156512539
C           -0.56615973170519       -1.47929750548358        0.74149109200901
C           -1.94297900037041       -1.54406002061413        0.74568320496183
C           -2.69763689153690       -0.64444865996775       -0.00770968838584
C           -4.14649843098471       -0.75486685805547        0.03604227849101
N           -4.78028453508866       -1.89645718412436        0.07924594897636
C           -6.10568626736838       -1.59429716114455        0.08258082455178
C           -7.20526449861619       -2.49693128188186        0.07584609282868
C           -7.00594822238142       -3.88121979693278        0.05518643524135
C           -8.07991077631268       -4.73428058544616        0.00750737614148
C           -9.37025996010915       -4.20894851793322       -0.02496958591308
C           -9.57753827393410       -2.84966839836441        0.00207086294588
C           -8.50640304264544       -1.94488101672365        0.06202078821089
C           -8.69178839386233       -0.50586237566475        0.13295566390081
C           -9.96894562963351        0.06681711989996        0.21601551260493
C          -10.15456636588409        1.42355383094816        0.33625785457790
C           -9.05651166300472        2.27520357471567        0.40058654397486
C           -7.78865886216103        1.75585412258089        0.31298199059321
C           -7.57789892587895        0.37851229362424        0.15483917970016
C           -6.28719895464126       -0.21342541185091        0.05624584798314
N           -5.01572868809573        0.31987784470581        0.01628701169354
C           -4.62262914622412        1.66387512149574       -0.05870750220833
C           -5.01141306640072        2.44789314510044       -1.14506800887395
C           -4.58891098303737        3.75715625903314       -1.23540351747924
C           -3.76701855651778        4.29204758285632       -0.24092020342858
C           -3.33024029573921        5.63353805721178       -0.33555382690856
N           -2.97745385181939        6.72120305344586       -0.41420329942317
C           -3.37590423957156        3.50623560179700        0.84407359948475
C           -3.80307884829715        2.19769244351618        0.93330809930237
C           -2.03513852536642        0.29387544965733       -0.79718383077934
C           -0.65628366315063        0.34816592659780       -0.80549742576400
C            2.28361460010849       -0.57470269246478        1.16017245279745
C            3.66204189367221       -0.49377171633925        1.16511021266002
C            6.37297966268584        1.01990518188443       -0.16006877307736
C            5.58031245247887        2.16707466358014       -0.26236453039294
C            6.15050588682467        3.41382158316350       -0.40948455346147
C            7.52697202069383        3.54128528773061       -0.44988235324154
C            8.31333440189825        2.41105261240922       -0.32573595210623
C            7.76617182339029        1.14420975071578       -0.17556850869536
H           10.23429099265852       -0.67253103303517        1.38454060207276
H           10.13701253392027        1.07098864212760        1.15874802161424
H            8.91347209511350        0.23814690298511        2.11793568114554
H            8.96076785553465       -0.31136603172132       -2.15013107245158
H           10.16132461002336        0.74652948485741       -1.40774108713977
H           10.26625898105990       -0.99643075566384       -1.18205556213342
H            9.67951292825164       -2.53084348450271        0.31252135302418
H            8.51741200516139       -4.66500188848513        0.52664491016117
H            6.03893882746906       -4.72634826182126        0.43616213917523
H            4.77985715034218       -2.65131264551009        0.16474525713835
H            4.19020841213825       -0.04658312560374       -2.14170261509388
H            1.72903238931281       -0.18418507075404       -2.14920090666276
H            0.00547372589495       -2.18670835314674        1.32392978746122
H           -2.46036112898134       -2.28849658337535        1.33053167429161
H           -5.99037529781038       -4.24507915428988        0.06919075274093
H           -7.93170121336916       -5.80378725259061       -0.01103819132425
H          -10.21850481990960       -4.87649130102814       -0.07190384485747
H          -10.59372400369072       -2.49002602723069       -0.02856188605444
H          -10.84154703110365       -0.56564438988131        0.19792842568408
H          -11.15413553015845        1.82755985941496        0.39774582070523
H           -9.19874455620113        3.33844973215056        0.52469550325609
H           -6.94129314965123        2.41899393852984        0.38889111158245
H           -5.64391165901441        2.02038333484451       -1.90911207718370
H           -4.88455945435844        4.37085826013368       -2.07307056802909
H           -2.74241568767165        3.92818797495798        1.60958608118511
H           -3.50633097375444        1.57935493572329        1.76693834961600
H           -2.59392821855027        0.96940945452411       -1.42796828594230
H           -0.15746807026073        1.09041202502351       -1.41135969521023
H            1.75252989743387       -0.70854266342741        2.09102854389511
H            4.21444458284741       -0.57956536367852        2.08925544051045
H            4.50554717250453        2.07805776972106       -0.22077436298919
H            5.51654193259707        4.28437315260568       -0.48970056800904
H            7.98581256400492        4.51100898732630       -0.56838536761564
H            9.38659143721219        2.52627814857064       -0.34530919043226
