87
 energy: -134.003591700696 gnorm: 0.000067112238 xtb: 6.7.1 (edcfbbe)
C           10.16877254534605       -1.26617579128990        0.62742565840214
C            9.23455717946990       -0.22076547735166       -0.00881836962717
C           10.05906642950973        0.89177465209537       -0.68174529745566
C            8.38847826762182       -0.90274828502742       -1.06723156267734
C            9.00871591124599       -1.52030628157947       -2.14448430151078
C            8.28996412116216       -2.14083660855007       -3.14940913510377
C            6.90820266069962       -2.13960357655703       -3.09135312370744
C            6.26593900436109       -1.53410896497289       -2.03211139286949
C            6.99116320115044       -0.92252934940379       -1.00513579370884
N            6.31771032166862       -0.32930491814765        0.05047415534064
C            4.89848169637133       -0.38356456885480        0.08003713768298
C            4.14885582605121        0.72210988026859       -0.30370364151955
C            2.76943774811027        0.66822241075929       -0.26956298895809
C            2.11146827112763       -0.49141909306056        0.13648021278196
C            0.64415332656431       -0.54840156732147        0.16454830806435
C           -0.03502604047113       -1.68781877442387       -0.26566415545315
C           -1.41218838501108       -1.73433610067673       -0.25160129756980
C           -2.15569781957041       -0.64054063853202        0.19394615016679
C           -3.60435298476311       -0.75253579417270        0.18967889881352
N           -4.23606888920918       -1.86557583739932        0.45469979920544
C           -5.56169282748758       -1.57763352234172        0.37700730573053
C           -6.65835842228238       -2.44919795892429        0.62511383318312
C           -6.45429272594816       -3.77930074670456        1.00655411839232
C           -7.52526865538073       -4.59309318754975        1.27878264567050
C           -8.81722714190422       -4.08080518548844        1.17678964580949
C           -9.02910436234181       -2.77641543777238        0.79592077910760
C           -7.96112343966914       -1.91605490052938        0.49793321303426
C           -8.15110356691351       -0.54627976454236        0.05305255947589
C           -9.43051846371950       -0.01765213971026       -0.16959613484245
C           -9.62132308317362        1.25973119967390       -0.64026862013152
C           -8.52643820326229        2.06670693719611       -0.93200897605281
C           -7.25644033723671        1.59072517078606       -0.71889595221175
C           -7.04011322801079        0.30332321126004       -0.20672343330338
C           -5.74698146440058       -0.23948935111322        0.03669715732816
N           -4.47687160832738        0.28715817588011       -0.07306385584008
C           -4.09043002968022        1.60363573105257       -0.36395188255278
C           -3.29152446234809        1.85689036925525       -1.47681494129320
C           -2.87073210876929        3.14301148750314       -1.74440407535192
C           -3.24764691308752        4.18738231738311       -0.89873634782403
C           -2.81533166537228        5.50617161465263       -1.16938266900736
N           -2.46475895589062        6.57532125504260       -1.38774628136288
C           -4.04984042343920        3.93383068495641        0.21606396953277
C           -4.46621294747378        2.64677997495917        0.48264278158191
C           -1.47974631315492        0.48734543827913        0.65672931680426
C           -0.10073739160187        0.53190225724979        0.63308189733004
C            2.87271061211833       -1.59595459950691        0.51478447959593
C            4.25228238376971       -1.54287603836399        0.49291524147925
C            6.98768613262568        0.31172185286563        1.08016543870175
C            6.26137567322679        0.86675877429691        2.13796564368927
C            6.89946251752365        1.51772084301907        3.17248112986170
C            8.27846603269903        1.62256306728103        3.17394768604913
C            8.99986000065810        1.05832839294802        2.13821948914880
C            8.38391354405452        0.39626551500797        1.08519666508653
H           10.80564666258082       -1.72599034664149       -0.12319951572412
H           10.80537824804959       -0.81085102618254        1.38099058682547
H            9.57917331714768       -2.04779570356959        1.10312784244838
H           10.69112272569568        1.39862380094938        0.04220815811905
H           10.69513374835533        0.48533963652549       -1.46322674802773
H            9.39236724545700        1.62652805419828       -1.12948973342980
H           10.08646126652916       -1.51926956493114       -2.20809319870666
H            8.80491596344904       -2.61381176531994       -3.97168004390189
H            6.32628637303543       -2.60786120715904       -3.87136699798352
H            5.18714743278685       -1.52905870069827       -1.99838111580395
H            4.65626764237809        1.61965948148252       -0.62530014353874
H            2.19345025305030        1.52616114947357       -0.58386010377974
H            0.52511848055365       -2.53396458589673       -0.63519062887707
H           -1.93986432040146       -2.61344323411228       -0.58692255246053
H           -5.43753444180565       -4.13153230805318        1.08469222143716
H           -7.37349461271913       -5.62027838754599        1.57544591118432
H           -9.66314171327121       -4.71510989367183        1.39906747972062
H          -10.04645310177715       -2.42413459592936        0.73433944471742
H          -10.30091327229158       -0.62468898076170        0.01926914393572
H          -10.62254488764311        1.63166030801313       -0.79948902027062
H           -8.67280153445781        3.06011242987868       -1.32930305167867
H           -6.41181339738322        2.21267730730026       -0.97041148218382
H           -3.00483309021245        1.04017677600718       -2.12191181200502
H           -2.25313091633979        3.34834151859888       -2.60571326701103
H           -4.33499957080430        4.74695405351418        0.86662707019022
H           -5.08348374889496        2.43579962087129        1.34346202333107
H           -2.02681376191768        1.32412498127867        1.06498093222274
H            0.40845646473347        1.40684689275402        1.00991034146040
H            2.37750712711834       -2.49404968148666        0.85275277699063
H            4.84026797681460       -2.39765291163157        0.79306000930944
H            5.18549624933054        0.78111411964333        2.14819590503081
H            6.31662302857850        1.94024833920746        3.97749190008094
H            8.78984142085899        2.13232054211743        3.97621736508602
H           10.07632992965386        1.13839796807009        2.15750484282389
