      -----------------------------------------------------------      
     |                   =====================                   |     
     |                           x T B                           |     
     |                   =====================                   |     
     |                         S. Grimme                         |     
     |          Mulliken Center for Theoretical Chemistry        |     
     |                    University of Bonn                     |     
      -----------------------------------------------------------      

   * xtb version 6.7.1 (edcfbbe) compiled by 'albert@albert-system' on 2024-07-22

   xtb is free software: you can redistribute it and/or modify it under
   the terms of the GNU Lesser General Public License as published by
   the Free Software Foundation, either version 3 of the License, or
   (at your option) any later version.
   
   xtb is distributed in the hope that it will be useful,
   but WITHOUT ANY WARRANTY; without even the implied warranty of
   MERCHANTABILITY or FITNESS FOR A PARTICULAR PURPOSE.  See the
   GNU Lesser General Public License for more details.
   
   Cite this work as:
   * C. Bannwarth, E. Caldeweyher, S. Ehlert, A. Hansen, P. Pracht,
     J. Seibert, S. Spicher, S. Grimme, WIREs Comput. Mol. Sci., 2020, 11,
     e01493. DOI: 10.1002/wcms.1493
   
   for GFN2-xTB:
   * C. Bannwarth, S. Ehlert and S. Grimme., J. Chem. Theory Comput., 2019,
     15, 1652-1671. DOI: 10.1021/acs.jctc.8b01176
   for GFN1-xTB:
   * S. Grimme, C. Bannwarth, P. Shushkov, J. Chem. Theory Comput., 2017,
     13, 1989-2009. DOI: 10.1021/acs.jctc.7b00118
   for GFN0-xTB:
   * P. Pracht, E. Caldeweyher, S. Ehlert, S. Grimme, ChemRxiv, 2019, preprint.
     DOI: 10.26434/chemrxiv.8326202.v1
   for GFN-FF:
   * S. Spicher and S. Grimme, Angew. Chem. Int. Ed., 2020, 59, 15665-15673.
     DOI: 10.1002/anie.202004239
   
   for ALPB and GBSA implicit solvation:
   * S. Ehlert, M. Stahn, S. Spicher, S. Grimme, J. Chem. Theory Comput.,
     2021, 17, 4250-4261. DOI: 10.1021/acs.jctc.1c00471
   
   for ddCOSMO and CPCM-X implicit solvation:
   * M. Stahn, S. Ehlert, S. Grimme, J. Phys. Chem. A,
     2023, XX, XXXX-XXXX. DOI: 10.1021/acs.jpca.3c04382
   
   for DFT-D4:
   * E. Caldeweyher, C. Bannwarth and S. Grimme, J. Chem. Phys., 2017,
     147, 034112. DOI: 10.1063/1.4993215
   * E. Caldeweyher, S. Ehlert, A. Hansen, H. Neugebauer, S. Spicher,
     C. Bannwarth and S. Grimme, J. Chem. Phys., 2019, 150, 154122.
     DOI: 10.1063/1.5090222
   * E. Caldeweyher, J.-M. Mewes, S. Ehlert and S. Grimme, Phys. Chem. Chem. Phys.
     2020, 22, 8499-8512. DOI: 10.1039/D0CP00502A
   
   for sTDA-xTB:
   * S. Grimme and C. Bannwarth, J. Chem. Phys., 2016, 145, 054103.
     DOI: 10.1063/1.4959605
   
   in the mass-spec context:
   * V. Asgeirsson, C. Bauer and S. Grimme, Chem. Sci., 2017, 8, 4879.
     DOI: 10.1039/c7sc00601b
   * J. Koopman and S. Grimme, ACS Omega 2019, 4, 12, 15120-15133.
     DOI: 10.1021/acsomega.9b02011
   
   for metadynamics refer to:
   * S. Grimme, J. Chem. Theory Comput., 2019, 155, 2847-2862
     DOI: 10.1021/acs.jctc.9b00143
   
   for SPH calculations refer to:
   * S. Spicher and S. Grimme, J. Chem. Theory Comput., 2021, 17, 1701-1714
     DOI: 10.1021/acs.jctc.0c01306
   
   for ONIOM refer to:
   * C. Plett, A. Katbashev, S. Ehlert, S. Grimme, M. Bursch,
     Phys. Chem. Chem. Phys., 2023, 25, 17860-17868. DOI: 10.1039/D3CP02178E
   
   for DIPRO refer to:
   * J. Kohn, N. Gildemeister, S. Grimme, D. Fazzi, A. Hansen,
     J. Chem. Phys., 2023, just accepted.
   
   for PTB refer to:
   * S. Grimme, M. Mueller, A. Hansen, J. Chem. Phys., 2023, 158, 124111.
     DOI: 10.1063/5.0137838
   
   with help from (in alphabetical order)
   P. Atkinson, C. Bannwarth, F. Bohle, G. Brandenburg, E. Caldeweyher
   M. Checinski, S. Dohm, S. Ehlert, S. Ehrlich, I. Gerasimov, C. Hölzer
   A. Katbashev, J. Kohn, J. Koopman, C. Lavigne, S. Lehtola, F. März, M. Müller,
   F. Musil, H. Neugebauer, J. Pisarek, C. Plett, P. Pracht, F. Pultar,
   J. Seibert, P. Shushkov, S. Spicher, M. Stahn, M. Steiner, T. Strunk,
   J. Stückrath, T. Rose, and J. Unsleber
   
 * started run on 2025/09/09 at 05:10:47.558     
   ID    Z sym.   atoms
    1    7 N      1, 21
    2    6 C      2-20, 22-45
    3    1 H      46-75

           -------------------------------------------------
          |                Calculation Setup                |
           -------------------------------------------------

          program call               : xtb data2507/gas/TPB-AC/TPB-AC_gas_S0_crest.xyz --gfn 2 --ohess vtight --parallel 40 --molden --ceasefiles --namespace data2507/gas/TPB-AC/TPB-AC_gas_S0_finalOpt
          calculation namespace      : data2507/gas/TPB-AC/TPB-AC_gas_S0_finalOpt
          coordinate file            : data2507/gas/TPB-AC/TPB-AC_gas_S0_crest.xyz
          omp threads                :                    40


           -------------------------------------------------
          |                 G F N 2 - x T B                 |
           -------------------------------------------------

        Reference                      10.1021/acs.jctc.8b01176
      * Hamiltonian:
        H0-scaling (s, p, d)           1.850000    2.230000    2.230000
        zeta-weighting                 0.500000
      * Dispersion:
        s8                             2.700000
        a1                             0.520000
        a2                             5.000000
        s9                             5.000000
      * Repulsion:
        kExp                           1.500000    1.000000
        rExp                           1.000000
      * Coulomb:
        alpha                          2.000000
        third order                    shell-resolved
        anisotropic                    true
        a3                             3.000000
        a5                             4.000000
        cn-shift                       1.200000
        cn-exp                         4.000000
        max-rad                        5.000000


          ...................................................
          :                      SETUP                      :
          :.................................................:
          :  # basis functions                 210          :
          :  # atomic orbitals                 210          :
          :  # shells                          120          :
          :  # electrons                       212          :
          :  max. iterations                   250          :
          :  Hamiltonian                  GFN2-xTB          :
          :  restarted?                      false          :
          :  GBSA solvation                  false          :
          :  PC potential                    false          :
          :  electronic temp.          300.0000000     K    :
          :  accuracy                    1.0000000          :
          :  -> integral cutoff          0.2500000E+02      :
          :  -> integral neglect         0.1000000E-07      :
          :  -> SCF convergence          0.1000000E-05 Eh   :
          :  -> wf. convergence          0.1000000E-03 e    :
          :  Broyden damping             0.4000000          :
          :  net charge                          0          :
          :  unpaired electrons                  0          :
          ...................................................

 iter      E             dE          RMSdq      gap      omega  full diag
   1   -115.3248247 -0.115325E+03  0.438E+00    2.14       0.0  T
   2   -115.3757227 -0.508980E-01  0.269E+00    2.47       1.0  T
   3   -115.2677157  0.108007E+00  0.154E+00    1.89       1.0  T
   4   -115.3968940 -0.129178E+00  0.373E-01    2.01       1.0  T
   5   -115.4020338 -0.513980E-02  0.132E-01    2.00       1.0  T
   6   -115.4028715 -0.837718E-03  0.445E-02    2.00       1.0  T
   7   -115.4029240 -0.524926E-04  0.192E-02    2.02       1.0  T
   8   -115.4029260 -0.203644E-05  0.967E-03    2.02       1.2  T
   9   -115.4029318 -0.575798E-05  0.262E-03    2.03       4.4  T
  10   -115.4029320 -0.199206E-06  0.104E-03    2.02      11.1  T
  11   -115.4029320 -0.595785E-07  0.351E-04    2.02      32.9  T
  12   -115.4029320  0.357545E-10  0.212E-04    2.02      54.5  T

   *** convergence criteria satisfied after 12 iterations ***

         #    Occupation            Energy/Eh            Energy/eV
      -------------------------------------------------------------
         1        2.0000           -0.6669895             -18.1497
       ...           ...                  ...                  ...
       100        2.0000           -0.4070855             -11.0774
       101        2.0000           -0.4064067             -11.0589
       102        2.0000           -0.4057523             -11.0411
       103        2.0000           -0.3985100             -10.8440
       104        2.0000           -0.3977323             -10.8228
       105        2.0000           -0.3831568             -10.4262
       106        2.0000           -0.3505591              -9.5392 (HOMO)
       107                         -0.2762034              -7.5159 (LUMO)
       108                         -0.2543561              -6.9214
       109                         -0.2429671              -6.6115
       110                         -0.2409354              -6.5562
       111                         -0.2321037              -6.3159
       ...                                ...                  ...
       210                          1.1743129              31.9547
      -------------------------------------------------------------
                  HL-Gap            0.0743557 Eh            2.0233 eV
             Fermi-level           -0.3133813 Eh           -8.5275 eV

 SCC (total)                   0 d,  0 h,  0 min,  0.228 sec
 SCC setup                      ...        0 min,  0.001 sec (  0.356%)
 Dispersion                     ...        0 min,  0.004 sec (  1.726%)
 classical contributions        ...        0 min,  0.000 sec (  0.180%)
 integral evaluation            ...        0 min,  0.007 sec (  3.094%)
 iterations                     ...        0 min,  0.200 sec ( 87.451%)
 molecular gradient             ...        0 min,  0.015 sec (  6.717%)
 printout                       ...        0 min,  0.001 sec (  0.439%)

         :::::::::::::::::::::::::::::::::::::::::::::::::::::
         ::                     SUMMARY                     ::
         :::::::::::::::::::::::::::::::::::::::::::::::::::::
         :: total energy            -113.174826561714 Eh    ::
         :: gradient norm              0.000291567548 Eh/a0 ::
         :: HOMO-LUMO gap              2.023322539872 eV    ::
         ::.................................................::
         :: SCC energy              -115.402378636532 Eh    ::
         :: -> isotropic ES            0.014243437638 Eh    ::
         :: -> anisotropic ES          0.010706950902 Eh    ::
         :: -> anisotropic XC          0.084168394624 Eh    ::
         :: -> dispersion             -0.105664059283 Eh    ::
         :: repulsion energy           2.227552074817 Eh    ::
         :: add. restraining           0.000000000000 Eh    ::
         :: total charge               0.000000000000 e     ::
         :::::::::::::::::::::::::::::::::::::::::::::::::::::

      ----------------------------------------------------------- 
     |                   =====================                   |
     |                        A N C O P T                        |
     |                   =====================                   |
     |               Approximate Normal Coordinate               |
     |                Rational Function Optimizer                |
      ----------------------------------------------------------- 

Optimization log is written to '/dev/null'
      ----------------------------------------------------------- 
     |                   =====================                   |
     |                        A N C O P T                        |
     |                   =====================                   |
     |               Approximate Normal Coordinate               |
     |                Rational Function Optimizer                |
      ----------------------------------------------------------- 

          ...................................................
          :                      SETUP                      :
          :.................................................:
          :   optimization level         verytight          :
          :   max. optcycles                  1500          :
          :   ANC micro-cycles                  20          :
          :   degrees of freedom               219          :
          :.................................................:
          :   RF solver                   davidson          :
          :   write xtbopt.log                true          :
          :   linear?                        false          :
          :   energy convergence         0.1000000E-06 Eh   :
          :   grad. convergence          0.2000000E-03 Eh/α :
          :   maxmium RF displ.          1.0000000          :
          :   Hlow (freq-cutoff)         0.1000000E-01      :
          :   Hmax (freq-cutoff)         5.0000000          :
          :   S6 in model hess.         20.0000000          :
          ...................................................

generating ANC from exact Hessian ...
Using Lindh-Hessian (1995)
 Shifting diagonal of input Hessian by   9.901109747275686E-003
 Lowest  eigenvalues of input Hessian
    0.000000    0.000000    0.000000    0.000000    0.000000    0.000000
    0.010000    0.010009    0.010062    0.010302    0.010473    0.010749
    0.010776    0.010883    0.011157    0.011240    0.011258    0.011370
 Highest eigenvalues
    2.047825    2.062782    2.104435    2.159840    2.169859    2.632746
 

........................................................................
.............................. CYCLE    1 ..............................
........................................................................

 iter      E             dE          RMSdq      gap      omega  full diag
   1   -115.4029320 -0.115403E+03  0.790E-05    2.02       0.0  T
   2   -115.4029320 -0.477485E-10  0.580E-05    2.02     199.0  T
   3   -115.4029320 -0.215366E-09  0.325E-05    2.02     355.6  T
     SCC iter.                  ...        0 min,  0.041 sec
     gradient                   ...        0 min,  0.012 sec
 * total energy  :  -113.1748266 Eh     change       -0.2584926E-08 Eh
   gradient norm :     0.0002918 Eh/α   predicted     0.0000000E+00 (-100.00%)
   displ. norm   :     0.0125066 α      lambda       -0.1214223E-06
   maximum displ.:     0.0054296 α      in ANC's #4, #2, #16, ...

........................................................................
.............................. CYCLE    2 ..............................
........................................................................

 iter      E             dE          RMSdq      gap      omega  full diag
   1   -115.4031755 -0.115403E+03  0.886E-03    2.02       0.0  T
   2   -115.4031756 -0.791244E-07  0.493E-03    2.02       2.3  T
   3   -115.4031755  0.113543E-07  0.723E-04    2.02      16.0  T
   4   -115.4031756 -0.461055E-07  0.164E-04    2.02      70.3  T
     SCC iter.                  ...        0 min,  0.035 sec
     gradient                   ...        0 min,  0.010 sec
 * total energy  :  -113.1748264 Eh     change        0.1581396E-06 Eh
   gradient norm :     0.0005200 Eh/α   predicted    -0.6403181E-06 (-504.91%)
   displ. norm   :     0.0112080 α      lambda       -0.1635328E-05
   maximum displ.:     0.0052988 α      in ANC's #4, #2, #12, ...

........................................................................
.............................. CYCLE    3 ..............................
........................................................................

 iter      E             dE          RMSdq      gap      omega  full diag
   1   -115.4033026 -0.115403E+03  0.681E-03    2.02       0.0  T
   2   -115.4033026 -0.469336E-07  0.379E-03    2.02       3.0  T
   3   -115.4033026  0.556119E-08  0.557E-04    2.02      20.7  T
   4   -115.4033026 -0.257905E-07  0.131E-04    2.02      87.8  T
     SCC iter.                  ...        0 min,  0.034 sec
     gradient                   ...        0 min,  0.009 sec
 * total energy  :  -113.1748280 Eh     change       -0.1551652E-05 Eh
   gradient norm :     0.0002259 Eh/α   predicted    -0.8185929E-06 ( -47.24%)
   displ. norm   :     0.0194597 α      lambda       -0.1034021E-05
   maximum displ.:     0.0104654 α      in ANC's #4, #2, #12, ...

........................................................................
.............................. CYCLE    4 ..............................
........................................................................

 iter      E             dE          RMSdq      gap      omega  full diag
   1   -115.4031639 -0.115403E+03  0.537E-03    2.02       0.0  T
   2   -115.4031639 -0.141733E-07  0.309E-03    2.02       3.7  T
   3   -115.4031639  0.741213E-08  0.431E-04    2.02      26.8  T
   4   -115.4031639 -0.133309E-07  0.118E-04    2.02      97.7  T
     SCC iter.                  ...        0 min,  0.034 sec
     gradient                   ...        0 min,  0.010 sec
 * total energy  :  -113.1748292 Eh     change       -0.1202324E-05 Eh
   gradient norm :     0.0001685 Eh/α   predicted    -0.5173354E-06 ( -56.97%)
   displ. norm   :     0.0403042 α      lambda       -0.1484311E-05
   maximum displ.:     0.0214901 α      in ANC's #4, #2, #12, ...

........................................................................
.............................. CYCLE    5 ..............................
........................................................................

 iter      E             dE          RMSdq      gap      omega  full diag
   1   -115.4030685 -0.115403E+03  0.914E-03    2.02       0.0  T
   2   -115.4030685 -0.249188E-07  0.532E-03    2.02       2.2  T
   3   -115.4030685  0.207528E-07  0.675E-04    2.02      17.1  T
   4   -115.4030685 -0.305895E-07  0.151E-04    2.02      76.7  T
     SCC iter.                  ...        0 min,  0.034 sec
     gradient                   ...        0 min,  0.009 sec
 * total energy  :  -113.1748311 Eh     change       -0.1947975E-05 Eh
   gradient norm :     0.0002663 Eh/α   predicted    -0.7441598E-06 ( -61.80%)
   displ. norm   :     0.0757401 α      lambda       -0.2497050E-05
   maximum displ.:     0.0401607 α      in ANC's #4, #2, #12, ...

........................................................................
.............................. CYCLE    6 ..............................
........................................................................

 iter      E             dE          RMSdq      gap      omega  full diag
   1   -115.4030074 -0.115403E+03  0.160E-02    2.02       0.0  T
   2   -115.4030075 -0.545960E-07  0.939E-03    2.02       1.2  T
   3   -115.4030074  0.715373E-07  0.117E-03    2.02       9.9  T
   4   -115.4030075 -0.924922E-07  0.201E-04    2.02      57.5  T
   5   -115.4030075 -0.557264E-09  0.109E-04    2.02     105.8  T
     SCC iter.                  ...        0 min,  0.042 sec
     gradient                   ...        0 min,  0.010 sec
 * total energy  :  -113.1748341 Eh     change       -0.2980069E-05 Eh
   gradient norm :     0.0002466 Eh/α   predicted    -0.1252165E-05 ( -57.98%)
   displ. norm   :     0.0770103 α      lambda       -0.1791939E-05
   maximum displ.:     0.0425293 α      in ANC's #2, #4, #12, ...

........................................................................
.............................. CYCLE    7 ..............................
........................................................................

 iter      E             dE          RMSdq      gap      omega  full diag
   1   -115.4030002 -0.115403E+03  0.157E-02    2.02       0.0  T
   2   -115.4030002 -0.516874E-07  0.921E-03    2.02       1.3  T
   3   -115.4030002  0.659817E-07  0.116E-03    2.02      10.0  T
   4   -115.4030003 -0.853297E-07  0.183E-04    2.02      63.3  T
   5   -115.4030003 -0.406217E-09  0.982E-05    2.02     117.6  T
     SCC iter.                  ...        0 min,  0.042 sec
     gradient                   ...        0 min,  0.009 sec
 * total energy  :  -113.1748360 Eh     change       -0.1956052E-05 Eh
   gradient norm :     0.0001782 Eh/α   predicted    -0.8991319E-06 ( -54.03%)
   displ. norm   :     0.0426156 α      lambda       -0.7031677E-06
   maximum displ.:     0.0256869 α      in ANC's #2, #4, #12, ...

........................................................................
.............................. CYCLE    8 ..............................
........................................................................

 iter      E             dE          RMSdq      gap      omega  full diag
   1   -115.4030542 -0.115403E+03  0.817E-03    2.02       0.0  T
   2   -115.4030542 -0.141264E-07  0.478E-03    2.02       2.4  T
   3   -115.4030542  0.180233E-07  0.608E-04    2.02      19.0  T
   4   -115.4030542 -0.234503E-07  0.103E-04    2.02     112.0  T
     SCC iter.                  ...        0 min,  0.034 sec
     gradient                   ...        0 min,  0.009 sec
 * total energy  :  -113.1748369 Eh     change       -0.8542664E-06 Eh
   gradient norm :     0.0001346 Eh/α   predicted    -0.3561554E-06 ( -58.31%)
   displ. norm   :     0.0257839 α      lambda       -0.5598295E-06
   maximum displ.:     0.0168657 α      in ANC's #2, #4, #3, ...

........................................................................
.............................. CYCLE    9 ..............................
........................................................................

 iter      E             dE          RMSdq      gap      omega  full diag
   1   -115.4031110 -0.115403E+03  0.456E-03    2.02       0.0  T
   2   -115.4031110 -0.470784E-08  0.267E-03    2.02       4.3  T
   3   -115.4031110  0.617455E-08  0.346E-04    2.02      33.4  T
   4   -115.4031111 -0.810633E-08  0.771E-05    2.02     149.7  T
     SCC iter.                  ...        0 min,  0.034 sec
     gradient                   ...        0 min,  0.009 sec
 * total energy  :  -113.1748377 Eh     change       -0.7677812E-06 Eh
   gradient norm :     0.0001032 Eh/α   predicted    -0.2806639E-06 ( -63.44%)
   displ. norm   :     0.0405550 α      lambda       -0.1045030E-05
   maximum displ.:     0.0262559 α      in ANC's #2, #4, #3, ...

........................................................................
.............................. CYCLE   10 ..............................
........................................................................

 iter      E             dE          RMSdq      gap      omega  full diag
   1   -115.4031201 -0.115403E+03  0.734E-03    2.02       0.0  T
   2   -115.4031201 -0.133748E-07  0.428E-03    2.02       2.7  T
   3   -115.4031201  0.564940E-08  0.406E-04    2.02      28.4  T
   4   -115.4031201 -0.112232E-07  0.120E-04    2.02      96.4  T
     SCC iter.                  ...        0 min,  0.034 sec
     gradient                   ...        0 min,  0.009 sec
 * total energy  :  -113.1748390 Eh     change       -0.1381321E-05 Eh
   gradient norm :     0.0001301 Eh/α   predicted    -0.5259404E-06 ( -61.92%)
   displ. norm   :     0.0607817 α      lambda       -0.1339462E-05
   maximum displ.:     0.0390598 α      in ANC's #2, #4, #3, ...

........................................................................
.............................. CYCLE   11 ..............................
........................................................................

 iter      E             dE          RMSdq      gap      omega  full diag
   1   -115.4031438 -0.115403E+03  0.111E-02    2.02       0.0  T
   2   -115.4031438 -0.309865E-07  0.649E-03    2.02       1.8  T
   3   -115.4031438  0.188940E-07  0.665E-04    2.02      17.4  T
   4   -115.4031439 -0.322169E-07  0.193E-04    2.02      59.7  T
     SCC iter.                  ...        0 min,  0.034 sec
     gradient                   ...        0 min,  0.009 sec
 * total energy  :  -113.1748406 Eh     change       -0.1579211E-05 Eh
   gradient norm :     0.0001885 Eh/α   predicted    -0.6714141E-06 ( -57.48%)
   displ. norm   :     0.0525753 α      lambda       -0.8329000E-06
   maximum displ.:     0.0341346 α      in ANC's #2, #4, #3, ...

........................................................................
.............................. CYCLE   12 ..............................
........................................................................

 iter      E             dE          RMSdq      gap      omega  full diag
   1   -115.4031134 -0.115403E+03  0.951E-03    2.02       0.0  T
   2   -115.4031134 -0.203680E-07  0.555E-03    2.02       2.1  T
   3   -115.4031134  0.161001E-07  0.571E-04    2.02      20.2  T
   4   -115.4031134 -0.251276E-07  0.165E-04    2.02      70.1  T
     SCC iter.                  ...        0 min,  0.034 sec
     gradient                   ...        0 min,  0.010 sec
 * total energy  :  -113.1748416 Eh     change       -0.9855875E-06 Eh
   gradient norm :     0.0002080 Eh/α   predicted    -0.4177803E-06 ( -57.61%)
   displ. norm   :     0.0365832 α      lambda       -0.5257195E-06
   maximum displ.:     0.0241882 α      in ANC's #2, #4, #3, ...

........................................................................
.............................. CYCLE   13 ..............................
........................................................................

 iter      E             dE          RMSdq      gap      omega  full diag
   1   -115.4031534 -0.115403E+03  0.636E-03    2.02       0.0  T
   2   -115.4031534 -0.687007E-08  0.372E-03    2.02       3.1  T
   3   -115.4031534  0.155749E-07  0.491E-04    2.02      23.5  T
   4   -115.4031535 -0.193143E-07  0.101E-04    2.02     113.8  T
     SCC iter.                  ...        0 min,  0.034 sec
     gradient                   ...        0 min,  0.009 sec
 * total energy  :  -113.1748423 Eh     change       -0.6683928E-06 Eh
   gradient norm :     0.0001809 Eh/α   predicted    -0.2661854E-06 ( -60.18%)
   displ. norm   :     0.0315260 α      lambda       -0.5132069E-06
   maximum displ.:     0.0212796 α      in ANC's #2, #4, #3, ...

........................................................................
.............................. CYCLE   14 ..............................
........................................................................

 iter      E             dE          RMSdq      gap      omega  full diag
   1   -115.4031347 -0.115403E+03  0.524E-03    2.02       0.0  T
   2   -115.4031347 -0.324006E-08  0.307E-03    2.02       3.8  T
   3   -115.4031347  0.207680E-08  0.211E-04    2.02      54.6  T
   4   -115.4031347 -0.354952E-08  0.610E-05    2.02     189.2  T
     SCC iter.                  ...        0 min,  0.037 sec
     gradient                   ...        0 min,  0.010 sec
 * total energy  :  -113.1748429 Eh     change       -0.6501860E-06 Eh
   gradient norm :     0.0001005 Eh/α   predicted    -0.2581035E-06 ( -60.30%)
   displ. norm   :     0.0307268 α      lambda       -0.4874328E-06
   maximum displ.:     0.0212497 α      in ANC's #2, #3, #4, ...

........................................................................
.............................. CYCLE   15 ..............................
........................................................................

 iter      E             dE          RMSdq      gap      omega  full diag
   1   -115.4031458 -0.115403E+03  0.499E-03    2.02       0.0  T
   2   -115.4031458 -0.298631E-08  0.292E-03    2.02       4.0  T
   3   -115.4031458  0.690640E-08  0.296E-04    2.02      39.0  T
   4   -115.4031458 -0.860581E-08  0.612E-05    2.02     188.8  T
     SCC iter.                  ...        0 min,  0.035 sec
     gradient                   ...        0 min,  0.010 sec
 * total energy  :  -113.1748435 Eh     change       -0.6079197E-06 Eh
   gradient norm :     0.0000883 Eh/α   predicted    -0.2456825E-06 ( -59.59%)
   displ. norm   :     0.0232776 α      lambda       -0.3323870E-06
   maximum displ.:     0.0161318 α      in ANC's #2, #3, #4, ...

........................................................................
.............................. CYCLE   16 ..............................
........................................................................

 iter      E             dE          RMSdq      gap      omega  full diag
   1   -115.4031240 -0.115403E+03  0.383E-03    2.02       0.0  T
   2   -115.4031240 -0.233740E-08  0.224E-03    2.02       5.2  T
   3   -115.4031240  0.232941E-08  0.185E-04    2.02      62.3  T
   4   -115.4031240 -0.349398E-08  0.537E-05    2.02     215.1  T
     SCC iter.                  ...        0 min,  0.035 sec
     gradient                   ...        0 min,  0.010 sec
 * total energy  :  -113.1748440 Eh     change       -0.4274486E-06 Eh
   gradient norm :     0.0000991 Eh/α   predicted    -0.1683245E-06 ( -60.62%)
   displ. norm   :     0.0222273 α      lambda       -0.3077775E-06
   maximum displ.:     0.0152143 α      in ANC's #2, #3, #8, ...

........................................................................
.............................. CYCLE   17 ..............................
........................................................................

 iter      E             dE          RMSdq      gap      omega  full diag
   1   -115.4031265 -0.115403E+03  0.379E-03    2.02       0.0  T
   2   -115.4031265 -0.285506E-08  0.221E-03    2.02       5.2  T
   3   -115.4031265  0.306164E-08  0.207E-04    2.02      55.7  T
   4   -115.4031265 -0.445669E-08  0.608E-05    2.02     189.8  T
     SCC iter.                  ...        0 min,  0.034 sec
     gradient                   ...        0 min,  0.010 sec
 * total energy  :  -113.1748444 Eh     change       -0.4191481E-06 Eh
   gradient norm :     0.0001054 Eh/α   predicted    -0.1587874E-06 ( -62.12%)
   displ. norm   :     0.0240615 α      lambda       -0.3591623E-06
   maximum displ.:     0.0159416 α      in ANC's #2, #3, #8, ...

........................................................................
.............................. CYCLE   18 ..............................
........................................................................

 iter      E             dE          RMSdq      gap      omega  full diag
   1   -115.4031062 -0.115403E+03  0.417E-03    2.02       0.0  T
   2   -115.4031062 -0.322814E-08  0.244E-03    2.02       4.7  T
   3   -115.4031062  0.198673E-08  0.195E-04    2.02      59.1  T
   4   -115.4031062 -0.346267E-08  0.635E-05    2.02     181.8  T
     SCC iter.                  ...        0 min,  0.034 sec
     gradient                   ...        0 min,  0.010 sec
 * total energy  :  -113.1748449 Eh     change       -0.4837362E-06 Eh
   gradient norm :     0.0001187 Eh/α   predicted    -0.1822674E-06 ( -62.32%)
   displ. norm   :     0.0338773 α      lambda       -0.5016145E-06
   maximum displ.:     0.0220077 α      in ANC's #2, #3, #8, ...

........................................................................
.............................. CYCLE   19 ..............................
........................................................................

 iter      E             dE          RMSdq      gap      omega  full diag
   1   -115.4031118 -0.115403E+03  0.594E-03    2.02       0.0  T
   2   -115.4031118 -0.661284E-08  0.347E-03    2.02       3.3  T
   3   -115.4031118  0.394988E-08  0.285E-04    2.02      40.5  T
   4   -115.4031118 -0.680566E-08  0.900E-05    2.02     128.4  T
     SCC iter.                  ...        0 min,  0.035 sec
     gradient                   ...        0 min,  0.010 sec
 * total energy  :  -113.1748455 Eh     change       -0.6544628E-06 Eh
   gradient norm :     0.0000896 Eh/α   predicted    -0.2518860E-06 ( -61.51%)
   displ. norm   :     0.0374370 α      lambda       -0.4870127E-06
   maximum displ.:     0.0241847 α      in ANC's #2, #3, #8, ...

........................................................................
.............................. CYCLE   20 ..............................
........................................................................

 iter      E             dE          RMSdq      gap      omega  full diag
   1   -115.4030849 -0.115403E+03  0.649E-03    2.02       0.0  T
   2   -115.4030849 -0.883020E-08  0.378E-03    2.02       3.1  T
   3   -115.4030849  0.506139E-08  0.332E-04    2.02      34.7  T
   4   -115.4030849 -0.891750E-08  0.102E-04    2.02     113.6  T
     SCC iter.                  ...        0 min,  0.034 sec
     gradient                   ...        0 min,  0.010 sec
 * total energy  :  -113.1748461 Eh     change       -0.6203778E-06 Eh
   gradient norm :     0.0000978 Eh/α   predicted    -0.2481961E-06 ( -59.99%)
   displ. norm   :     0.0355844 α      lambda       -0.3948159E-06
   maximum displ.:     0.0233611 α      in ANC's #2, #3, #8, ...
 * RMSD in coord.:     0.0710713 α      energy gain  -0.1958236E-04 Eh

generating ANC from exact Hessian ...
Using Lindh-Hessian (1995)
 Shifting diagonal of input Hessian by   9.914619640322000E-003
 Lowest  eigenvalues of input Hessian
    0.000000    0.000000    0.000000    0.000000    0.000000    0.000000
    0.010000    0.010021    0.010040    0.010082    0.010324    0.010665
    0.010758    0.010822    0.010978    0.011175    0.011262    0.011280
 Highest eigenvalues
    2.047970    2.063143    2.104537    2.160131    2.169840    2.632885
 

........................................................................
.............................. CYCLE   21 ..............................
........................................................................

 iter      E             dE          RMSdq      gap      omega  full diag
   1   -115.4031004 -0.115403E+03  0.604E-03    2.02       0.0  T
   2   -115.4031004 -0.978275E-08  0.351E-03    2.02       3.3  T
   3   -115.4031004  0.676137E-08  0.367E-04    2.02      31.4  T
   4   -115.4031004 -0.109056E-07  0.107E-04    2.02     107.4  T
     SCC iter.                  ...        0 min,  0.034 sec
     gradient                   ...        0 min,  0.010 sec
 * total energy  :  -113.1748466 Eh     change       -0.4948958E-06 Eh
   gradient norm :     0.0000707 Eh/α   predicted     0.0000000E+00 (-100.00%)
   displ. norm   :     0.0001060 α      lambda        0.0000000E+00
   maximum displ.:     0.0000448 α      in ANC's #219, #200, #2, ...

........................................................................
.............................. CYCLE   22 ..............................
........................................................................

 iter      E             dE          RMSdq      gap      omega  full diag
   1   -115.4030744 -0.115403E+03  0.105E-04    2.02       0.0  T
   2   -115.4030744 -0.105558E-09  0.797E-05    2.02     144.9  T
   3   -115.4030744 -0.198085E-09  0.431E-05    2.02     267.7  T
     SCC iter.                  ...        0 min,  0.026 sec
     gradient                   ...        0 min,  0.010 sec
 * total energy  :  -113.1748466 Eh     change       -0.2922491E-08 Eh
   gradient norm :     0.0001104 Eh/α   predicted    -0.2134222E-08 ( -26.97%)
   displ. norm   :     0.0001060 α      lambda        0.0000000E+00
   maximum displ.:     0.0000448 α      in ANC's #219, #200, #2, ...

   *** GEOMETRY OPTIMIZATION CONVERGED AFTER 22 ITERATIONS ***

------------------------------------------------------------------------
 total energy gain   :        -0.0000201 Eh       -0.0126 kcal/mol
 total RMSD          :         0.0710728 a0        0.0376 Å
 total power (kW/mol):        -0.0023964 (step)   -0.0431 (real)
------------------------------------------------------------------------

 ANCopt (total)                0 d,  0 h,  0 min,  1.222 sec
 optimizer setup                ...        0 min,  0.000 sec (  0.019%)
 model hessian                  ...        0 min,  0.083 sec (  6.825%)
 ANC generation                 ...        0 min,  0.016 sec (  1.307%)
 coordinate transformation      ...        0 min,  0.002 sec (  0.153%)
 single point calculation       ...        0 min,  1.107 sec ( 90.561%)
 optimization log               ...        0 min,  0.006 sec (  0.476%)
 hessian update                 ...        0 min,  0.003 sec (  0.225%)
 rational function              ...        0 min,  0.003 sec (  0.242%)

================
 final structure:
================
75
 xtb: 6.7.1 (edcfbbe)
N          -10.22261582193655        1.35270475545883        0.10705632556937
C           -9.08930936855892        1.17763781931822        0.08843206880616
C           -7.69332402538302        0.96418614832092        0.06262403007806
C           -7.09278992283408        0.13920387928580        1.01544722439281
C           -5.73117881127345       -0.07137528435740        0.97951208441344
C           -4.94259919965978        0.53161665533238       -0.00056681159253
C           -3.48787517748174        0.31566366463835       -0.03348691255731
C           -2.64195901898625        1.41558434538971       -0.11301290967889
C           -1.26055119042830        1.28336632488557       -0.10101013580150
C           -0.41551058853811        2.48353770993948       -0.23275211165826
C           -0.62925564845103        3.58819956710706        0.58594606060134
C            0.17055639969235        4.71092237122966        0.47328902332619
C            1.18771419177468        4.74887369792084       -0.46489698866326
C            1.39475226946561        3.66160888790503       -1.29778404037548
C            0.59986288246982        2.53711390030422       -1.18451432948486
C           -0.70232376269358        0.00153556578886        0.00770424064253
C            0.75444220063001       -0.18592060325357        0.07478474796514
C            1.52697298709047        0.55976914385926        0.96336838777232
C            2.89730377154866        0.42734598008650        0.99014869407325
C            3.54146797238333       -0.44746059687687        0.11356329613337
N            4.93618905948043       -0.52829484106856        0.09641047731434
C            5.69746778357354        0.63311344046745        0.27344103897223
C            5.25630621489560        1.85332478908371       -0.23945340798816
C            6.00805959990495        2.99729557748952       -0.05698094326062
C            7.21158608005270        2.94566789949751        0.62706763095904
C            7.65609138611362        1.73595172466326        1.13480747494107
C            6.90683664311628        0.58778778716671        0.96643982625434
C            5.56686179625455       -1.75713055492475       -0.12791870605454
C            5.03521791976952       -2.93000129458711        0.40793468953105
C            5.65680139271613       -4.14260951496114        0.18240700580977
C            6.81806001270059       -4.20715493058850       -0.57007406292013
C            7.35206743546523       -3.04479678201817       -1.10184751483736
C            6.73305898362025       -1.82846772721151       -0.88948549686544
C            2.76869382425173       -1.22398354601360       -0.74971092254567
C            1.39485257702127       -1.09897567329034       -0.75852696993892
C           -1.54790868591759       -1.09821803623705        0.06759828904986
C           -2.93044553271964       -0.96775866694373        0.04364167893677
C           -3.77020305607413       -2.17771377800693        0.06465289000972
C           -4.77705427792406       -2.36295819566745       -0.87925521422073
C           -5.55835967798136       -3.50267249318052       -0.85557252920096
C           -5.34659756924524       -4.47283880751041        0.11008451125128
C           -4.34062543895688       -4.30253577950427        1.04607489970580
C           -3.55399768654257       -3.16555714465314        1.02122891229055
C           -5.54954256477082        1.36687885714781       -0.93780171159405
C           -6.91172960185922        1.58128033446018       -0.91493117886661
H           -7.70093372083079       -0.32842821870985        1.77570877519169
H           -5.26663938113872       -0.70212345777242        1.72247143104607
H           -3.07215837676852        2.40503747761201       -0.18219196954993
H           -1.41345792105709        3.55496099604398        1.32929992644306
H            0.00113095700867        5.55800610595300        1.12211841388322
H            1.81457690603778        5.62422158786422       -0.54937967991651
H            2.17914589500881        3.69140305253161       -2.04029804814725
H            0.75803036913677        1.69457088386336       -1.84184687853383
H            1.04404896087332        1.24122587103545        1.64774162817126
H            3.48402751583005        1.00933301345824        1.68536998546625
H            4.32187174534837        1.89723503371277       -0.77974611419945
H            5.65419925821329        3.93509522830916       -0.45951089969693
H            7.79829399039063        3.84124804193039        0.76415390375578
H            8.59018996923646        1.68656962072531        1.67491852526766
H            7.25094723906967       -0.35181186826508        1.37342926723171
H            4.13561123865953       -2.88055211602834        1.00398749386110
H            5.23565395850101       -5.04300202133508        0.60514999734726
H            7.30320456719969       -5.15609055611202       -0.74093555561202
H            8.25398167581122       -3.08596906104989       -1.69475771493901
H            7.14604495057783       -0.92524364300854       -1.31431692745580
H            3.25474535563480       -1.91190942090951       -1.42598082333379
H            0.81048072841969       -1.68683818295085       -1.45198333553377
H           -1.11658851352110       -2.08708028130801        0.13491702342333
H           -4.93714237754231       -1.61402736368715       -1.64149996984021
H           -6.33585980820237       -3.63501937697053       -1.59363417594358
H           -5.96192864628280       -5.35997892667834        0.13100266038473
H           -4.16930079507826       -5.05756499790957        1.79958305866612
H           -2.77733268905264       -3.02777948295154        1.76031176967419
H           -4.94542603566651        1.83389344875812       -1.70226817330613
H           -7.38079230849626        2.22073306345465       -1.64850744659598
 
 Bond Distances (Angstroems)
 ---------------------------
N1-C2=1.1469         C2-N1=1.1469         C2-C3=1.4124         C3-C2=1.4124         C3-C4=1.3961         C3-C45=1.3955        
C4-C3=1.3961         C4-C5=1.3783         C4-H46=1.0801        C5-C4=1.3783         C5-C6=1.3950         C5-H47=1.0796        
C6-C5=1.3950         C6-C7=1.4710         C6-C44=1.3944        C7-C6=1.4710         C7-C8=1.3899         C7-C37=1.4014        
C8-C7=1.3899         C8-C9=1.3878         C8-H48=1.0811        C9-C8=1.3878         C9-C10=1.4737        C9-C16=1.4023        
C10-C9=1.4737        C10-C11=1.3915       C10-C15=1.3927       C11-C10=1.3915       C11-C12=1.3831       C11-H49=1.0810       
C12-C11=1.3831       C12-C13=1.3843       C12-H50=1.0804       C13-C12=1.3843       C13-C14=1.3852       C13-H51=1.0800       
C14-C13=1.3852       C14-C15=1.3817       C14-H52=1.0805       C15-C10=1.3927       C15-C14=1.3817       C15-H53=1.0803       
C16-C9=1.4023        C16-C17=1.4703       C16-C36=1.3885       C17-C16=1.4703       C17-C18=1.3937       C17-C35=1.3922       
C18-C17=1.3937       C18-C19=1.3770       C18-H54=1.0798       C19-C18=1.3770       C19-C20=1.3959       C19-H55=1.0799       
C20-C19=1.3959       C20-N21=1.3972       C20-C34=1.3948       N21-C20=1.3972       N21-C22=1.3999       N21-C28=1.3993       
C22-N21=1.3999       C22-C23=1.3952       C22-C27=1.3946       C23-C22=1.3952       C23-C24=1.3810       C23-H56=1.0803       
C24-C23=1.3810       C24-C25=1.3853       C24-H57=1.0801       C25-C24=1.3853       C25-C26=1.3852       C25-H58=1.0794       
C26-C25=1.3852       C26-C27=1.3813       C26-H59=1.0801       C27-C22=1.3946       C27-C26=1.3813       C27-H60=1.0802       
C28-N21=1.3993       C28-C29=1.3948       C28-C33=1.3947       C29-C28=1.3948       C29-C30=1.3812       C29-H61=1.0803       
C30-C29=1.3812       C30-C31=1.3852       C30-H62=1.0802       C31-C30=1.3852       C31-C32=1.3853       C31-H63=1.0794       
C32-C31=1.3853       C32-C33=1.3812       C32-H64=1.0801       C33-C28=1.3947       C33-C32=1.3812       C33-H65=1.0802       
C34-C20=1.3948       C34-C35=1.3795       C34-H66=1.0802       C35-C17=1.3922       C35-C34=1.3795       C35-H67=1.0807       
C36-C16=1.3885       C36-C37=1.3889       C36-H68=1.0809       C37-C7=1.4014        C37-C36=1.3889       C37-C38=1.4730       
C38-C37=1.4730       C38-C39=1.3925       C38-C43=1.3920       C39-C38=1.3925       C39-C40=1.3820       C39-H69=1.0805       
C40-C39=1.3820       C40-C41=1.3851       C40-H70=1.0802       C41-C40=1.3851       C41-C42=1.3846       C41-H71=1.0799       
C42-C41=1.3846       C42-C43=1.3828       C42-H72=1.0804       C43-C38=1.3920       C43-C42=1.3828       C43-H73=1.0809       
C44-C6=1.3944        C44-C45=1.3791       C44-H74=1.0805       C45-C3=1.3955        C45-C44=1.3791       C45-H75=1.0803       
H46-C4=1.0801        H47-C5=1.0796        H48-C8=1.0811        H49-C11=1.0810       H50-C12=1.0804       H51-C13=1.0800       
H52-C14=1.0805       H53-C15=1.0803       H54-C18=1.0798       H55-C19=1.0799       H56-C23=1.0803       H57-C24=1.0801       
H58-C25=1.0794       H59-C26=1.0801       H60-C27=1.0802       H61-C29=1.0803       H62-C30=1.0802       H63-C31=1.0794       
H64-C32=1.0801       H65-C33=1.0802       H66-C34=1.0802       H67-C35=1.0807       H68-C36=1.0809       H69-C39=1.0805       
H70-C40=1.0802       H71-C41=1.0799       H72-C42=1.0804       H73-C43=1.0809       H74-C44=1.0805       H75-C45=1.0803       
 C  H  Rav=1.0803 sigma=0.0004  Rmin=1.0794  Rmax=1.0811    30
 C  C  Rav=1.3960 sigma=0.0242  Rmin=1.3770  Rmax=1.4737    47
 N  C  Rav=1.3358 sigma=0.1091  Rmin=1.1469  Rmax=1.3999     4
 
 selected bond angles (degree)
 --------------------
C3-C2-N1=179.85                C4-C3-C2=120.13                C45-C3-C2=119.97               C45-C3-C4=119.90               
C5-C4-C3=119.83                H46-C4-C3=119.61               H46-C4-C5=120.56               C6-C5-C4=120.71                
H47-C5-C4=119.76               H47-C5-C6=119.52               C7-C6-C5=120.75                C44-C6-C5=119.02               
C44-C6-C7=120.22               C8-C7-C6=119.14                C37-C7-C6=121.77               C37-C7-C8=119.07               
C9-C8-C7=122.00                H48-C8-C7=119.06               H48-C8-C9=118.94               C10-C9-C8=119.50               
C16-C9-C8=118.95               C16-C9-C10=121.54              C11-C10-C9=120.39              C15-C10-C9=120.69              
C15-C10-C11=118.92             
 
 selected dihedral angles (degree)
 ---------------------------------
C4-C3-C2-N1=179.85            C45-C3-C2-N1=  0.00           C5-C4-C3-C2=179.60            C5-C4-C3-C45=359.45           
H46-C4-C3-C2=359.56           H46-C4-C3-C45=179.41          C6-C5-C4-C3=  0.00            C6-C5-C4-H46=180.04           
H47-C5-C4-C3=179.43           H47-C5-C4-H46=359.46          C7-C6-C5-C4=179.53            C7-C6-C5-H47=  0.10           
C44-C6-C5-C4=  0.78           C44-C6-C5-H47=181.35          C8-C7-C6-C5=230.51            C8-C7-C6-C44= 49.24           
C37-C7-C6-C5= 49.04           C37-C7-C6-C44=227.78          C9-C8-C7-C6=177.72            C9-C8-C7-C37=359.15           
H48-C8-C7-C6=357.98           H48-C8-C7-C37=179.41          C10-C9-C8-C7=178.00           C10-C9-C8-H48=357.74          
C16-C9-C8-C7=359.37           C16-C9-C8-H48=179.11          C11-C10-C9-C8= 51.00          C11-C10-C9-C16=229.59         
C15-C10-C9-C8=231.61          C15-C10-C9-C16= 50.20         
           -------------------------------------------------
          |                Final Singlepoint                |
           -------------------------------------------------

          ...................................................
          :                      SETUP                      :
          :.................................................:
          :  # basis functions                 210          :
          :  # atomic orbitals                 210          :
          :  # shells                          120          :
          :  # electrons                       212          :
          :  max. iterations                   250          :
          :  Hamiltonian                  GFN2-xTB          :
          :  restarted?                      false          :
          :  GBSA solvation                  false          :
          :  PC potential                    false          :
          :  electronic temp.          300.0000000     K    :
          :  accuracy                    1.0000000          :
          :  -> integral cutoff          0.2500000E+02      :
          :  -> integral neglect         0.1000000E-07      :
          :  -> SCF convergence          0.1000000E-05 Eh   :
          :  -> wf. convergence          0.1000000E-03 e    :
          :  Broyden damping             0.4000000          :
          :  net charge                          0          :
          :  unpaired electrons                  0          :
          ...................................................

 iter      E             dE          RMSdq      gap      omega  full diag
   1   -115.4030744 -0.115403E+03  0.153E-05    2.02       0.0  T
   2   -115.4030744 -0.284217E-11  0.128E-05    2.02     903.2  T
   3   -115.4030744 -0.112550E-10  0.360E-06    2.02    3204.2  T

   *** convergence criteria satisfied after 3 iterations ***

         #    Occupation            Energy/Eh            Energy/eV
      -------------------------------------------------------------
         1        2.0000           -0.6669821             -18.1495
       ...           ...                  ...                  ...
       100        2.0000           -0.4070510             -11.0764
       101        2.0000           -0.4063714             -11.0579
       102        2.0000           -0.4058098             -11.0426
       103        2.0000           -0.3985540             -10.8452
       104        2.0000           -0.3977548             -10.8235
       105        2.0000           -0.3831561             -10.4262
       106        2.0000           -0.3505703              -9.5395 (HOMO)
       107                         -0.2762655              -7.5176 (LUMO)
       108                         -0.2545304              -6.9261
       109                         -0.2431187              -6.6156
       110                         -0.2409932              -6.5578
       111                         -0.2320052              -6.3132
       ...                                ...                  ...
       210                          1.1742216              31.9522
      -------------------------------------------------------------
                  HL-Gap            0.0743048 Eh            2.0219 eV
             Fermi-level           -0.3134179 Eh           -8.5285 eV

 SCC (total)                   0 d,  0 h,  0 min,  0.041 sec
 SCC setup                      ...        0 min,  0.000 sec (  0.471%)
 Dispersion                     ...        0 min,  0.001 sec (  2.330%)
 classical contributions        ...        0 min,  0.000 sec (  0.089%)
 integral evaluation            ...        0 min,  0.004 sec (  8.489%)
 iterations                     ...        0 min,  0.026 sec ( 63.301%)
 molecular gradient             ...        0 min,  0.010 sec ( 23.933%)
 printout                       ...        0 min,  0.000 sec (  1.195%)

         :::::::::::::::::::::::::::::::::::::::::::::::::::::
         ::                     SUMMARY                     ::
         :::::::::::::::::::::::::::::::::::::::::::::::::::::
         :: total energy            -113.174846641924 Eh    ::
         :: gradient norm              0.000111226646 Eh/a0 ::
         :: HOMO-LUMO gap              2.021937305642 eV    ::
         ::.................................................::
         :: SCC energy              -115.402531754262 Eh    ::
         :: -> isotropic ES            0.014242691923 Eh    ::
         :: -> anisotropic ES          0.010715074563 Eh    ::
         :: -> anisotropic XC          0.084157331824 Eh    ::
         :: -> dispersion             -0.105599750097 Eh    ::
         :: repulsion energy           2.227685112337 Eh    ::
         :: add. restraining           0.000000000000 Eh    ::
         :: total charge               0.000000000000 e     ::
         :::::::::::::::::::::::::::::::::::::::::::::::::::::

           ------------------------------------------------- 
          |                Numerical Hessian                |
           ------------------------------------------------- 
step length          :   0.00500
SCC accuracy         :   0.30000
Hessian scale factor :   1.00000
frozen atoms in %    :   0.00000    0
RMS gradient         :   0.00011
estimated CPU  time     14.44 min
estimated wall time      0.36 min

writing file <hessian>.

 projected vibrational frequencies (cm⁻¹)
eigval :       -0.00    -0.00    -0.00    -0.00    -0.00     0.00
eigval :       11.36    13.50    14.19    29.48    31.03    39.91
eigval :       43.57    47.14    55.40    56.37    59.03    63.92
eigval :       67.91    77.15    90.65    99.91   107.84   121.59
eigval :      134.72   141.58   146.65   190.83   198.67   206.43
eigval :      216.53   232.34   234.20   258.98   265.70   292.38
eigval :      306.74   314.91   335.07   347.46   366.32   369.54
eigval :      374.70   374.86   378.03   380.99   388.82   391.61
eigval :      419.45   435.44   464.60   479.55   481.41   489.43
eigval :      496.89   508.76   526.78   535.64   550.66   553.74
eigval :      576.71   584.92   586.80   587.35   589.64   592.78
eigval :      599.27   611.17   615.34   629.84   647.66   659.79
eigval :      664.75   668.53   677.32   682.91   690.38   701.59
eigval :      708.86   718.28   743.02   756.86   761.01   762.31
eigval :      765.51   795.08   817.96   818.82   868.28   869.55
eigval :      872.49   874.29   876.44   877.63   879.01   882.86
eigval :      891.86   892.54   893.54   904.76   905.18   910.40
eigval :      918.20   918.54   920.46   927.09   927.50   928.03
eigval :      928.74   929.86   930.34   930.99   931.08   932.87
eigval :      933.04   960.43   977.35   985.68  1002.15  1005.02
eigval :     1017.52  1040.04  1075.90  1083.47  1084.37  1084.63
eigval :     1089.00  1101.30  1121.58  1121.96  1122.27  1124.93
eigval :     1135.89  1142.36  1180.56  1180.78  1182.21  1182.54
eigval :     1187.24  1188.07  1195.79  1196.56  1199.68  1200.57
eigval :     1215.04  1226.79  1240.66  1244.75  1253.41  1265.95
eigval :     1267.01  1271.44  1279.01  1282.05  1282.88  1283.41
eigval :     1308.07  1313.43  1313.84  1318.06  1318.45  1320.97
eigval :     1324.72  1326.86  1328.06  1354.88  1387.89  1400.07
eigval :     1413.91  1429.59  1433.84  1436.59  1443.43  1455.75
eigval :     1472.40  1476.94  1479.33  1486.37  1491.73  1508.41
eigval :     1533.37  1551.00  1558.07  1577.17  1578.17  1581.29
eigval :     1582.35  1583.38  1591.62  1595.29  1596.53  1600.46
eigval :     1601.00  1603.05  2372.57  3069.15  3070.47  3071.63
eigval :     3073.65  3073.79  3074.02  3075.73  3076.00  3076.69
eigval :     3077.31  3077.67  3079.19  3079.73  3080.23  3082.38
eigval :     3085.30  3085.60  3085.89  3086.01  3086.52  3088.34
eigval :     3089.16  3089.75  3091.03  3092.42  3094.11  3094.40
eigval :     3097.40  3097.47  3097.89
           -------------------------------------------------
          |                Property Printout                |
           -------------------------------------------------

    * Orbital Energies and Occupations

         #    Occupation            Energy/Eh            Energy/eV
      -------------------------------------------------------------
         1        2.0000           -0.6669821             -18.1495
       ...           ...                  ...                  ...
        94        2.0000           -0.4172126             -11.3529
        95        2.0000           -0.4163740             -11.3301
        96        2.0000           -0.4116976             -11.2029
        97        2.0000           -0.4095648             -11.1448
        98        2.0000           -0.4092545             -11.1364
        99        2.0000           -0.4083392             -11.1115
       100        2.0000           -0.4070510             -11.0764
       101        2.0000           -0.4063714             -11.0579
       102        2.0000           -0.4058098             -11.0426
       103        2.0000           -0.3985539             -10.8452
       104        2.0000           -0.3977548             -10.8235
       105        2.0000           -0.3831561             -10.4262
       106        2.0000           -0.3505703              -9.5395 (HOMO)
       107                         -0.2762654              -7.5176 (LUMO)
       108                         -0.2545304              -6.9261
       109                         -0.2431187              -6.6156
       110                         -0.2409932              -6.5578
       111                         -0.2320052              -6.3132
       112                         -0.2306467              -6.2762
       113                         -0.2275338              -6.1915
       114                         -0.2269635              -6.1760
       115                         -0.2265362              -6.1644
       116                         -0.2233820              -6.0785
       117                         -0.2223837              -6.0514
       ...                                ...                  ...
       210                          1.1742216              31.9522
      -------------------------------------------------------------
                  HL-Gap            0.0743048 Eh            2.0219 eV
             Fermi-level           -0.3134179 Eh           -8.5285 eV

     #   Z          covCN         q      C6AA      α(0)
     1   7 N        0.911    -0.238    26.223     7.406
     2   6 C        1.912     0.111    28.353     8.599
     3   6 C        2.974     0.016    27.644     8.624
     4   6 C        2.925    -0.021    28.521     8.758
     5   6 C        2.923    -0.028    28.712     8.787
     6   6 C        2.977     0.022    27.503     8.603
     7   6 C        2.979     0.000    28.017     8.682
     8   6 C        2.930    -0.040    28.993     8.830
     9   6 C        2.979     0.003    27.941     8.671
    10   6 C        2.978     0.013    27.719     8.636
    11   6 C        2.925    -0.034    28.851     8.808
    12   6 C        2.919    -0.029    28.737     8.791
    13   6 C        2.920    -0.031    28.762     8.795
    14   6 C        2.919    -0.029    28.720     8.788
    15   6 C        2.925    -0.031    28.776     8.797
    16   6 C        2.978     0.006    27.875     8.660
    17   6 C        2.977     0.003    27.943     8.671
    18   6 C        2.924    -0.031    28.780     8.798
    19   6 C        2.921    -0.048    29.189     8.860
    20   6 C        2.925     0.064    26.561     8.452
    21   7 N        2.752    -0.075    22.692     7.075
    22   6 C        2.925     0.065    26.546     8.449
    23   6 C        2.922    -0.048    29.180     8.858
    24   6 C        2.920    -0.029    28.725     8.789
    25   6 C        2.919    -0.038    28.955     8.824
    26   6 C        2.920    -0.029    28.731     8.790
    27   6 C        2.922    -0.048    29.183     8.859
    28   6 C        2.923     0.065    26.544     8.449
    29   6 C        2.923    -0.048    29.185     8.859
    30   6 C        2.920    -0.029    28.731     8.790
    31   6 C        2.919    -0.038    28.954     8.824
    32   6 C        2.920    -0.029    28.728     8.789
    33   6 C        2.922    -0.048    29.182     8.859
    34   6 C        2.921    -0.049    29.217     8.864
    35   6 C        2.924    -0.035    28.861     8.810
    36   6 C        2.930    -0.041    29.012     8.833
    37   6 C        2.978     0.004    27.929     8.669
    38   6 C        2.978     0.012    27.750     8.641
    39   6 C        2.925    -0.032    28.798     8.800
    40   6 C        2.919    -0.029    28.726     8.789
    41   6 C        2.920    -0.030    28.758     8.794
    42   6 C        2.919    -0.029    28.733     8.790
    43   6 C        2.925    -0.034    28.858     8.810
    44   6 C        2.924    -0.032    28.794     8.800
    45   6 C        2.925    -0.021    28.532     8.760
    46   1 H        0.926     0.040     2.443     2.444
    47   1 H        0.926     0.038     2.480     2.463
    48   1 H        0.926     0.034     2.531     2.488
    49   1 H        0.926     0.029     2.597     2.520
    50   1 H        0.926     0.030     2.580     2.512
    51   1 H        0.926     0.030     2.584     2.514
    52   1 H        0.926     0.029     2.605     2.524
    53   1 H        0.926     0.028     2.613     2.528
    54   1 H        0.926     0.031     2.570     2.507
    55   1 H        0.926     0.033     2.548     2.496
    56   1 H        0.926     0.031     2.573     2.508
    57   1 H        0.926     0.031     2.571     2.507
    58   1 H        0.926     0.030     2.581     2.512
    59   1 H        0.926     0.032     2.562     2.503
    60   1 H        0.926     0.032     2.560     2.502
    61   1 H        0.926     0.031     2.572     2.508
    62   1 H        0.926     0.031     2.566     2.505
    63   1 H        0.926     0.030     2.580     2.512
    64   1 H        0.926     0.032     2.562     2.503
    65   1 H        0.926     0.032     2.561     2.502
    66   1 H        0.926     0.033     2.545     2.495
    67   1 H        0.926     0.032     2.554     2.499
    68   1 H        0.926     0.036     2.504     2.474
    69   1 H        0.926     0.026     2.641     2.541
    70   1 H        0.926     0.031     2.576     2.510
    71   1 H        0.926     0.032     2.564     2.504
    72   1 H        0.926     0.031     2.570     2.507
    73   1 H        0.926     0.030     2.580     2.512
    74   1 H        0.926     0.039     2.467     2.456
    75   1 H        0.926     0.041     2.439     2.442

 Mol. C6AA /au·bohr⁶  :      82462.361561
 Mol. C8AA /au·bohr⁸  :    2092491.267352
 Mol. α(0) /au        :        465.591746


MOs/occ written to file <molden.input>


molecular dipole:
                 x           y           z       tot (Debye)
 q only:        1.680      -0.275      -0.007
   full:        2.114      -0.341      -0.020       5.443
molecular quadrupole (traceless):
                xx          xy          yy          xz          yz          zz
 q only:      -40.098      10.390      22.130       0.450      -1.385      17.968
  q+dip:      -52.082      15.794      33.425       0.296      -3.534      18.657
   full:      -56.631      14.790      31.394       0.697      -2.101      25.237

           -------------------------------------------------
          |                Geometry Summary                 |
           -------------------------------------------------

      molecular mass/u    :      574.7132726
   center of mass at/Å    :        0.0001581      -0.0000516      -0.0003583
  moments of inertia/u·Å² :        0.3696204E+04   0.1508359E+05   0.1819210E+05
rotational constants/cm⁻¹ :        0.4560796E-02   0.1117614E-02   0.9266456E-03

 * 76 selected distances

     #   Z          #   Z                                           value/Å
     1   7 N        2   6 C                                       1.1468998
     3   6 C        4   6 C                                       1.3961051
     4   6 C        5   6 C                                       1.3782671
     5   6 C        6   6 C                                       1.3949954
     7   6 C        8   6 C                                       1.3898649
     8   6 C        9   6 C                                       1.3877729
    10   6 C       11   6 C                                       1.3914855
    11   6 C       12   6 C                                       1.3830755
    12   6 C       13   6 C                                       1.3842845
    13   6 C       14   6 C                                       1.3851753
    10   6 C       15   6 C                                       1.3927331
    14   6 C       15   6 C                                       1.3817266
     9   6 C       16   6 C                                       1.4023292 (max)
    17   6 C       18   6 C                                       1.3937138
    18   6 C       19   6 C                                       1.3769749
    19   6 C       20   6 C                                       1.3959357
    20   6 C       21   7 N                                       1.3971670
    21   7 N       22   6 C                                       1.3999124
    22   6 C       23   6 C                                       1.3952062
    23   6 C       24   6 C                                       1.3809775
    24   6 C       25   6 C                                       1.3853029
    25   6 C       26   6 C                                       1.3852070
    22   6 C       27   6 C                                       1.3945878
    26   6 C       27   6 C                                       1.3813078
    21   7 N       28   6 C                                       1.3993246
    28   6 C       29   6 C                                       1.3947796
    29   6 C       30   6 C                                       1.3811762
    30   6 C       31   6 C                                       1.3852494
    31   6 C       32   6 C                                       1.3852883
    28   6 C       33   6 C                                       1.3946646
    32   6 C       33   6 C                                       1.3812045
    20   6 C       34   6 C                                       1.3947797
    17   6 C       35   6 C                                       1.3921939
    34   6 C       35   6 C                                       1.3795451
    16   6 C       36   6 C                                       1.3885458
     7   6 C       37   6 C                                       1.4013743
    36   6 C       37   6 C                                       1.3888852
    38   6 C       39   6 C                                       1.3924898
    39   6 C       40   6 C                                       1.3820087
    40   6 C       41   6 C                                       1.3851208
    41   6 C       42   6 C                                       1.3845799
    38   6 C       43   6 C                                       1.3919832
    42   6 C       43   6 C                                       1.3827947
     6   6 C       44   6 C                                       1.3944364
     3   6 C       45   6 C                                       1.3954604
    44   6 C       45   6 C                                       1.3791465
     4   6 C       46   1 H                                       1.0800539
     5   6 C       47   1 H                                       1.0796430
     8   6 C       48   1 H                                       1.0811452
    11   6 C       49   1 H                                       1.0810426
    12   6 C       50   1 H                                       1.0803868
    13   6 C       51   1 H                                       1.0799668
    14   6 C       52   1 H                                       1.0805037
    15   6 C       53   1 H                                       1.0802694
    18   6 C       54   1 H                                       1.0797990
    19   6 C       55   1 H                                       1.0799475
    23   6 C       56   1 H                                       1.0802834
    24   6 C       57   1 H                                       1.0801462
    25   6 C       58   1 H                                       1.0793900
    26   6 C       59   1 H                                       1.0801384
    27   6 C       60   1 H                                       1.0802316
    29   6 C       61   1 H                                       1.0802854
    30   6 C       62   1 H                                       1.0801776
    31   6 C       63   1 H                                       1.0793692 (min)
    32   6 C       64   1 H                                       1.0801329
    33   6 C       65   1 H                                       1.0802098
    34   6 C       66   1 H                                       1.0801987
    35   6 C       67   1 H                                       1.0807195
    36   6 C       68   1 H                                       1.0809337
    39   6 C       69   1 H                                       1.0805290
    40   6 C       70   1 H                                       1.0801654
    41   6 C       71   1 H                                       1.0798554
    42   6 C       72   1 H                                       1.0803685
    43   6 C       73   1 H                                       1.0809417
    44   6 C       74   1 H                                       1.0804946
    45   6 C       75   1 H                                       1.0803027

 * 3 distinct bonds (by element types)

   Z      Z             #   av. dist./Å        max./Å        min./Å
   1 H    6 C          30     1.0802544     1.0811452     1.0793692
   6 C    6 C          42     1.3883985     1.4023292     1.3769749
   6 C    7 N           4     1.3358259     1.3999124     1.1468998

           -------------------------------------------------
          |               Frequency Printout                |
           -------------------------------------------------
 projected vibrational frequencies (cm⁻¹)
eigval :       -0.00    -0.00    -0.00    -0.00    -0.00     0.00
eigval :       11.36    13.50    14.19    29.48    31.03    39.91
eigval :       43.57    47.14    55.40    56.37    59.03    63.92
eigval :       67.91    77.15    90.65    99.91   107.84   121.59
eigval :      134.72   141.58   146.65   190.83   198.67   206.43
eigval :      216.53   232.34   234.20   258.98   265.70   292.38
eigval :      306.74   314.91   335.07   347.46   366.32   369.54
eigval :      374.70   374.86   378.03   380.99   388.82   391.61
eigval :      419.45   435.44   464.60   479.55   481.41   489.43
eigval :      496.89   508.76   526.78   535.64   550.66   553.74
eigval :      576.71   584.92   586.80   587.35   589.64   592.78
eigval :      599.27   611.17   615.34   629.84   647.66   659.79
eigval :      664.75   668.53   677.32   682.91   690.38   701.59
eigval :      708.86   718.28   743.02   756.86   761.01   762.31
eigval :      765.51   795.08   817.96   818.82   868.28   869.55
eigval :      872.49   874.29   876.44   877.63   879.01   882.86
eigval :      891.86   892.54   893.54   904.76   905.18   910.40
eigval :      918.20   918.54   920.46   927.09   927.50   928.03
eigval :      928.74   929.86   930.34   930.99   931.08   932.87
eigval :      933.04   960.43   977.35   985.68  1002.15  1005.02
eigval :     1017.52  1040.04  1075.90  1083.47  1084.37  1084.63
eigval :     1089.00  1101.30  1121.58  1121.96  1122.27  1124.93
eigval :     1135.89  1142.36  1180.56  1180.78  1182.21  1182.54
eigval :     1187.24  1188.07  1195.79  1196.56  1199.68  1200.57
eigval :     1215.04  1226.79  1240.66  1244.75  1253.41  1265.95
eigval :     1267.01  1271.44  1279.01  1282.05  1282.88  1283.41
eigval :     1308.07  1313.43  1313.84  1318.06  1318.45  1320.97
eigval :     1324.72  1326.86  1328.06  1354.88  1387.89  1400.07
eigval :     1413.91  1429.59  1433.84  1436.59  1443.43  1455.75
eigval :     1472.40  1476.94  1479.33  1486.37  1491.73  1508.41
eigval :     1533.37  1551.00  1558.07  1577.17  1578.17  1581.29
eigval :     1582.35  1583.38  1591.62  1595.29  1596.53  1600.46
eigval :     1601.00  1603.05  2372.57  3069.15  3070.47  3071.63
eigval :     3073.65  3073.79  3074.02  3075.73  3076.00  3076.69
eigval :     3077.31  3077.67  3079.19  3079.73  3080.23  3082.38
eigval :     3085.30  3085.60  3085.89  3086.01  3086.52  3088.34
eigval :     3089.16  3089.75  3091.03  3092.42  3094.11  3094.40
eigval :     3097.40  3097.47  3097.89
 reduced masses (amu)
   1: 11.61   2: 11.64   3: 11.28   4: 11.23   5: 11.41   6: 11.52   7: 11.34   8: 10.91
   9: 11.65  10: 11.67  11: 11.07  12: 10.65  13: 10.69  14: 10.88  15: 10.30  16: 10.30
  17: 10.08  18: 10.45  19: 10.14  20: 10.12  21: 11.23  22: 11.20  23: 10.41  24: 10.43
  25: 11.48  26: 11.31  27: 11.59  28: 10.91  29: 10.72  30: 11.15  31: 10.97  32: 10.71
  33: 10.35  34: 10.64  35: 10.98  36: 11.00  37: 10.75  38: 10.66  39: 10.64  40: 10.51
  41:  9.71  42:  9.84  43:  8.99  44:  9.02  45:  9.06  46:  9.12  47:  9.77  48: 10.40
  49: 11.16  50: 11.03  51: 10.82  52: 10.65  53: 10.22  54: 10.33  55:  9.98  56: 10.23
  57: 10.78  58: 11.51  59: 10.08  60: 10.98  61: 10.60  62: 11.19  63: 11.06  64: 11.17
  65: 11.20  66: 11.29  67: 10.89  68: 11.21  69: 11.33  70: 11.38  71: 11.28  72: 10.20
  73: 10.07  74: 10.20  75:  9.73  76: 10.62  77: 10.13  78: 11.24  79: 10.93  80: 10.77
  81: 10.61  82:  3.98  83:  4.55  84:  5.44  85:  5.40  86: 11.09  87:  5.08  88:  5.10
  89:  5.57  90:  4.46  91:  7.28  92:  3.31  93:  3.42  94:  3.96  95:  3.28  96:  3.95
  97:  3.84  98:  3.15  99:  3.91 100:  3.76 101:  3.68 102: 11.56 103:  3.34 104:  2.86
 105: 10.69 106:  3.84 107:  3.82 108:  4.02 109:  2.90 110:  3.13 111:  3.68 112:  4.02
 113:  4.07 114:  2.95 115:  2.91 116: 11.36 117: 11.12 118: 10.86 119: 10.38 120: 10.57
 121:  9.35 122:  9.14 123:  9.95 124:  6.79 125:  7.08 126:  6.73 127:  5.96 128:  5.76
 129:  4.21 130:  4.17 131:  4.05 132:  4.00 133:  3.17 134:  3.09 135:  1.32 136:  1.31
 137:  1.31 138:  1.32 139:  4.80 140:  2.47 141:  1.79 142:  1.79 143:  1.77 144:  1.76
 145:  5.69 146:  7.18 147:  4.08 148:  8.75 149:  7.11 150:  9.10 151:  3.41 152:  3.87
 153:  3.95 154:  3.91 155:  3.63 156:  3.83 157: 11.67 158: 11.20 159: 11.55 160: 11.83
 161: 11.71 162: 10.58 163: 10.76 164: 11.76 165: 11.49 166: 10.94 167: 10.52 168: 10.25
 169: 10.17 170:  8.83 171:  9.02 172:  9.10 173:  9.10 174:  9.09 175:  9.09 176:  9.39
 177:  9.24 178:  9.83 179:  9.94 180: 10.58 181: 11.86 182: 11.67 183: 11.64 184: 11.49
 185: 11.54 186: 11.53 187: 11.48 188: 11.51 189: 11.51 190: 11.46 191: 11.49 192: 11.48
 193: 11.49 194: 11.52 195: 12.79 196:  1.77 197:  1.77 198:  1.77 199:  1.78 200:  1.81
 201:  1.77 202:  1.75 203:  1.75 204:  1.78 205:  1.78 206:  1.81 207:  1.79 208:  1.83
 209:  1.83 210:  1.78 211:  1.86 212:  1.85 213:  1.80 214:  1.84 215:  1.83 216:  1.87
 217:  1.87 218:  1.87 219:  1.88 220:  1.92 221:  1.92 222:  1.88 223:  1.92 224:  1.88
 225:  1.92
 IR intensities (km·mol⁻¹)
   1:  0.06   2:  0.04   3:  0.02   4:  0.01   5:  0.01   6:  0.01   7:  0.18   8:  0.07
   9:  0.28  10:  0.65  11:  0.84  12:  0.84  13:  0.23  14:  0.49  15:  0.49  16:  1.32
  17:  0.20  18:  0.12  19:  0.14  20:  1.34  21:  1.05  22:  2.52  23:  1.27  24:  0.27
  25:  3.00  26:  1.28  27:  2.78  28:  0.51  29:  0.65  30:  0.14  31:  0.16  32:  1.09
  33:  3.93  34:  0.45  35:  0.78  36:  0.43  37:  1.32  38:  0.36  39:  0.15  40:  0.31
  41:  0.25  42:  0.57  43:  0.09  44:  0.16  45:  2.00  46:  1.86  47:  0.88  48:  1.12
  49:  2.74  50:  0.64  51:  2.81  52:  4.84  53: 14.53  54:  2.39  55:  0.54  56:  2.12
  57:  1.31  58:  3.02  59:  8.27  60:  2.38  61:  3.09  62:  1.06  63:  0.31  64:  0.03
  65:  0.04  66:  1.03  67:  1.02  68:  1.08  69:  1.89  70:  1.01  71:  0.10  72:  1.97
  73:  9.99  74:  6.06  75:  2.40  76:  3.44  77:  2.92  78:  1.53  79:  4.63  80:  0.63
  81:  0.71  82: 46.22  83:  7.85  84: 16.16  85: 15.82  86:  4.46  87:  9.80  88: 21.81
  89:  1.38  90:  2.47  91:  4.95  92:  0.23  93:  0.53  94:  0.59  95:  2.41  96:  1.94
  97:  0.92  98:  5.20  99:  0.46 100:  0.02 101:  0.37 102:  3.65 103:  0.17 104:  0.03
 105:  2.29 106:  3.28 107:  0.93 108:  0.54 109:  0.07 110:  0.35 111:  0.04 112:  0.10
 113:  0.93 114:  0.08 115:  0.03 116:  4.17 117:  0.05 118:  0.08 119:  9.02 120:  3.42
 121:  2.40 122:  0.29 123:  0.06 124:  0.00 125:  0.13 126:  0.08 127:  0.02 128:  0.78
 129:  0.27 130:  0.60 131:  1.21 132:  0.15 133:  0.40 134:  1.09 135:  0.48 136:  0.11
 137:  0.01 138:  0.02 139:  1.33 140:  8.08 141: 21.50 142: 15.97 143:  0.41 144:  3.74
 145:  0.63 146:  3.34 147:  0.24 148:  0.59 149: 39.29 150:  2.48 151:  1.44 152:  2.83
 153:  8.14 154: 14.28 155:  6.79 156:  6.40 157:  6.13 158: 52.06 159:  7.09 160:  8.52
 161:  6.61 162:190.29 163:295.13 164: 20.40 165: 46.14 166:178.47 167: 15.10 168:  3.72
 169: 10.30 170:  0.64 171:  0.15 172:  3.91 173:  6.45 174: 45.01 175:107.70 176:202.74
 177: 20.83 178:  9.56 179:139.82 180: 36.70 181:  6.30 182:  3.20 183:  6.68 184: 19.04
 185: 68.79 186: 14.49 187:  4.27 188: 32.60 189: 20.73 190:122.28 191:193.70 192:  6.39
 193:  2.38 194: 11.25 195:406.95 196: 13.40 197:  9.50 198:  3.17 199: 20.60 200: 19.27
 201:  3.94 202: 18.42 203:  3.35 204:  0.45 205:  6.49 206: 16.35 207: 28.61 208: 19.33
 209: 13.58 210: 29.41 211: 89.94 212:126.04 213: 18.59 214: 11.74 215: 41.38 216: 66.26
 217: 52.85 218: 61.53 219: 27.92 220: 74.80 221: 61.76 222: 18.53 223: 69.94 224: 24.44
 225: 40.55
 Raman intensities (Ä⁴*amu⁻¹)
   1:  0.00   2:  0.00   3:  0.00   4:  0.00   5:  0.00   6:  0.00   7:  0.00   8:  0.00
   9:  0.00  10:  0.00  11:  0.00  12:  0.00  13:  0.00  14:  0.00  15:  0.00  16:  0.00
  17:  0.00  18:  0.00  19:  0.00  20:  0.00  21:  0.00  22:  0.00  23:  0.00  24:  0.00
  25:  0.00  26:  0.00  27:  0.00  28:  0.00  29:  0.00  30:  0.00  31:  0.00  32:  0.00
  33:  0.00  34:  0.00  35:  0.00  36:  0.00  37:  0.00  38:  0.00  39:  0.00  40:  0.00
  41:  0.00  42:  0.00  43:  0.00  44:  0.00  45:  0.00  46:  0.00  47:  0.00  48:  0.00
  49:  0.00  50:  0.00  51:  0.00  52:  0.00  53:  0.00  54:  0.00  55:  0.00  56:  0.00
  57:  0.00  58:  0.00  59:  0.00  60:  0.00  61:  0.00  62:  0.00  63:  0.00  64:  0.00
  65:  0.00  66:  0.00  67:  0.00  68:  0.00  69:  0.00  70:  0.00  71:  0.00  72:  0.00
  73:  0.00  74:  0.00  75:  0.00  76:  0.00  77:  0.00  78:  0.00  79:  0.00  80:  0.00
  81:  0.00  82:  0.00  83:  0.00  84:  0.00  85:  0.00  86:  0.00  87:  0.00  88:  0.00
  89:  0.00  90:  0.00  91:  0.00  92:  0.00  93:  0.00  94:  0.00  95:  0.00  96:  0.00
  97:  0.00  98:  0.00  99:  0.00 100:  0.00 101:  0.00 102:  0.00 103:  0.00 104:  0.00
 105:  0.00 106:  0.00 107:  0.00 108:  0.00 109:  0.00 110:  0.00 111:  0.00 112:  0.00
 113:  0.00 114:  0.00 115:  0.00 116:  0.00 117:  0.00 118:  0.00 119:  0.00 120:  0.00
 121:  0.00 122:  0.00 123:  0.00 124:  0.00 125:  0.00 126:  0.00 127:  0.00 128:  0.00
 129:  0.00 130:  0.00 131:  0.00 132:  0.00 133:  0.00 134:  0.00 135:  0.00 136:  0.00
 137:  0.00 138:  0.00 139:  0.00 140:  0.00 141:  0.00 142:  0.00 143:  0.00 144:  0.00
 145:  0.00 146:  0.00 147:  0.00 148:  0.00 149:  0.00 150:  0.00 151:  0.00 152:  0.00
 153:  0.00 154:  0.00 155:  0.00 156:  0.00 157:  0.00 158:  0.00 159:  0.00 160:  0.00
 161:  0.00 162:  0.00 163:  0.00 164:  0.00 165:  0.00 166:  0.00 167:  0.00 168:  0.00
 169:  0.00 170:  0.00 171:  0.00 172:  0.00 173:  0.00 174:  0.00 175:  0.00 176:  0.00
 177:  0.00 178:  0.00 179:  0.00 180:  0.00 181:  0.00 182:  0.00 183:  0.00 184:  0.00
 185:  0.00 186:  0.00 187:  0.00 188:  0.00 189:  0.00 190:  0.00 191:  0.00 192:  0.00
 193:  0.00 194:  0.00 195:  0.00 196:  0.00 197:  0.00 198:  0.00 199:  0.00 200:  0.00
 201:  0.00 202:  0.00 203:  0.00 204:  0.00 205:  0.00 206:  0.00 207:  0.00 208:  0.00
 209:  0.00 210:  0.00 211:  0.00 212:  0.00 213:  0.00 214:  0.00 215:  0.00 216:  0.00
 217:  0.00 218:  0.00 219:  0.00 220:  0.00 221:  0.00 222:  0.00 223:  0.00 224:  0.00
 225:  0.00
 output can be read by thermo (or use thermo option).
 writing <g98.out> molden fake output.
 recommended (thermochemical) frequency scaling factor: 1.0
           -------------------------------------------------
          |             Thermodynamic Functions             |
           -------------------------------------------------

Molecule has no symmetry elements
It seems to be the C1 point group
c1  symmetry found (for desy threshold:  0.10E+00) used in thermo

          ...................................................
          :                      SETUP                      :
          :.................................................:
          :  # frequencies                         219      :
          :  # imaginary freq.                       0      :
          :  linear?                             false      :
          :  only rotor calc.                    false      :
          :  symmetry                               c1      :
          :  rotational number                       1      :
          :  scaling factor                  1.0000000      :
          :  rotor cutoff                   50.0000000 cm⁻¹ :
          :  imag. cutoff                  -20.0000000 cm⁻¹ :
          :.................................................:

    mode    ω/cm⁻¹     T·S(HO)/kcal·mol⁻¹    T·S(FR)/kcal·mol⁻¹   T·S(vib)
   ------------------------------------------------------------------------
       1     11.36    -2.31317 (  0.27%)    -1.49563 ( 99.73%)    -1.49780
       2     13.50    -2.21089 (  0.53%)    -1.44448 ( 99.47%)    -1.44853
       3     14.19    -2.18103 (  0.65%)    -1.42955 ( 99.35%)    -1.43440
       4     29.48    -1.74841 ( 10.78%)    -1.21306 ( 89.22%)    -1.27077
       5     31.03    -1.71799 ( 12.92%)    -1.19782 ( 87.08%)    -1.26505
       6     39.91    -1.56938 ( 28.86%)    -1.12334 ( 71.14%)    -1.25209
       7     43.57    -1.51749 ( 36.58%)    -1.09731 ( 63.42%)    -1.25099
       8     47.14    -1.47101 ( 44.14%)    -1.07397 ( 55.86%)    -1.24923
       9     55.40    -1.37589 ( 60.11%)    -1.02617 ( 39.89%)    -1.23639
      10     56.37    -1.36560 ( 61.77%)    -1.02100 ( 38.23%)    -1.23387
      11     59.03    -1.33848 ( 66.02%)    -1.00735 ( 33.98%)    -1.22596
      12     63.92    -1.29171 ( 72.76%)    -0.98379 ( 27.24%)    -1.20782
      13     67.91    -1.25610 ( 77.29%)    -0.96584 ( 22.71%)    -1.19018
      14     77.15    -1.18129 ( 85.01%)    -0.92805 ( 14.99%)    -1.14331
      15     90.65    -1.08702 ( 91.53%)    -0.88027 (  8.47%)    -1.06951
      16     99.91    -1.03043 ( 94.10%)    -0.85147 (  5.90%)    -1.01986
      17    107.84    -0.98612 ( 95.58%)    -0.82886 (  4.42%)    -0.97918
      18    121.59    -0.91679 ( 97.22%)    -0.79330 (  2.78%)    -0.91336
      19    134.72    -0.85793 ( 98.14%)    -0.76292 (  1.86%)    -0.85616
      20    141.58    -0.82956 ( 98.47%)    -0.74820 (  1.53%)    -0.82832
      21    146.65    -0.80956 ( 98.67%)    -0.73779 (  1.33%)    -0.80860
      22    190.83    -0.66182 ( 99.53%)    -0.65978 (  0.47%)    -0.66181
      23    198.67    -0.63963 ( 99.60%)    -0.64784 (  0.40%)    -0.63966
      24    206.43    -0.61867 ( 99.66%)    -0.63650 (  0.34%)    -0.61873
      25    216.53    -0.59270 ( 99.72%)    -0.62235 (  0.28%)    -0.59279
      26    232.34    -0.55480 ( 99.79%)    -0.60147 (  0.21%)    -0.55490
      27    234.20    -0.55053 ( 99.79%)    -0.59910 (  0.21%)    -0.55063
      28    258.98    -0.49750 ( 99.86%)    -0.56931 (  0.14%)    -0.49760
      29    265.70    -0.48421 ( 99.87%)    -0.56173 (  0.13%)    -0.48430
      30    292.38    -0.43535 ( 99.91%)    -0.53338 (  0.09%)    -0.43543
   ------------------------------------------------------------------------

   temp. (K)  partition function   enthalpy   heat capacity  entropy
                                   cal/mol     cal/K/mol   cal/K/mol   J/K/mol
 298.15  VIB  0.267E+18            21587.064    133.846    136.470
         ROT  0.769E+08              888.752      2.981     39.066
         INT  0.205E+26            22475.816    136.827    175.536
         TR   0.133E+29             1481.254      4.968     44.910
         TOT                       23957.0701   141.7948   220.4461   922.3466

       T/K    H(0)-H(T)+PV         H(T)/Eh          T*S/Eh         G(T)/Eh
   ------------------------------------------------------------------------
    298.15    0.381780E-01    0.619385E+00    0.104741E+00    0.514644E+00
   ------------------------------------------------------------------------

         :::::::::::::::::::::::::::::::::::::::::::::::::::::
         ::                  THERMODYNAMIC                  ::
         :::::::::::::::::::::::::::::::::::::::::::::::::::::
         :: total free energy        -112.660202572266 Eh   ::
         ::.................................................::
         :: total energy             -113.174846641930 Eh   ::
         :: zero point energy           0.581207120527 Eh   ::
         :: G(RRHO) w/o ZPVE           -0.066563050864 Eh   ::
         :: G(RRHO) contrib.            0.514644069663 Eh   ::
         :::::::::::::::::::::::::::::::::::::::::::::::::::::

optimized geometry written to: xtbopt.xyz


           -------------------------------------------------
          | TOTAL ENERGY             -113.174846641930 Eh   |
          | TOTAL ENTHALPY           -112.555461500008 Eh   |
          | TOTAL FREE ENERGY        -112.660202572266 Eh   |
          | GRADIENT NORM               0.000111099854 Eh/α |
          | HOMO-LUMO GAP               2.021937372452 eV   |
           -------------------------------------------------

------------------------------------------------------------------------
 * finished run on 2025/09/09 at 05:10:52.187     
------------------------------------------------------------------------
 total:
 * wall-time:     0 d,  0 h,  0 min,  4.628 sec
 *  cpu-time:     0 d,  0 h,  2 min, 50.146 sec
 * ratio c/w:    36.766 speedup
 SCF:
 * wall-time:     0 d,  0 h,  0 min,  0.229 sec
 *  cpu-time:     0 d,  0 h,  0 min,  7.775 sec
 * ratio c/w:    33.949 speedup
 ANC optimizer:
 * wall-time:     0 d,  0 h,  0 min,  1.265 sec
 *  cpu-time:     0 d,  0 h,  0 min, 50.236 sec
 * ratio c/w:    39.704 speedup
 analytical hessian:
 * wall-time:     0 d,  0 h,  0 min,  2.984 sec
 *  cpu-time:     0 d,  0 h,  1 min, 47.026 sec
 * ratio c/w:    35.865 speedup

