$hessian                                                                        
        1.2783200406  -0.1948038434  -0.0208391485  -1.2247906242   0.1838869009
        0.0197102268  -0.0555929884   0.0110660896   0.0010871041   0.0031411122
       -0.0061490333   0.0076767578  -0.0041932811  -0.0000017646   0.0003391156
        0.0037513015  -0.0007175195  -0.0001597886  -0.0009595448   0.0000355974
        0.0000492436   0.0002773955   0.0005593188  -0.0004376233  -0.0002997905
        0.0002706508   0.0000033385   0.0000353222   0.0001904103   0.0000184540
       -0.0000571512  -0.0000238343   0.0000024703   0.0000083422   0.0000521140
        0.0000481926   0.0000072248   0.0000146428   0.0000086602   0.0000309792
        0.0000094676  -0.0000270960  -0.0000101781  -0.0001093640  -0.0000234540
        0.0002980294  -0.0001620991   0.0000777135  -0.0001384668   0.0000041967
       -0.0000051721   0.0001018263   0.0001568318   0.0000479930  -0.0001612460
        0.0001365053   0.0000696770   0.0006109887  -0.0000321799  -0.0000129431
       -0.0006396594   0.0000604894   0.0000061659   0.0001274100   0.0001990286
        0.0001203339  -0.0000022331  -0.0000749645   0.0000192099   0.0000307168
        0.0000429204   0.0000035978  -0.0000128185   0.0000047685  -0.0000092400
        0.0000304961   0.0000099650   0.0000098455  -0.0000421493  -0.0000347247
       -0.0000061461   0.0001174654  -0.0002489704  -0.0001289404  -0.0000033343
        0.0000828250  -0.0000145163   0.0000203479  -0.0000521678  -0.0000038727
       -0.0000158252   0.0000011822   0.0000038856   0.0000259321  -0.0000235449
       -0.0000169401  -0.0000503109   0.0000429380   0.0000075249  -0.0001744293
       -0.0001146261  -0.0000751748   0.0000634484  -0.0001549887  -0.0000469356
       -0.0001653680  -0.0000513879  -0.0000310574   0.0001137784  -0.0006024185
        0.0004287943  -0.0000366110   0.0000227647  -0.0000792347  -0.0001017027
        0.0000457413   0.0001588436  -0.0001562607  -0.0000821351  -0.0001052497
       -0.0000604415  -0.0000252934  -0.0000507770   0.0000230886  -0.0000419355
        0.0000878042   0.0001470167  -0.0000562280   0.0001234506  -0.0039376103
        0.0010460612  -0.0005190696   0.0050479003   0.0050254849  -0.0074210272
        0.0001628894   0.0002353762  -0.0001416044  -0.0005089359   0.0001070871
       -0.0000988986   0.0000874282   0.0000818470   0.0000557453   0.0000167426
        0.0000349795   0.0000351712  -0.0000028318  -0.0000460186  -0.0000219623
       -0.0000311553  -0.0000403443   0.0000097923  -0.0000472498  -0.0000154454
        0.0000291483   0.0000054650   0.0000182202  -0.0000076116   0.0000166600
       -0.0000112560   0.0000256919  -0.0000373602  -0.0000224985  -0.0000148997
       -0.0000082924   0.0000057093  -0.0000223650   0.0000065143  -0.0000089108
        0.0000034672  -0.0000143248  -0.0000210191  -0.0000081306  -0.0000222359
       -0.0000039129  -0.0000170512  -0.0000052258   0.0000095417  -0.0000042704
       -0.0000054792  -0.0000096390   0.0000179283   0.0000012318   0.0000152842
       -0.0000084730  -0.0000164405   0.0000204660   0.0000038663  -0.0000233051
        0.0000044576   0.0000121220  -0.0000045321  -0.0000086239  -0.0000021713
       -0.0000378594   0.0000237716   0.0000224527   0.0000171948   0.0000081767
       -0.0000254064  -0.0000821094   0.0000673843  -0.0000365358   0.0000019264
        0.0000068138  -0.0001607339   0.0000500443   0.0000432123   0.0000588676
        0.0000569419   0.0001025968  -0.0000283541  -0.0000006688   0.0000889868
       -0.0000493244  -0.0000158462   0.0000033310  -0.0000193718  -0.0004714708
        0.0000385308   0.0001118135   0.0001841467  -0.0001319760   0.0001861019
       -0.1948038434   0.0468117138   0.0034362702   0.1840093630  -0.0622220183
       -0.0021131633   0.0110673516   0.0149645226  -0.0013481238  -0.0021186530
        0.0015536770   0.0001525456   0.0001130090  -0.0006751075  -0.0013082159
       -0.0005534412   0.0002632325  -0.0001855616   0.0002127000   0.0002973320
        0.0002191322   0.0000384970  -0.0001258232   0.0000834086   0.0000436661
       -0.0000136827  -0.0000213987  -0.0000061739  -0.0000412576   0.0000026782
        0.0000214030   0.0000098586  -0.0000148908  -0.0000042473  -0.0000110656
       -0.0000145344  -0.0000020712  -0.0000000824  -0.0000019878  -0.0000066598
       -0.0000016298   0.0000039611   0.0000040286   0.0000225866   0.0000003205
       -0.0000469084   0.0000150096  -0.0000147916   0.0000223808   0.0000079530
        0.0000061225  -0.0000111985  -0.0000273768  -0.0000126524   0.0000271603
       -0.0000214154  -0.0000127248  -0.0000984371   0.0000073057   0.0000027417
        0.0001049147   0.0000079330   0.0000022190  -0.0000289461  -0.0000452410
       -0.0000206757   0.0000017688   0.0000165476  -0.0000016884  -0.0000054812
       -0.0000107743   0.0000004609   0.0000014679   0.0000013587   0.0000011415
       -0.0000052212  -0.0000036226  -0.0000014017   0.0000100934   0.0000070573
        0.0000018413  -0.0000130570   0.0000278983   0.0000198462   0.0000003355
       -0.0000096753   0.0000035199  -0.0000030181   0.0000061911   0.0000014857
        0.0000030080   0.0000020259  -0.0000007118  -0.0000039253   0.0000014392
        0.0000029846   0.0000052388  -0.0000052552  -0.0000000660   0.0000264204
        0.0000198964   0.0000116520  -0.0000130435   0.0000211811   0.0000013461
        0.0000331131   0.0000401106  -0.0000259187  -0.0001043853   0.0000722660
       -0.0000502342  -0.0000253616  -0.0000362210   0.0000175655   0.0000224234
       -0.0000225902  -0.0000151272   0.0000001212  -0.0000036968  -0.0000416603
        0.0000192282   0.0000047838  -0.0000005515  -0.0000036659   0.0000084209
       -0.0000174133  -0.0000183573   0.0000125850  -0.0000245785   0.0008527957
       -0.0009311757  -0.0012357264   0.0009708159  -0.0007115110   0.0024477935
       -0.0001696172   0.0003853389   0.0000745753  -0.0001231306  -0.0000204171
       -0.0000483179   0.0000016776   0.0000004489  -0.0000111981  -0.0000047238
       -0.0000106795   0.0000034260   0.0000041427   0.0000177434   0.0000106548
        0.0000081077   0.0000102068  -0.0000000961   0.0000087215   0.0000037716
       -0.0000036666  -0.0000028113  -0.0000021494   0.0000058606  -0.0000030296
        0.0000030233  -0.0000008084   0.0000081915   0.0000044741   0.0000045029
        0.0000006053  -0.0000021620   0.0000029003  -0.0000007776   0.0000042708
       -0.0000018685   0.0000037751   0.0000049776   0.0000013771   0.0000040652
        0.0000010815   0.0000028228   0.0000004192  -0.0000008092  -0.0000000034
        0.0000012932   0.0000005112  -0.0000034304  -0.0000003643  -0.0000004393
        0.0000004889   0.0000020515  -0.0000022560  -0.0000006037   0.0000040170
       -0.0000002950  -0.0000021780   0.0000015589   0.0000023650  -0.0000005821
        0.0000046248  -0.0000033426  -0.0000024776  -0.0000031054   0.0000001957
        0.0000075845   0.0000004001  -0.0000022816   0.0000088152  -0.0000166647
       -0.0000200291   0.0000310134   0.0000111229   0.0000233074   0.0000385026
       -0.0000001542   0.0000171429   0.0000039460   0.0000045167  -0.0000060959
        0.0000100533   0.0000117879   0.0000004428   0.0000143450   0.0002642285
       -0.0000846706  -0.0000897727   0.0002438630   0.0003926615   0.0000088965
       -0.0208391485   0.0034362702   0.0169174088   0.0198386257  -0.0021353427
       -0.0346345535   0.0010673454  -0.0013332098   0.0173315057   0.0022811773
        0.0010571588  -0.0005977611   0.0004307204  -0.0013353153   0.0000052093
       -0.0000958640  -0.0002074463   0.0003019206   0.0000573453   0.0002066817
        0.0001802698   0.0000553238  -0.0000168389   0.0000165851  -0.0000043896
        0.0000149667  -0.0000159787  -0.0000042238  -0.0000095951   0.0000027589
        0.0000153266  -0.0000018184  -0.0000136728  -0.0000019375  -0.0000052968
       -0.0000012521   0.0000001709   0.0000012104   0.0000015807   0.0000004688
       -0.0000013913  -0.0000004011  -0.0000001869  -0.0000015203   0.0000025800
       -0.0000063930  -0.0000017703  -0.0000016148   0.0000009863   0.0000013293
        0.0000051162   0.0000010611  -0.0000070193  -0.0000033503   0.0000034758
       -0.0000030786  -0.0000007290  -0.0000080038   0.0000016487  -0.0000012275
        0.0000096829   0.0000004644   0.0000048329  -0.0000040206  -0.0000048324
       -0.0000043682  -0.0000006303   0.0000030007   0.0000007886  -0.0000021787
       -0.0000017821   0.0000003524  -0.0000003465   0.0000003173   0.0000009912
        0.0000000085   0.0000007250   0.0000010841  -0.0000000174  -0.0000000371
        0.0000012082  -0.0000017113   0.0000044055   0.0000002794   0.0000012444
        0.0000009666   0.0000009731   0.0000006600   0.0000000347   0.0000012002
        0.0000013774  -0.0000001654   0.0000009170  -0.0000005940   0.0000012436
        0.0000017773   0.0000012808  -0.0000013823   0.0000015684   0.0000021073
        0.0000015531   0.0000029698  -0.0000017863  -0.0000034479  -0.0000031856
        0.0000216700   0.0000117210  -0.0000139945  -0.0000556243   0.0000221033
       -0.0000024074  -0.0000082291  -0.0000312768   0.0000062460   0.0000055692
        0.0000192578  -0.0000358180  -0.0000193131  -0.0000135106  -0.0000275093
        0.0000088542   0.0000104238   0.0000082659  -0.0000032301  -0.0000013475
        0.0000013680   0.0000009231  -0.0000018975   0.0000066187  -0.0006832605
       -0.0011826103   0.0000031929  -0.0020814486   0.0015248747  -0.0002279916
        0.0002984686  -0.0000003646   0.0003627079   0.0002643767  -0.0001015319
       -0.0000039016   0.0000009040   0.0000026851  -0.0000050507  -0.0000028877
        0.0000000200   0.0000019029   0.0000012478   0.0000065974   0.0000009954
       -0.0000007161   0.0000007278  -0.0000000885  -0.0000020893   0.0000007498
        0.0000013426  -0.0000029192   0.0000032727   0.0000020235  -0.0000004134
        0.0000031578   0.0000001151   0.0000024462   0.0000018911   0.0000011365
        0.0000011460  -0.0000002325  -0.0000001448   0.0000002031  -0.0000002606
       -0.0000006216   0.0000009481   0.0000005649   0.0000001955   0.0000010310
        0.0000000106   0.0000007217   0.0000006560  -0.0000007814   0.0000003753
       -0.0000010478   0.0000000760  -0.0000001940  -0.0000002387  -0.0000007849
        0.0000002732  -0.0000003280  -0.0000001879   0.0000006491  -0.0000001517
       -0.0000002997   0.0000005294  -0.0000004063  -0.0000006534   0.0000002989
       -0.0000009950   0.0000010528   0.0000004379   0.0000000947   0.0000028557
        0.0000017269  -0.0000036201   0.0000004398  -0.0000001333  -0.0000264503
       -0.0000148716   0.0000099805   0.0000107395   0.0000285268   0.0000085910
       -0.0000025335  -0.0000079620  -0.0000000162   0.0000079175  -0.0000103920
        0.0000119258   0.0000102041  -0.0000015152   0.0000090009  -0.0002685843
       -0.0000281383   0.0000042953  -0.0002698695   0.0000969232   0.0003671721
       -1.2247906242   0.1840093630   0.0198386257   1.5564657904  -0.2263721472
       -0.0266684770  -0.2635123371   0.0319264823   0.0042835048  -0.0355052334
        0.0210665161  -0.0200086035   0.0079115062   0.0033040307  -0.0039545306
       -0.0066302798   0.0012208679   0.0003171697   0.0020145730  -0.0002388699
       -0.0001888507  -0.0004837201  -0.0009999709   0.0007584552   0.0005371841
       -0.0004501680  -0.0000135769  -0.0000563273  -0.0003058835  -0.0000407870
        0.0000905772   0.0000358707  -0.0000137862  -0.0000116462  -0.0000813805
       -0.0000808772  -0.0000181278  -0.0000300530  -0.0000136586  -0.0000546801
       -0.0000193188   0.0000443058   0.0000162808   0.0001796455   0.0000359798
       -0.0005003340   0.0002813117  -0.0001229880   0.0002351831  -0.0000108616
        0.0000075971  -0.0001600294  -0.0002568476  -0.0000795206   0.0002575842
       -0.0002215012  -0.0001169112  -0.0009628934   0.0000511349   0.0000203988
        0.0010049167  -0.0000926077  -0.0000087805  -0.0002035834  -0.0003175483
       -0.0001898645   0.0000084896   0.0001195539  -0.0000266129  -0.0000463778
       -0.0000687337  -0.0000030015   0.0000151419  -0.0000083519   0.0000129479
       -0.0000514175  -0.0000147625  -0.0000164956   0.0000672887   0.0000595359
        0.0000109337  -0.0001835002   0.0003920183   0.0002045885   0.0000101277
       -0.0001299652   0.0000213948  -0.0000269676   0.0000827271   0.0000049328
        0.0000239295   0.0000030123  -0.0000028464  -0.0000415231   0.0000375341
        0.0000301884   0.0000804659  -0.0000702073  -0.0000112510   0.0002795821
        0.0001839311   0.0001245167  -0.0000988628   0.0002522862   0.0000767726
        0.0003006744   0.0000825069   0.0000677329  -0.0001450498   0.0010369394
       -0.0007647205   0.0000721808  -0.0000772841   0.0001349765   0.0001710411
       -0.0000942933  -0.0002557299   0.0002203867   0.0001104437   0.0001340176
        0.0000978286   0.0000284915   0.0000783060  -0.0000328838   0.0000640230
       -0.0001301707  -0.0002577344   0.0000911103  -0.0001816306   0.0063557092
       -0.0043239531   0.0054198011  -0.0435681898  -0.0091112063   0.0214018269
        0.0007753775  -0.0014977295   0.0010122261  -0.0002210740   0.0000003131
        0.0001802190  -0.0001266935  -0.0000675802  -0.0000781598  -0.0000362796
       -0.0000532200  -0.0000453586   0.0000006506   0.0000696735   0.0000353828
        0.0000465336   0.0000616173  -0.0000165672   0.0000737325   0.0000207904
       -0.0000462208  -0.0000043421  -0.0000343725   0.0000075780  -0.0000297473
        0.0000243789  -0.0000331421   0.0000558566   0.0000365806   0.0000239737
        0.0000108541  -0.0000095029   0.0000330261  -0.0000113392   0.0000154156
       -0.0000063863   0.0000210471   0.0000349539   0.0000132323   0.0000335603
        0.0000072522   0.0000275422   0.0000082680  -0.0000141794   0.0000078983
        0.0000079827   0.0000144186  -0.0000254259  -0.0000002080  -0.0000233809
        0.0000154442   0.0000281910  -0.0000313905  -0.0000043521   0.0000382241
       -0.0000049415  -0.0000171674   0.0000086273   0.0000153961   0.0000038331
        0.0000577506  -0.0000384753  -0.0000351227  -0.0000284514  -0.0000222095
        0.0000329284   0.0001326549  -0.0001081620   0.0000600657  -0.0000219751
       -0.0000407080   0.0002370433  -0.0000667544  -0.0000573461  -0.0000806020
       -0.0000810511  -0.0001525992   0.0000473916   0.0000098843  -0.0001462555
        0.0000760650   0.0000407680  -0.0000079119   0.0000383872  -0.0004419572
        0.0001080756  -0.0001281790   0.0008257906   0.0005776775  -0.0014708550
        0.1838869009  -0.0622220183  -0.0021353427  -0.2263721472   0.1230325853
       -0.0095977724   0.0318461009  -0.0600942144   0.0023516308   0.0212187195
       -0.0060431559   0.0024755725   0.0018570684   0.0027514805   0.0067647001
        0.0009485906  -0.0008076272   0.0006208310  -0.0005285270  -0.0012939086
       -0.0009843290  -0.0002520199   0.0002041552  -0.0001611583  -0.0000565128
       -0.0000283113   0.0000928581  -0.0000050525   0.0000613514  -0.0000056112
       -0.0000326916  -0.0000044870   0.0000198195   0.0000079815   0.0000148787
        0.0000165024   0.0000011207  -0.0000004639   0.0000023507   0.0000110971
        0.0000045550  -0.0000039986  -0.0000011010  -0.0000315581  -0.0000098302
        0.0000750071   0.0000192040   0.0000175676  -0.0000385573  -0.0000053269
       -0.0000201952   0.0000273850   0.0000447608   0.0000199768  -0.0000427019
        0.0000311213   0.0000146105   0.0001531897  -0.0000069285  -0.0000004112
       -0.0001630909   0.0000025646  -0.0000017577   0.0000359943   0.0000560053
        0.0000306172  -0.0000012114  -0.0000216012   0.0000038827   0.0000073027
        0.0000127707  -0.0000005215  -0.0000024569   0.0000010038  -0.0000024805
        0.0000091536   0.0000029442   0.0000028807  -0.0000131844  -0.0000108183
       -0.0000027733   0.0000235830  -0.0000501769  -0.0000310878  -0.0000028445
        0.0000181173  -0.0000034820   0.0000045536  -0.0000121187  -0.0000018225
       -0.0000035216  -0.0000011157  -0.0000001229   0.0000056766  -0.0000051394
       -0.0000044797  -0.0000096884   0.0000088978   0.0000004449  -0.0000390070
       -0.0000295418  -0.0000178099   0.0000222001  -0.0000381332  -0.0000108191
       -0.0000965948  -0.0000989957   0.0000963593   0.0003521621  -0.0001937561
        0.0000841743   0.0000243039   0.0000899972  -0.0000446967  -0.0000274298
        0.0000385395   0.0000661518  -0.0000239804  -0.0000022260   0.0000448338
       -0.0000232665   0.0000027404  -0.0000081652   0.0000093873   0.0000066346
        0.0000203574   0.0000360607  -0.0000219795   0.0000310581  -0.0026845193
        0.0046237589   0.0055280569  -0.0093370424   0.0033922468  -0.0032320269
        0.0003121918  -0.0017245981  -0.0013270001   0.0009401848  -0.0000806490
        0.0001525114   0.0000052609   0.0000233187   0.0000040927   0.0000071262
        0.0000111417  -0.0000000057  -0.0000038681  -0.0000204594  -0.0000110563
       -0.0000088153  -0.0000120974   0.0000007807  -0.0000122941  -0.0000057176
        0.0000064640   0.0000028651   0.0000035461  -0.0000053744   0.0000033987
       -0.0000058533   0.0000028322  -0.0000112943  -0.0000061865  -0.0000046483
       -0.0000014181   0.0000020835  -0.0000048069   0.0000020742  -0.0000040713
        0.0000020094  -0.0000039027  -0.0000067536  -0.0000020800  -0.0000055938
       -0.0000017427  -0.0000043754  -0.0000009082   0.0000017257  -0.0000006464
       -0.0000014980  -0.0000015535   0.0000043417  -0.0000003215   0.0000022254
       -0.0000014845  -0.0000043868   0.0000039848   0.0000008064  -0.0000061729
        0.0000000820   0.0000028558  -0.0000019667  -0.0000031727   0.0000001530
       -0.0000086848   0.0000049672   0.0000042971   0.0000042709   0.0000022353
       -0.0000068653   0.0000014615   0.0000099654  -0.0000156640   0.0000171032
        0.0000206829  -0.0000597372  -0.0000154026  -0.0000225098  -0.0000378678
        0.0000028993  -0.0000017065  -0.0000117399  -0.0000090364   0.0000192371
       -0.0000164157  -0.0000231796   0.0000057631  -0.0000236213  -0.0008059976
        0.0002230605   0.0002608131  -0.0011804850  -0.0018336588  -0.0009331112
        0.0197102268  -0.0021131633  -0.0346345535  -0.0266684770  -0.0095977724
        0.0963794843   0.0042159831   0.0023804231  -0.0571526934  -0.0200366109
        0.0025185866   0.0005355453  -0.0024415990   0.0064669551   0.0002019791
        0.0002598093   0.0008040903  -0.0012342398  -0.0001972594  -0.0009500717
       -0.0007377305  -0.0002173637   0.0000679848  -0.0000033793   0.0000002739
       -0.0000698747   0.0000632817  -0.0000036365   0.0000222636  -0.0000067239
       -0.0000139325   0.0000037484   0.0000190978   0.0000066971   0.0000014979
       -0.0000021651  -0.0000042500  -0.0000060810   0.0000006190   0.0000006356
        0.0000057944   0.0000055980   0.0000028726  -0.0000053208  -0.0000060914
        0.0000104703   0.0000070247  -0.0000015273   0.0000018863  -0.0000060255
       -0.0000149036   0.0000020738   0.0000076797   0.0000079757  -0.0000025773
        0.0000020286   0.0000001644   0.0000174925  -0.0000013849  -0.0000000023
       -0.0000189049  -0.0000035556  -0.0000026951   0.0000050419   0.0000064332
        0.0000045173  -0.0000002650  -0.0000035925  -0.0000003882   0.0000016608
        0.0000025253  -0.0000004116  -0.0000003150   0.0000000764  -0.0000012248
        0.0000006595  -0.0000009039  -0.0000003774  -0.0000012950  -0.0000005014
       -0.0000017042  -0.0000004965  -0.0000012497  -0.0000017511  -0.0000006519
        0.0000005946  -0.0000016163  -0.0000005912   0.0000004582  -0.0000008232
       -0.0000001631  -0.0000001220  -0.0000015547   0.0000004915  -0.0000017123
       -0.0000012968  -0.0000011571   0.0000014493  -0.0000011338  -0.0000062245
       -0.0000022347  -0.0000004958   0.0000074214  -0.0000032129   0.0000004332
       -0.0000432883  -0.0000593475   0.0000802260   0.0002360386  -0.0000319940
       -0.0000032790   0.0000343729   0.0000624981  -0.0000224910  -0.0000212622
        0.0000193569   0.0000387270  -0.0000135587   0.0000030432   0.0000205948
       -0.0000221645  -0.0000226183  -0.0000096064   0.0000099224   0.0000006881
        0.0000198269  -0.0000080467  -0.0000026770   0.0000171211   0.0040351525
        0.0056651248   0.0000109104   0.0215031505  -0.0032397083  -0.0010475144
       -0.0012010043  -0.0009670044  -0.0011544601  -0.0011491661   0.0003587618
       -0.0000221318  -0.0000314261  -0.0000353953  -0.0000227749   0.0000014741
        0.0000010123  -0.0000056408  -0.0000022217  -0.0000062752  -0.0000004119
        0.0000002237  -0.0000003078  -0.0000007656  -0.0000007763  -0.0000017792
       -0.0000009577  -0.0000001504  -0.0000000718  -0.0000006733   0.0000001573
       -0.0000014627  -0.0000005003  -0.0000031554  -0.0000013110  -0.0000011158
       -0.0000009706   0.0000007608  -0.0000002518  -0.0000002733  -0.0000003378
        0.0000003524  -0.0000008046  -0.0000006050  -0.0000005218  -0.0000007816
       -0.0000001177  -0.0000011652  -0.0000001906   0.0000003073  -0.0000004804
        0.0000003960   0.0000001183   0.0000004625   0.0000003386  -0.0000001050
       -0.0000005084   0.0000000614   0.0000002217  -0.0000008927  -0.0000001557
        0.0000001809  -0.0000009909  -0.0000000337   0.0000001232  -0.0000005983
       -0.0000002651  -0.0000002875  -0.0000006074   0.0000002883   0.0000001244
       -0.0000015176   0.0000187577  -0.0000055487  -0.0000059511   0.0000300635
        0.0000335788  -0.0000199040  -0.0000076023  -0.0000268644  -0.0000039607
        0.0000077689   0.0000125215  -0.0000046034  -0.0000065174   0.0000080844
       -0.0000127761  -0.0000004960  -0.0000001236  -0.0000052456   0.0012345342
        0.0000191651  -0.0000663978   0.0007736853  -0.0013145642  -0.0011787380
       -0.0555929884   0.0110673516   0.0010673454  -0.2635123371   0.0318461009
        0.0042159831   0.6468651123  -0.0574178591  -0.0404723690  -0.1142160181
        0.0701745042  -0.0776081916  -0.0332737484   0.0198700521  -0.0190732388
        0.0102292017  -0.0055438761   0.0028158675  -0.0035237943   0.0000961842
       -0.0000512932   0.0008014030   0.0010335761  -0.0009424602  -0.0004976841
        0.0004474205   0.0000971608   0.0000683259   0.0002322587   0.0000457318
       -0.0000633778  -0.0000211035   0.0000240312   0.0000036794   0.0000323011
        0.0000434037   0.0000027938   0.0000106034   0.0000080389   0.0000346963
        0.0000121087  -0.0000288407  -0.0000174284  -0.0001136555  -0.0000295120
        0.0004901662  -0.0002016636   0.0001089946  -0.0001758755   0.0000098096
       -0.0000251902   0.0001004692   0.0001811051   0.0000603206  -0.0001708670
        0.0001396926   0.0000689476   0.0005560304  -0.0000315356  -0.0000120823
       -0.0005749267   0.0000495995   0.0000049483   0.0001158119   0.0001849956
        0.0001152161  -0.0000076689  -0.0000699108   0.0000151431   0.0000258920
        0.0000428409   0.0000018645  -0.0000151104   0.0000012336  -0.0000091171
        0.0000242669   0.0000101693   0.0000077984  -0.0000389024  -0.0000334492
       -0.0000050540   0.0001030096  -0.0002242656  -0.0001218496  -0.0000069535
        0.0000742667  -0.0000112919   0.0000162028  -0.0000484197  -0.0000020376
       -0.0000168825   0.0000032406   0.0000047607   0.0000214692  -0.0000223557
       -0.0000138738  -0.0000453651   0.0000414646   0.0000062135  -0.0001836780
       -0.0001201459  -0.0000718547   0.0000630682  -0.0001812645  -0.0000562342
       -0.0002846310  -0.0002090064  -0.0000349340   0.0006303631  -0.0012219108
        0.0008234685  -0.0001169286   0.0000410934  -0.0001849900  -0.0000759334
        0.0001553412   0.0000602471  -0.0001048439  -0.0000317735  -0.0001237463
       -0.0000632749  -0.0000310288  -0.0000643858   0.0000286839  -0.0000512657
        0.0001175790   0.0001895542  -0.0000795467   0.0001063234  -0.0483446328
       -0.0045290630   0.0183508497  -0.1414545604  -0.0656117805   0.1062240241
        0.0066212629  -0.0085869927   0.0103996009  -0.0055393089   0.0018605228
        0.0005882275   0.0000744856   0.0001721967   0.0000919926   0.0000104361
        0.0000396110   0.0000264132  -0.0000118272  -0.0000459694  -0.0000253365
       -0.0000301466  -0.0000406852   0.0000051090  -0.0000453684  -0.0000176057
        0.0000232058   0.0000118014   0.0000123374  -0.0000179238   0.0000198854
       -0.0000138766   0.0000201516  -0.0000387349  -0.0000234068  -0.0000124501
       -0.0000100825   0.0000064916  -0.0000201417   0.0000026562  -0.0000092563
        0.0000033604  -0.0000148621  -0.0000180973  -0.0000074346  -0.0000211399
       -0.0000031142  -0.0000145932  -0.0000071254   0.0000083703  -0.0000030547
       -0.0000067553  -0.0000104314   0.0000167878  -0.0000015112   0.0000128365
       -0.0000072173  -0.0000153768   0.0000165703   0.0000044579  -0.0000214808
        0.0000028929   0.0000111284  -0.0000065235  -0.0000081779  -0.0000016516
       -0.0000363178   0.0000219363   0.0000192433   0.0000214664   0.0000082287
       -0.0000208094  -0.0000466699   0.0000492082  -0.0000523974  -0.0001076006
        0.0000476291  -0.0000642849   0.0000835669   0.0000847325   0.0000932330
        0.0000701379   0.0000851788  -0.0000110409   0.0000121482   0.0000812757
       -0.0000329731   0.0000208358  -0.0000021217   0.0000584322  -0.0055784151
        0.0017896491   0.0008201270   0.0065987758   0.0045176334  -0.0073418759
        0.0110660896   0.0149645226  -0.0013332098   0.0319264823  -0.0600942144
        0.0023804231  -0.0574178591   0.3076042910  -0.2371675967   0.0393457575
       -0.1395557509   0.1127259201   0.0538678887  -0.0002629581  -0.0085373531
       -0.0050456430  -0.0253317119   0.0262637368   0.0005636059  -0.0004076988
       -0.0002001236  -0.0004654520  -0.0002352404   0.0000556901   0.0001432775
       -0.0001005585   0.0000655864  -0.0000227958  -0.0000303823  -0.0000104611
        0.0000046273   0.0000076756  -0.0000038763  -0.0000003535  -0.0000051861
       -0.0000056163  -0.0000023812  -0.0000044403  -0.0000007207  -0.0000061371
       -0.0000053773   0.0000063340   0.0000054873   0.0000259265   0.0000012525
       -0.0000641082   0.0001383536  -0.0000105301   0.0000231166   0.0000083499
       -0.0000189083  -0.0000160127  -0.0000234123  -0.0000087040   0.0000220683
       -0.0000217918  -0.0000097638  -0.0000829595   0.0000051962   0.0000032974
        0.0000870819  -0.0000054442  -0.0000015765  -0.0000188041  -0.0000296682
       -0.0000170902   0.0000023759   0.0000109383  -0.0000013763  -0.0000042870
       -0.0000070954  -0.0000002989   0.0000016827   0.0000001275   0.0000010063
       -0.0000046883  -0.0000020293  -0.0000014439   0.0000060072   0.0000060504
        0.0000002604  -0.0000149492   0.0000320638   0.0000187122   0.0000002117
       -0.0000114677   0.0000023972  -0.0000023478   0.0000081666   0.0000000962
        0.0000024813   0.0000004905  -0.0000009170  -0.0000030292   0.0000025768
        0.0000021295   0.0000065626  -0.0000055719  -0.0000011468   0.0000267278
        0.0000146706   0.0000098677  -0.0000060543   0.0000298017   0.0000083095
       -0.0000723698  -0.0000303915  -0.0000258094   0.0000393378   0.0000804747
       -0.0002041116   0.0000672555  -0.0000494268   0.0000829151   0.0000719311
       -0.0002345898  -0.0000171950   0.0000597588   0.0001155870  -0.0000488711
        0.0000434819  -0.0000397731   0.0001253587  -0.0000813162  -0.0000638030
       -0.0000657553  -0.0000467588   0.0001873350  -0.0000569479  -0.0387216272
        0.0178737924  -0.0121765915  -0.0346799947  -0.1085065423   0.0867048549
        0.0045468887  -0.0085325201   0.0110202350   0.0018513077   0.0054120195
        0.0031117547   0.0000581657   0.0001139382  -0.0000463907  -0.0000036449
       -0.0000048673   0.0000006350   0.0000006468   0.0000044886   0.0000035227
        0.0000036267   0.0000057412  -0.0000013118   0.0000071228   0.0000023046
       -0.0000045220   0.0000021261  -0.0000056836  -0.0000004577  -0.0000039080
       -0.0000000888  -0.0000031680   0.0000054510   0.0000028505   0.0000018600
        0.0000016725  -0.0000015154   0.0000032426  -0.0000001286   0.0000017080
       -0.0000004957   0.0000019460   0.0000029010   0.0000012140   0.0000031384
        0.0000004374   0.0000022800   0.0000007869  -0.0000011909   0.0000004168
        0.0000010984   0.0000012534  -0.0000026331  -0.0000000970  -0.0000019738
        0.0000011079   0.0000029287  -0.0000028528  -0.0000008780   0.0000038281
       -0.0000004096  -0.0000020519   0.0000013715   0.0000016297  -0.0000000541
        0.0000067773  -0.0000041568  -0.0000034280  -0.0000029303  -0.0000027569
        0.0000033434   0.0000217122   0.0000069411   0.0000064413  -0.0000405931
        0.0000196590  -0.0000150261  -0.0000289046  -0.0000265927  -0.0000376438
       -0.0000243571  -0.0000172037   0.0000028072   0.0000011496  -0.0000233773
       -0.0000081320  -0.0000241719   0.0000084487  -0.0000319859   0.0018579906
        0.0055252664   0.0032232023  -0.0088543691  -0.0085362621   0.0142439630
        0.0010871041  -0.0013481238   0.0173315057   0.0042835048   0.0023516308
       -0.0571526934  -0.0404723690  -0.2371675967   0.4368162754  -0.0363902003
        0.1052711957  -0.1787720952  -0.0633736190  -0.0017689981   0.0175823445
        0.0031219060   0.0262676255  -0.0418386335  -0.0000939791   0.0002267638
       -0.0001622999   0.0004346565   0.0001517178   0.0001925108  -0.0001219759
        0.0000046877  -0.0000937578   0.0000150592  -0.0000065669   0.0000040673
        0.0000045134  -0.0000078346   0.0000036999  -0.0000018472  -0.0000057863
       -0.0000020325   0.0000017360   0.0000006748  -0.0000021006  -0.0000004976
        0.0000047697  -0.0000010287  -0.0000070182  -0.0000066604   0.0000096092