$hessian                                                                        
        0.4646852062   0.0379154275   0.2532508449  -0.1072338696   0.0372580897
       -0.0472855672   0.0362379525   0.0186638954   0.0235305365  -0.0274535844
        0.0246291809  -0.0187754317  -0.0003746363  -0.0020981451   0.0008663323
       -0.0004444147   0.0006780986  -0.0001787832   0.0001137338   0.0002500285
        0.0001853227   0.0000708346  -0.0001409913   0.0000872622   0.0001873722
        0.0001228993  -0.0001255657  -0.0002294634   0.0001547482   0.0001175883
        0.0000630824  -0.0003389910   0.0000149308  -0.0005175895  -0.0002178680
       -0.0001247009  -0.0003043269  -0.0002141780   0.0001024678   0.0000437235
       -0.0000834562  -0.0000747695   0.0000598533   0.0000878843   0.0000849634
        0.0000779260  -0.0000147660   0.0000154234  -0.0001434114   0.0000173088
        0.0000596944   0.0001712391   0.0001671859   0.0001268927  -0.0004464630
       -0.0001024227   0.0000485042   0.0005215485   0.0000621717  -0.0000580756
       -0.0003333132   0.0000318555   0.0001942655   0.0002170189   0.0002285825
        0.0001135468  -0.0000316559   0.0000415182   0.0000298015   0.0000451926
       -0.0000380813  -0.0000445965  -0.0000720118   0.0000102693   0.0000185718
        0.0000282534   0.0000408112   0.0000217673  -0.0000003720  -0.0000201194
       -0.0000214252  -0.0000035792  -0.0000074997  -0.0000057316  -0.0001152695
        0.0000080881   0.0000415442   0.0000338824   0.0000482176   0.0000202649
       -0.0000448720  -0.0000162550  -0.0000040252   0.0000742057   0.0000023883
       -0.0000179209  -0.0000263426  -0.0000861717  -0.0000544543   0.0001798310
        0.0001064504   0.0000145657  -0.0001100168  -0.0002024792  -0.0001498814
       -0.0000900374  -0.0002059398  -0.0001906671  -0.0000547679   0.0000560787
        0.0000583088  -0.0000094915  -0.0000318834  -0.0000473705  -0.0000258006
        0.0000189859  -0.0000041061   0.0000279217  -0.0000165810   0.0000038082
       -0.0000037636   0.0000170756   0.0000051329   0.0000019706   0.0000050229
       -0.0000018593   0.0000055799   0.0000050685  -0.0000025870  -0.0000035355
        0.0000003148  -0.0000039270  -0.0000162940   0.0000125485  -0.0000014974
       -0.0000005612  -0.0000083981  -0.0000053838  -0.0000038030   0.0000043959
       -0.0000018649   0.0000029211   0.0000127025   0.0000118044  -0.0000105116
       -0.0000070994   0.0000005797  -0.0000077461  -0.0000108535  -0.0000056612
       -0.0000128012   0.0000042800  -0.0000076747  -0.0000144406  -0.0000015342
       -0.0000065270   0.0000093343  -0.0000070302  -0.0000009808   0.0000216912
       -0.0000072996   0.0000163757  -0.0000155023   0.0000137050  -0.0000018740
       -0.0000017364  -0.0000050384   0.0000031284  -0.0000001070   0.0000004508
        0.0000046568   0.0000021182  -0.0000017176   0.0000038792   0.0000004428
       -0.0000006743   0.0000012452   0.0000001256  -0.0000027232   0.0000003323
        0.0000657795  -0.0000096949   0.0000009585   0.0001918485  -0.0000580160
       -0.0001543593  -0.0000993753  -0.0000601800  -0.0000503846  -0.0002323737
       -0.0000364789  -0.0000089475   0.0004349254   0.0002344046   0.0002815862
       -0.0284643677  -0.0654474709  -0.0170344865  -0.2279034269   0.0329791495
       -0.1348267369  -0.0931628843  -0.1008788021  -0.0342498060  -0.0101275230
        0.0207487468  -0.0101626453   0.0022278888  -0.0033527808  -0.0040145234
        0.0000336500   0.0000288072  -0.0000443178   0.0000332963  -0.0000122591
        0.0000028988  -0.0000007052  -0.0000017312  -0.0000134969   0.0000058195
       -0.0000070655  -0.0000022065   0.0000019279   0.0000161929  -0.0000141961
       -0.0001722776  -0.0001012422  -0.0000613586  -0.0000234350  -0.0000059496
       -0.0000003009  -0.0000043295  -0.0000151709   0.0000063815  -0.0000039555
        0.0000019662  -0.0000020376  -0.0000026401  -0.0000008657  -0.0000046328
       -0.0000067429  -0.0000050032  -0.0000072517  -0.0000034121   0.0000053347
        0.0000024564  -0.0000001978   0.0000020170  -0.0000064074  -0.0000015466
        0.0000009253  -0.0000053955  -0.0000017409   0.0000031893  -0.0000089149
       -0.0000024105  -0.0000026862   0.0000004407  -0.0000025757   0.0000022030
       -0.0000006660   0.0000004435  -0.0000033794  -0.0000010136  -0.0000033774
       -0.0000043671   0.0000024682  -0.0000014986   0.0000012908   0.0000031008
        0.0000048071   0.0000035501   0.0000039462  -0.0000036939   0.0000034040
        0.0000017080   0.0000012522  -0.0000056730  -0.0000033743   0.0000045615
        0.0000023085  -0.0000063591  -0.0000076783   0.0000095735   0.0000051526
        0.0000126310  -0.0000097668   0.0000024566   0.0000058472   0.0000035215
        0.0000057803   0.0000028551  -0.0000002701  -0.0000005396  -0.0000008753
       -0.0000029611   0.0000013306  -0.0000022843   0.0000033469   0.0000046863
       -0.0000026975   0.0000023543   0.0000060629  -0.0000002141  -0.0000001774
        0.0000072900  -0.0000009245  -0.0000027639  -0.0000005886  -0.0000026403
        0.0000088160  -0.0000032085   0.0000035893   0.0000067925  -0.0000011864
       -0.0000041847   0.0000102478  -0.0000090578  -0.0000105229   0.0000221054
        0.0000428236   0.0024023842  -0.0029056270  -0.0040097694  -0.0099038642
        0.0020426038  -0.0075247920
        0.0379154275   0.6629799494  -0.0252282093   0.1010627395  -0.2676912111
        0.0952221159  -0.0294698630  -0.0691647535  -0.0129077541   0.0243090617
       -0.0093172102   0.0191028405  -0.0011465786  -0.0029326298  -0.0019035075
       -0.0002307434   0.0007238688  -0.0002942196   0.0003070136  -0.0006113614
       -0.0002898955  -0.0001387503   0.0004451872  -0.0000576340  -0.0000895061
       -0.0002404149   0.0000784098   0.0000824486   0.0000668856  -0.0000497852
       -0.0000372733  -0.0000350708  -0.0000378409  -0.0002147536   0.0002031388
        0.0006293841   0.0005760117  -0.0002863418  -0.0002950532  -0.0003924863
        0.0000166928   0.0000048021   0.0002382770  -0.0001316463  -0.0000395138
        0.0001122350  -0.0000033733  -0.0000463041  -0.0002958428   0.0000324084
        0.0001406627   0.0003543925   0.0003127257   0.0002667334  -0.0009645562
       -0.0002050244   0.0001263427   0.0011028724   0.0001378645  -0.0001494308
       -0.0007160083   0.0000857052   0.0004273601   0.0004488648   0.0005236361
        0.0002858443  -0.0000559602   0.0000722378   0.0000588419   0.0000973421
       -0.0000688675  -0.0000744324  -0.0001472462   0.0000228778   0.0000511630
        0.0000577126   0.0000935340   0.0000647288   0.0000081721  -0.0000666615
       -0.0000558408  -0.0000220505   0.0000036831   0.0000127450  -0.0002327667
       -0.0000047935   0.0000731452   0.0000659970   0.0001206328   0.0000617719
       -0.0000774614  -0.0000493109  -0.0000133713   0.0001269121  -0.0000049512
       -0.0000324150  -0.0000379949  -0.0001761107  -0.0001074558   0.0003519791
        0.0002178001   0.0000424411  -0.0001772821  -0.0004659457  -0.0003504644
       -0.0002330175  -0.0004109001  -0.0003653848  -0.0000839078   0.0000809994
        0.0000895257  -0.0000258481  -0.0000511329  -0.0000738875  -0.0000454144
        0.0000335638  -0.0000030802   0.0000354711  -0.0000238657   0.0000030556
        0.0000059486   0.0000182163   0.0000120730  -0.0000086371   0.0000097787
       -0.0000082307   0.0000090904   0.0000010467  -0.0000105777  -0.0000110866
        0.0000035904  -0.0000102161   0.0000130681  -0.0000119671   0.0000057751
       -0.0000012034   0.0000062610  -0.0000014396   0.0000057821  -0.0000093004
        0.0000012691   0.0000016164   0.0000000667   0.0000043983   0.0000124219
       -0.0000218424   0.0000110108  -0.0000135429   0.0000006578   0.0000045306
        0.0000014724  -0.0000061498   0.0000015229  -0.0000179282   0.0000054020
       -0.0000061237   0.0000187388   0.0000145975   0.0000050980  -0.0000177870
       -0.0000055539  -0.0000060027  -0.0000158917   0.0000135528  -0.0000095675
       -0.0000021194  -0.0000055402   0.0000024226  -0.0000011058   0.0000002660
       -0.0000000655   0.0000015654  -0.0000035819   0.0000002703  -0.0000015666
       -0.0000019473  -0.0000026301  -0.0000006876  -0.0000030046  -0.0000028210
        0.0001051429  -0.0000056328   0.0000070594   0.0004267886  -0.0001634755
       -0.0003323544  -0.0002426357  -0.0000736299  -0.0001050518  -0.0002801201
        0.0001332654   0.0001846881   0.0002230620   0.0001037754   0.0001062389
       -0.0177293736   0.0252479129  -0.0160400231  -0.0307794092  -0.0944626797
       -0.0183703107  -0.1009007034  -0.2335058946  -0.0546318737   0.0018821404
       -0.0014331988   0.0011852941  -0.0029773436  -0.0037487700  -0.0009811453
        0.0000475236  -0.0002610160  -0.0000682136   0.0000172708  -0.0000371425
       -0.0000343187   0.0000164832  -0.0000077137   0.0000214184   0.0000174065
       -0.0000131149  -0.0000006136   0.0000347192   0.0000217926  -0.0000495916
       -0.0000629098   0.0000116068   0.0000261357  -0.0000272868   0.0000400016
       -0.0000195927  -0.0000054771  -0.0000115052   0.0000152069   0.0000033771
        0.0000042755   0.0000011548  -0.0000014477  -0.0000048124  -0.0000014186
       -0.0000069374  -0.0000139042  -0.0000056516   0.0000023390   0.0000034243
        0.0000089963   0.0000071659   0.0000033529  -0.0000013214   0.0000029271
       -0.0000003231  -0.0000030846   0.0000016548   0.0000079974  -0.0000065633
       -0.0000034602   0.0000024150   0.0000084988  -0.0000054893   0.0000050049
        0.0000016323  -0.0000007638  -0.0000033785  -0.0000005139  -0.0000067559
       -0.0000019932   0.0000058758  -0.0000061996   0.0000033584   0.0000058466
        0.0000046537   0.0000062104   0.0000037124  -0.0000070392   0.0000061109
       -0.0000012417  -0.0000008665  -0.0000055524  -0.0000028223  -0.0000074297
        0.0000045006  -0.0000100231   0.0000039629  -0.0000024367  -0.0000077417
       -0.0000012116  -0.0000009606  -0.0000199499   0.0000053488   0.0000084563
        0.0000003900   0.0000037018   0.0000019832  -0.0000080408  -0.0000018594
       -0.0000028607  -0.0000054036  -0.0000036513   0.0000046602  -0.0000030092
       -0.0000023413   0.0000031633  -0.0000007378   0.0000022543  -0.0000013205
        0.0000029376  -0.0000000424  -0.0000063872  -0.0000009224  -0.0000024490
        0.0000179479  -0.0000045005   0.0000001988   0.0000081259  -0.0000120902
        0.0000005732   0.0000047680  -0.0000052533   0.0000072534   0.0000285476
        0.0000623788  -0.0032645379  -0.0039316661  -0.0011871203   0.0211160268
       -0.0022196507   0.0159159048
        0.2532508449  -0.0252282093   0.3025479323  -0.0539051366   0.0475645100
       -0.0912404947   0.0285382219   0.0210920002   0.0198702261  -0.0176139668
        0.0182842015  -0.0216738658   0.0000841184  -0.0013340005   0.0005705981
       -0.0003297254   0.0004787850  -0.0000562545   0.0000838188   0.0003505473
        0.0002003168   0.0000906252  -0.0001815269   0.0000837559   0.0001676151
        0.0001241150  -0.0001197167  -0.0002115051   0.0001206674   0.0001085573
        0.0000422451  -0.0003193074   0.0000242553  -0.0004753085  -0.0002396888
       -0.0001112670  -0.0003513011  -0.0002059731   0.0001252389   0.0000933321
       -0.0000756454  -0.0000455906   0.0000255711   0.0000871131   0.0000563796
        0.0000510021  -0.0000102239   0.0000195247  -0.0000862139   0.0000076406
        0.0000330976   0.0000963920   0.0000991395   0.0000720476  -0.0002551761
       -0.0000629706   0.0000268776   0.0002906878   0.0000308222  -0.0000310272
       -0.0001903236   0.0000118281   0.0001165803   0.0001270104   0.0001386171
        0.0000729884  -0.0000133450   0.0000199195   0.0000237005   0.0000248108
       -0.0000230686  -0.0000218876  -0.0000388575   0.0000056474   0.0000148150
        0.0000177876   0.0000238217   0.0000158682   0.0000039264  -0.0000130694
       -0.0000058151  -0.0000025131  -0.0000007043   0.0000004925  -0.0000630745
       -0.0000017099   0.0000281006   0.0000215679   0.0000176935   0.0000226585
       -0.0000208174  -0.0000042600  -0.0000015464   0.0000372916   0.0000038009
       -0.0000066603  -0.0000160827  -0.0000415113  -0.0000283064   0.0001007179
        0.0000563370   0.0000174099  -0.0000450367  -0.0001216108  -0.0000936801
       -0.0000634260  -0.0001135112  -0.0000978934  -0.0000329918   0.0000353537
        0.0000364348  -0.0000057099  -0.0000158367  -0.0000197108  -0.0000163037
        0.0000114429  -0.0000014213   0.0000156787  -0.0000074418   0.0000049312
       -0.0000047726   0.0000102914   0.0000028080  -0.0000007161   0.0000032142
        0.0000006904   0.0000008456   0.0000027379  -0.0000013811  -0.0000010854
       -0.0000020657  -0.0000032172  -0.0000085033   0.0000125977  -0.0000050705
        0.0000020674  -0.0000054444  -0.0000056861  -0.0000037719   0.0000064884
       -0.0000019506   0.0000007750   0.0000073915   0.0000086190  -0.0000078880
       -0.0000022968  -0.0000040572  -0.0000051152  -0.0000119639  -0.0000067792
       -0.0000074294   0.0000029092  -0.0000093268  -0.0000110498  -0.0000023431
       -0.0000019310   0.0000081355  -0.0000083736  -0.0000106185   0.0000162396
       -0.0000020284   0.0000089154  -0.0000085583   0.0000080972  -0.0000065748
       -0.0000013388  -0.0000018111  -0.0000026014  -0.0000012815   0.0000016039
       -0.0000031313   0.0000030132  -0.0000002966  -0.0000041543   0.0000014849
       -0.0000008341  -0.0000047274   0.0000018633  -0.0000029584  -0.0000049084
        0.0000354537  -0.0000052182   0.0000000650   0.0001066525  -0.0000252165
       -0.0000836203  -0.0000596169  -0.0000444081  -0.0000275714  -0.0001823236
       -0.0000345625  -0.0000173136   0.0003546096   0.0001893786   0.0002347700
       -0.0205176943  -0.0507247742  -0.0098533992  -0.1281008419   0.0293830811
       -0.1453570814  -0.0341473813  -0.0546679593  -0.0531426022  -0.0085285819
        0.0157168883  -0.0064811781  -0.0041236704  -0.0013040446   0.0052257213
        0.0000281888   0.0000869912  -0.0000048505   0.0000198777   0.0000053519
        0.0000027744  -0.0000052263   0.0000029688  -0.0000214532   0.0000035054
       -0.0000023638  -0.0000036374   0.0000000870   0.0000094570  -0.0000115810
       -0.0001649037  -0.0001286490  -0.0000491582  -0.0000196171  -0.0000154483
        0.0000008249  -0.0000019597  -0.0000118828   0.0000083001  -0.0000036942
       -0.0000007700   0.0000026682   0.0000014270  -0.0000006917   0.0000015465
       -0.0000028725  -0.0000053859   0.0000047163  -0.0000014224   0.0000017114
        0.0000092109  -0.0000002213  -0.0000000250   0.0000031180  -0.0000011639
        0.0000003238   0.0000029571  -0.0000022124   0.0000008005  -0.0000012247
       -0.0000024307  -0.0000016107   0.0000025826  -0.0000007309   0.0000013990
        0.0000023936  -0.0000021896  -0.0000009095   0.0000025020  -0.0000052729
       -0.0000018658   0.0000027976  -0.0000018998   0.0000025037   0.0000001776
        0.0000011002   0.0000027586   0.0000006624  -0.0000019813   0.0000022161
       -0.0000022314  -0.0000004440  -0.0000026920  -0.0000009979   0.0000058404
        0.0000004637  -0.0000065072  -0.0000027944   0.0000052518   0.0000031081
        0.0000117344  -0.0000081425   0.0000003064   0.0000056821   0.0000014836
       -0.0000006246  -0.0000001749   0.0000008791  -0.0000018416  -0.0000015800
       -0.0000010631  -0.0000058202  -0.0000007562   0.0000024047  -0.0000016966
        0.0000003820   0.0000006471  -0.0000022580   0.0000012123  -0.0000013577
        0.0000004241  -0.0000003948  -0.0000009909   0.0000021044  -0.0000036850
        0.0000076772  -0.0000006885   0.0000027976   0.0000070521  -0.0000007329
       -0.0000017383   0.0000091291  -0.0000059146  -0.0000073077   0.0000175234
        0.0000243881  -0.0039061515  -0.0008565850   0.0052494139  -0.0101749793
        0.0018096259  -0.0061861152
       -0.1072338696   0.1010627395  -0.0539051366   0.4784758542   0.0276178643
        0.2653976190  -0.1266640181  -0.1287440396  -0.0483363033  -0.0269867860
       -0.0186046111  -0.0178038124  -0.0012747004  -0.0002354746  -0.0049109951
       -0.0003153188  -0.0002446336  -0.0002075147  -0.0001842412   0.0002081950
        0.0003738991   0.0001166884  -0.0001771220   0.0000075791   0.0000673260
        0.0001138444  -0.0000691611  -0.0000615589   0.0000139821   0.0000771100
        0.0000372860  -0.0000938111   0.0001359043  -0.0007799685  -0.0002247666
       -0.0008044666   0.0000559695  -0.0000558856   0.0000034948   0.0000410268
       -0.0000009271   0.0000581422  -0.0000631861   0.0000143461  -0.0000394155
        0.0001395557   0.0000022097   0.0000230076  -0.0000784942   0.0000309463
        0.0000782416   0.0000569299   0.0000850859   0.0000797702  -0.0001541408
       -0.0000410129   0.0000040355   0.0001406792   0.0000267318  -0.0000441108
       -0.0001569072  -0.0000229564   0.0000578369   0.0000912323   0.0002145593
        0.0001412250  -0.0000119571  -0.0000231297  -0.0000122299   0.0000323886
        0.0000275887   0.0000170130  -0.0000196841   0.0000060148   0.0000091364
        0.0000067709   0.0000455393   0.0000346181   0.0000193365  -0.0000691030
       -0.0000567999  -0.0000294893   0.0000767954   0.0000544512   0.0000147452
       -0.0000698702  -0.0000521279  -0.0000018989   0.0000619869   0.0000403529
        0.0000381746  -0.0000496574  -0.0000407521  -0.0000548564  -0.0000312041
       -0.0000022838   0.0000563450   0.0000055109  -0.0000085665  -0.0000660983
       -0.0000136205   0.0000134739   0.0001564973  -0.0001468626  -0.0001529513
       -0.0001813464  -0.0000020262   0.0000636275   0.0000676778  -0.0000917356
       -0.0000944583  -0.0000200327   0.0000387347   0.0000327541   0.0000245404
       -0.0000298399  -0.0000285163  -0.0000035382   0.0000153512   0.0000045116
        0.0000204489  -0.0000278906  -0.0000240087  -0.0000015614   0.0000101610
       -0.0000038395   0.0000070623  -0.0000064780  -0.0000169568  -0.0000228767
       -0.0000014408  -0.0000172952   0.0000239093  -0.0000146872   0.0000175532
       -0.0000039096   0.0000114110  -0.0000026318  -0.0000010409   0.0000058081
        0.0000068386   0.0000033147   0.0000060255   0.0000079284  -0.0000050721
       -0.0000067828   0.0000062175  -0.0000057281   0.0000041082  -0.0000073499
        0.0000061741   0.0000022333  -0.0000099698  -0.0000079002  -0.0000048750
       -0.0000118860   0.0000112403   0.0000004879   0.0000015020  -0.0000219694
        0.0000097423  -0.0000103185  -0.0000120526  -0.0000026442  -0.0000064596
       -0.0000038552   0.0000004083   0.0000032903   0.0000001627   0.0000008338
       -0.0000010578   0.0000018488  -0.0000014550  -0.0000011655   0.0000000588
       -0.0000017798   0.0000005403  -0.0000027734   0.0000026494  -0.0000017390
       -0.0000336615   0.0000389916   0.0000346091   0.0000845365  -0.0000475438
       -0.0000796277  -0.0000796019  -0.0000754940  -0.0000856572  -0.0000566903
       -0.0000425430  -0.0000188604  -0.0002033686  -0.0001489955   0.0001483782
        0.0003635116  -0.0030534983   0.0040199703  -0.0175183370   0.0228234713
       -0.0160208766   0.0043577704  -0.0115538828   0.0038055289  -0.2060447874
        0.0033252957  -0.1275090496   0.0046621558   0.0080627167   0.0018193454
        0.0000342938   0.0000090886  -0.0001424213   0.0000146615   0.0000086448
        0.0000181944  -0.0000034852   0.0000300773  -0.0000052122   0.0000102820
        0.0000149886  -0.0000241901   0.0000244800   0.0000502573  -0.0000332757
       -0.0001283519  -0.0000748664  -0.0000530402   0.0000113998  -0.0000089759
        0.0000017820  -0.0000061806  -0.0000174960  -0.0000152089   0.0000091276
       -0.0000088931  -0.0000026187  -0.0000088705  -0.0000034691  -0.0000005682
       -0.0000041160  -0.0000200922  -0.0000135968   0.0000096950  -0.0000015115
        0.0000024804   0.0000110559   0.0000072117   0.0000007292   0.0000131557
       -0.0000026311  -0.0000077634   0.0000095229   0.0000126269  -0.0000057399
       -0.0000029345   0.0000128399   0.0000113342  -0.0000146917   0.0000075024
        0.0000015149   0.0000057032  -0.0000046671  -0.0000032833  -0.0000057391
       -0.0000031955   0.0000156286  -0.0000078698   0.0000056101   0.0000109356
        0.0000082339   0.0000021132   0.0000055729  -0.0000059954   0.0000081546
        0.0000009916   0.0000077064  -0.0000041441   0.0000013544   0.0000036334
        0.0000072309  -0.0000036288  -0.0000104752   0.0000042766   0.0000021290
        0.0000023926  -0.0000129333  -0.0000042812   0.0000029354   0.0000067010
        0.0000043126   0.0000040211  -0.0000006148  -0.0000075726  -0.0000005573
       -0.0000028539  -0.0000032244  -0.0000017645   0.0000046565  -0.0000000380
       -0.0000013422   0.0000032231   0.0000006390   0.0000024776  -0.0000033152
        0.0000052926   0.0000031064  -0.0000120769  -0.0000036463   0.0000092591
        0.0000163449   0.0000088116  -0.0000026639   0.0000142186   0.0000144956
       -0.0000103094   0.0000228247  -0.0000275218  -0.0000122207   0.0000459389
        0.0000422100   0.0004282340  -0.0001143732   0.0005376423  -0.0012117509
       -0.0000085112  -0.0065103740
        0.0372580897  -0.2676912111   0.0475645100   0.0276178643   0.6439799356
       -0.0312411305  -0.0647915751  -0.2730830124  -0.0271792243  -0.0643100609
        0.0190277610  -0.0512955698   0.0028342694   0.0060930137   0.0046174057
        0.0005996504  -0.0012798254   0.0004222370  -0.0006015989   0.0009133195
        0.0007929340   0.0002533588  -0.0005885862   0.0000128110   0.0001165985
        0.0004793350  -0.0001418767  -0.0001479019  -0.0001004431   0.0000411001
        0.0000549017   0.0002555051   0.0000665164   0.0002554021  -0.0003378727
       -0.0008986114  -0.0012874983   0.0002631251   0.0004538686   0.0008516684
        0.0000077156   0.0001243404  -0.0005334990   0.0002125287   0.0000092349
       -0.0001590869   0.0000376434   0.0000917011   0.0005645545  -0.0000960776
       -0.0003375235  -0.0006473211  -0.0005892904  -0.0005244208   0.0018009521
        0.0003944424  -0.0001626577  -0.0020002619  -0.0002271510   0.0003083071
        0.0013215331  -0.0001690372  -0.0007974202  -0.0008284296  -0.0010278297
       -0.0005721998   0.0000932109  -0.0001243376  -0.0001063717  -0.0001915719
        0.0001156980   0.0001339069   0.0002659159  -0.0000515676  -0.0000945696
       -0.0001094792  -0.0001926447  -0.0001229948  -0.0000304333   0.0001451148
        0.0001211568   0.0000481331  -0.0000430331  -0.0000435268   0.0004076493
        0.0000356393  -0.0001055169  -0.0001186149  -0.0002402175  -0.0001299210
        0.0001251458   0.0000957457   0.0000394887  -0.0002171385   0.0000083568
        0.0000599355   0.0000706109   0.0002898295   0.0001853874  -0.0006185404
       -0.0003663943  -0.0000725233   0.0002055704   0.0009039423   0.0007211488
        0.0004864760   0.0007507949   0.0006398925   0.0001638890  -0.0001486415
       -0.0001488768   0.0000462656   0.0000938556   0.0001142854   0.0001017417
       -0.0000983599  -0.0000489744  -0.0000358493   0.0000568463   0.0000006247
        0.0000037901  -0.0000269429  -0.0000279132   0.0000078297   0.0000241049
       -0.0000092318   0.0000266156  -0.0000015754  -0.0000287409  -0.0000217610
        0.0000104182  -0.0000202760   0.0000015013  -0.0000068671   0.0000206756
       -0.0000031966  -0.0000030859  -0.0000093443   0.0000029505   0.0000058630
        0.0000097322   0.0000004503  -0.0000017202   0.0000136401  -0.0000147868
       -0.0000011999   0.0000207208   0.0000063920   0.0000155588  -0.0000198797
        0.0000264588   0.0000087821  -0.0000245826  -0.0000239143  -0.0000034265
       -0.0000354452   0.0000351236   0.0000042148   0.0000206514   0.0000022331
       -0.0000228122  -0.0000142762  -0.0000587530   0.0000353479  -0.0000099662
        0.0000014028  -0.0000046744   0.0000055809  -0.0000016317   0.0000036436
        0.0000024453   0.0000050476  -0.0000058918   0.0000046080  -0.0000008878
        0.0000007833   0.0000047414   0.0000031234  -0.0000017842  -0.0000004146
       -0.0001743836  -0.0000102818  -0.0000060420  -0.0007779246   0.0003066992
        0.0006414861   0.0004714016   0.0001561940   0.0002669256   0.0005020051
       -0.0002506062  -0.0002985071  -0.0003266170  -0.0000727268  -0.0002178887
       -0.0057653588  -0.0588750536   0.0015189004   0.0684599364   0.0254128513
        0.0488141956   0.0077507513  -0.0256263521   0.0080284028   0.0027747660
       -0.0436815894   0.0037829637  -0.0109376691  -0.0259114019  -0.0051575658
       -0.0001092022   0.0001310092  -0.0002259146   0.0000108136   0.0000047504
        0.0000482784  -0.0000187849   0.0000386656  -0.0000120031   0.0000116741
        0.0000154612  -0.0000535446   0.0000259654   0.0000327864   0.0000189957
       -0.0001688725  -0.0000953266  -0.0000525071  -0.0000113706  -0.0000630793
        0.0000579672   0.0000156664   0.0000032223  -0.0000030156  -0.0000107749
       -0.0000223943   0.0000077017   0.0000029609   0.0000007742   0.0000029019
       -0.0000172652   0.0000017153  -0.0000008018  -0.0000085512   0.0000176463
        0.0000289454  -0.0000158467   0.0000038930  -0.0000061412  -0.0000098669
        0.0000036490  -0.0000021961  -0.0000084604   0.0000000299  -0.0000184922
       -0.0000120341  -0.0000119112  -0.0000017363  -0.0000092141  -0.0000013813
        0.0000059319  -0.0000050748  -0.0000038721   0.0000061597  -0.0000284699
       -0.0000194339   0.0000193403  -0.0000058962   0.0000031933   0.0000149349
        0.0000133980   0.0000101142   0.0000146730  -0.0000229594   0.0000097758
        0.0000002884  -0.0000050019   0.0000059365  -0.0000071937  -0.0000077886
        0.0000156255  -0.0000204160  -0.0000325428   0.0000049558   0.0000009134
        0.0000084165  -0.0000262167  -0.0000150687   0.0000049732   0.0000106843
        0.0000112350   0.0000027099  -0.0000034337  -0.0000135313  -0.0000036063
       -0.0000085147  -0.0000055699  -0.0000058017   0.0000056620   0.0000023243
       -0.0000046170   0.0000054132   0.0000084591   0.0000009031  -0.0000064206
        0.0000157125  -0.0000053160  -0.0000008609  -0.0000006559  -0.0000023085
       -0.0000404713   0.0000050031   0.0000187756  -0.0000262275  -0.0000148670
       -0.0000197204  -0.0000220686   0.0000462443  -0.0000515759   0.0000707298
       -0.0000206106   0.0000151420  -0.0005335820  -0.0000687471  -0.0004199607
        0.0013084170   0.0004545246
       -0.0472855672   0.0952221159  -0.0912404947   0.2653976190  -0.0312411305
        0.3152558240  -0.0547758419  -0.0720687496  -0.0785481465  -0.0126658160
       -0.0173727164  -0.0088463058  -0.0057282369   0.0025851389   0.0027155977
        0.0007796062  -0.0002112164   0.0004597582  -0.0001076448  -0.0000704154
       -0.0001920630   0.0000130849  -0.0000192723  -0.0000711872  -0.0000851199
       -0.0000568487   0.0000698270   0.0001632703  -0.0000766554  -0.0001203042
       -0.0000688970   0.0002960759   0.0000442609  -0.0013666484  -0.0012346364
       -0.0004116525   0.0002411109  -0.0002907537  -0.0001521016  -0.0001498064
        0.0000117580   0.0000137239   0.0000858361  -0.0000346463  -0.0000167854
        0.0001121992   0.0000014551   0.0000022692  -0.0001623310   0.0000289683
        0.0001052676   0.0001637208   0.0001693582   0.0001521271  -0.0004742924
       -0.0001026866   0.0000484951   0.0005100386   0.0000653820  -0.0000912282
       -0.0003877024   0.0000083900   0.0002052045   0.0002453108   0.0003726031
        0.0002164591  -0.0000263644   0.0000119064   0.0000145678   0.0000603676
       -0.0000074365  -0.0000222738  -0.0000718089   0.0000171279   0.0000225291
        0.0000294989   0.0000751903   0.0000455148   0.0000209521  -0.0000765605
       -0.0000648534  -0.0000284060   0.0000648783   0.0000431463  -0.0000788398
       -0.0000574541  -0.0000112432   0.0000270119   0.0000854276   0.0000594352
        0.0000012203  -0.0000494610  -0.0000373434   0.0000074646  -0.0000216992
       -0.0000134719   0.0000224144  -0.0000568720  -0.0000466141   0.0000909624
        0.0000680210   0.0000289200   0.0000726407  -0.0002950683  -0.0002633595
       -0.0002345398  -0.0001555286  -0.0000892078   0.0000110962  -0.0000281992
       -0.0000281611  -0.0000219400   0.0000055124  -0.0000002911  -0.0000037057
       -0.0000049074  -0.0000135798   0.0000095276  -0.0000024141   0.0000063828
        0.0000117006  -0.0000125538  -0.0000096368  -0.0000042697   0.0000056781
        0.0000011250   0.0000021461  -0.0000066167  -0.0000057482  -0.0000133185
       -0.0000051131  -0.0000073225   0.0000188054  -0.0000043173   0.0000126996
       -0.0000008086   0.0000089152  -0.0000006019  -0.0000012569   0.0000044997
        0.0000046206  -0.0000016431   0.0000080523   0.0000084465  -0.0000055842
       -0.0000042263   0.0000001731  -0.0000054490  -0.0000050875  -0.0000080466
        0.0000033973   0.0000022404  -0.0000061622  -0.0000060945  -0.0000038002
        0.0000021321   0.0000070710  -0.0000084115  -0.0000090007  -0.0000122185
        0.0000181520   0.0000021952  -0.0000024443  -0.0000086781  -0.0000028731
       -0.0000034524   0.0000011294   0.0000047790  -0.0000008586  -0.0000004400
        0.0000019014   0.0000019491  -0.0000004925   0.0000026054   0.0000001686
       -0.0000014268   0.0000039499  -0.0000018559   0.0000023902   0.0000008228
        0.0000149362   0.0000252176   0.0000227040   0.0002143535  -0.0000896206
       -0.0001856766  -0.0001447549  -0.0000695559  -0.0001048621  -0.0001844643
        0.0000248150  -0.0000638977  -0.0001772598   0.0001214154   0.0000488691
        0.0043183214   0.0038324156  -0.0018146283  -0.0210438447   0.0139304729
       -0.0153876632   0.0020229160  -0.0059841578   0.0027120185  -0.1274321674
        0.0033547104  -0.1299108205   0.0041315011   0.0086994770   0.0025904437