$hessian                                                                        
        0.4881315966   0.0088633442  -0.0390340214  -0.1180439255   0.0205034021
       -0.0581408813   0.0049505697  -0.0021328731   0.0057688905  -0.0118651063
        0.0094163216  -0.0097824562  -0.0202945233   0.0008524255  -0.0165301701
       -0.0023713800  -0.0029257561  -0.0000368487  -0.0010010002  -0.0001825518
       -0.0008071519  -0.0000815434   0.0001249154  -0.0002982695  -0.0000958325
       -0.0000131088  -0.0000099705   0.0000116503   0.0001604388  -0.0000118594
        0.0000150754  -0.0000122118   0.0000025950   0.0000145206  -0.0000282876
        0.0000218820  -0.0000024228   0.0000013372  -0.0000006972   0.0000371865
       -0.0000017706   0.0000120501   0.0000354489   0.0000579979  -0.0000383336
       -0.0000652261   0.0000229796  -0.0000258830  -0.0000197210   0.0000037546
       -0.0000067217  -0.0000833742   0.0000094571  -0.0000358233  -0.0000078768
       -0.0000651424   0.0000326843  -0.0000251679  -0.0000320044   0.0000576673
       -0.0000089517  -0.0000048841   0.0000330005   0.0000480082   0.0000271820
        0.0000061885  -0.0000731701  -0.0000279176   0.0000205217   0.0000206760
        0.0000438612  -0.0000490616   0.0000084988   0.0000092669  -0.0000058383
        0.0000402972   0.0000129727  -0.0000045910  -0.0000292234  -0.0001165122
       -0.0000023581  -0.0000329868   0.0000699187   0.0000038119  -0.0000094359
       -0.0000123921   0.0000004373  -0.0000106753   0.0000016957   0.0000075313
       -0.0000009746  -0.0000104626  -0.0000069625   0.0000035948  -0.0000004981
       -0.0000015536  -0.0000049854   0.0000056394   0.0000037579  -0.0000132157
       -0.0000087263  -0.0000057296   0.0000942846  -0.0000496822   0.0000040255
       -0.0000111296   0.0000457124   0.0000136009  -0.0000235015  -0.0000185987
       -0.0000028408   0.0000012298  -0.0000265189  -0.0000059441  -0.0000021865
       -0.0000057516   0.0000023060  -0.0000031915   0.0000070813   0.0000052885
        0.0000212985  -0.0000077424   0.0000178442  -0.0000561528   0.0004717417
       -0.0005535378  -0.0007087937  -0.0001271384   0.0002969817  -0.0865974865
        0.0005307616   0.0931367528  -0.0797321492   0.0841653385   0.0190968335
       -0.1710789534  -0.1189531583   0.0034203906  -0.0003092609  -0.0002990215
        0.0028309421   0.0006983226   0.0000111124   0.0011816471   0.0004129077
       -0.0004281693   0.0005699351  -0.0010395486   0.0026038478   0.0002206663
        0.0001589250  -0.0003049354  -0.0006714652   0.0006055806  -0.0010418496
        0.0000158721  -0.0000021003   0.0000009532   0.0000860311  -0.0002627483
       -0.0002002877  -0.0000380316  -0.0000007534   0.0000003053  -0.0000014680
       -0.0000016193  -0.0000134988   0.0000026568   0.0000016301  -0.0000225326
        0.0000133184   0.0000221487  -0.0000154297   0.0000126004   0.0000276698
        0.0000000321   0.0000077620   0.0000297076   0.0000106978  -0.0000095757
        0.0000236515   0.0000132247  -0.0000323122  -0.0000253510  -0.0000186794
       -0.0000059618   0.0000136713   0.0000107933   0.0000157230   0.0000039023
       -0.0000017810  -0.0000055046  -0.0000026689   0.0000007384  -0.0000004137
       -0.0000036398  -0.0000022547  -0.0000041981  -0.0000019145  -0.0000030656
       -0.0000025083   0.0000014274   0.0000049356   0.0000022609   0.0000051845
       -0.0000069503  -0.0000240516  -0.0000032915   0.0000038401  -0.0000061934
       -0.0000028989  -0.0000002141  -0.0000033757  -0.0000020608   0.0000002452
       -0.0000009728  -0.0000013182   0.0000016541  -0.0000007496   0.0000207750
        0.0000387647  -0.0000009322  -0.0014460018  -0.0009863310  -0.0007192379
        0.0088633442   0.5244987971   0.0120835944   0.0192012478  -0.0710309545
        0.0211288247   0.0010752922  -0.0000967914   0.0028179754   0.0205721164
       -0.0139032369   0.0175629264  -0.0129927677   0.0032331144  -0.0120693337
       -0.0027166375  -0.0020786617   0.0003149531  -0.0007634635  -0.0001420885
       -0.0005187997   0.0000271318   0.0002093907  -0.0001613896  -0.0006828263
       -0.0000608558  -0.0000555079  -0.0000363968   0.0001647870  -0.0000639537
        0.0000078394   0.0000480352  -0.0000473803  -0.0000461609   0.0001165982
       -0.0000511317   0.0000561018  -0.0000320878   0.0000339852  -0.0001119256
       -0.0000095000  -0.0000447838   0.0000854155  -0.0000432503   0.0000536883
       -0.0000184558  -0.0000597222   0.0000511799   0.0000223864   0.0000172243
        0.0000051172   0.0001024782  -0.0000344598   0.0000961332   0.0000640109
        0.0000362044  -0.0000143597  -0.0000213442   0.0001318716  -0.0000289098
       -0.0000390770   0.0000038109   0.0000057621  -0.0001463212  -0.0000203003
        0.0000084707   0.0000169411   0.0000520574  -0.0000996345  -0.0000434681
       -0.0000459587   0.0000878117  -0.0000424953   0.0000060772  -0.0000044129
       -0.0000267797  -0.0000135369   0.0000461762  -0.0001462509   0.0001157462
        0.0000376250  -0.0001257672  -0.0004042561  -0.0000230695   0.0001611575
        0.0000399676  -0.0000017113  -0.0000156446   0.0000099495  -0.0000121509
        0.0000246159   0.0000299944   0.0000162197  -0.0000263920  -0.0000017712
        0.0000044111   0.0000361679  -0.0000156281  -0.0000160873  -0.0000171736
       -0.0000237371   0.0000101382   0.0007100291   0.0001758141   0.0000585872
        0.0000282530  -0.0000791102   0.0000104837  -0.0000071159  -0.0000519929
       -0.0000012453   0.0000095979  -0.0000292587  -0.0000021066  -0.0000109938
        0.0000036092  -0.0000154703   0.0000118076  -0.0000138838  -0.0000149330
        0.0000358593  -0.0000308169   0.0000505246  -0.0002280724   0.0005172031
       -0.0004654058  -0.0008007204  -0.0012257758  -0.0001638662   0.0006719737
       -0.0438880048  -0.0009200637   0.0843493280  -0.2373617342  -0.0418981826
       -0.1190723035  -0.1544423728   0.0014699162  -0.0001521847   0.0003775662
        0.0003755833   0.0003948978   0.0001102767   0.0004712816  -0.0002438106
        0.0004236135  -0.0008039581   0.0032672709  -0.0054398317  -0.0002283342
       -0.0002056583   0.0005829542   0.0008163679   0.0011031690   0.0006257888
        0.0008172836   0.0000477366   0.0000212808  -0.0000542870  -0.0002047620
       -0.0001859933  -0.0001369198   0.0000049299  -0.0000169758   0.0000054864
        0.0000071551   0.0000177340  -0.0000147406   0.0000052732   0.0000289013
       -0.0000196806  -0.0000134899  -0.0000021014  -0.0000185676  -0.0000170874
       -0.0000029782  -0.0000284735  -0.0000002778  -0.0000159952  -0.0000106092
        0.0000086097  -0.0000258919  -0.0000075674  -0.0000034269  -0.0000053914
        0.0000176439   0.0000503890  -0.0000008632   0.0000162035  -0.0000050610
        0.0000108587   0.0000093177  -0.0000091582  -0.0000032573  -0.0000003410
       -0.0000020794  -0.0000013451   0.0000016381  -0.0000076068  -0.0000015295
       -0.0000032686  -0.0000016704  -0.0000142932  -0.0000111754   0.0000132188
        0.0000006475  -0.0000063101  -0.0000061214   0.0000086298   0.0000087041
       -0.0000074453   0.0000085757  -0.0000037865  -0.0000051965   0.0000095238
       -0.0000024317  -0.0000085484   0.0000011732  -0.0000225924   0.0000282161
        0.0000222372   0.0000206035  -0.0020318225  -0.0008038194  -0.0004476843
       -0.0390340214   0.0120835944   0.4938783744  -0.0570902972   0.0220429446
       -0.1240594223  -0.0149689865   0.0081418138  -0.0302493499  -0.0005269386
        0.0012282829   0.0009649502  -0.0054335817  -0.0016270892  -0.0022319053
       -0.0002675334   0.0001727624   0.0005680165  -0.0002298056   0.0000393746
       -0.0001231300  -0.0001106787   0.0000114439  -0.0000085127   0.0002576730
        0.0000577416   0.0000149825   0.0000105785  -0.0000743847   0.0000215771
       -0.0000139684  -0.0000180250   0.0000166604   0.0000095934  -0.0000491195
        0.0000186191  -0.0000096949   0.0000130051  -0.0000143087   0.0000241573
       -0.0000074068   0.0000148314  -0.0000126357   0.0000182464  -0.0000174197
       -0.0000142167   0.0000162520  -0.0000132650  -0.0000001383  -0.0000112119
        0.0000159789  -0.0000273129   0.0000256759  -0.0000191498  -0.0000328149
        0.0000029094  -0.0000017221  -0.0000152529   0.0000291442   0.0000177122
        0.0000135937   0.0000093082   0.0000194391   0.0000277047   0.0000357347
       -0.0000232935   0.0000263416  -0.0000109070   0.0000253941   0.0000159619
        0.0000383344  -0.0000317596   0.0000113419  -0.0000240096   0.0000161391
        0.0000041118   0.0000231337  -0.0000199774   0.0000372343  -0.0000506720
       -0.0000106005   0.0000274722   0.0001107922   0.0000081667  -0.0000555545
       -0.0000173618   0.0000004594   0.0000008475   0.0000109545   0.0000085183
       -0.0000141647  -0.0000120335  -0.0000001309   0.0000138041  -0.0000025133
        0.0000001315  -0.0000171612   0.0000053577   0.0000034877   0.0000135358
       -0.0000053312   0.0000016929  -0.0002041466  -0.0000406076  -0.0000194981
       -0.0000229409   0.0000577808   0.0000020589   0.0000154630   0.0000076834
        0.0000192892  -0.0000060228   0.0000155895  -0.0000100556  -0.0000020368
       -0.0000145687  -0.0000058372  -0.0000033814   0.0000135875   0.0000060182
       -0.0000159536   0.0000020431  -0.0000238129   0.0000540833   0.0000502560
        0.0001131086   0.0007256241   0.0001773287  -0.0005771077   0.0927225110
       -0.0010674059  -0.2389674027   0.0191010097  -0.0420840545  -0.0529198201
        0.0035020991   0.0016062237  -0.0431905415   0.0018561340   0.0003759034
       -0.0061272698  -0.0012739499  -0.0002602397   0.0004593034  -0.0009286793
        0.0005723073   0.0005781392   0.0005172761  -0.0008144254   0.0004745236
        0.0006409154  -0.0007210541   0.0007373201   0.0003387895  -0.0003724359
        0.0001917190   0.0000419935  -0.0000962141   0.0000217240   0.0000389330
       -0.0000524124  -0.0000038233   0.0000027242  -0.0000048014   0.0000022051
       -0.0000004784   0.0000036690  -0.0000009748   0.0000028305   0.0000012205
       -0.0000002513   0.0000042811  -0.0000099106   0.0000051207   0.0000137151
       -0.0000253374   0.0000063361  -0.0000001777  -0.0000115718  -0.0000039778
       -0.0000075612  -0.0000141640   0.0000146542   0.0000076563   0.0000076464
        0.0000221336   0.0000061457  -0.0000018476   0.0000003276  -0.0000018629
       -0.0000026352  -0.0000004698   0.0000007155  -0.0000042721  -0.0000026269
        0.0000021684  -0.0000015166  -0.0000006008   0.0000000271  -0.0000002192
       -0.0000009837  -0.0000021719  -0.0000039469  -0.0000044577  -0.0000009765
        0.0000065279   0.0000022048  -0.0000043717  -0.0000105804  -0.0000037730
       -0.0000008412  -0.0000054439  -0.0000018480   0.0000009250  -0.0000019489
        0.0000007203  -0.0000021760   0.0000003116  -0.0000030049  -0.0000002492
        0.0000128162   0.0000028376   0.0002627637   0.0005039780   0.0004172093
       -0.1180439255   0.0192012478  -0.0570902972   0.4846772429   0.0027248678
        0.0171409872  -0.0883932433  -0.0018676792   0.0458998257  -0.0772924265
        0.0438408703   0.0085271370  -0.1294672448  -0.0614778762  -0.0073225068
       -0.0229248863  -0.0130566362  -0.0068972025   0.0002899011  -0.0000091065
       -0.0045654347  -0.0007005237  -0.0007565413  -0.0003311726   0.0004607060
        0.0008658307   0.0006140944   0.0001397606  -0.0003162633   0.0001382429
       -0.0000625586  -0.0000378516   0.0000436190   0.0000404998  -0.0001471147
        0.0000408266  -0.0000581001   0.0000448812  -0.0000421975   0.0001261692
        0.0000095895   0.0000476550  -0.0000985605   0.0000533986  -0.0000597386
        0.0000281472   0.0000545280  -0.0000508272  -0.0000151043   0.0000019254
        0.0000086840  -0.0001001574   0.0000175987  -0.0000745202  -0.0000202733
        0.0000142522  -0.0000607670  -0.0000018313  -0.0001368890   0.0000426622
        0.0000772078   0.0000123884   0.0000173414   0.0001557738   0.0000308896
       -0.0000298192  -0.0000271836  -0.0000472803   0.0000918841   0.0000923469
        0.0000850683  -0.0000824192   0.0000453674  -0.0000192032   0.0000265163
        0.0000189939   0.0000175850  -0.0000201775   0.0001964886  -0.0000179405
       -0.0000392464   0.0001115967   0.0004584849  -0.0000130713  -0.0001888965
       -0.0000594715   0.0000094014   0.0000265166   0.0000003030   0.0000142726
       -0.0000413918  -0.0000302838  -0.0000078107   0.0000338304  -0.0000049275
       -0.0000023484  -0.0000447328   0.0000189294   0.0000132860   0.0000392649
        0.0000219029   0.0000036528  -0.0009367561  -0.0002651598  -0.0000869196
       -0.0000102992   0.0000671368  -0.0000102135  -0.0000030219   0.0000645933
       -0.0000277340   0.0000002403   0.0000201552  -0.0000507578  -0.0000046337
       -0.0000037842  -0.0000040873  -0.0000027310   0.0000065839   0.0000224777
       -0.0000446643   0.0000535043  -0.0000463161   0.0029665763  -0.0012186056
       -0.0022748854  -0.0021586716  -0.0080041220   0.0036317258   0.0078033520
       -0.0023952297   0.0069122337  -0.0103448228   0.0063452259  -0.0083794337
       -0.0205181651   0.0022375128  -0.0170435242   0.0075326160   0.0003596968
       -0.0153363593  -0.0152041196  -0.0033000761   0.0215710470  -0.0070318725
        0.0024013454   0.0112053839  -0.0093265358   0.0183631470   0.0019901485
       -0.0063983171   0.0136671966   0.0053436453   0.0061657993  -0.0193584539
       -0.0047392788  -0.0001727263   0.0002150826   0.0015364353  -0.0005887739
       -0.0006007908  -0.0001196429   0.0000083006   0.0000017603  -0.0000043393
       -0.0000017863   0.0000077183   0.0000011585   0.0000037305  -0.0000013426
        0.0000006864  -0.0000086439   0.0000125305   0.0000037908  -0.0000064896
        0.0000150732   0.0000059548  -0.0000455074  -0.0000066247   0.0000258415
        0.0000176904  -0.0000374519   0.0000324860   0.0000055114   0.0000028182
       -0.0000186368  -0.0000210375   0.0000224491  -0.0000029370  -0.0000000981
       -0.0000036656  -0.0000036969   0.0000032658  -0.0000026956  -0.0000034212
        0.0000080728   0.0000012603   0.0000031453   0.0000046345   0.0000037929
        0.0000032048  -0.0000008708   0.0000022188   0.0000007069  -0.0000084928
       -0.0000344665   0.0000285505  -0.0000199928   0.0000337209   0.0000154201
        0.0000027931  -0.0000056449   0.0000023649   0.0000068005   0.0000018926
        0.0000078073   0.0000099508   0.0000092263   0.0000205029  -0.0000066564
        0.0002701000  -0.0000725117  -0.0007524211   0.0015628947  -0.0001305539
        0.0205034021  -0.0710309545   0.0220429446   0.0027248678   0.4635839210
       -0.0017418823   0.0010226112  -0.0595122646  -0.0008271422   0.0361632339
       -0.1575848329  -0.0223906518  -0.0575210114  -0.1103453044  -0.0002181856
       -0.0047017110   0.0014758320  -0.0056054863   0.0002762040   0.0032371407
        0.0029198868  -0.0006163531  -0.0009011187   0.0007138047   0.0009449378
       -0.0004388082  -0.0006023118   0.0000269340   0.0000044625  -0.0000621824
       -0.0000156522  -0.0000227189   0.0000320786   0.0000605293  -0.0001027845
        0.0000443826  -0.0000263035   0.0000487121  -0.0000422323   0.0000368586
       -0.0000221230   0.0000399055  -0.0000071983   0.0000631358  -0.0000514532
       -0.0000427881   0.0000216492  -0.0000314137   0.0000472578   0.0000238556
        0.0000124222  -0.0000932092  -0.0000131020   0.0000185908  -0.0000134378
       -0.0000334315   0.0000111708   0.0000826890  -0.0001037974  -0.0000324899
        0.0000786521  -0.0000609657   0.0000159444   0.0000453439   0.0001028542
        0.0000084507  -0.0000763846  -0.0000068701   0.0001183845   0.0000033125
        0.0000284869  -0.0000323652   0.0000003494  -0.0000161759   0.0000215212
        0.0000212351  -0.0000159366   0.0000419727  -0.0001028709  -0.0001993586
        0.0000418884   0.0000857327   0.0000866317   0.0000237222  -0.0001081363
       -0.0000324511  -0.0000079341   0.0000038475   0.0000403446   0.0000245820
       -0.0000356106  -0.0000224477  -0.0000009342   0.0000272051  -0.0000046702
       -0.0000005010  -0.0000261385   0.0000138019   0.0000104230   0.0000192763
       -0.0000159144  -0.0000038519  -0.0002083376   0.0000268855  -0.0000053057
       -0.0000703468   0.0001594282   0.0000018828   0.0000299986   0.0000411702
        0.0000509400  -0.0000180162   0.0000382491   0.0000073549  -0.0000027740
       -0.0000280764  -0.0000095539  -0.0000105236   0.0000502088   0.0000176482
       -0.0000207303  -0.0000033266  -0.0000498903  -0.0014424415   0.0000685109
        0.0047782465  -0.0173945680  -0.0185513231   0.0032868111   0.0004310324
       -0.0004699207   0.0012512307   0.0198931913  -0.0095796293   0.0182961221
       -0.0143432033   0.0032116111  -0.0133392828  -0.0031806184  -0.0007776844
        0.0079505227  -0.0109410798  -0.0016442758   0.0163274408   0.0137290161
       -0.0016812467  -0.0235613675   0.0063366460  -0.0108716560   0.0005035153
        0.0021107642  -0.0021858768  -0.0031827067   0.0045100411  -0.0249611926
       -0.0051094132   0.0013210211  -0.0008452114  -0.0002106737   0.0004106867
        0.0002545929   0.0002503757   0.0000104012   0.0000060353  -0.0000037919
        0.0000071527   0.0000098967  -0.0000028612   0.0000029289   0.0000067922
       -0.0000056009   0.0000002204   0.0000075992  -0.0000076310  -0.0000034004
        0.0000021865  -0.0000037003  -0.0000354240  -0.0000035362  -0.0000145305
       -0.0000224836   0.0000657401   0.0000352419   0.0000532708   0.0000417960
       -0.0000438187   0.0000041971  -0.0000032678  -0.0000090126  -0.0000019709
       -0.0000072599  -0.0000050006   0.0000070989  -0.0000052969  -0.0000050482
        0.0000073991   0.0000012066   0.0000039111   0.0000032663   0.0000025684
        0.0000000625  -0.0000007788  -0.0000001841  -0.0000032853  -0.0000198350
       -0.0000042406  -0.0000209519  -0.0000034811  -0.0000192169  -0.0000299264
        0.0000071706  -0.0000134162  -0.0000069333   0.0000039554  -0.0000031306
       -0.0000005852  -0.0000034518  -0.0000002508  -0.0000068256  -0.0005614033
       -0.0005773753  -0.0001548081   0.0006177349  -0.0000026802  -0.0014598588
       -0.0581408813   0.0211288247  -0.1240594223   0.0171409872  -0.0017418823
        0.4738299245   0.0512806952   0.0042638112  -0.1544043858   0.0070087463
       -0.0236934219  -0.0664746333  -0.0098214483  -0.0027124617  -0.0612506024
       -0.0140895189  -0.0124064127  -0.0017416662  -0.0051082052   0.0022014423
        0.0001766419  -0.0003927712   0.0005708249  -0.0003454823   0.0006577403
       -0.0005089419  -0.0006853778  -0.0001125413  -0.0001375716  -0.0000550459
        0.0000366767   0.0000371574  -0.0000242791  -0.0000285351   0.0000725893
       -0.0000405703   0.0000234234  -0.0000123990   0.0000185476  -0.0000768336
        0.0000057344  -0.0000227014   0.0000199059  -0.0000522722   0.0000358268
        0.0000343427  -0.0000372061   0.0000200304  -0.0000078232   0.0000532619
       -0.0000399684   0.0000700690  -0.0000174122  -0.0000211453   0.0000327337
       -0.0000140247  -0.0000189249   0.0000255655   0.0000731271   0.0000799546
        0.0000277917  -0.0000197657   0.0000202599  -0.0000734441  -0.0000018283
        0.0001695650  -0.0000449951   0.0000174990   0.0000129241  -0.0000669251
       -0.0000622595   0.0000479453   0.0000083532   0.0000258979  -0.0000135556
       -0.0000142676  -0.0000304448   0.0000063581   0.0000298381   0.0000519534
        0.0000280224   0.0000438723  -0.0001738089   0.0000475848   0.0000292369
        0.0000137475  -0.0000032112  -0.0000011515   0.0000364004   0.0000108875
       -0.0000128390   0.0000082406   0.0000100062   0.0000011533  -0.0000062609
       -0.0000013837   0.0000145457  -0.0000008679  -0.0000001316  -0.0000037110
       -0.0000179869   0.0000013940   0.0001584445   0.0002395814  -0.0000412006
       -0.0000036673   0.0000272679   0.0000194035   0.0000082641  -0.0000015506
        0.0000162570   0.0000025766  -0.0000100722   0.0000131403   0.0000050509
       -0.0000128469  -0.0000047074  -0.0000023191   0.0000230825   0.0000004293
        0.0000016814  -0.0000419982   0.0000023949  -0.0023687416   0.0050132197
        0.0009809542   0.0114803486   0.0108881676   0.0022210232  -0.0169131774
        0.0065698412  -0.0245817581   0.0018214846   0.0006979556   0.0026057240
       -0.0035784263  -0.0010436641  -0.0019138660   0.0077744632   0.0016823791
       -0.0240674038   0.0031110637   0.0020366414  -0.0024326829   0.0059560885
       -0.0028483351  -0.0088626834  -0.0083243557   0.0186101316   0.0028023534
        0.0108709625  -0.0238164918  -0.0088734493   0.0003129718  -0.0033980984
       -0.0005011176   0.0006890335  -0.0010619015  -0.0009375092  -0.0008355389
       -0.0005689093  -0.0002587152  -0.0000008511  -0.0000074753   0.0000039971
        0.0000025858   0.0000164944  -0.0000040844   0.0000011019   0.0000279011
       -0.0000092190  -0.0000291908   0.0000181458  -0.0000094006  -0.0000454813
        0.0000280176  -0.0000083013  -0.0000389844  -0.0000099968   0.0000102316
        0.0000236371   0.0000600990  -0.0000580893  -0.0000063901   0.0000326453
       -0.0001292234  -0.0000256934   0.0000147329  -0.0000145191  -0.0000025488
       -0.0000049784  -0.0000012676   0.0000087945  -0.0000040901  -0.0000008492
        0.0000041885   0.0000016654  -0.0000002588   0.0000015110   0.0000016260
        0.0000037682  -0.0000021429  -0.0000054793  -0.0000032555  -0.0000152740
        0.0000251553  -0.0000119963   0.0000015952  -0.0000209437  -0.0000149161
       -0.0000004728  -0.0000026152  -0.0000054636   0.0000003793  -0.0000050826
       -0.0000031865  -0.0000028819   0.0000008977  -0.0000063087   0.0007080025
        0.0006123840  -0.0001260042   0.0007621220  -0.0006767859  -0.0011116254
        0.0049505697   0.0010752922  -0.0149689865  -0.0883932433   0.0010226112
        0.0512806952   0.5042090133  -0.0016921229   0.0393726009  -0.0071614989
        0.0043563169   0.0132070230  -0.0163532704  -0.0071768223   0.0197978680
       -0.0008492790  -0.0003115225   0.0002020886   0.0006880382  -0.0002183162
       -0.0000902883   0.0003249739  -0.0001917766   0.0003154224  -0.0002127670
       -0.0000858110   0.0001174374  -0.0000344910   0.0002510361  -0.0000097020
        0.0000666421  -0.0000450425   0.0000148224   0.0000048456   0.0000180635
       -0.0000033678   0.0000214544   0.0000140730  -0.0000100359   0.0000252693
        0.0000019971   0.0000081578   0.0000039716   0.0000454911  -0.0000364300
       -0.0000413979   0.0000288577  -0.0000286835  -0.0000043264  -0.0000415894
        0.0000305031  -0.0000398477  -0.0000038834   0.0000116621   0.0000482158
       -0.0000405772   0.0000711750  -0.0000324727  -0.0000177815   0.0000513549
       -0.0001402418   0.0000525607  -0.0000464845   0.0000146702  -0.0000349865
       -0.0000959146   0.0000069778  -0.0000472060   0.0000234105  -0.0000083685
       -0.0000053747  -0.0000033342  -0.0000533386   0.0000060907  -0.0000128579
        0.0000426749   0.0000597901  -0.0000508982   0.0000029193  -0.0001340547
       -0.0000033256  -0.0000299415   0.0000896897  -0.0000195880  -0.0000266672
       -0.0000191907  -0.0000026945  -0.0000078368   0.0000006514   0.0000074677
       -0.0000036403  -0.0000138308  -0.0000089159   0.0000040359  -0.0000017031
       -0.0000011299  -0.0000071914   0.0000075972   0.0000071709  -0.0000151662
       -0.0000037864  -0.0000063491   0.0001005116  -0.0000952467   0.0000444355
       -0.0000194642   0.0000470917   0.0000066368  -0.0000007037  -0.0000222071
        0.0000211828   0.0000042748  -0.0000126929  -0.0000059242  -0.0000037659
        0.0000071725  -0.0000017442  -0.0000117749   0.0000028517  -0.0000054078
        0.0000186656   0.0000056247  -0.0000021913  -0.0000692438  -0.0013856454
       -0.0006621719  -0.0021094326  -0.0000892700  -0.0003294117  -0.0017236399
        0.0008505355  -0.0038128488   0.0004709132  -0.0003062646  -0.0007053218
        0.0007064779   0.0004344426  -0.0012007975  -0.1368431469   0.0434658516
       -0.1103687095  -0.1834095687  -0.1169095490  -0.0096742572  -0.0724696321
        0.0761324197   0.0156309139   0.0002355718  -0.0005077504   0.0005810946
       -0.0007593505   0.0024658366   0.0009807358   0.0004471974  -0.0006338586
       -0.0005300408  -0.0012402251  -0.0003187836   0.0007232534  -0.0000080309
        0.0000238042   0.0000330498  -0.0000055200   0.0000006193   0.0000047568
       -0.0000002165  -0.0000156840   0.0000097493   0.0000046962  -0.0000192227
        0.0000131609   0.0000241848  -0.0000105334   0.0000112470   0.0000227894
        0.0000066462  -0.0000123811   0.0000625539   0.0000028687   0.0000016577
       -0.0001023992   0.0000646499  -0.0000351893   0.0000601398  -0.0000647541
        0.0000916094  -0.0000093359  -0.0000030370   0.0000171958   0.0000057205
       -0.0000041325  -0.0000037845  -0.0000017955   0.0000015341   0.0000019610
       -0.0000035724  -0.0000023905  -0.0000012405  -0.0000022466  -0.0000046448
       -0.0000004650   0.0000008569   0.0000064181   0.0000064819   0.0000134105
        0.0000046157  -0.0000244221   0.0000030760  -0.0000053710  -0.0000004521
       -0.0000086654   0.0000015964  -0.0000020052  -0.0000097883   0.0000003926
       -0.0000018828  -0.0000067328  -0.0000022759   0.0000012005  -0.0001157517
       -0.0001509909  -0.0000393796  -0.0002463227   0.0000945932   0.0001198332
       -0.0021328731  -0.0000967914   0.0081418138  -0.0018676792  -0.0595122646
        0.0042638112  -0.0016921229   0.5254423524  -0.0010840203   0.0140291509
       -0.0043699941  -0.0233704104  -0.0126835493  -0.0038932112   0.0154221340
       -0.0007056665  -0.0000119684   0.0008038879   0.0004865445  -0.0002165883
       -0.0002663236   0.0003876353  -0.0000071965   0.0001996150  -0.0005795238
       -0.0000189531   0.0001208970  -0.0000154680   0.0001465779  -0.0000449712
        0.0000193385   0.0000237985  -0.0000300058  -0.0000452800   0.0000764860
       -0.0000406183   0.0000386986  -0.0000220039   0.0000208058  -0.0000680844
        0.0000134463  -0.0000355388   0.0000778275  -0.0000179473   0.0000218786
       -0.0000237227  -0.0000457341   0.0000256614   0.0000205495   0.0000597974
       -0.0000215203   0.0000636186  -0.0000733725   0.0000466673  -0.0000629504
        0.0000116325  -0.0001797187   0.0000421187   0.0000160274   0.0002531717
        0.0000236417  -0.0000009230   0.0000481274  -0.0000801604   0.0000894884
        0.0000292294   0.0000504375  -0.0000010139  -0.0001111748  -0.0000284117
       -0.0000225172   0.0000509772  -0.0000231218   0.0000036301  -0.0000040281
        0.0000276034  -0.0000095643  -0.0000217449  -0.0000846239   0.0000341593
        0.0000288424  -0.0001032672  -0.0002426083  -0.0000348083   0.0000910162
        0.0000149997  -0.0000048247  -0.0000089713   0.0000128254  -0.0000048976
        0.0000098546   0.0000211831   0.0000169475  -0.0000177694  -0.0000072178
        0.0000025896   0.0000232571  -0.0000104903  -0.0000110382  -0.0000076960
       -0.0000219018   0.0000121171   0.0004645544   0.0000894607   0.0000711789
        0.0000022291  -0.0000225270   0.0000076159  -0.0000043043  -0.0000373717
        0.0000064642   0.0000088516  -0.0000176154  -0.0000052945  -0.0000180381
        0.0000071245  -0.0000150008   0.0000033338  -0.0000088697  -0.0000162536
        0.0000257410  -0.0000210975   0.0000272193   0.0000679809  -0.0011970981
       -0.0005001389  -0.0018531870  -0.0008527658  -0.0005180835   0.0009241201
       -0.0000607202   0.0015301369  -0.0003114545   0.0003829339   0.0007746433
       -0.0001573622   0.0001982051  -0.0006482809   0.0433945218  -0.0638509435
        0.0505162866  -0.1169143737  -0.1422883616  -0.0073469982   0.0762422135
       -0.2466731286  -0.0446144355  -0.0001947102   0.0008289705  -0.0006551394
        0.0028070043  -0.0047994702  -0.0025972586   0.0006286160   0.0009158389
       -0.0005607500  -0.0000697445   0.0000354612   0.0002882355   0.0000204465
        0.0000235660   0.0000136524   0.0000016830  -0.0000155144   0.0000103824
        0.0000051435   0.0000177361  -0.0000074655   0.0000049392   0.0000274629
       -0.0000088248  -0.0000121682   0.0000021043  -0.0000074703  -0.0000362767
        0.0000208409  -0.0000065983   0.0000066137  -0.0000167501   0.0000025340
        0.0001183859  -0.0001688249  -0.0001542706  -0.0000818405  -0.0000136920
       -0.0000134093   0.0000498148   0.0000034448   0.0000238995  -0.0000047412
        0.0000089401   0.0000073880  -0.0000062961  -0.0000051114  -0.0000024739
        0.0000019941  -0.0000004081  -0.0000022897  -0.0000066282  -0.0000003493
       -0.0000019129  -0.0000027090  -0.0000132419  -0.0000104579   0.0000191236
       -0.0000016213  -0.0000035485  -0.0000113058   0.0000052103  -0.0000002167
       -0.0000018003  -0.0000011636  -0.0000056498  -0.0000001568   0.0000080172
        0.0000008192  -0.0000078713   0.0000027696  -0.0000198364  -0.0001305247
       -0.0001277155   0.0000417888  -0.0001321681   0.0002521327   0.0001562831
        0.0057688905   0.0028179754  -0.0302493499   0.0458998257  -0.0008271422
       -0.1544043858   0.0393726009  -0.0010840203   0.4671353298   0.0072566248
       -0.0043916436  -0.0112212690   0.0083179373   0.0055775070  -0.0021942537
       -0.0011275019  -0.0005112156  -0.0007847746   0.0001887761   0.0005167267
        0.0000235643  -0.0000117543   0.0000998779   0.0000723732  -0.0000808522
       -0.0002240074  -0.0000489839  -0.0000312558   0.0001629346  -0.0000244332
        0.0000450623  -0.0000537545   0.0000251910  -0.0000145069   0.0000740454
       -0.0000497510  -0.0000062446   0.0000012169  -0.0000017556   0.0000060853
        0.0000185281  -0.0000146336  -0.0000691442  -0.0000368715   0.0000194843