      -----------------------------------------------------------      
     |                   =====================                   |     
     |                           x T B                           |     
     |                   =====================                   |     
     |                         S. Grimme                         |     
     |          Mulliken Center for Theoretical Chemistry        |     
     |                    University of Bonn                     |     
      -----------------------------------------------------------      

   * xtb version 6.7.1 (edcfbbe) compiled by 'albert@albert-system' on 2024-07-22

   xtb is free software: you can redistribute it and/or modify it under
   the terms of the GNU Lesser General Public License as published by
   the Free Software Foundation, either version 3 of the License, or
   (at your option) any later version.
   
   xtb is distributed in the hope that it will be useful,
   but WITHOUT ANY WARRANTY; without even the implied warranty of
   MERCHANTABILITY or FITNESS FOR A PARTICULAR PURPOSE.  See the
   GNU Lesser General Public License for more details.
   
   Cite this work as:
   * C. Bannwarth, E. Caldeweyher, S. Ehlert, A. Hansen, P. Pracht,
     J. Seibert, S. Spicher, S. Grimme, WIREs Comput. Mol. Sci., 2020, 11,
     e01493. DOI: 10.1002/wcms.1493
   
   for GFN2-xTB:
   * C. Bannwarth, S. Ehlert and S. Grimme., J. Chem. Theory Comput., 2019,
     15, 1652-1671. DOI: 10.1021/acs.jctc.8b01176
   for GFN1-xTB:
   * S. Grimme, C. Bannwarth, P. Shushkov, J. Chem. Theory Comput., 2017,
     13, 1989-2009. DOI: 10.1021/acs.jctc.7b00118
   for GFN0-xTB:
   * P. Pracht, E. Caldeweyher, S. Ehlert, S. Grimme, ChemRxiv, 2019, preprint.
     DOI: 10.26434/chemrxiv.8326202.v1
   for GFN-FF:
   * S. Spicher and S. Grimme, Angew. Chem. Int. Ed., 2020, 59, 15665-15673.
     DOI: 10.1002/anie.202004239
   
   for ALPB and GBSA implicit solvation:
   * S. Ehlert, M. Stahn, S. Spicher, S. Grimme, J. Chem. Theory Comput.,
     2021, 17, 4250-4261. DOI: 10.1021/acs.jctc.1c00471
   
   for ddCOSMO and CPCM-X implicit solvation:
   * M. Stahn, S. Ehlert, S. Grimme, J. Phys. Chem. A,
     2023, XX, XXXX-XXXX. DOI: 10.1021/acs.jpca.3c04382
   
   for DFT-D4:
   * E. Caldeweyher, C. Bannwarth and S. Grimme, J. Chem. Phys., 2017,
     147, 034112. DOI: 10.1063/1.4993215
   * E. Caldeweyher, S. Ehlert, A. Hansen, H. Neugebauer, S. Spicher,
     C. Bannwarth and S. Grimme, J. Chem. Phys., 2019, 150, 154122.
     DOI: 10.1063/1.5090222
   * E. Caldeweyher, J.-M. Mewes, S. Ehlert and S. Grimme, Phys. Chem. Chem. Phys.
     2020, 22, 8499-8512. DOI: 10.1039/D0CP00502A
   
   for sTDA-xTB:
   * S. Grimme and C. Bannwarth, J. Chem. Phys., 2016, 145, 054103.
     DOI: 10.1063/1.4959605
   
   in the mass-spec context:
   * V. Asgeirsson, C. Bauer and S. Grimme, Chem. Sci., 2017, 8, 4879.
     DOI: 10.1039/c7sc00601b
   * J. Koopman and S. Grimme, ACS Omega 2019, 4, 12, 15120-15133.
     DOI: 10.1021/acsomega.9b02011
   
   for metadynamics refer to:
   * S. Grimme, J. Chem. Theory Comput., 2019, 155, 2847-2862
     DOI: 10.1021/acs.jctc.9b00143
   
   for SPH calculations refer to:
   * S. Spicher and S. Grimme, J. Chem. Theory Comput., 2021, 17, 1701-1714
     DOI: 10.1021/acs.jctc.0c01306
   
   for ONIOM refer to:
   * C. Plett, A. Katbashev, S. Ehlert, S. Grimme, M. Bursch,
     Phys. Chem. Chem. Phys., 2023, 25, 17860-17868. DOI: 10.1039/D3CP02178E
   
   for DIPRO refer to:
   * J. Kohn, N. Gildemeister, S. Grimme, D. Fazzi, A. Hansen,
     J. Chem. Phys., 2023, just accepted.
   
   for PTB refer to:
   * S. Grimme, M. Mueller, A. Hansen, J. Chem. Phys., 2023, 158, 124111.
     DOI: 10.1063/5.0137838
   
   with help from (in alphabetical order)
   P. Atkinson, C. Bannwarth, F. Bohle, G. Brandenburg, E. Caldeweyher
   M. Checinski, S. Dohm, S. Ehlert, S. Ehrlich, I. Gerasimov, C. Hölzer
   A. Katbashev, J. Kohn, J. Koopman, C. Lavigne, S. Lehtola, F. März, M. Müller,
   F. Musil, H. Neugebauer, J. Pisarek, C. Plett, P. Pracht, F. Pultar,
   J. Seibert, P. Shushkov, S. Spicher, M. Stahn, M. Steiner, T. Strunk,
   J. Stückrath, T. Rose, and J. Unsleber
   
 * started run on 2025/07/20 at 03:48:46.379     
   ID    Z sym.   atoms
    1    7 N      1, 21, 29, 35, 50
    2    6 C      2-20, 22-28, 30-34, 36-49, 51-58
    3    1 H      59-91

           -------------------------------------------------
          |                Calculation Setup                |
           -------------------------------------------------

          program call               : xtb data2507/gas/TPM2CN/TPM2CN_gas_T1_crest.xyz --gfn 2 --spinpol --tblite --uhf 2 --ohess vtight --parallel 40 --molden --ceasefiles --namespace data2507/gas/TPM2CN/TPM2CN_gas_T1_finalOpt
          calculation namespace      : data2507/gas/TPM2CN/TPM2CN_gas_T1_finalOpt
          coordinate file            : data2507/gas/TPM2CN/TPM2CN_gas_T1_crest.xyz
          omp threads                :                    40

repulsion energy          2.7859048288205E+00 Eh
dispersion energy        -9.9602771423166E-04 Eh
interaction energy        0.0000000000000E+00 Eh
number of electrons       2.7000000000000E+02 e
integral cutoff           1.7347787504999E+01 bohr

------------------------------------------------------------
  cycle        total energy    energy error   density error
------------------------------------------------------------
      1     -144.4849035458  -1.4726981E+02   1.0770029E-01
      2     -144.4750019408   9.9016050E-03   6.9809814E-02
      3     -144.3967872705   7.8214670E-02   4.9100211E-02
      4     -144.6182371462  -2.2144988E-01   2.4704262E-02
      5     -144.7681906525  -1.4995351E-01   1.3368176E-02
      6     -144.8377414484  -6.9550796E-02   7.9198569E-03
      7     -144.8383167254  -5.7527701E-04   6.6229939E-03
      8     -144.8382159915   1.0073390E-04   5.5922699E-03
      9     -144.8398377321  -1.6217405E-03   2.0467619E-03
     10     -144.8406336732  -7.9594117E-04   8.9150490E-04
     11     -144.8407060687  -7.2395470E-05   7.4151977E-04
     12     -144.8407927763  -8.6707609E-05   3.2142981E-04
     13     -144.8408007279  -7.9516011E-06   1.4928098E-04
     14     -144.8408011673  -4.3939488E-07   1.3879313E-04
     15     -144.8408030428  -1.8755299E-06   4.2250121E-05
     16     -144.8408031247  -8.1813482E-08   2.3229788E-05
     17     -144.8408032240  -9.9322165E-08   1.1298415E-05
------------------------------------------------------------

electronic energy        -1.4762571202509E+02 Eh
total energy             -1.4484080322398E+02 Eh

 total:                                   0.388 sec
 - repulsion                              0.001 sec (  0%)
 - dispersion                             0.017 sec (  4%)
 - coulomb                                0.008 sec (  1%)
 - hamiltonian                            0.015 sec (  3%)
 - scc                                    0.347 sec ( 89%)

      ----------------------------------------------------------- 
     |                   =====================                   |
     |                        A N C O P T                        |
     |                   =====================                   |
     |               Approximate Normal Coordinate               |
     |                Rational Function Optimizer                |
      ----------------------------------------------------------- 

Optimization log is written to '/dev/null'
      ----------------------------------------------------------- 
     |                   =====================                   |
     |                        A N C O P T                        |
     |                   =====================                   |
     |               Approximate Normal Coordinate               |
     |                Rational Function Optimizer                |
      ----------------------------------------------------------- 

          ...................................................
          :                      SETUP                      :
          :.................................................:
          :   optimization level         verytight          :
          :   max. optcycles                  1820          :
          :   ANC micro-cycles                  20          :
          :   degrees of freedom               267          :
          :.................................................:
          :   RF solver                   davidson          :
          :   write xtbopt.log                true          :
          :   linear?                        false          :
          :   energy convergence         0.1000000E-06 Eh   :
          :   grad. convergence          0.2000000E-03 Eh/α :
          :   maxmium RF displ.          1.0000000          :
          :   Hlow (freq-cutoff)         0.1000000E-01      :
          :   Hmax (freq-cutoff)         5.0000000          :
          :   S6 in model hess.         20.0000000          :
          ...................................................

generating ANC from exact Hessian ...
Using Lindh-Hessian (1995)
 Shifting diagonal of input Hessian by   9.942347519177590E-003
 Lowest  eigenvalues of input Hessian
    0.000000    0.000000    0.000000    0.000000    0.000000    0.000000
    0.010000    0.010029    0.010081    0.010148    0.010273    0.010383
    0.010508    0.010545    0.010704    0.010808    0.011009    0.011139
 Highest eigenvalues
    2.156856    2.181899    2.205744    2.214752    2.632821    2.632899
 

........................................................................
.............................. CYCLE    1 ..............................
........................................................................
------------------------------------------------------------
  cycle        total energy    energy error   density error
------------------------------------------------------------
      1     -144.8408026920  -1.4762571E+02   3.8198901E-05
      2     -144.8407984079   4.2840475E-06   1.0728038E-04
      3     -144.8408031245  -4.7166160E-06   1.7950041E-05
      4     -144.8408032338  -1.0926024E-07   3.6304350E-06
------------------------------------------------------------

 total:                                   0.099 sec
 * total energy  :  -144.8408032 Eh     change       -0.9796878E-08 Eh
   gradient norm :     0.0030409 Eh/α   predicted     0.0000000E+00 (-100.00%)
   displ. norm   :     0.0123946 α      lambda       -0.4999543E-05
   maximum displ.:     0.0037823 α      in ANC's #10, #27, #3, ...

........................................................................
.............................. CYCLE    2 ..............................
........................................................................
------------------------------------------------------------
  cycle        total energy    energy error   density error
------------------------------------------------------------
      1     -144.8408064751  -1.4762604E+02   2.5710516E-04
      2     -144.8408021483   4.3268645E-06   1.7516557E-04
      3     -144.8407517688   5.0379494E-05   3.7109297E-04
      4     -144.8408066330  -5.4864167E-05   4.7585149E-05
      5     -144.8408072465  -6.1358645E-07   1.7363337E-05
------------------------------------------------------------

 total:                                   0.116 sec
 * total energy  :  -144.8408072 Eh     change       -0.4012762E-05 Eh
   gradient norm :     0.0016865 Eh/α   predicted    -0.4297504E-05 (   7.10%)
   displ. norm   :     0.0327918 α      lambda       -0.1203571E-04
   maximum displ.:     0.0122616 α      in ANC's #8, #3, #11, ...

........................................................................
.............................. CYCLE    3 ..............................
........................................................................
------------------------------------------------------------
  cycle        total energy    energy error   density error
------------------------------------------------------------
      1     -144.8407897801  -1.4762671E+02   5.7910456E-04
      2     -144.8407393014   5.0478712E-05   4.7283374E-04
      3     -144.8406081559   1.3114547E-04   7.1543536E-04
      4     -144.8407805954  -1.7243946E-04   2.3160112E-04
      5     -144.8407980767  -1.7481355E-05   5.5258084E-05
      6     -144.8407988889  -8.1217982E-07   2.3682617E-05
      7     -144.8407989251  -3.6173219E-08   1.6546484E-05
------------------------------------------------------------

 total:                                   0.149 sec
 * total energy  :  -144.8407989 Eh     change        0.8321467E-05 Eh
   gradient norm :     0.0031500 Eh/α   predicted    -0.6021697E-05 (-172.36%)
   displ. norm   :     0.0114089 α      lambda       -0.1679058E-04
   maximum displ.:     0.0035667 α      in ANC's #22, #10, #13, ...

........................................................................
.............................. CYCLE    4 ..............................
........................................................................
------------------------------------------------------------
  cycle        total energy    energy error   density error
------------------------------------------------------------
      1     -144.8408042341  -1.4762621E+02   2.7947947E-04
      2     -144.8407513254   5.2908751E-05   3.9320971E-04
      3     -144.8407938541  -4.2528733E-05   2.2990496E-04
      4     -144.8408079772  -1.4123052E-05   8.2762162E-05
      5     -144.8408100663  -2.0891613E-06   1.7874087E-05
      6     -144.8408101423  -7.6002522E-08   9.6437734E-06
------------------------------------------------------------

 total:                                   0.132 sec
 * total energy  :  -144.8408101 Eh     change       -0.1121727E-04 Eh
   gradient norm :     0.0012462 Eh/α   predicted    -0.8400873E-05 ( -25.11%)
   displ. norm   :     0.0120868 α      lambda       -0.3948038E-05
   maximum displ.:     0.0040300 α      in ANC's #3, #13, #4, ...

........................................................................
.............................. CYCLE    5 ..............................
........................................................................
------------------------------------------------------------
  cycle        total energy    energy error   density error
------------------------------------------------------------
      1     -144.8408094056  -1.4762575E+02   2.2706332E-04
      2     -144.8407996066   9.7990017E-06   2.0910865E-04
      3     -144.8407916037   8.0029400E-06   2.3615203E-04
      4     -144.8408046401  -1.3036457E-05   1.3733499E-04
      5     -144.8408113618  -6.7216587E-06   2.6859586E-05
      6     -144.8408115405  -1.7868447E-07   7.4649031E-06
------------------------------------------------------------

 total:                                   0.137 sec
 * total energy  :  -144.8408115 Eh     change       -0.1398128E-05 Eh
   gradient norm :     0.0006867 Eh/α   predicted    -0.1976857E-05 (  41.39%)
   displ. norm   :     0.0114300 α      lambda       -0.1651958E-05
   maximum displ.:     0.0047571 α      in ANC's #3, #8, #4, ...

........................................................................
.............................. CYCLE    6 ..............................
........................................................................
------------------------------------------------------------
  cycle        total energy    energy error   density error
------------------------------------------------------------
      1     -144.8408121989  -1.4762590E+02   1.5953831E-04
      2     -144.8408105953   1.6036146E-06   1.0932144E-04
      3     -144.8407913085   1.9286785E-05   2.2757751E-04
      4     -144.8408121462  -2.0837674E-05   3.3761112E-05
      5     -144.8408125052  -3.5901144E-07   6.3691288E-06
------------------------------------------------------------

 total:                                   0.117 sec
 * total energy  :  -144.8408125 Eh     change       -0.9647148E-06 Eh
   gradient norm :     0.0003371 Eh/α   predicted    -0.8307344E-06 ( -13.89%)
   displ. norm   :     0.0130473 α      lambda       -0.1094433E-05
   maximum displ.:     0.0062933 α      in ANC's #3, #8, #4, ...

........................................................................
.............................. CYCLE    7 ..............................
........................................................................
------------------------------------------------------------
  cycle        total energy    energy error   density error
------------------------------------------------------------
      1     -144.8408127816  -1.4762604E+02   1.2601515E-04
      2     -144.8408095129   3.2687359E-06   1.1777787E-04
      3     -144.8408073503   2.1625801E-06   1.2943329E-04
      4     -144.8408111088  -3.7585282E-06   8.1237362E-05
      5     -144.8408133985  -2.2897185E-06   9.8153328E-06
      6     -144.8408134216  -2.3099886E-08   3.1279198E-06
------------------------------------------------------------

 total:                                   0.130 sec
 * total energy  :  -144.8408134 Eh     change       -0.9164387E-06 Eh
   gradient norm :     0.0004448 Eh/α   predicted    -0.5489612E-06 ( -40.10%)
   displ. norm   :     0.0201497 α      lambda       -0.7643771E-06
   maximum displ.:     0.0103802 α      in ANC's #3, #4, #8, ...

........................................................................
.............................. CYCLE    8 ..............................
........................................................................
------------------------------------------------------------
  cycle        total energy    energy error   density error
------------------------------------------------------------
      1     -144.8408144426  -1.4762599E+02   9.6610426E-05
      2     -144.8408144214   2.1206802E-08   5.7078869E-05
      3     -144.8408130830   1.3384254E-06   5.9901995E-05
      4     -144.8408140631  -9.8012620E-07   3.1994738E-05
      5     -144.8408144795  -4.1632913E-07   3.1709250E-06
------------------------------------------------------------

 total:                                   0.113 sec
 * total energy  :  -144.8408145 Eh     change       -0.1057836E-05 Eh
   gradient norm :     0.0003204 Eh/α   predicted    -0.3891019E-06 ( -63.22%)
   displ. norm   :     0.0684675 α      lambda       -0.2243198E-05
   maximum displ.:     0.0341932 α      in ANC's #3, #4, #8, ...

........................................................................
.............................. CYCLE    9 ..............................
........................................................................
------------------------------------------------------------
  cycle        total energy    energy error   density error
------------------------------------------------------------
      1     -144.8408166993  -1.4762590E+02   3.1152215E-04
      2     -144.8408162216   4.7766630E-07   1.8453588E-04
      3     -144.8407851288   3.1092767E-05   2.8069082E-04
      4     -144.8408154734  -3.0344566E-05   6.1652406E-05
      5     -144.8408168916  -1.4181453E-06   8.6025346E-06
      6     -144.8408169044  -1.2856049E-08   5.1241781E-06
------------------------------------------------------------

 total:                                   0.132 sec
 * total energy  :  -144.8408169 Eh     change       -0.2424945E-05 Eh
   gradient norm :     0.0002427 Eh/α   predicted    -0.1124080E-05 ( -53.65%)
   displ. norm   :     0.0571552 α      lambda       -0.1037251E-05
   maximum displ.:     0.0297184 α      in ANC's #3, #4, #8, ...

........................................................................
.............................. CYCLE   10 ..............................
........................................................................
------------------------------------------------------------
  cycle        total energy    energy error   density error
------------------------------------------------------------
      1     -144.8408174053  -1.4762583E+02   2.4486126E-04
      2     -144.8408171818   2.2358415E-07   1.4487067E-04
      3     -144.8407981835   1.8998216E-05   2.1055991E-04
      4     -144.8408171597  -1.8976194E-05   3.3456508E-05
      5     -144.8408175017  -3.4193059E-07   7.1866843E-06
------------------------------------------------------------

 total:                                   0.118 sec
 * total energy  :  -144.8408175 Eh     change       -0.5972527E-06 Eh
   gradient norm :     0.0003697 Eh/α   predicted    -0.5203776E-06 ( -12.87%)
   displ. norm   :     0.0328968 α      lambda       -0.5261973E-06
   maximum displ.:     0.0180622 α      in ANC's #3, #4, #8, ...

........................................................................
.............................. CYCLE   11 ..............................
........................................................................
------------------------------------------------------------
  cycle        total energy    energy error   density error
------------------------------------------------------------
      1     -144.8408178319  -1.4762591E+02   1.3925429E-04
      2     -144.8408170963   7.3562094E-07   9.6204490E-05
      3     -144.8408142081   2.8881673E-06   1.1405922E-04
      4     -144.8408158198  -1.6117326E-06   7.5951031E-05
      5     -144.8408181489  -2.3291080E-06   8.1092944E-06
      6     -144.8408181715  -2.2538700E-08   1.5049683E-06
------------------------------------------------------------

 total:                                   0.131 sec
 * total energy  :  -144.8408182 Eh     change       -0.6698253E-06 Eh
   gradient norm :     0.0002359 Eh/α   predicted    -0.2644398E-06 ( -60.52%)
   displ. norm   :     0.0407461 α      lambda       -0.8321854E-06
   maximum displ.:     0.0230371 α      in ANC's #3, #4, #8, ...

........................................................................
.............................. CYCLE   12 ..............................
........................................................................
------------------------------------------------------------
  cycle        total energy    energy error   density error
------------------------------------------------------------
      1     -144.8408192137  -1.4762596E+02   1.8383475E-04
      2     -144.8408192117   2.0169750E-09   1.0740794E-04
      3     -144.8408176713   1.5403497E-06   6.2857959E-05
      4     -144.8408189462  -1.2748421E-06   2.7919706E-05
      5     -144.8408192555  -3.0937287E-07   3.9165667E-06
------------------------------------------------------------

 total:                                   0.111 sec
 * total energy  :  -144.8408193 Eh     change       -0.1084060E-05 Eh
   gradient norm :     0.0001546 Eh/α   predicted    -0.4184590E-06 ( -61.40%)
   displ. norm   :     0.0669229 α      lambda       -0.1265599E-05
   maximum displ.:     0.0380587 α      in ANC's #3, #4, #9, ...

........................................................................
.............................. CYCLE   13 ..............................
........................................................................
------------------------------------------------------------
  cycle        total energy    energy error   density error
------------------------------------------------------------
      1     -144.8408203588  -1.4762602E+02   3.2183899E-04
      2     -144.8408186630   1.6957923E-06   2.0009677E-04
      3     -144.8407419782   7.6684809E-05   4.3326860E-04
      4     -144.8408198935  -7.7915337E-05   4.8476317E-05
      5     -144.8408206991  -8.0555796E-07   8.0948117E-06
------------------------------------------------------------

 total:                                   0.122 sec
 * total energy  :  -144.8408207 Eh     change       -0.1443509E-05 Eh
   gradient norm :     0.0001878 Eh/α   predicted    -0.6375484E-06 ( -55.83%)
   displ. norm   :     0.0509849 α      lambda       -0.6268286E-06
   maximum displ.:     0.0293916 α      in ANC's #3, #4, #9, ...

........................................................................
.............................. CYCLE   14 ..............................
........................................................................
------------------------------------------------------------
  cycle        total energy    energy error   density error
------------------------------------------------------------
      1     -144.8408210796  -1.4762601E+02   2.4445467E-04
      2     -144.8408204960   5.8361942E-07   1.5034344E-04
      3     -144.8408098614   1.0634619E-05   1.8967376E-04
      4     -144.8408208479  -1.0986587E-05   3.7002880E-05
      5     -144.8408214207  -5.7271399E-07   6.1047910E-06
------------------------------------------------------------

 total:                                   0.116 sec
 * total energy  :  -144.8408214 Eh     change       -0.7216030E-06 Eh
   gradient norm :     0.0001840 Eh/α   predicted    -0.3164810E-06 ( -56.14%)
   displ. norm   :     0.0329860 α      lambda       -0.3595720E-06
   maximum displ.:     0.0196975 α      in ANC's #3, #4, #2, ...

........................................................................
.............................. CYCLE   15 ..............................
........................................................................
------------------------------------------------------------
  cycle        total energy    energy error   density error
------------------------------------------------------------
      1     -144.8408213831  -1.4762605E+02   1.5231390E-04
      2     -144.8408164999   4.8831978E-06   1.4020704E-04
      3     -144.8408099443   6.5555711E-06   1.8003154E-04
      4     -144.8408217624  -1.1818046E-05   1.9685670E-05
      5     -144.8408218855  -1.2311611E-07   4.2110897E-06
------------------------------------------------------------

 total:                                   0.112 sec
 * total energy  :  -144.8408219 Eh     change       -0.4648412E-06 Eh
   gradient norm :     0.0001606 Eh/α   predicted    -0.1844600E-06 ( -60.32%)
   displ. norm   :     0.0287729 α      lambda       -0.4494436E-06
   maximum displ.:     0.0165262 α      in ANC's #3, #4, #2, ...

........................................................................
.............................. CYCLE   16 ..............................
........................................................................
------------------------------------------------------------
  cycle        total energy    energy error   density error
------------------------------------------------------------
      1     -144.8408223440  -1.4762601E+02   1.2877299E-04
      2     -144.8408221269   2.1702184E-07   8.0479068E-05
      3     -144.8408190502   3.0767296E-06   1.0443987E-04
      4     -144.8408219979  -2.9477119E-06   3.3965173E-05
      5     -144.8408224645  -4.6655936E-07   4.8225456E-06
------------------------------------------------------------

 total:                                   0.111 sec
 * total energy  :  -144.8408225 Eh     change       -0.5789889E-06 Eh
   gradient norm :     0.0001435 Eh/α   predicted    -0.2270636E-06 ( -60.78%)
   displ. norm   :     0.0474699 α      lambda       -0.6987780E-06
   maximum displ.:     0.0269120 α      in ANC's #3, #4, #2, ...

........................................................................
.............................. CYCLE   17 ..............................
........................................................................
------------------------------------------------------------
  cycle        total energy    energy error   density error
------------------------------------------------------------
      1     -144.8408228775  -1.4762598E+02   2.0386991E-04
      2     -144.8408199995   2.8779783E-06   1.4670390E-04
      3     -144.8407861313   3.3868284E-05   2.9930857E-04
      4     -144.8408228466  -3.6715345E-05   3.5608194E-05
      5     -144.8408232294  -3.8279117E-07   7.7272786E-06
------------------------------------------------------------

 total:                                   0.117 sec
 * total energy  :  -144.8408232 Eh     change       -0.7649014E-06 Eh
   gradient norm :     0.0001732 Eh/α   predicted    -0.3506093E-06 ( -54.16%)
   displ. norm   :     0.0338413 α      lambda       -0.3338247E-06
   maximum displ.:     0.0197002 α      in ANC's #3, #2, #4, ...

........................................................................
.............................. CYCLE   18 ..............................
........................................................................
------------------------------------------------------------
  cycle        total energy    energy error   density error
------------------------------------------------------------
      1     -144.8408230490  -1.4762595E+02   1.4586238E-04
      2     -144.8408204501   2.5988851E-06   1.2155182E-04
      3     -144.8408156721   4.7779941E-06   1.5134414E-04
      4     -144.8408194324  -3.7602864E-06   1.0407611E-04
      5     -144.8408236192  -4.1868126E-06   6.3505161E-06
      6     -144.8408236280  -8.7221679E-09   2.3937948E-06
------------------------------------------------------------

 total:                                   0.130 sec
 * total energy  :  -144.8408236 Eh     change       -0.3985693E-06 Eh
   gradient norm :     0.0001499 Eh/α   predicted    -0.1706757E-06 ( -57.18%)
   displ. norm   :     0.0216116 α      lambda       -0.2029801E-06
   maximum displ.:     0.0131841 α      in ANC's #3, #2, #4, ...

........................................................................
.............................. CYCLE   19 ..............................
........................................................................
------------------------------------------------------------
  cycle        total energy    energy error   density error
------------------------------------------------------------
      1     -144.8408238404  -1.4762598E+02   8.6884645E-05
      2     -144.8408235553   2.8511576E-07   5.6214356E-05
      3     -144.8408169644   6.5908487E-06   1.2951800E-04
      4     -144.8408238431  -6.8787201E-06   1.2391985E-05
      5     -144.8408238825  -3.9340478E-08   2.8525491E-06
------------------------------------------------------------

 total:                                   0.112 sec
 * total energy  :  -144.8408239 Eh     change       -0.2545077E-06 Eh
   gradient norm :     0.0000822 Eh/α   predicted    -0.1051941E-06 ( -58.67%)
   displ. norm   :     0.0184720 α      lambda       -0.2093591E-06
   maximum displ.:     0.0112628 α      in ANC's #3, #2, #4, ...

........................................................................
.............................. CYCLE   20 ..............................
........................................................................
------------------------------------------------------------
  cycle        total energy    energy error   density error
------------------------------------------------------------
      1     -144.8408240453  -1.4762598E+02   7.9537902E-05
      2     -144.8408237946   2.5068098E-07   5.3072490E-05
      3     -144.8408224594   1.3351911E-06   7.3109304E-05
      4     -144.8408231867  -7.2723390E-07   4.7835556E-05
      5     -144.8408241471  -9.6042714E-07   3.1892232E-06
------------------------------------------------------------

 total:                                   0.111 sec
 * total energy  :  -144.8408241 Eh     change       -0.2646279E-06 Eh
   gradient norm :     0.0000614 Eh/α   predicted    -0.1071846E-06 ( -59.50%)
   displ. norm   :     0.0205245 α      lambda       -0.1929467E-06
   maximum displ.:     0.0122797 α      in ANC's #3, #2, #4, ...
 * RMSD in coord.:     0.0543467 α      energy gain  -0.2092311E-04 Eh

generating ANC from exact Hessian ...
Using Lindh-Hessian (1995)
 Shifting diagonal of input Hessian by   9.942368769771674E-003
 Lowest  eigenvalues of input Hessian
    0.000000    0.000000    0.000000    0.000000    0.000000    0.000000
    0.010000    0.010029    0.010082    0.010145    0.010292    0.010377
    0.010472    0.010575    0.010703    0.010769    0.010975    0.011123
 Highest eigenvalues
    2.156301    2.181624    2.205344    2.212973    2.632760    2.633299
 

........................................................................
.............................. CYCLE   21 ..............................
........................................................................
------------------------------------------------------------
  cycle        total energy    energy error   density error
------------------------------------------------------------
      1     -144.8408243458  -1.4762600E+02   7.6428643E-05
      2     -144.8408242812   6.4653420E-08   4.6697760E-05
      3     -144.8408226592   1.6220289E-06   6.9736986E-05
      4     -144.8408240116  -1.3524563E-06   2.9500396E-05
      5     -144.8408243779  -3.6632903E-07   2.9495423E-06
------------------------------------------------------------

 total:                                   0.119 sec
 * total energy  :  -144.8408244 Eh     change       -0.2308504E-06 Eh
   gradient norm :     0.0001168 Eh/α   predicted     0.0000000E+00 (-100.00%)
   displ. norm   :     0.0001753 α      lambda        0.0000000E+00
   maximum displ.:     0.0000593 α      in ANC's #261, #265, #266, ...

........................................................................
.............................. CYCLE   22 ..............................
........................................................................
------------------------------------------------------------
  cycle        total energy    energy error   density error
------------------------------------------------------------
      1     -144.8408243419  -1.4762596E+02   1.1590730E-05
      2     -144.8408242501   9.1739452E-08   2.1348482E-05
      3     -144.8408243795  -1.2934635E-07   4.9098745E-06
------------------------------------------------------------

 total:                                   0.073 sec
 * total energy  :  -144.8408244 Eh     change       -0.1536051E-08 Eh
   gradient norm :     0.0001436 Eh/α   predicted    -0.3111498E-08 ( 102.56%)
   displ. norm   :     0.0040360 α      lambda       -0.1011271E-06
   maximum displ.:     0.0016527 α      in ANC's #20, #10, #3, ...

   *** GEOMETRY OPTIMIZATION CONVERGED AFTER 22 ITERATIONS ***

------------------------------------------------------------------------
 total energy gain   :        -0.0000212 Eh       -0.0133 kcal/mol
 total RMSD          :         0.0543471 a0        0.0288 Å
 total power (kW/mol):        -0.0025247 (step)   -0.0203 (real)
------------------------------------------------------------------------

 ANCopt (total)                0 d,  0 h,  0 min,  2.740 sec
 optimizer setup                ...        0 min,  0.000 sec (  0.017%)
 model hessian                  ...        0 min,  0.088 sec (  3.227%)
 ANC generation                 ...        0 min,  0.017 sec (  0.604%)
 coordinate transformation      ...        0 min,  0.003 sec (  0.095%)
 single point calculation       ...        0 min,  2.616 sec ( 95.490%)
 optimization log               ...        0 min,  0.005 sec (  0.192%)
 hessian update                 ...        0 min,  0.003 sec (  0.110%)
 rational function              ...        0 min,  0.004 sec (  0.141%)

================
 final structure:
================
91
 xtb: 6.7.1 (edcfbbe)
N           -9.51000509694632       -6.99761823321183        0.09729195638710
C           -8.56599248883322       -6.34507941246068        0.10534219352018
C           -7.40326123788587       -5.54630445432867        0.11420006535164
C           -7.39173600802569       -4.32806436564186        0.79826638828126
C           -6.25310377170181       -3.55289588522162        0.80055339510461
C           -5.09776501833639       -3.96887558428414        0.13227171701959
C           -3.88655287170140       -3.14631860752251        0.14307762526550
C           -2.62577000682915       -3.74068214694225        0.24476350192075
C           -1.49751821756589       -2.95693616407922        0.25157466364083
C           -1.59593438394868       -1.56449054667974        0.15294113726667
C           -2.85773582063013       -0.93145864929070        0.06407712188527
C           -3.97976270688045       -1.75636777667177        0.05594300474202
C           -2.94490978781294        0.52751995184859       -0.00045439914531
C           -4.16350342528984        1.17478194931683       -0.01105994932876
C           -4.30228417244056        2.57462615716477       -0.02534681759040
C           -5.60654110684017        3.19583928875037       -0.04657807813042
C           -6.71142182602995        2.55553858129129       -0.63934066673115
C           -7.94994132410501        3.14589230672598       -0.66919526841534
C           -8.14275125793436        4.40942929921282       -0.09384060748513
C           -9.40938046727215        5.01748721830233       -0.11824201455219
N          -10.44476556667207        5.51680936243277       -0.13853895813431
C           -7.05517117086418        5.06060161628011        0.50473542974099
C           -5.81820347621037        4.46670983607534        0.52048818591546
C           -3.11771450378981        3.34397955048382       -0.00399125171268
C           -1.89490668372217        2.74832862750470       -0.01486780880618
C           -1.74817926254479        1.33309938555724       -0.03097271472011
C           -0.52317518168946        0.67380658074628       -0.03855236857671
C           -0.43323060828146       -0.75141032339795        0.11600266023196
N            0.83242973976942       -1.13896076521992        0.19737404346850
C            1.58762660825916       -0.04512711165373        0.06067531021661
C            2.99797542048366       -0.11945361314145        0.01151243806715
C            3.85243481826374        0.88415777892813       -0.50443105837858
C            5.21034642570480        0.71795120763152       -0.50718565618720
C            5.80252504989120       -0.45473832042049       -0.00702336792553
N            7.18018230679140       -0.60321602071944        0.00396511863410
C            8.00942583523938        0.50911468908524        0.18973298415494
C            9.21334009491071        0.61475387947912       -0.50839985930998
C           10.03011042972348        1.71193598038942       -0.31957918352039
C            9.66151524865711        2.71844612009820        0.55916549955591
C            8.46650598471502        2.61796605098795        1.25413333032051
C            7.64425895700381        1.52305568860960        1.07679009458408
C            7.75750354317229       -1.86728345008032       -0.17296243905693
C            8.88906246909964       -2.23232561503222        0.55730187227729
C            9.45750532631805       -3.47780080596048        0.37709436276854
C            8.90849481572216       -4.37556841694731       -0.52497009309996
C            7.78410030465714       -4.01699856031512       -1.25169883531397
C            7.20998499343286       -2.77250562133927       -1.08293687041284
C            4.95947407947150       -1.47860422759145        0.46799668990588
C            3.60478882743867       -1.31686218009635        0.47212838008659
N            0.78673117754621        1.10242429802410       -0.07954124844333
C            1.26045991628328        2.42135340129681       -0.15742506127927
C            2.00512795804369        2.95157232694296        0.89405833387219
C            2.49086318844038        4.24247577003463        0.80813994348427
C            2.23871228598798        5.01072717418387       -0.31749420330592
C            1.49678276462208        4.48383629800116       -1.36355852510769
C            1.00829337491368        3.19317263623893       -1.29057458680681
C           -5.12129581106075       -5.19154426953780       -0.54519799445732
C           -6.25601085306632       -5.97187566746517       -0.56072620159690
H           -8.27800445984276       -4.00465618773364        1.32449860108614
H           -6.24486516225777       -2.62344452534666        1.35058676664412
H           -2.54302066379109       -4.81281926795186        0.34197298012219
H           -0.51193775943305       -3.38865418852938        0.32836962226196
H           -4.96553319077117       -1.33263981936303       -0.04865798653515
H           -5.07012398803157        0.59475700370679        0.03930614164494
H           -6.57788038722828        1.59642298722136       -1.11711845123577
H           -8.78458416154910        2.64711025796550       -1.14065904799150
H           -7.20409115748375        6.03080705675836        0.95661837590982
H           -5.00054638684109        4.97270069159418        1.01123686413498
H           -3.17967658632585        4.42148304967198       -0.01299445872033
H           -1.01000318417911        3.36307990920984        0.00479470998154
H            3.43846911080676        1.77379827191835       -0.94906455826688
H            5.84285189161535        1.48616641420565       -0.92780049531722
H            9.49506115650716       -0.16327622706226       -1.20251092123433
H           10.95722487282277        1.78562811167183       -0.86795326092258
H           10.30200638636270        3.57496894190687        0.70227168049898
H            8.17691643739006        3.39420948193808        1.94650732971339
H            6.72073999416859        1.43663204545535        1.62996267050384
H            9.30948579041714       -1.53700000389748        1.26890496782180
H           10.33026323152534       -3.75238874013865        0.95030658295177
H            9.35480114092733       -5.34849271170371       -0.66120638701691
H            7.35557821297173       -4.70850254152818       -1.96146780258140
H            6.34270106371273       -2.48665445716005       -1.65945961701877
H            5.39987066186816       -2.38559629061457        0.85488526300464
H            2.95666787569028       -2.09039241211895        0.85055336391761
H            2.19655205852585        2.34411540749693        1.76622719857985
H            3.06458241061279        4.65275986986332        1.62556235253911
H            2.61929051031646        6.01869236431969       -0.38029604454018
H            1.30148469682335        5.07929591338548       -2.24274717646514
H            0.43234346449983        2.77233385567542       -2.10181932921357
H           -4.24428254396930       -5.51667416807811       -1.08494764280450
H           -6.27018116151387       -6.91161826081415       -1.09336370159021
 
 Bond Distances (Angstroems)
 ---------------------------
N1-C2=1.1476         C2-N1=1.1476         C2-C3=1.4107         C3-C2=1.4107         C3-C4=1.3972         C3-C58=1.3974        
C4-C3=1.3972         C4-C5=1.3775         C4-H59=1.0803        C5-C4=1.3775         C5-C6=1.3980         C5-H60=1.0800        
C6-C5=1.3980         C6-C7=1.4642         C6-C57=1.3980        C7-C6=1.4642         C7-C8=1.3976         C7-C12=1.3958        
C8-C7=1.3976         C8-C9=1.3738         C8-H61=1.0797        C9-C8=1.3738         C9-C10=1.3994        C9-H62=1.0787        
C10-C9=1.3994        C10-C11=1.4145       C10-C28=1.4193       C11-C10=1.4145       C11-C12=1.3927       C11-C13=1.4630       
C12-C7=1.3958        C12-C11=1.3927       C12-H63=1.0781       C13-C11=1.4630       C13-C14=1.3799       C13-C26=1.4429       
C14-C13=1.3799       C14-C15=1.4068       C14-H64=1.0775       C15-C14=1.4068       C15-C16=1.4448       C15-C24=1.4126       
C16-C15=1.4448       C16-C17=1.4079       C16-C23=1.4076       C17-C16=1.4079       C17-C18=1.3723       C17-H65=1.0798       
C18-C17=1.3723       C18-C19=1.4017       C18-H66=1.0806       C19-C18=1.4017       C19-C20=1.4052       C19-C22=1.4018       
C20-C19=1.4052       C20-N21=1.1497       N21-C20=1.1497       C22-C19=1.4018       C22-C23=1.3722       C22-H67=1.0806       
C23-C16=1.4076       C23-C22=1.3722       C23-H68=1.0795       C24-C15=1.4126       C24-C25=1.3602       C24-H69=1.0793       
C25-C24=1.3602       C25-C26=1.4229       C25-H70=1.0777       C26-C13=1.4429       C26-C25=1.4229       C26-C27=1.3912       
C27-C26=1.3912       C27-C28=1.4364       C27-N50=1.3789       C28-C10=1.4193       C28-C27=1.4364       C28-N29=1.3262       
N29-C28=1.3262       N29-C30=1.3362       C30-N29=1.3362       C30-C31=1.4132       C30-N50=1.4064       C31-C30=1.4132       
C31-C32=1.4155       C31-C49=1.4192       C32-C31=1.4155       C32-C33=1.3680       C32-H71=1.0773       C33-C32=1.3680       
C33-C34=1.4057       C33-H72=1.0803       C34-C33=1.4057       C34-N35=1.3857       C34-C48=1.4088       N35-C34=1.3857       
N35-C36=1.3998       N35-C42=1.4009       C36-N35=1.3998       C36-C37=1.3957       C36-C41=1.3958       C37-C36=1.3957       
C37-C38=1.3808       C37-H73=1.0800       C38-C37=1.3808       C38-C39=1.3860       C38-H74=1.0797       C39-C38=1.3860       
C39-C40=1.3860       C39-H75=1.0790       C40-C39=1.3860       C40-C41=1.3807       C40-H76=1.0797       C41-C36=1.3958       
C41-C40=1.3807       C41-H77=1.0800       C42-N35=1.4009       C42-C43=1.3953       C42-C47=1.3954       C43-C42=1.3953       
C43-C44=1.3809       C43-H78=1.0801       C44-C43=1.3809       C44-C45=1.3860       C44-H79=1.0797       C45-C44=1.3860       
C45-C46=1.3860       C45-H80=1.0790       C46-C45=1.3860       C46-C47=1.3809       C46-H81=1.0796       C47-C42=1.3954       
C47-C46=1.3809       C47-H82=1.0799       C48-C34=1.4088       C48-C49=1.3643       C48-H83=1.0799       C49-C31=1.4192       
C49-C48=1.3643       C49-H84=1.0778       N50-C27=1.3789       N50-C30=1.4064       N50-C51=1.4036       C51-N50=1.4036       
C51-C52=1.3933       C51-C56=1.3940       C52-C51=1.3933       C52-C53=1.3819       C52-H85=1.0800       C53-C52=1.3819       
C53-C54=1.3859       C53-H86=1.0797       C54-C53=1.3859       C54-C55=1.3865       C54-H87=1.0792       C55-C54=1.3865       
C55-C56=1.3819       C55-H88=1.0797       C56-C51=1.3940       C56-C55=1.3819       C56-H89=1.0803       C57-C6=1.3980        
C57-C58=1.3772       C57-H90=1.0799       C58-C3=1.3974        C58-C57=1.3772       C58-H91=1.0803       H59-C4=1.0803        
H60-C5=1.0800        H61-C8=1.0797        H62-C9=1.0787        H63-C12=1.0781       H64-C14=1.0775       H65-C17=1.0798       
H66-C18=1.0806       H67-C22=1.0806       H68-C23=1.0795       H69-C24=1.0793       H70-C25=1.0777       H71-C32=1.0773       
H72-C33=1.0803       H73-C37=1.0800       H74-C38=1.0797       H75-C39=1.0790       H76-C40=1.0797       H77-C41=1.0800       
H78-C43=1.0801       H79-C44=1.0797       H80-C45=1.0790       H81-C46=1.0796       H82-C47=1.0799       H83-C48=1.0799       
H84-C49=1.0778       H85-C52=1.0800       H86-C53=1.0797       H87-C54=1.0792       H88-C55=1.0797       H89-C56=1.0803       
H90-C57=1.0799       H91-C58=1.0803       
 C  H  Rav=1.0795 sigma=0.0009  Rmin=1.0773  Rmax=1.0806    33
 C  C  Rav=1.3984 sigma=0.0217  Rmin=1.3602  Rmax=1.4642    57
 N  C  Rav=1.3335 sigma=0.0961  Rmin=1.1476  Rmax=1.4064    10
 
 selected bond angles (degree)
 --------------------
C3-C2-N1=179.83                C4-C3-C2=120.24                C58-C3-C2=120.08               C58-C3-C4=119.68               
C5-C4-C3=119.89                H59-C4-C3=119.52               H59-C4-C5=120.59               C6-C5-C4=120.99                
H60-C5-C4=119.44               H60-C5-C6=119.55               C7-C6-C5=120.86                C57-C6-C5=118.55               
C57-C6-C7=120.59               C8-C7-C6=120.52                C12-C7-C6=120.25               C12-C7-C8=119.23               
C9-C8-C7=119.91                H61-C8-C7=119.87               H61-C8-C9=120.21               C10-C9-C8=120.63               
H62-C9-C8=121.49               H62-C9-C10=117.87              C11-C10-C9=120.83              C28-C10-C9=120.95              
C28-C10-C11=118.21             
 
 selected dihedral angles (degree)
 ---------------------------------
C4-C3-C2-N1=199.97            C58-C3-C2-N1= 19.88           C5-C4-C3-C2=180.10            C5-C4-C3-C58=  0.18           
H59-C4-C3-C2=  0.31           H59-C4-C3-C58=180.40          C6-C5-C4-C3=359.64            C6-C5-C4-H59=179.43           
H60-C5-C4-C3=181.40           H60-C5-C4-H59=  1.19          C7-C6-C5-C4=180.36            C7-C6-C5-H60=358.60           
C57-C6-C5-C4=  0.17           C57-C6-C5-H60=178.41          C8-C7-C6-C5=141.26            C8-C7-C6-C57=321.45           
C12-C7-C6-C5=321.46           C12-C7-C6-C57=141.65          C9-C8-C7-C6=179.90            C9-C8-C7-C12=359.69           
H61-C8-C7-C6=358.41           H61-C8-C7-C12=178.20          C10-C9-C8-C7=359.78           C10-C9-C8-H61=181.28          
H62-C9-C8-C7=180.04           H62-C9-C8-H61=  1.53          C11-C10-C9-C8=  0.94          C11-C10-C9-H62=180.70         
C28-C10-C9-C8=182.05          C28-C10-C9-H62=  1.80         
           -------------------------------------------------
          |                Final Singlepoint                |
           -------------------------------------------------
repulsion energy          2.7861318137153E+00 Eh
dispersion energy        -9.9833114385672E-04 Eh
interaction energy        0.0000000000000E+00 Eh
number of electrons       2.7000000000000E+02 e
integral cutoff           1.7347787504999E+01 bohr

------------------------------------------------------------
  cycle        total energy    energy error   density error
------------------------------------------------------------
      1     -144.8408238048  -1.4762596E+02   3.6895560E-05
      2     -144.8408181251   5.6796643E-06   1.2037704E-04
      3     -144.8408243706  -6.2454782E-06   7.2603761E-06
      4     -144.8408243864  -1.5789709E-08   8.9986845E-07
------------------------------------------------------------

electronic energy        -1.4762595786896E+02 Eh
total energy             -1.4484082438639E+02 Eh

 total:                                   0.092 sec
 - repulsion                              0.000 sec (  0%)
 - dispersion                             0.003 sec (  2%)
 - coulomb                                0.005 sec (  5%)
 - hamiltonian                            0.007 sec (  7%)
 - scc                                    0.077 sec ( 83%)

           ------------------------------------------------- 
          |                Numerical Hessian                |
           ------------------------------------------------- 
step length          :   0.00500
SCC accuracy         :   0.30000
Hessian scale factor :   1.00000
frozen atoms in %    :   0.00000    0
RMS gradient         :   0.00014
estimated CPU  time     44.06 min
estimated wall time      1.10 min

writing file <hessian>.

 projected vibrational frequencies (cm⁻¹)
eigval :       -0.00    -0.00     0.00     0.00     0.00     0.00
eigval :        5.47     9.07    12.22    17.75    23.43    26.63
eigval :       31.57    35.32    39.22    41.85    48.20    49.93
eigval :       57.99    60.34    65.61    66.21    71.67    81.02
eigval :      101.07   104.18   108.59   117.56   133.06   134.79
eigval :      140.45   147.10   150.15   167.30   183.46   200.76
eigval :      206.94   212.70   232.43   239.58   243.40   249.88
eigval :      262.30   281.60   291.78   308.67   313.02   327.99
eigval :      339.61   362.70   366.54   367.91   370.06   375.75
eigval :      377.60   380.16   384.43   387.93   396.76   407.26
eigval :      409.79   414.14   436.15   439.13   453.96   460.32
eigval :      468.94   473.81   477.47   500.92   508.10   515.40
eigval :      523.55   532.56   536.34   539.67   552.31   565.33
eigval :      578.74   582.29   585.44   588.98   592.22   593.65
eigval :      603.42   604.19   611.73   614.53   623.29   637.22
eigval :      645.22   657.20   660.79   664.41   665.99   670.03
eigval :      676.38   679.14   682.34   693.02   697.60   714.53
eigval :      723.86   739.66   757.06   759.31   764.55   781.08
eigval :      795.49   806.86   808.29   809.80   815.08   834.81
eigval :      840.71   841.06   851.72   857.83   867.52   872.35
eigval :      873.25   873.60   878.27   892.79   895.55   896.44
eigval :      902.87   907.71   908.28   910.51   912.63   914.02
eigval :      917.26   918.66   920.05   920.77   926.69   926.88
eigval :      927.99   928.88   929.23   930.04   930.27   937.34
eigval :      977.28   982.85   990.47  1002.61  1003.33  1004.44
eigval :     1024.20  1055.92  1066.45  1077.41  1080.45  1081.92
eigval :     1088.74  1103.73  1115.85  1121.35  1123.32  1133.31
eigval :     1137.26  1140.13  1141.48  1146.87  1168.45  1179.49
eigval :     1179.64  1179.91  1180.51  1183.29  1186.49  1191.21
eigval :     1191.97  1196.15  1210.67  1216.59  1226.76  1237.98
eigval :     1239.41  1250.60  1259.54  1263.60  1268.62  1272.43
eigval :     1275.43  1275.58  1279.71  1288.90  1295.93  1300.35
eigval :     1303.92  1310.88  1314.44  1317.51  1319.26  1322.85
eigval :     1325.04  1326.87  1329.96  1341.88  1356.20  1364.45
eigval :     1388.74  1399.34  1408.90  1417.87  1423.40  1428.86
eigval :     1431.74  1432.13  1434.31  1437.08  1444.28  1460.85
eigval :     1461.65  1462.62  1465.78  1472.83  1476.49  1485.55
eigval :     1499.03  1512.40  1519.41  1525.37  1537.88  1544.61
eigval :     1560.66  1566.99  1568.30  1572.83  1575.20  1580.96
eigval :     1582.47  1583.15  1587.65  1592.34  2336.02  2356.48
eigval :     3077.04  3078.79  3080.45  3081.30  3081.73  3081.87
eigval :     3082.17  3082.74  3082.80  3083.06  3083.39  3086.14
eigval :     3086.29  3087.43  3089.72  3090.40  3090.47  3091.24
eigval :     3092.26  3093.47  3094.05  3094.28  3094.48  3094.95
eigval :     3101.07  3102.05  3102.84  3103.28  3106.81  3115.18
eigval :     3117.56  3122.06  3122.63
           -------------------------------------------------
          |                Property Printout                |
           -------------------------------------------------
           -------------------------------------------------
          |                Geometry Summary                 |
           -------------------------------------------------

      molecular mass/u    :      739.8645635
   center of mass at/Å    :        0.0003307       0.0003763      -0.0003510
  moments of inertia/u·Å² :        0.8386489E+04   0.2725940E+05   0.3515015E+05
rotational constants/cm⁻¹ :        0.2010094E-02   0.6184154E-03   0.4795892E-03

 * 94 selected distances

     #   Z          #   Z                                           value/Å
     1   7 N        2   6 C                                       1.1476200
     3   6 C        4   6 C                                       1.3972075
     4   6 C        5   6 C                                       1.3774524
     5   6 C        6   6 C                                       1.3980156
     7   6 C        8   6 C                                       1.3975628
     8   6 C        9   6 C                                       1.3737746
     9   6 C       10   6 C                                       1.3993997
    10   6 C       11   6 C                                       1.4144856
     7   6 C       12   6 C                                       1.3957952
    11   6 C       12   6 C                                       1.3926543
    13   6 C       14   6 C                                       1.3798664
    14   6 C       15   6 C                                       1.4067794
    16   6 C       17   6 C                                       1.4078758
    17   6 C       18   6 C                                       1.3723482
    18   6 C       19   6 C                                       1.4016900
    20   6 C       21   7 N                                       1.1496770
    19   6 C       22   6 C                                       1.4018379
    16   6 C       23   6 C                                       1.4076496
    22   6 C       23   6 C                                       1.3722409
    15   6 C       24   6 C                                       1.4126452
    24   6 C       25   6 C                                       1.3602123
    25   6 C       26   6 C                                       1.4229064
    26   6 C       27   6 C                                       1.3911721
    10   6 C       28   6 C                                       1.4192760
    27   6 C       28   6 C                                       1.4363916 (max)
    28   6 C       29   7 N                                       1.3261648
    29   7 N       30   6 C                                       1.3362190
    30   6 C       31   6 C                                       1.4131615
    31   6 C       32   6 C                                       1.4154627
    32   6 C       33   6 C                                       1.3680484
    33   6 C       34   6 C                                       1.4057165
    34   6 C       35   7 N                                       1.3856790
    35   7 N       36   6 C                                       1.3997980
    36   6 C       37   6 C                                       1.3956930
    37   6 C       38   6 C                                       1.3807882
    38   6 C       39   6 C                                       1.3860439
    39   6 C       40   6 C                                       1.3860462
    36   6 C       41   6 C                                       1.3958130
    40   6 C       41   6 C                                       1.3807135
    35   7 N       42   6 C                                       1.4008819
    42   6 C       43   6 C                                       1.3953378
    43   6 C       44   6 C                                       1.3808732
    44   6 C       45   6 C                                       1.3860447
    45   6 C       46   6 C                                       1.3859908
    42   6 C       47   6 C                                       1.3954417
    46   6 C       47   6 C                                       1.3808881
    34   6 C       48   6 C                                       1.4087870
    31   6 C       49   6 C                                       1.4192171
    48   6 C       49   6 C                                       1.3643130
    27   6 C       50   7 N                                       1.3788576
    30   6 C       50   7 N                                       1.4064028
    50   7 N       51   6 C                                       1.4035880
    51   6 C       52   6 C                                       1.3932983
    52   6 C       53   6 C                                       1.3819380
    53   6 C       54   6 C                                       1.3859448
    54   6 C       55   6 C                                       1.3864791
    51   6 C       56   6 C                                       1.3940305
    55   6 C       56   6 C                                       1.3819412
     6   6 C       57   6 C                                       1.3980122
     3   6 C       58   6 C                                       1.3974334
    57   6 C       58   6 C                                       1.3772207
     4   6 C       59   1 H                                       1.0802709
     5   6 C       60   1 H                                       1.0800392
     8   6 C       61   1 H                                       1.0797108
     9   6 C       62   1 H                                       1.0787247
    12   6 C       63   1 H                                       1.0780679
    14   6 C       64   1 H                                       1.0774631
    17   6 C       65   1 H                                       1.0798184
    18   6 C       66   1 H                                       1.0805973
    22   6 C       67   1 H                                       1.0805897
    23   6 C       68   1 H                                       1.0795482
    24   6 C       69   1 H                                       1.0793213
    25   6 C       70   1 H                                       1.0776642
    32   6 C       71   1 H                                       1.0772776 (min)
    33   6 C       72   1 H                                       1.0803401
    37   6 C       73   1 H                                       1.0800407
    38   6 C       74   1 H                                       1.0796694
    39   6 C       75   1 H                                       1.0790458
    40   6 C       76   1 H                                       1.0797212
    41   6 C       77   1 H                                       1.0799798
    43   6 C       78   1 H                                       1.0800984
    44   6 C       79   1 H                                       1.0796654
    45   6 C       80   1 H                                       1.0790420
    46   6 C       81   1 H                                       1.0796208
    47   6 C       82   1 H                                       1.0799403
    48   6 C       83   1 H                                       1.0799383
    49   6 C       84   1 H                                       1.0777827
    52   6 C       85   1 H                                       1.0799657
    53   6 C       86   1 H                                       1.0796603
    54   6 C       87   1 H                                       1.0792488
    55   6 C       88   1 H                                       1.0796696
    56   6 C       89   1 H                                       1.0802508
    57   6 C       90   1 H                                       1.0799035
    58   6 C       91   1 H                                       1.0802869

 * 3 distinct bonds (by element types)

   Z      Z             #   av. dist./Å        max./Å        min./Å
   1 H    6 C          33     1.0794838     1.0805973     1.0772776
   6 C    6 C          51     1.3937239     1.4363916     1.3602123
   6 C    7 N          10     1.3334888     1.4064028     1.1476200

           -------------------------------------------------
          |               Frequency Printout                |
           -------------------------------------------------
 projected vibrational frequencies (cm⁻¹)
eigval :       -0.00    -0.00     0.00     0.00     0.00     0.00
eigval :        5.47     9.07    12.22    17.75    23.43    26.63
eigval :       31.57    35.32    39.22    41.85    48.20    49.93
eigval :       57.99    60.34    65.61    66.21    71.67    81.02
eigval :      101.07   104.18   108.59   117.56   133.06   134.79
eigval :      140.45   147.10   150.15   167.30   183.46   200.76
eigval :      206.94   212.70   232.43   239.58   243.40   249.88
eigval :      262.30   281.60   291.78   308.67   313.02   327.99
eigval :      339.61   362.70   366.54   367.91   370.06   375.75
eigval :      377.60   380.16   384.43   387.93   396.76   407.26
eigval :      409.79   414.14   436.15   439.13   453.96   460.32
eigval :      468.94   473.81   477.47   500.92   508.10   515.40
eigval :      523.55   532.56   536.34   539.67   552.31   565.33
eigval :      578.74   582.29   585.44   588.98   592.22   593.65
eigval :      603.42   604.19   611.73   614.53   623.29   637.22
eigval :      645.22   657.20   660.79   664.41   665.99   670.03
eigval :      676.38   679.14   682.34   693.02   697.60   714.53
eigval :      723.86   739.66   757.06   759.31   764.55   781.08
eigval :      795.49   806.86   808.29   809.80   815.08   834.81
eigval :      840.71   841.06   851.72   857.83   867.52   872.35
eigval :      873.25   873.60   878.27   892.79   895.55   896.44
eigval :      902.87   907.71   908.28   910.51   912.63   914.02
eigval :      917.26   918.66   920.05   920.77   926.69   926.88
eigval :      927.99   928.88   929.23   930.04   930.27   937.34
eigval :      977.28   982.85   990.47  1002.61  1003.33  1004.44
eigval :     1024.20  1055.92  1066.45  1077.41  1080.45  1081.92
eigval :     1088.74  1103.73  1115.85  1121.35  1123.32  1133.31
eigval :     1137.26  1140.13  1141.48  1146.87  1168.45  1179.49
eigval :     1179.64  1179.91  1180.51  1183.29  1186.49  1191.21
eigval :     1191.97  1196.15  1210.67  1216.59  1226.76  1237.98
eigval :     1239.41  1250.60  1259.54  1263.60  1268.62  1272.43
eigval :     1275.43  1275.58  1279.71  1288.90  1295.93  1300.35
eigval :     1303.92  1310.88  1314.44  1317.51  1319.26  1322.85
eigval :     1325.04  1326.87  1329.96  1341.88  1356.20  1364.45
eigval :     1388.74  1399.34  1408.90  1417.87  1423.40  1428.86
eigval :     1431.74  1432.13  1434.31  1437.08  1444.28  1460.85
eigval :     1461.65  1462.62  1465.78  1472.83  1476.49  1485.55
eigval :     1499.03  1512.40  1519.41  1525.37  1537.88  1544.61
eigval :     1560.66  1566.99  1568.30  1572.83  1575.20  1580.96
eigval :     1582.47  1583.15  1587.65  1592.34  2336.02  2356.48
eigval :     3077.04  3078.79  3080.45  3081.30  3081.73  3081.87
eigval :     3082.17  3082.74  3082.80  3083.06  3083.39  3086.14
eigval :     3086.29  3087.43  3089.72  3090.40  3090.47  3091.24
eigval :     3092.26  3093.47  3094.05  3094.28  3094.48  3094.95
eigval :     3101.07  3102.05  3102.84  3103.28  3106.81  3115.18
eigval :     3117.56  3122.06  3122.63
 reduced masses (amu)
   1: 11.66   2: 11.61   3: 11.77   4: 11.76   5: 11.62   6: 11.74   7: 11.55   8: 11.52
   9: 11.20  10: 11.61  11: 11.63  12: 11.78  13: 11.06  14: 10.81  15: 10.23  16: 10.65
  17: 10.64  18: 11.09  19: 10.79  20: 10.51  21: 11.09  22: 11.52  23: 10.69  24: 10.61
  25: 11.67  26: 11.22  27: 10.27  28: 11.07  29: 11.42  30: 11.51  31: 11.85  32: 11.88
  33: 11.59  34: 11.20  35: 11.36  36: 11.32  37: 11.16  38: 10.84  39: 10.62  40: 11.13
  41: 10.81  42: 10.93  43: 11.07  44: 11.12  45: 11.09  46: 10.91  47: 11.03  48: 11.04
  49: 10.59  50: 10.50  51:  9.08  52:  9.57  53: 10.51  54:  9.27  55:  9.06  56:  9.20
  57:  9.96  58: 10.36  59: 10.32  60: 11.03  61: 11.32  62: 11.18  63: 11.10  64:  9.94
  65: 10.80  66: 11.68  67: 10.36  68: 10.67  69: 10.74  70: 10.82  71: 10.87  72: 10.78
  73: 10.62  74: 11.13  75: 11.34  76: 10.59  77:  9.70  78: 11.61  79: 11.35  80: 11.25
  81: 11.19  82: 11.42  83: 11.33  84: 11.51  85: 11.60  86: 11.11  87: 11.52  88: 11.46
  89: 11.17  90: 11.48  91: 11.13  92: 10.80  93: 10.69  94:  9.85  95: 11.27  96: 11.27
  97: 10.98  98: 11.25  99: 11.29 100: 10.93 101: 10.82 102: 11.47 103: 11.57 104:  9.25
 105:  4.05 106:  4.36 107:  8.99 108:  9.71 109:  4.59 110:  4.70 111: 10.96 112:  5.19
 113:  5.20 114:  5.14 115:  4.12 116:  3.57 117:  3.52 118:  3.52 119:  3.35 120:  3.32
 121:  3.37 122:  3.32 123: 10.91 124:  6.19 125:  4.24 126:  3.69 127:  8.74 128:  3.51
 129: 11.04 130:  2.84 131:  3.31 132:  3.31 133:  6.08 134:  3.15 135:  3.56 136:  9.39
 137:  3.82 138:  4.55 139:  3.89 140:  3.28 141:  3.37 142:  3.19 143:  3.21 144: 11.57
 145: 10.68 146: 10.92 147: 10.89 148: 10.37 149:  9.41 150:  9.11 151:  8.87 152: 10.06
 153:  8.19 154:  6.45 155:  6.93 156:  6.58 157:  7.47 158:  8.95 159:  4.42 160:  4.01
 161:  3.93 162:  6.54 163:  5.20 164:  3.65 165:  3.89 166:  5.97 167:  6.97 168:  1.60
 169:  1.35 170:  1.39 171:  4.47 172:  3.38 173:  3.72 174:  2.87 175:  1.91 176:  5.73
 177:  5.95 178:  5.18 179:  7.19 180:  5.24 181:  7.92 182:  7.94 183:  5.46 184:  6.48
 185:  3.97 186:  4.08 187:  3.97 188:  4.02 189:  3.91 190:  8.43 191:  8.89 192: 10.22
 193:  7.78 194:  9.48 195: 11.42 196: 11.14 197: 11.15 198: 10.89 199: 10.54 200: 11.68
 201: 10.84 202: 10.99 203:  9.92 204: 11.13 205: 10.81 206: 10.34 207: 10.13 208: 10.40
 209: 10.67 210: 10.75 211:  9.48 212:  9.10 213:  9.20 214:  9.96 215:  9.53 216:  9.93
 217:  9.19 218:  9.03 219:  9.57 220: 10.98 221: 10.00 222: 10.08 223: 11.34 224: 11.41
 225: 11.64 226: 11.55 227: 11.61 228: 11.46 229: 11.88 230: 11.49 231: 11.44 232: 11.51
 233: 11.46 234: 11.51 235: 11.43 236: 11.45 237: 11.48 238: 11.53 239: 12.78 240: 12.79
 241:  1.78 242:  1.78 243:  1.78 244:  1.79 245:  1.77 246:  1.78 247:  1.75 248:  1.77
 249:  1.78 250:  1.78 251:  1.77 252:  1.80 253:  1.81 254:  1.83 255:  1.87 256:  1.83
 257:  1.83 258:  1.83 259:  1.88 260:  1.88 261:  1.88 262:  1.85 263:  1.88 264:  1.88
 265:  1.82 266:  1.92 267:  1.92 268:  1.92 269:  1.86 270:  1.79 271:  1.85 272:  1.83
 273:  1.83
 IR intensities (km·mol⁻¹)
   1:  2.02   2:  0.97   3:  0.23   4:  0.22   5:  0.06   6:  0.15   7:  0.18   8:  0.35
   9:  0.08  10:  0.55  11:  1.17  12:  0.74  13:  0.50  14:  2.17  15:  1.38  16:  1.88
  17:  3.64  18:  2.97  19:  0.72  20:  2.81  21:  0.43  22:  5.15  23:  5.89  24:  3.31
  25:  3.72  26:  1.08  27:  4.13  28:  0.62  29:  3.59  30:  1.63  31:  8.02  32:  2.86
  33:  3.85  34:  1.07  35:  3.51  36:  4.59  37:  1.86  38:  3.24  39:  2.02  40:  2.13
  41:  7.70  42:  2.12  43:  0.67  44:  3.35  45:  1.13  46:  3.53  47:  3.65  48: 13.88
  49:  3.29  50:  9.04  51:  2.72  52:  5.50  53:  2.11  54:  0.25  55:  1.33  56:  5.80
  57:  2.32  58:  0.60  59: 23.79  60:  3.62  61:  4.50  62:  5.87  63:  3.09  64:  1.18
  65:  8.15  66:  0.41  67:  0.19  68:  1.08  69:  8.14  70: 10.21  71:  3.41  72: 18.46
  73: 11.09  74:  1.34  75:  3.81  76:  2.95  77:  5.64  78:  0.51  79:  2.85  80:  1.61
  81:  1.15  82:  4.00  83:  1.82  84:  1.54  85:  4.65  86:  0.17  87: 16.90  88:  4.02
  89:  4.20  90:  7.80  91:  0.56  92:  3.66  93:  3.80  94: 35.35  95:  1.78  96:  8.45
  97:  9.70  98:  7.71  99:  5.07 100:  0.24 101:  7.00 102: 11.49 103:  6.53 104: 81.53
 105: 46.56 106:  8.37 107:  3.62 108:  7.59 109: 23.63 110: 22.92 111:  6.59 112: 20.50
 113:  4.02 114:  2.34 115:  5.98 116:  6.67 117:  6.59 118:  2.40 119:  8.35 120:  1.29
 121:  1.35 122:  9.36 123:  4.11 124: 74.18 125:  6.15 126:  0.59 127: 99.69 128:  2.64
 129:  2.64 130:  0.29 131:  1.07 132:  1.95 133: 22.13 134:  1.78 135:  0.36 136:165.31
 137:  1.13 138: 23.33 139:  1.78 140:  9.28 141:  4.96 142:  4.61 143:  0.54 144:227.17
 145: 29.77 146: 14.94 147:196.79 148:  8.29 149: 11.69 150: 41.81 151: 32.41 152:  2.10
 153: 13.96 154:  4.23 155: 13.01 156:  0.16 157: 10.72 158:158.94 159:120.03 160:  1.71
 161:  0.04 162:564.83 163:468.59 164:  1.56 165: 46.25 166:107.27 167: 49.69 168:  5.47
 169:  0.86 170:  0.40 171:110.44 172:197.13 173:118.10 174: 21.27 175:  7.19 176: 19.37
 177:133.49 178: 61.18 179:514.02 180: 33.00 181:170.13 182:210.96 183: 39.41 184:  2.22
 185: 17.64 186: 10.41 187:  9.90 188:  7.59 189: 33.87 190:149.07 191:196.23 192:158.73
 193:170.81 194: 19.01 195: 20.53 196: 25.83 197:  3.39 198: 28.20 199:429.85 200: 27.38
 201: 17.80 202:  5.59 203:183.10 204: 41.80 205: 54.19 206: 27.47 207: 24.20 208: 99.25
 209: 49.90 210:  4.14 211:143.45 212:  2.09 213: 93.15 214: 32.02 215:213.39 216: 44.54
 217: 24.97 218: 54.29 219:212.74 220:  4.71 221:166.42 222: 14.65 223: 14.04 224:509.20
 225:469.91 226:370.43 227: 31.69 228:392.84 229:147.41 230:  5.18 231:  3.46 232:  4.65
 233:239.77 234:412.75 235: 16.60 236:531.99 237: 53.80 238: 50.64 239:****** 240:******
 241:  5.65 242: 51.87 243:  2.00 244: 17.02 245:  9.20 246: 30.50 247: 19.40 248: 20.45
 249:  2.56 250:  5.38 251: 11.07 252: 13.32 253: 10.73 254: 11.80 255: 16.51 256: 17.82
 257: 23.27 258:  1.70 259: 23.35 260: 41.19 261:  9.11 262:108.72 263: 81.38 264: 51.87
 265:  0.08 266: 29.87 267: 62.74 268: 52.00 269: 63.60 270:  8.29 271: 50.11 272: 25.09
 273: 56.33
 Raman intensities (Ä⁴*amu⁻¹)
   1:  0.00   2:  0.00   3:  0.00   4:  0.00   5:  0.00   6:  0.00   7:  0.00   8:  0.00
   9:  0.00  10:  0.00  11:  0.00  12:  0.00  13:  0.00  14:  0.00  15:  0.00  16:  0.00
  17:  0.00  18:  0.00  19:  0.00  20:  0.00  21:  0.00  22:  0.00  23:  0.00  24:  0.00
  25:  0.00  26:  0.00  27:  0.00  28:  0.00  29:  0.00  30:  0.00  31:  0.00  32:  0.00
  33:  0.00  34:  0.00  35:  0.00  36:  0.00  37:  0.00  38:  0.00  39:  0.00  40:  0.00
  41:  0.00  42:  0.00  43:  0.00  44:  0.00  45:  0.00  46:  0.00  47:  0.00  48:  0.00
  49:  0.00  50:  0.00  51:  0.00  52:  0.00  53:  0.00  54:  0.00  55:  0.00  56:  0.00
  57:  0.00  58:  0.00  59:  0.00  60:  0.00  61:  0.00  62:  0.00  63:  0.00  64:  0.00
  65:  0.00  66:  0.00  67:  0.00  68:  0.00  69:  0.00  70:  0.00  71:  0.00  72:  0.00
  73:  0.00  74:  0.00  75:  0.00  76:  0.00  77:  0.00  78:  0.00  79:  0.00  80:  0.00
  81:  0.00  82:  0.00  83:  0.00  84:  0.00  85:  0.00  86:  0.00  87:  0.00  88:  0.00
  89:  0.00  90:  0.00  91:  0.00  92:  0.00  93:  0.00  94:  0.00  95:  0.00  96:  0.00
  97:  0.00  98:  0.00  99:  0.00 100:  0.00 101:  0.00 102:  0.00 103:  0.00 104:  0.00
 105:  0.00 106:  0.00 107:  0.00 108:  0.00 109:  0.00 110:  0.00 111:  0.00 112:  0.00
 113:  0.00 114:  0.00 115:  0.00 116:  0.00 117:  0.00 118:  0.00 119:  0.00 120:  0.00
 121:  0.00 122:  0.00 123:  0.00 124:  0.00 125:  0.00 126:  0.00 127:  0.00 128:  0.00
 129:  0.00 130:  0.00 131:  0.00 132:  0.00 133:  0.00 134:  0.00 135:  0.00 136:  0.00
 137:  0.00 138:  0.00 139:  0.00 140:  0.00 141:  0.00 142:  0.00 143:  0.00 144:  0.00
 145:  0.00 146:  0.00 147:  0.00 148:  0.00 149:  0.00 150:  0.00 151:  0.00 152:  0.00
 153:  0.00 154:  0.00 155:  0.00 156:  0.00 157:  0.00 158:  0.00 159:  0.00 160:  0.00
 161:  0.00 162:  0.00 163:  0.00 164:  0.00 165:  0.00 166:  0.00 167:  0.00 168:  0.00
 169:  0.00 170:  0.00 171:  0.00 172:  0.00 173:  0.00 174:  0.00 175:  0.00 176:  0.00
 177:  0.00 178:  0.00 179:  0.00 180:  0.00 181:  0.00 182:  0.00 183:  0.00 184:  0.00
 185:  0.00 186:  0.00 187:  0.00 188:  0.00 189:  0.00 190:  0.00 191:  0.00 192:  0.00
 193:  0.00 194:  0.00 195:  0.00 196:  0.00 197:  0.00 198:  0.00 199:  0.00 200:  0.00
 201:  0.00 202:  0.00 203:  0.00 204:  0.00 205:  0.00 206:  0.00 207:  0.00 208:  0.00
 209:  0.00 210:  0.00 211:  0.00 212:  0.00 213:  0.00 214:  0.00 215:  0.00 216:  0.00
 217:  0.00 218:  0.00 219:  0.00 220:  0.00 221:  0.00 222:  0.00 223:  0.00 224:  0.00
 225:  0.00 226:  0.00 227:  0.00 228:  0.00 229:  0.00 230:  0.00 231:  0.00 232:  0.00
 233:  0.00 234:  0.00 235:  0.00 236:  0.00 237:  0.00 238:  0.00 239:  0.00 240:  0.00
 241:  0.00 242:  0.00 243:  0.00 244:  0.00 245:  0.00 246:  0.00 247:  0.00 248:  0.00
 249:  0.00 250:  0.00 251:  0.00 252:  0.00 253:  0.00 254:  0.00 255:  0.00 256:  0.00
 257:  0.00 258:  0.00 259:  0.00 260:  0.00 261:  0.00 262:  0.00 263:  0.00 264:  0.00
 265:  0.00 266:  0.00 267:  0.00 268:  0.00 269:  0.00 270:  0.00 271:  0.00 272:  0.00
 273:  0.00
 output can be read by thermo (or use thermo option).
 writing <g98.out> molden fake output.
 recommended (thermochemical) frequency scaling factor: 1.0
           -------------------------------------------------
          |             Thermodynamic Functions             |
           -------------------------------------------------

Refinement of some symmetry elements was terminated before convergence was reached.
Some symmetry elements may remain unidentified.
Molecule has no symmetry elements
It seems to be the C1 point group
c1  symmetry found (for desy threshold:  0.10E+00) used in thermo

          ...................................................
          :                      SETUP                      :
          :.................................................:
          :  # frequencies                         267      :
          :  # imaginary freq.                       0      :
          :  linear?                             false      :
          :  only rotor calc.                    false      :
          :  symmetry                               c1      :
          :  rotational number                       1      :
          :  scaling factor                  1.0000000      :
          :  rotor cutoff                   50.0000000 cm⁻¹ :
          :  imag. cutoff                  -20.0000000 cm⁻¹ :
          :.................................................:

    mode    ω/cm⁻¹     T·S(HO)/kcal·mol⁻¹    T·S(FR)/kcal·mol⁻¹   T·S(vib)
   ------------------------------------------------------------------------
       1      5.47    -2.74621 (  0.01%)    -1.71217 ( 99.99%)    -1.71232
       2      9.07    -2.44640 (  0.11%)    -1.56227 ( 99.89%)    -1.56322
       3     12.22    -2.26960 (  0.36%)    -1.47386 ( 99.64%)    -1.47669
       4     17.75    -2.04866 (  1.56%)    -1.36334 ( 98.44%)    -1.37406
       5     23.43    -1.88419 (  4.60%)    -1.28104 ( 95.40%)    -1.30881
       6     26.63    -1.80863 (  7.44%)    -1.24322 ( 92.56%)    -1.28530
       7     31.57    -1.70792 ( 13.71%)    -1.19278 ( 86.29%)    -1.26341
       8     35.32    -1.64145 ( 19.94%)    -1.15948 ( 80.06%)    -1.25560
       9     39.22    -1.57967 ( 27.46%)    -1.12851 ( 72.54%)    -1.25237
      10     41.85    -1.54136 ( 32.91%)    -1.10929 ( 67.09%)    -1.25149
      11     48.20    -1.45789 ( 46.35%)    -1.06739 ( 53.65%)    -1.24837
      12     49.93    -1.43717 ( 49.85%)    -1.05699 ( 50.15%)    -1.24652
      13     57.99    -1.34899 ( 64.40%)    -1.01264 ( 35.60%)    -1.22925
      14     60.34    -1.32557 ( 67.96%)    -1.00086 ( 32.04%)    -1.22154
      15     65.61    -1.27632 ( 74.78%)    -0.97604 ( 25.22%)    -1.20060
      16     66.21    -1.27105 ( 75.45%)    -0.97338 ( 24.55%)    -1.19798
      17     71.67    -1.22445 ( 80.85%)    -0.94987 ( 19.15%)    -1.17187
      18     81.02    -1.15266 ( 87.33%)    -0.91356 ( 12.67%)    -1.12237
      19    101.07    -1.02372 ( 94.35%)    -0.84806 (  5.65%)    -1.01379
      20    104.18    -1.00610 ( 94.96%)    -0.83907 (  5.04%)    -0.99769
      21    108.59    -0.98207 ( 95.70%)    -0.82678 (  4.30%)    -0.97539
      22    117.56    -0.93621 ( 96.83%)    -0.80328 (  3.17%)    -0.93200
      23    133.06    -0.86503 ( 98.05%)    -0.76660 (  1.95%)    -0.86311
      24    134.79    -0.85765 ( 98.14%)    -0.76277 (  1.86%)    -0.85589
      25    140.45    -0.83416 ( 98.42%)    -0.75059 (  1.58%)    -0.83284
      26    147.10    -0.80781 ( 98.68%)    -0.73688 (  1.32%)    -0.80687
      27    150.15    -0.79617 ( 98.79%)    -0.73081 (  1.21%)    -0.79538
      28    167.30    -0.73511 ( 99.21%)    -0.69875 (  0.79%)    -0.73482
      29    183.46    -0.68363 ( 99.45%)    -0.67144 (  0.55%)    -0.68356
      30    200.76    -0.63391 ( 99.62%)    -0.64475 (  0.38%)    -0.63395
      31    206.94    -0.61732 ( 99.66%)    -0.63577 (  0.34%)    -0.61739
      32    212.70    -0.60239 ( 99.70%)    -0.62764 (  0.30%)    -0.60246
      33    232.43    -0.55458 ( 99.79%)    -0.60135 (  0.21%)    -0.55468
      34    239.58    -0.53847 ( 99.81%)    -0.59238 (  0.19%)    -0.53857
      35    243.40    -0.53008 ( 99.82%)    -0.58770 (  0.18%)    -0.53019
      36    249.88    -0.51623 ( 99.84%)    -0.57991 (  0.16%)    -0.51633
      37    262.30    -0.49088 ( 99.87%)    -0.56554 (  0.13%)    -0.49098
      38    281.60    -0.45436 ( 99.90%)    -0.54451 (  0.10%)    -0.45445
      39    291.78    -0.43638 ( 99.91%)    -0.53398 (  0.09%)    -0.43646
   ------------------------------------------------------------------------

   temp. (K)  partition function   enthalpy   heat capacity  entropy
                                   cal/mol     cal/K/mol   cal/K/mol   J/K/mol
 298.15  VIB  0.168E+24            27923.945    170.923    177.052
         ROT  0.217E+09              888.752      2.981     41.123
         INT  0.363E+32            28812.697    173.904    218.175
         TR   0.195E+29             1481.254      4.968     45.663
         TOT                       30293.9513   178.8721   263.8378  1103.8975

       T/K    H(0)-H(T)+PV         H(T)/Eh          T*S/Eh         G(T)/Eh
   ------------------------------------------------------------------------
    298.15    0.482765E-01    0.731262E+00    0.125358E+00    0.605904E+00
   ------------------------------------------------------------------------

         :::::::::::::::::::::::::::::::::::::::::::::::::::::
         ::                  THERMODYNAMIC                  ::
         :::::::::::::::::::::::::::::::::::::::::::::::::::::
         :: total free energy        -144.234919866531 Eh   ::
         ::.................................................::
         :: total energy             -144.840824363004 Eh   ::
         :: zero point energy           0.682985886284 Eh   ::
         :: G(RRHO) w/o ZPVE           -0.077081389811 Eh   ::
         :: G(RRHO) contrib.            0.605904496473 Eh   ::
         :::::::::::::::::::::::::::::::::::::::::::::::::::::

optimized geometry written to: xtbopt.xyz


           -------------------------------------------------
          | TOTAL ENERGY             -144.840824363004 Eh   |
          | TOTAL ENTHALPY           -144.109561992325 Eh   |
          | TOTAL FREE ENERGY        -144.234919866531 Eh   |
          | GRADIENT NORM               0.000142597500 Eh/α |
           -------------------------------------------------

------------------------------------------------------------------------
 * finished run on 2025/07/20 at 03:48:57.276     
------------------------------------------------------------------------
 total:
 * wall-time:     0 d,  0 h,  0 min, 10.896 sec
 *  cpu-time:     0 d,  0 h,  6 min, 40.046 sec
 * ratio c/w:    36.716 speedup
 SCF:
 * wall-time:     0 d,  0 h,  0 min,  0.391 sec
 *  cpu-time:     0 d,  0 h,  0 min, 15.482 sec
 * ratio c/w:    39.577 speedup
 ANC optimizer:
 * wall-time:     0 d,  0 h,  0 min,  2.834 sec
 *  cpu-time:     0 d,  0 h,  1 min, 53.333 sec
 * ratio c/w:    39.988 speedup
 analytical hessian:
 * wall-time:     0 d,  0 h,  0 min,  7.609 sec
 *  cpu-time:     0 d,  0 h,  4 min, 29.963 sec
 * ratio c/w:    35.478 speedup

