 Entering Gaussian System
 *********************************************
 Gaussian 98:
 frequency output generated by the xtb code
 *********************************************
                         Standard orientation:
 --------------------------------------------------------------------
  Center     Atomic     Atomic              Coordinates (Angstroms)
  Number     Number      Type              X           Y           Z
 --------------------------------------------------------------------
    1          7             0       -9.607780   -6.848303    0.064890
    2          6             0       -8.654158   -6.209971    0.075796
    3          6             0       -7.479834   -5.428395    0.088826
    4          6             0       -7.455315   -4.207094    0.767099
    5          6             0       -6.305537   -3.448611    0.773873
    6          6             0       -5.151688   -3.884579    0.115795
    7          6             0       -3.928600   -3.079979    0.131221
    8          6             0       -2.677440   -3.692828    0.242246
    9          6             0       -1.537307   -2.926513    0.249662
   10          6             0       -1.614169   -1.533221    0.144379
   11          6             0       -2.865935   -0.881356    0.051127
   12          6             0       -4.000354   -1.689024    0.038964
   13          6             0       -2.930517    0.578717   -0.014289
   14          6             0       -4.138901    1.244877   -0.005986
   15          6             0       -4.255789    2.646629   -0.020720
   16          6             0       -5.550331    3.288326   -0.014763
   17          6             0       -6.677884    2.665369   -0.582625
   18          6             0       -7.907661    3.274515   -0.584103
   19          6             0       -8.068109    4.540312   -0.003831
   20          6             0       -9.325776    5.167224    0.001835
   21          7             0      -10.353794    5.681871    0.006545
   22          6             0       -6.957365    5.174632    0.569740
   23          6             0       -5.729489    4.562042    0.556996
   24          6             0       -3.059144    3.397262   -0.025874
   25          6             0       -1.846030    2.782501   -0.053536
   26          6             0       -1.721664    1.365095   -0.061081
   27          6             0       -0.507212    0.686344   -0.069025
   28          6             0       -0.439272   -0.738233    0.101761
   29          7             0        0.820216   -1.144119    0.188159
   30          6             0        1.592294   -0.063732    0.039313
   31          6             0        3.001485   -0.161005   -0.002532
   32          6             0        3.875160    0.821935   -0.526019
   33          6             0        5.230400    0.634921   -0.515449
   34          6             0        5.800463   -0.539535    0.005814
   35          7             0        7.175654   -0.708221    0.032339
   36          6             0        8.019343    0.393547    0.215450
   37          6             0        9.233736    0.472393   -0.467947
   38          6             0       10.065020    1.558949   -0.281032
   39          6             0        9.700771    2.581368    0.581008
   40          6             0        8.495287    2.507665    1.261072
   41          6             0        7.658463    1.423556    1.085627
   42          6             0        7.735099   -1.983188   -0.122381
   43          6             0        8.852944   -2.356782    0.624491
   44          6             0        9.402816   -3.613581    0.466581
   45          6             0        8.848587   -4.514274   -0.429353
   46          6             0        7.737862   -4.147179   -1.172656
   47          6             0        7.182483   -2.891405   -1.026304
   48          6             0        4.938016   -1.544416    0.486546
   49          6             0        3.586076   -1.361841    0.477637
   50          7             0        0.809191    1.094109   -0.115824
   51          6             0        1.301457    2.404510   -0.217428
   52          6             0        2.057036    2.942622    0.822237
   53          6             0        2.559217    4.225411    0.712570
   54          6             0        2.312746    4.977817   -0.424988
   55          6             0        1.559951    4.443107   -1.459255
   56          6             0        1.054961    3.160399   -1.362517
   57          6             0       -5.188400   -5.110055   -0.556070
   58          6             0       -6.334181   -5.873908   -0.575886
   59          1             0       -8.340499   -3.868286    1.285414
   60          1             0       -6.287642   -2.516770    1.319608
   61          1             0       -2.611444   -4.765623    0.344828
   62          1             0       -0.558702   -3.372967    0.331250
   63          1             0       -4.978689   -1.250531   -0.074456
   64          1             0       -5.053249    0.679001    0.062834
   65          1             0       -6.569809    1.704590   -1.063489
   66          1             0       -8.760331    2.788784   -1.036545
   67          1             0       -7.081214    6.146663    1.025253
   68          1             0       -4.893137    5.055155    1.029010
   69          1             0       -3.104605    4.475548   -0.040579
   70          1             0       -0.951563    3.383584   -0.052669
   71          1             0        3.478220    1.711426   -0.986271
   72          1             0        5.878115    1.387498   -0.941188
   73          1             0        9.512400   -0.318049   -1.149145
   74          1             0       11.000341    1.611698   -0.817758
   75          1             0       10.352718    3.429425    0.722800
   76          1             0        8.208794    3.296452    1.940439
   77          1             0        6.726639    1.357957    1.627613
   78          1             0        9.277210   -1.659136    1.331526
   79          1             0       10.265001   -3.894616    1.052532
   80          1             0        9.280215   -5.496093   -0.547955
   81          1             0        7.305372   -4.841056   -1.877688
   82          1             0        6.325952   -2.599242   -1.615598
   83          1             0        5.361264   -2.452892    0.888767
   84          1             0        2.923121   -2.120194    0.861024
   85          1             0        2.243806    2.347660    1.703964
   86          1             0        3.141390    4.641935    1.520807
   87          1             0        2.706097    5.979546   -0.506190
   88          1             0        1.368909    5.026153   -2.347652
   89          1             0        0.470063    2.733605   -2.164198
   90          1             0       -4.312531   -5.450528   -1.088154
   91          1             0       -6.358209   -6.815960   -1.104065
 --------------------------------------------------------------------
     1 basis functions        1 primitive gaussians
     1 alpha electrons        1 beta electrons
 
 Harmonic frequencies (cm**-1), IR intensities (km*mol⁻¹),
 Raman scattering activities (A**4/amu), Raman depolarization ratios,
 reduced masses (AMU), force constants (mDyne/A) and normal coordinates:
                      1                      2                      3
                        a                      a                      a 
 Frequencies --     5.6381                 8.6943                12.5996
 Red. masses --    11.5722                11.5058                11.1542
 Frc consts  --     0.0000                 0.0000                 0.0000
 IR Inten    --     4.0494                 2.5336                 8.8295
 Raman Activ --     0.0000                 0.0000                 0.0000
 Depolar     --     0.0000                 0.0000                 0.0000
 Atom AN      X      Y      Z        X      Y      Z        X      Y      Z
   1   7    -0.02   0.02  -0.17    -0.03   0.02   0.26    -0.11   0.07   0.12
   2   6    -0.01   0.01  -0.13    -0.03   0.02   0.19    -0.09   0.05   0.08
   3   6    -0.01   0.01  -0.10    -0.02   0.01   0.12    -0.08   0.03   0.04
   4   6    -0.03   0.01  -0.11     0.01   0.01   0.12    -0.03   0.02   0.07
   5   6    -0.02   0.01  -0.08     0.02   0.01   0.06    -0.02   0.00   0.04
   6   6    -0.01   0.00  -0.05    -0.02   0.00   0.01    -0.06  -0.00  -0.02
   7   6    -0.01  -0.00  -0.03    -0.01  -0.00  -0.04    -0.04  -0.02  -0.05
   8   6    -0.01  -0.00  -0.00    -0.01  -0.01  -0.09    -0.05  -0.04  -0.10
   9   6    -0.01  -0.00   0.01    -0.01  -0.02  -0.12    -0.04  -0.05  -0.12
  10   6    -0.00  -0.00  -0.01    -0.00  -0.01  -0.11    -0.02  -0.05  -0.08
  11   6    -0.00  -0.00  -0.02    -0.00  -0.01  -0.08    -0.02  -0.03  -0.04
  12   6    -0.00  -0.00  -0.04    -0.01  -0.00  -0.04    -0.03  -0.02  -0.02
  13   6    -0.00  -0.00  -0.02     0.00  -0.01  -0.08    -0.01  -0.03  -0.01
  14   6     0.00  -0.00   0.02     0.01  -0.00  -0.05     0.00  -0.02  -0.01
  15   6     0.01  -0.00   0.01     0.01  -0.00  -0.04     0.02  -0.02   0.02
  16   6     0.01   0.00   0.07     0.01   0.00  -0.01     0.03  -0.00   0.01
  17   6    -0.02   0.00   0.13    -0.00   0.01   0.02     0.03   0.03  -0.04
  18   6    -0.02   0.01   0.19    -0.00   0.02   0.06     0.04   0.05  -0.06
  19   6     0.01   0.01   0.19     0.02   0.01   0.08     0.04   0.04  -0.03
  20   6     0.01   0.01   0.26     0.02   0.02   0.12     0.05   0.06  -0.06
  21   7     0.01   0.01   0.34     0.03   0.02   0.17     0.07   0.08  -0.08
  22   6     0.04   0.01   0.13     0.04   0.00   0.05     0.03   0.00   0.02
  23   6     0.04   0.01   0.07     0.04  -0.00   0.01     0.03  -0.01   0.04
  24   6     0.01  -0.00  -0.05     0.01  -0.01  -0.07     0.03  -0.03   0.07
  25   6     0.00  -0.01  -0.08     0.01  -0.01  -0.10     0.02  -0.04   0.07
  26   6     0.00  -0.01  -0.06     0.01  -0.01  -0.10     0.00  -0.04   0.02
  27   6    -0.00  -0.01  -0.06     0.00  -0.02  -0.11    -0.00  -0.05  -0.02
  28   6    -0.00  -0.01  -0.02    -0.00  -0.02  -0.13    -0.02  -0.06  -0.07
  29   7    -0.00  -0.01  -0.00    -0.00  -0.03  -0.15    -0.02  -0.08  -0.10
  30   6    -0.00  -0.01  -0.03     0.00  -0.02  -0.13    -0.01  -0.08  -0.06
  31   6    -0.00  -0.01  -0.02     0.00  -0.02  -0.11    -0.01  -0.07  -0.08
  32   6    -0.00  -0.04  -0.07     0.01  -0.01  -0.06    -0.03  -0.07  -0.10
  33   6    -0.00  -0.03  -0.05     0.01   0.00  -0.01    -0.03  -0.04  -0.09
  34   6    -0.00  -0.00   0.02     0.00  -0.01  -0.03    -0.00  -0.01  -0.06
  35   7    -0.00   0.01   0.04     0.01   0.00   0.03     0.00   0.03  -0.03
  36   6    -0.01   0.02  -0.01    -0.02   0.01   0.13    -0.04   0.07  -0.06
  37   6    -0.00  -0.01  -0.00     0.02   0.06   0.20    -0.04   0.08  -0.05
  38   6    -0.01   0.00  -0.05    -0.01   0.06   0.31    -0.08   0.12  -0.09
  39   6    -0.02   0.05  -0.11    -0.07   0.01   0.33    -0.12   0.14  -0.13
  40   6    -0.03   0.08  -0.12    -0.11  -0.04   0.26    -0.12   0.12  -0.13
  41   6    -0.02   0.07  -0.07    -0.09  -0.04   0.16    -0.08   0.08  -0.10
  42   6     0.01   0.00   0.12     0.03   0.02  -0.00     0.05   0.04   0.03
  43   6     0.00   0.05   0.15    -0.00  -0.00   0.03     0.05   0.12   0.07
  44   6     0.01   0.04   0.23     0.02   0.01  -0.01     0.10   0.13   0.13
  45   6     0.03  -0.01   0.27     0.06   0.04  -0.07     0.15   0.07   0.16
  46   6     0.04  -0.06   0.24     0.09   0.07  -0.10     0.15   0.00   0.12
  47   6     0.03  -0.05   0.16     0.07   0.05  -0.07     0.10  -0.01   0.06
  48   6    -0.00   0.02   0.06    -0.01  -0.03  -0.10     0.01  -0.03  -0.05
  49   6    -0.00   0.01   0.03    -0.01  -0.04  -0.13     0.01  -0.06  -0.06
  50   7    -0.00  -0.02  -0.08     0.00  -0.02  -0.12    -0.00  -0.07  -0.02
  51   6     0.00  -0.02  -0.12     0.00  -0.02  -0.10     0.03  -0.07   0.07
  52   6     0.02   0.01  -0.15    -0.02  -0.02  -0.09     0.07  -0.17   0.09
  53   6     0.02   0.00  -0.19    -0.03  -0.01  -0.08     0.10  -0.17   0.17
  54   6     0.01  -0.03  -0.21    -0.00  -0.02  -0.08     0.10  -0.08   0.23
  55   6    -0.01  -0.06  -0.19     0.02  -0.02  -0.10     0.06   0.02   0.21
  56   6    -0.01  -0.06  -0.14     0.02  -0.02  -0.11     0.02   0.02   0.13
  57   6     0.01  -0.00  -0.05    -0.05   0.00   0.01    -0.10   0.01  -0.04
  58   6     0.00   0.00  -0.07    -0.06   0.01   0.07    -0.11   0.03  -0.01
  59   1    -0.01   0.00  -0.04     0.01   0.01   0.05    -0.00   0.01   0.03
  60   1    -0.01   0.00  -0.02     0.01   0.00   0.02     0.00  -0.00   0.02
  61   1    -0.00  -0.00   0.00    -0.00  -0.00  -0.03    -0.02  -0.01  -0.04
  62   1    -0.00  -0.00   0.01    -0.00  -0.01  -0.04    -0.01  -0.02  -0.04
  63   1    -0.00   0.00  -0.02    -0.00   0.00  -0.00    -0.01  -0.00   0.01
  64   1     0.00   0.00   0.02     0.00   0.00  -0.01    -0.00  -0.00  -0.01
  65   1    -0.01   0.00   0.04    -0.01   0.00   0.00     0.01   0.01  -0.02
  66   1    -0.01   0.00   0.07    -0.00   0.01   0.02     0.01   0.02  -0.03
  67   1     0.02   0.00   0.04     0.02  -0.00   0.02     0.01  -0.00   0.01
  68   1     0.02   0.00   0.01     0.01  -0.00  -0.00     0.01  -0.01   0.02
  69   1     0.00  -0.00  -0.02     0.01  -0.00  -0.02     0.01  -0.01   0.03
  70   1     0.00  -0.00  -0.04     0.00  -0.00  -0.03     0.01  -0.01   0.03
  71   1    -0.00  -0.02  -0.03     0.01   0.00  -0.01    -0.01  -0.03  -0.04
  72   1    -0.00  -0.01  -0.02     0.01   0.01   0.01    -0.01  -0.01  -0.03
  73   1     0.00  -0.01   0.01     0.02   0.03   0.05    -0.00   0.02  -0.01
  74   1    -0.00  -0.01  -0.01     0.01   0.03   0.11    -0.02   0.04  -0.02
  75   1    -0.01   0.02  -0.04    -0.03   0.00   0.12    -0.04   0.05  -0.04
  76   1    -0.01   0.03  -0.05    -0.05  -0.02   0.08    -0.05   0.04  -0.05
  77   1    -0.01   0.03  -0.02    -0.03  -0.02   0.03    -0.02   0.02  -0.03
  78   1    -0.00   0.03   0.04    -0.01  -0.01   0.02     0.00   0.05   0.01
  79   1     0.00   0.02   0.08    -0.00  -0.00   0.00     0.03   0.05   0.05
  80   1     0.01  -0.00   0.10     0.02   0.02  -0.03     0.06   0.02   0.06
  81   1     0.01  -0.03   0.08     0.04   0.03  -0.04     0.06  -0.01   0.04
  82   1     0.01  -0.03   0.04     0.03   0.02  -0.03     0.03  -0.02   0.01
  83   1    -0.00   0.01   0.03    -0.00  -0.01  -0.03     0.01  -0.00  -0.01
  84   1    -0.00   0.01   0.02    -0.01  -0.02  -0.05     0.01  -0.02  -0.02
  85   1     0.01   0.01  -0.04    -0.01  -0.00  -0.02     0.02  -0.07   0.01
  86   1     0.01   0.01  -0.06    -0.01  -0.00  -0.02     0.04  -0.07   0.05
  87   1     0.00  -0.01  -0.07    -0.00  -0.00  -0.02     0.04  -0.03   0.08
  88   1    -0.01  -0.03  -0.06     0.01  -0.01  -0.03     0.02   0.02   0.07
  89   1    -0.01  -0.02  -0.03     0.01  -0.01  -0.04    -0.00   0.03   0.03
  90   1     0.01  -0.00  -0.01    -0.02  -0.00  -0.01    -0.04   0.00  -0.02
  91   1     0.00  -0.00  -0.02    -0.03   0.00   0.02    -0.04   0.01  -0.01
                      4                      5                      6
                        a                      a                      a 
 Frequencies --    17.4437                23.3414                26.1889
 Red. masses --    11.6230                11.4466                11.9241
 Frc consts  --     0.0000                 0.0000                 0.0000
 IR Inten    --     8.3629                 4.9070                 0.5628
 Raman Activ --     0.0000                 0.0000                 0.0000
 Depolar     --     0.0000                 0.0000                 0.0000
 Atom AN      X      Y      Z        X      Y      Z        X      Y      Z
   1   7     0.11  -0.11   0.27     0.15  -0.23   0.11     0.19  -0.34   0.04
   2   6     0.08  -0.07   0.17     0.11  -0.16   0.06     0.12  -0.24   0.02
   3   6     0.06  -0.04   0.08     0.07  -0.10   0.01     0.07  -0.16  -0.01
   4   6     0.07  -0.03   0.06     0.07  -0.14   0.07    -0.02  -0.12  -0.08
   5   6     0.06  -0.01  -0.01     0.04  -0.10   0.03    -0.06  -0.06  -0.09
   6   6     0.03   0.01  -0.07     0.02  -0.02  -0.06    -0.01  -0.04  -0.02
   7   6     0.02   0.02  -0.12     0.01  -0.00  -0.06    -0.03  -0.01   0.00
   8   6     0.03   0.03  -0.16     0.01  -0.00  -0.13    -0.03   0.00   0.07
   9   6     0.02   0.04  -0.17     0.01   0.01  -0.11    -0.03   0.00   0.08
  10   6     0.01   0.04  -0.14    -0.01   0.01  -0.04    -0.04   0.00   0.03
  11   6     0.00   0.03  -0.12    -0.01   0.01   0.01    -0.04  -0.00  -0.01
  12   6     0.01   0.02  -0.11    -0.01   0.00   0.01    -0.03  -0.01  -0.03
  13   6    -0.01   0.03  -0.11    -0.01   0.01   0.08    -0.03  -0.00  -0.04
  14   6    -0.01   0.02  -0.10    -0.01   0.02   0.09    -0.03   0.01  -0.02
  15   6    -0.03   0.02  -0.08    -0.01   0.02   0.16    -0.01   0.01  -0.06
  16   6    -0.03   0.00  -0.05    -0.00   0.03   0.13     0.01   0.05  -0.02
  17   6    -0.04  -0.00  -0.03     0.03   0.09  -0.01    -0.05   0.06   0.08
  18   6    -0.05  -0.03   0.01     0.05   0.12  -0.09    -0.02   0.13   0.10
  19   6    -0.06  -0.04   0.05     0.03   0.10  -0.03     0.07   0.17   0.02
  20   6    -0.07  -0.07   0.10     0.06   0.14  -0.14     0.11   0.25   0.03
  21   7    -0.09  -0.10   0.16     0.08   0.20  -0.25     0.16   0.35   0.05
  22   6    -0.05  -0.03   0.03    -0.01   0.03   0.12     0.13   0.15  -0.06
  23   6    -0.04  -0.01  -0.02    -0.02  -0.01   0.20     0.09   0.09  -0.08
  24   6    -0.03   0.03  -0.07    -0.01   0.02   0.25    -0.00  -0.00  -0.16
  25   6    -0.03   0.04  -0.08    -0.01   0.02   0.22    -0.01  -0.01  -0.16
  26   6    -0.01   0.04  -0.09    -0.01   0.02   0.11    -0.02  -0.01  -0.08
  27   6    -0.00   0.06  -0.08    -0.01   0.02   0.04    -0.03  -0.01  -0.03
  28   6     0.00   0.05  -0.12    -0.01   0.01  -0.02    -0.03  -0.01   0.02
  29   7     0.00   0.06  -0.11    -0.01   0.01  -0.06    -0.04  -0.01   0.05
  30   6    -0.00   0.06  -0.05    -0.01   0.02  -0.03    -0.03  -0.02   0.02
  31   6    -0.00   0.06  -0.01    -0.01   0.01  -0.05    -0.03  -0.02   0.03
  32   6     0.02   0.06   0.02    -0.00   0.01  -0.04    -0.04  -0.02   0.02
  33   6     0.02   0.04   0.03    -0.00  -0.00  -0.04    -0.04  -0.01   0.02
  34   6    -0.01   0.03   0.02    -0.01  -0.01  -0.03    -0.03  -0.01   0.03
  35   7    -0.01  -0.01   0.02    -0.02  -0.01  -0.02    -0.03   0.00   0.02
  36   6     0.03  -0.04  -0.02    -0.01  -0.02  -0.00    -0.04   0.01   0.00
  37   6     0.03  -0.11  -0.03     0.01  -0.04   0.03    -0.06   0.04  -0.02
  38   6     0.08  -0.15  -0.06     0.02  -0.05   0.05    -0.07   0.05  -0.04
  39   6     0.13  -0.11  -0.09     0.01  -0.04   0.03    -0.07   0.04  -0.02
  40   6     0.14  -0.03  -0.08    -0.01  -0.01  -0.01    -0.06   0.01   0.01
  41   6     0.08   0.00  -0.05    -0.02  -0.00  -0.02    -0.04  -0.00   0.02
  42   6    -0.05  -0.03   0.06    -0.02  -0.02   0.02    -0.02   0.01  -0.01
  43   6    -0.09  -0.06   0.09    -0.05  -0.02   0.06     0.01   0.02  -0.05
  44   6    -0.13  -0.08   0.14    -0.06  -0.03   0.09     0.02   0.03  -0.07
  45   6    -0.14  -0.08   0.14    -0.04  -0.04   0.09     0.00   0.02  -0.06
  46   6    -0.11  -0.06   0.11    -0.01  -0.03   0.04    -0.03   0.01  -0.02
  47   6    -0.06  -0.03   0.06    -0.00  -0.02   0.01    -0.04   0.00   0.01
  48   6    -0.03   0.04   0.01    -0.02  -0.00  -0.05    -0.02  -0.00   0.04
  49   6    -0.02   0.06  -0.01    -0.02   0.00  -0.05    -0.03  -0.01   0.05
  50   7    -0.00   0.07  -0.05    -0.01   0.02   0.03    -0.03  -0.02  -0.03
  51   6     0.00   0.07   0.03    -0.03   0.02  -0.03    -0.01  -0.02   0.01
  52   6    -0.02   0.01   0.08     0.06   0.04  -0.11    -0.08  -0.04   0.07
  53   6    -0.01   0.01   0.16     0.04   0.05  -0.17    -0.05  -0.04   0.11
  54   6     0.02   0.07   0.19    -0.09   0.04  -0.16     0.05  -0.04   0.09
  55   6     0.05   0.13   0.14    -0.18   0.02  -0.08     0.12  -0.03   0.03
  56   6     0.04   0.13   0.06    -0.15   0.01  -0.01     0.09  -0.02  -0.01
  57   6     0.02   0.00  -0.06     0.02   0.02  -0.13     0.07  -0.07   0.04
  58   6     0.03  -0.02   0.02     0.05  -0.02  -0.10     0.11  -0.13   0.04
  59   1     0.03  -0.01   0.03     0.03  -0.06   0.04    -0.01  -0.04  -0.04
  60   1     0.02   0.00  -0.01     0.01  -0.04   0.02    -0.04  -0.01  -0.04
  61   1     0.01   0.01  -0.05     0.01  -0.00  -0.05    -0.01   0.00   0.03
  62   1     0.01   0.01  -0.05     0.00   0.00  -0.04    -0.01   0.00   0.03
  63   1     0.00   0.00  -0.02    -0.00   0.00   0.02    -0.01  -0.00  -0.02
  64   1    -0.00   0.00  -0.03    -0.01   0.00   0.01    -0.01   0.00   0.01
  65   1    -0.01   0.00  -0.02     0.02   0.03  -0.01    -0.04   0.01   0.04
  66   1    -0.01  -0.01   0.01     0.02   0.05  -0.06    -0.02   0.04   0.05
  67   1    -0.02  -0.01   0.01    -0.01   0.00   0.05     0.06   0.05  -0.03
  68   1    -0.01  -0.00  -0.01    -0.02  -0.02   0.09     0.04   0.02  -0.04
  69   1    -0.01   0.01  -0.02    -0.00   0.00   0.10     0.00  -0.00  -0.06
  70   1    -0.01   0.01  -0.02    -0.00   0.00   0.08    -0.00  -0.01  -0.06
  71   1     0.01   0.02   0.01     0.00   0.00  -0.01    -0.01  -0.01   0.01
  72   1     0.01   0.01   0.01     0.00  -0.00  -0.01    -0.01  -0.00   0.00
  73   1    -0.00  -0.04  -0.00     0.01  -0.01   0.01    -0.02   0.01  -0.01
  74   1     0.02  -0.06  -0.02     0.01  -0.02   0.02    -0.03   0.02  -0.02
  75   1     0.05  -0.04  -0.03     0.00  -0.01   0.01    -0.02   0.02  -0.01
  76   1     0.05   0.00  -0.03    -0.01  -0.00  -0.01    -0.02   0.00   0.00
  77   1     0.02   0.02  -0.01    -0.01   0.00  -0.01    -0.01  -0.01   0.01
  78   1    -0.02  -0.02   0.02    -0.02  -0.01   0.02     0.01   0.01  -0.02
  79   1    -0.04  -0.03   0.05    -0.03  -0.01   0.04     0.01   0.01  -0.03
  80   1    -0.05  -0.03   0.05    -0.02  -0.01   0.03     0.00   0.01  -0.02
  81   1    -0.03  -0.02   0.03     0.00  -0.01   0.01    -0.01   0.00  -0.00
  82   1    -0.01  -0.00   0.01     0.01  -0.01  -0.01    -0.02  -0.00   0.01
  83   1    -0.01   0.01   0.01    -0.01  -0.00  -0.01    -0.01   0.00   0.01
  84   1    -0.01   0.02  -0.01    -0.01   0.00  -0.02    -0.01  -0.00   0.02
  85   1    -0.01  -0.01   0.02     0.05   0.02  -0.04    -0.05  -0.01   0.02
  86   1    -0.01  -0.01   0.06     0.03   0.02  -0.07    -0.03  -0.02   0.05
  87   1     0.01   0.02   0.07    -0.03   0.01  -0.06     0.02  -0.01   0.04
  88   1     0.02   0.05   0.05    -0.08   0.00  -0.02     0.06  -0.01   0.01
  89   1     0.02   0.05   0.01    -0.07  -0.00   0.01     0.04  -0.00  -0.02
  90   1    -0.00   0.00  -0.03    -0.00   0.02  -0.06     0.03  -0.02   0.02
  91   1     0.01  -0.01   0.01     0.01   0.00  -0.04     0.05  -0.05   0.03
                      7                      8                      9
                        a                      a                      a 
 Frequencies --    31.2074                34.3144                39.1254
 Red. masses --    11.0700                10.8501                10.0530
 Frc consts  --     0.0000                 0.0000                 0.0000
 IR Inten    --    37.6579                53.7057                 6.6151
 Raman Activ --     0.0000                 0.0000                 0.0000
 Depolar     --     0.0000                 0.0000                 0.0000
 Atom AN      X      Y      Z        X      Y      Z        X      Y      Z
   1   7    -0.12   0.11   0.17     0.08  -0.11   0.17     0.06  -0.04   0.01
   2   6    -0.09   0.07   0.10     0.05  -0.06   0.09     0.04  -0.02   0.00
   3   6    -0.06   0.04   0.03     0.02  -0.01   0.01     0.03   0.00  -0.01
   4   6    -0.00   0.04   0.02    -0.01   0.03  -0.07     0.11  -0.14   0.24
   5   6     0.02   0.01  -0.04    -0.03   0.06  -0.12     0.09  -0.12   0.23
   6   6    -0.02  -0.02  -0.09    -0.02   0.05  -0.08     0.00   0.03  -0.02
   7   6    -0.01  -0.05  -0.13    -0.02   0.05  -0.08     0.00   0.03  -0.02
   8   6    -0.01  -0.06  -0.17    -0.03   0.05  -0.01     0.00   0.02  -0.12
   9   6    -0.00  -0.07  -0.15    -0.03   0.04   0.03     0.00   0.02  -0.10
  10   6     0.01  -0.06  -0.09    -0.02   0.04   0.00    -0.01   0.03   0.00
  11   6     0.01  -0.05  -0.09    -0.01   0.04  -0.07    -0.01   0.04   0.07
  12   6     0.01  -0.04  -0.10    -0.01   0.05  -0.12    -0.01   0.04   0.09
  13   6     0.01  -0.05  -0.05     0.01   0.04  -0.07    -0.00   0.04   0.08
  14   6     0.01  -0.05  -0.05     0.01   0.05  -0.13     0.00   0.04   0.10
  15   6     0.02  -0.04  -0.00     0.02   0.05  -0.07    -0.01   0.04   0.02
  16   6     0.03  -0.03   0.01     0.01   0.04  -0.08    -0.01   0.02   0.00
  17   6     0.02   0.01  -0.01     0.07   0.11  -0.24    -0.04  -0.07   0.16
  18   6     0.03   0.04  -0.01     0.05   0.07  -0.20    -0.05  -0.10   0.16
  19   6     0.05   0.03   0.01    -0.01  -0.03   0.01    -0.04  -0.02  -0.02
  20   6     0.07   0.07   0.00    -0.04  -0.09   0.08    -0.05  -0.05  -0.02
  21   7     0.10   0.11  -0.00    -0.07  -0.15   0.17    -0.08  -0.09  -0.03
  22   6     0.06  -0.01   0.04    -0.06  -0.09   0.15    -0.01   0.09  -0.19
  23   6     0.05  -0.04   0.04    -0.04  -0.05   0.10    -0.00   0.11  -0.17
  24   6     0.02  -0.05   0.03     0.02   0.04   0.03    -0.00   0.03  -0.06
  25   6     0.02  -0.05   0.03     0.02   0.04   0.05    -0.00   0.03  -0.05
  26   6     0.01  -0.05  -0.01     0.01   0.04   0.00     0.00   0.03   0.02
  27   6     0.01  -0.06   0.01     0.01   0.03   0.03    -0.00   0.03   0.02
  28   6     0.01  -0.06  -0.03    -0.01   0.03   0.05    -0.01   0.03   0.02
  29   7     0.02  -0.05   0.01    -0.02   0.02   0.11    -0.01   0.02   0.02
  30   6     0.01  -0.03   0.07    -0.00   0.01   0.10    -0.00   0.02   0.02
  31   6     0.02  -0.01   0.13    -0.01  -0.02   0.10    -0.00  -0.00   0.03
  32   6     0.01   0.03   0.20    -0.00  -0.06   0.02     0.01  -0.02   0.03
  33   6     0.01   0.04   0.20    -0.01  -0.07   0.01     0.01  -0.04   0.03
  34   6     0.02   0.02   0.15    -0.01  -0.05   0.07    -0.01  -0.04   0.03
  35   7     0.02   0.02   0.11    -0.01  -0.06   0.05    -0.01  -0.06   0.03
  36   6     0.04   0.02   0.03    -0.04  -0.02   0.03    -0.03  -0.03   0.02
  37   6    -0.04   0.03  -0.11    -0.08   0.05  -0.02    -0.08   0.04  -0.06
  38   6    -0.02   0.03  -0.18    -0.13   0.10  -0.04    -0.11   0.06  -0.07
  39   6     0.07   0.01  -0.12    -0.15   0.07  -0.01    -0.10   0.02  -0.02
  40   6     0.15  -0.00   0.01    -0.11  -0.01   0.04    -0.05  -0.05   0.06
  41   6     0.13   0.00   0.08    -0.06  -0.06   0.06    -0.02  -0.08   0.07
  42   6     0.02   0.02   0.05     0.00  -0.04   0.01     0.00  -0.04   0.02
  43   6     0.08   0.04  -0.04     0.10   0.00  -0.12     0.08   0.01  -0.07
  44   6     0.10   0.05  -0.09     0.12   0.02  -0.17     0.10   0.02  -0.09
  45   6     0.06   0.05  -0.07     0.03  -0.01  -0.09     0.06  -0.02  -0.01
  46   6    -0.00   0.04   0.02    -0.07  -0.05   0.04    -0.02  -0.07   0.07
  47   6    -0.02   0.02   0.07    -0.08  -0.07   0.08    -0.04  -0.08   0.08
  48   6     0.03   0.01   0.12    -0.02  -0.02   0.14    -0.02  -0.03   0.05
  49   6     0.02  -0.01   0.12    -0.01   0.00   0.15    -0.02  -0.00   0.05
  50   7     0.00  -0.05   0.07     0.01   0.02   0.07     0.00   0.02   0.02
  51   6    -0.05  -0.03   0.02     0.04   0.00   0.02     0.02   0.01   0.00
  52   6    -0.17   0.09   0.04     0.17  -0.02  -0.05     0.03   0.01  -0.00
  53   6    -0.26   0.13   0.00     0.22  -0.05  -0.11     0.07  -0.00  -0.03
  54   6    -0.22   0.03  -0.07     0.14  -0.05  -0.10     0.10  -0.02  -0.05
  55   6    -0.08  -0.09  -0.10     0.01  -0.02  -0.02     0.09  -0.02  -0.04
  56   6    -0.00  -0.12  -0.06    -0.04   0.01   0.04     0.05  -0.00  -0.02
  57   6    -0.09  -0.02  -0.08     0.01   0.01  -0.02    -0.07   0.17  -0.27
  58   6    -0.11   0.00  -0.03     0.03  -0.02   0.03    -0.06   0.16  -0.27
  59   1     0.01   0.02   0.02    -0.01   0.01  -0.03     0.05  -0.08   0.13
  60   1     0.02   0.00  -0.01    -0.02   0.03  -0.05     0.05  -0.06   0.12
  61   1    -0.00  -0.02  -0.06    -0.01   0.01   0.01     0.00   0.00  -0.07
  62   1    -0.00  -0.02  -0.05    -0.01   0.01   0.02     0.00   0.01  -0.05
  63   1     0.00  -0.01  -0.03    -0.00   0.01  -0.05    -0.01   0.01   0.05
  64   1     0.00  -0.01  -0.02    -0.00   0.02  -0.06     0.00   0.01   0.05
  65   1    -0.00   0.00  -0.01     0.03   0.05  -0.11    -0.02  -0.04   0.08
  66   1     0.01   0.02  -0.01     0.02   0.04  -0.09    -0.02  -0.05   0.08
  67   1     0.02  -0.01   0.02    -0.03  -0.05   0.09     0.00   0.04  -0.09
  68   1     0.02  -0.02   0.02    -0.02  -0.03   0.06     0.01   0.06  -0.09
  69   1     0.01  -0.01   0.02     0.01   0.01   0.02     0.00   0.01  -0.04
  70   1     0.01  -0.02   0.01     0.01   0.01   0.04    -0.00   0.01  -0.03
  71   1     0.00   0.01   0.07     0.00  -0.02  -0.01     0.01  -0.00   0.01
  72   1     0.00   0.02   0.07    -0.00  -0.03  -0.01     0.01  -0.02   0.01
  73   1    -0.03   0.01  -0.04    -0.02   0.02  -0.01    -0.03   0.02  -0.03
  74   1    -0.02   0.01  -0.08    -0.05   0.05  -0.03    -0.04   0.04  -0.04
  75   1     0.03   0.00  -0.05    -0.06   0.03  -0.01    -0.04   0.01  -0.01
  76   1     0.07  -0.00   0.02    -0.04  -0.01   0.02    -0.01  -0.02   0.03
  77   1     0.06  -0.00   0.05    -0.01  -0.03   0.03     0.00  -0.04   0.04
  78   1     0.03   0.01  -0.02     0.05   0.01  -0.05     0.03   0.01  -0.04
  79   1     0.04   0.02  -0.05     0.06   0.01  -0.08     0.05   0.02  -0.04
  80   1     0.02   0.02  -0.03     0.01  -0.00  -0.04     0.02  -0.00  -0.01
  81   1    -0.01   0.01   0.01    -0.04  -0.02   0.03    -0.02  -0.03   0.04
  82   1    -0.02   0.00   0.04    -0.04  -0.03   0.05    -0.03  -0.04   0.04
  83   1     0.01   0.00   0.03    -0.00   0.00   0.05    -0.01  -0.01   0.02
  84   1     0.01  -0.01   0.03    -0.00   0.01   0.06    -0.01   0.00   0.02
  85   1    -0.06   0.05   0.03     0.06  -0.01  -0.02     0.00   0.01   0.00
  86   1    -0.11   0.06   0.01     0.09  -0.02  -0.05     0.02  -0.00  -0.01
  87   1    -0.08   0.02  -0.03     0.05  -0.02  -0.04     0.04  -0.01  -0.02
  88   1    -0.01  -0.05  -0.05    -0.01  -0.00  -0.00     0.04  -0.01  -0.02
  89   1     0.03  -0.06  -0.02    -0.04   0.01   0.03     0.02  -0.00  -0.00
  90   1    -0.03  -0.01  -0.03     0.00   0.00   0.00    -0.04   0.09  -0.13
  91   1    -0.04   0.00  -0.01     0.01  -0.01   0.03    -0.04   0.08  -0.14
                     10                     11                     12
                        a                      a                      a 
 Frequencies --    41.1613                46.8957                49.7477
 Red. masses --    10.7101                10.7025                11.0687
 Frc consts  --     0.0000                 0.0000                 0.0000
 IR Inten    --    60.6908                 4.4103                13.2866
 Raman Activ --     0.0000                 0.0000                 0.0000
 Depolar     --     0.0000                 0.0000                 0.0000
 Atom AN      X      Y      Z        X      Y      Z        X      Y      Z
   1   7     0.07  -0.08   0.00     0.02   0.00  -0.24    -0.08   0.19  -0.16
   2   6     0.05  -0.04  -0.00     0.02  -0.01  -0.10    -0.02   0.10  -0.06
   3   6     0.02  -0.00  -0.01     0.03  -0.02   0.01     0.04   0.01   0.03
   4   6    -0.04   0.05  -0.10     0.07  -0.15   0.24     0.06   0.02   0.03
   5   6    -0.05   0.07  -0.09     0.06  -0.14   0.29     0.09  -0.03   0.06
   6   6    -0.00   0.04   0.00     0.02  -0.02   0.14     0.09  -0.07   0.09
   7   6    -0.01   0.05   0.02     0.01  -0.01   0.15     0.08  -0.06   0.05
   8   6    -0.01   0.05   0.05     0.01  -0.00   0.11     0.10  -0.03   0.02
   9   6    -0.01   0.05   0.04     0.01   0.00   0.08     0.08  -0.01  -0.04
  10   6    -0.01   0.05   0.01    -0.01  -0.00   0.04     0.05  -0.01  -0.07
  11   6    -0.01   0.05   0.01    -0.01  -0.01   0.04     0.03  -0.04  -0.04
  12   6    -0.01   0.05   0.00    -0.01  -0.01   0.13     0.05  -0.06   0.01
  13   6     0.00   0.05   0.01    -0.01  -0.01  -0.04     0.00  -0.04  -0.05
  14   6     0.00   0.05   0.00    -0.01  -0.00  -0.13    -0.01  -0.06   0.00
  15   6     0.00   0.05   0.01     0.01  -0.01  -0.14    -0.04  -0.07   0.03
  16   6    -0.00   0.04  -0.01     0.02   0.02  -0.13    -0.04  -0.07   0.08
  17   6     0.00   0.02   0.00     0.05   0.13  -0.31    -0.05  -0.05   0.07
  18   6    -0.01  -0.01   0.00     0.06   0.15  -0.26    -0.03  -0.01   0.04
  19   6    -0.03  -0.00  -0.01     0.04   0.03  -0.01    -0.00   0.00   0.03
  20   6    -0.05  -0.04   0.01     0.04   0.04   0.09     0.03   0.08  -0.05
  21   7    -0.07  -0.09   0.02     0.05   0.05   0.21     0.08   0.17  -0.15
  22   6    -0.04   0.03  -0.03     0.02  -0.08   0.16    -0.01  -0.05   0.09
  23   6    -0.02   0.05  -0.03     0.01  -0.09   0.09    -0.02  -0.09   0.12
  24   6     0.00   0.05   0.04     0.01  -0.01  -0.10    -0.06  -0.04  -0.01
  25   6     0.00   0.05   0.05     0.01  -0.01  -0.07    -0.04  -0.02  -0.08
  26   6     0.01   0.05   0.03    -0.01  -0.01  -0.04    -0.01  -0.01  -0.09
  27   6     0.00   0.04   0.02    -0.01  -0.01  -0.02     0.00   0.01  -0.12
  28   6    -0.01   0.04  -0.01    -0.00  -0.00   0.00     0.03   0.02  -0.11
  29   7    -0.01   0.03  -0.05    -0.01  -0.00   0.01     0.03   0.04  -0.10
  30   6     0.00   0.02  -0.03    -0.00  -0.00  -0.01     0.01   0.05  -0.10
  31   6    -0.00  -0.01  -0.06    -0.01  -0.00  -0.01     0.01   0.06  -0.05
  32   6     0.03   0.01   0.04    -0.00   0.02   0.03     0.04   0.03  -0.06
  33   6     0.02  -0.04   0.01    -0.01   0.01   0.02     0.03   0.00  -0.04
  34   6    -0.01  -0.10  -0.10    -0.01  -0.01  -0.02     0.00   0.01   0.01
  35   7    -0.01  -0.11  -0.08    -0.01  -0.01  -0.02     0.00  -0.03  -0.01
  36   6    -0.03  -0.09  -0.05    -0.01  -0.01  -0.01    -0.01  -0.02   0.01
  37   6    -0.10   0.01  -0.15    -0.01  -0.01  -0.01    -0.07   0.08  -0.07
  38   6    -0.11   0.01  -0.12    -0.01  -0.00  -0.02    -0.10   0.10  -0.05
  39   6    -0.06  -0.09   0.02    -0.01  -0.00  -0.02    -0.07   0.02   0.06
  40   6     0.01  -0.18   0.12    -0.01  -0.00  -0.02    -0.02  -0.08   0.15
  41   6     0.02  -0.19   0.09    -0.01  -0.01  -0.02     0.01  -0.10   0.12
  42   6     0.05  -0.08  -0.01    -0.00  -0.01  -0.01    -0.02  -0.03  -0.00
  43   6     0.08   0.04   0.02    -0.02  -0.00   0.01     0.10   0.03  -0.15
  44   6     0.18   0.08   0.09    -0.01  -0.00   0.03     0.06   0.01  -0.12
  45   6     0.27  -0.01   0.12    -0.00  -0.01   0.03    -0.09  -0.07   0.06
  46   6     0.24  -0.13   0.09     0.01  -0.01   0.01    -0.20  -0.13   0.19
  47   6     0.14  -0.17   0.03     0.01  -0.01  -0.01    -0.16  -0.11   0.16
  48   6    -0.04  -0.12  -0.20    -0.01  -0.02  -0.05    -0.02   0.05   0.06
  49   6    -0.03  -0.08  -0.18    -0.01  -0.02  -0.05    -0.01   0.08   0.03
  50   7     0.01   0.04   0.01    -0.01  -0.01  -0.03    -0.00   0.04  -0.13
  51   6    -0.02   0.05   0.01    -0.02   0.00  -0.01    -0.01   0.04  -0.07
  52   6    -0.09   0.09   0.04    -0.11   0.03   0.04     0.05  -0.03  -0.07
  53   6    -0.17   0.12   0.05    -0.15   0.05   0.07     0.05  -0.03   0.00
  54   6    -0.17   0.11   0.05    -0.10   0.04   0.05    -0.01   0.06   0.07
  55   6    -0.09   0.06   0.01    -0.00   0.01  -0.00    -0.06   0.13   0.07
  56   6    -0.02   0.03  -0.00     0.03  -0.01  -0.03    -0.06   0.12  -0.00
  57   6     0.05  -0.00   0.09    -0.01   0.09  -0.05     0.08  -0.09   0.13
  58   6     0.07  -0.03   0.08    -0.01   0.09  -0.12     0.05  -0.05   0.10
  59   1    -0.02   0.02  -0.05     0.03  -0.07   0.10     0.01   0.02  -0.00
  60   1    -0.03   0.03  -0.05     0.03  -0.06   0.13     0.03  -0.01   0.01
  61   1    -0.00   0.02   0.02     0.00  -0.00   0.03     0.04  -0.01   0.02
  62   1    -0.00   0.01   0.01     0.00   0.00   0.02     0.03   0.01  -0.02
  63   1    -0.00   0.02  -0.01    -0.01  -0.01   0.06     0.01  -0.02   0.01
  64   1     0.00   0.01  -0.00    -0.01   0.00  -0.05     0.00  -0.02   0.01
  65   1     0.01   0.00   0.00     0.02   0.06  -0.14    -0.02  -0.01   0.02
  66   1    -0.00  -0.01   0.00     0.02   0.07  -0.12    -0.01   0.01   0.00
  67   1    -0.02   0.01  -0.01     0.00  -0.05   0.10     0.00  -0.02   0.03
  68   1    -0.01   0.02  -0.01     0.00  -0.06   0.06    -0.01  -0.04   0.04
  69   1     0.00   0.01   0.01     0.00  -0.00  -0.03    -0.02  -0.01  -0.00
  70   1     0.00   0.01   0.02     0.00  -0.01  -0.02    -0.02   0.00  -0.03
  71   1     0.02   0.02   0.04    -0.00   0.01   0.02     0.02   0.01  -0.03
  72   1     0.01  -0.00   0.03    -0.00   0.01   0.01     0.02  -0.01  -0.01
  73   1    -0.04   0.02  -0.07    -0.00  -0.00  -0.00    -0.03   0.04  -0.04
  74   1    -0.05   0.03  -0.06    -0.00  -0.00  -0.00    -0.04   0.05  -0.03
  75   1    -0.02  -0.02   0.01    -0.01   0.00  -0.01    -0.03   0.01   0.02
  76   1     0.01  -0.08   0.07    -0.00  -0.00  -0.01     0.00  -0.04   0.07
  77   1     0.02  -0.08   0.05    -0.00  -0.00  -0.00     0.01  -0.05   0.05
  78   1     0.00   0.03  -0.00    -0.01   0.00   0.00     0.06   0.02  -0.08
  79   1     0.06   0.05   0.03    -0.01   0.00   0.02     0.04   0.02  -0.07
  80   1     0.10   0.01   0.05    -0.00  -0.00   0.01    -0.04  -0.03   0.02
  81   1     0.09  -0.06   0.03     0.01  -0.01   0.00    -0.09  -0.05   0.09
  82   1     0.04  -0.08  -0.00     0.01  -0.00  -0.01    -0.07  -0.04   0.07
  83   1    -0.02  -0.05  -0.08    -0.00  -0.01  -0.02    -0.01   0.02   0.04
  84   1    -0.02  -0.03  -0.08    -0.00  -0.01  -0.02    -0.01   0.03   0.02
  85   1    -0.03   0.03   0.01    -0.04   0.01   0.02     0.03  -0.03  -0.03
  86   1    -0.07   0.05   0.02    -0.06   0.02   0.03     0.03  -0.03   0.00
  87   1    -0.07   0.04   0.02    -0.04   0.02   0.02    -0.01   0.02   0.04
  88   1    -0.03   0.01   0.00     0.01  -0.00  -0.00    -0.03   0.06   0.04
  89   1     0.01  -0.00  -0.01     0.03  -0.01  -0.02    -0.03   0.05  -0.00
  90   1     0.02  -0.01   0.04    -0.01   0.05  -0.04     0.03  -0.04   0.05
  91   1     0.03  -0.02   0.04    -0.01   0.05  -0.08     0.01  -0.02   0.04
                     13                     14                     15
                        a                      a                      a 
 Frequencies --    57.9581                60.3720                65.5623
 Red. masses --    10.7654                10.5575                11.0587
 Frc consts  --     0.0000                 0.0000                 0.0000
 IR Inten    --    28.5821                17.3067                 6.0588
 Raman Activ --     0.0000                 0.0000                 0.0000
 Depolar     --     0.0000                 0.0000                 0.0000
 Atom AN      X      Y      Z        X      Y      Z        X      Y      Z
   1   7     0.01   0.06   0.09     0.04  -0.01   0.09    -0.04  -0.00   0.10
   2   6     0.02   0.04   0.03     0.02   0.01   0.03    -0.04  -0.01   0.03
   3   6     0.03   0.03  -0.01     0.01   0.03  -0.02    -0.04  -0.01  -0.02
   4   6     0.05   0.03  -0.01     0.00   0.05  -0.06    -0.01  -0.01  -0.02
   5   6     0.06   0.02  -0.03    -0.00   0.05  -0.07    -0.01  -0.02  -0.04
   6   6     0.04   0.00  -0.05     0.01   0.03  -0.05    -0.02  -0.02  -0.06
   7   6     0.05  -0.01  -0.05     0.01   0.02  -0.03    -0.02  -0.03  -0.04
   8   6     0.04  -0.01  -0.02     0.01   0.01  -0.02    -0.02  -0.04  -0.02
   9   6     0.04  -0.01   0.03     0.01   0.00   0.00    -0.02  -0.03   0.04
  10   6     0.04  -0.01   0.03     0.02   0.01   0.02    -0.01  -0.03   0.06
  11   6     0.05  -0.01  -0.02     0.03   0.02   0.03    -0.01  -0.03   0.02
  12   6     0.05  -0.01  -0.06     0.02   0.02  -0.01    -0.01  -0.03  -0.02
  13   6     0.05  -0.01  -0.02     0.04   0.01   0.05    -0.02  -0.03   0.02
  14   6     0.05  -0.01  -0.06     0.04   0.02   0.11    -0.02  -0.03  -0.04
  15   6     0.05  -0.01  -0.07     0.06   0.02   0.11    -0.01  -0.03  -0.06
  16   6     0.06   0.00  -0.09     0.05   0.00   0.11    -0.01  -0.01  -0.08
  17   6     0.02  -0.03   0.01     0.10  -0.00   0.02    -0.02   0.00  -0.06
  18   6     0.02  -0.03   0.05     0.09  -0.03  -0.03    -0.02   0.02  -0.04
  19   6     0.06   0.01  -0.03     0.03  -0.05   0.02     0.01   0.02  -0.03
  20   6     0.05   0.00   0.06     0.01  -0.09  -0.07     0.01   0.03   0.04
  21   7     0.06  -0.00   0.16    -0.01  -0.14  -0.18     0.03   0.05   0.14
  22   6     0.10   0.06  -0.16    -0.02  -0.06   0.13     0.03   0.01  -0.06
  23   6     0.09   0.05  -0.18    -0.00  -0.03   0.16     0.02  -0.01  -0.08
  24   6     0.05  -0.01  -0.03     0.06   0.02   0.04    -0.01  -0.03  -0.01
  25   6     0.05  -0.01   0.04     0.05   0.01  -0.02    -0.01  -0.03   0.05
  26   6     0.05  -0.01   0.03     0.04   0.01   0.00    -0.02  -0.03   0.07
  27   6     0.05  -0.02   0.05     0.03  -0.00   0.00    -0.02  -0.03   0.11
  28   6     0.05  -0.01   0.07     0.02   0.00   0.02    -0.01  -0.03   0.10
  29   7     0.05  -0.01   0.10     0.03  -0.00   0.01     0.00  -0.02   0.10
  30   6     0.05  -0.02   0.07     0.02  -0.00  -0.01    -0.01  -0.01   0.09
  31   6     0.04  -0.03   0.04     0.02   0.01  -0.02    -0.01   0.03   0.01
  32   6     0.02  -0.06  -0.05     0.01   0.02   0.00    -0.06   0.04  -0.05
  33   6     0.01  -0.07  -0.12     0.01   0.01  -0.04    -0.05   0.07  -0.13
  34   6     0.03  -0.05  -0.07     0.01  -0.00  -0.07     0.00   0.08  -0.17
  35   7     0.04  -0.03  -0.08     0.01   0.00  -0.09     0.01   0.11  -0.29
  36   6    -0.01  -0.01  -0.03    -0.02   0.02  -0.03     0.02   0.08  -0.16
  37   6     0.06   0.02   0.09    -0.01   0.08   0.00     0.02   0.12  -0.14
  38   6    -0.02   0.08   0.12    -0.08   0.14   0.02     0.11   0.02   0.06
  39   6    -0.17   0.11   0.02    -0.17   0.12   0.00     0.18  -0.11   0.25
  40   6    -0.23   0.07  -0.09    -0.17   0.04  -0.01     0.15  -0.13   0.20
  41   6    -0.14   0.01  -0.11    -0.09  -0.01  -0.03     0.07  -0.03  -0.01
  42   6     0.02  -0.04  -0.06    -0.01  -0.01  -0.06     0.01   0.09  -0.15
  43   6     0.01  -0.06  -0.06    -0.03  -0.03  -0.05     0.02   0.17  -0.13
  44   6    -0.06  -0.10  -0.01    -0.13  -0.09   0.04    -0.03   0.12   0.04
  45   6    -0.11  -0.11   0.04    -0.20  -0.11   0.11    -0.10   0.00   0.21
  46   6    -0.10  -0.09   0.03    -0.16  -0.07   0.07    -0.10  -0.07   0.18
  47   6    -0.03  -0.05  -0.02    -0.07  -0.02  -0.02    -0.05  -0.02  -0.01
  48   6     0.05  -0.02   0.02     0.02  -0.01  -0.07     0.05   0.08  -0.10
  49   6     0.05  -0.01   0.07     0.02  -0.01  -0.05     0.05   0.05  -0.01
  50   7     0.06  -0.02   0.06     0.03  -0.00  -0.02    -0.03  -0.01   0.12
  51   6     0.01  -0.00   0.04     0.02   0.00  -0.01    -0.02  -0.02   0.07
  52   6     0.03   0.03   0.00    -0.21   0.09   0.11     0.00   0.00   0.04
  53   6    -0.14   0.10   0.03    -0.20   0.08   0.12     0.06  -0.02  -0.02
  54   6    -0.33   0.13   0.09     0.06  -0.02  -0.00     0.08  -0.07  -0.06
  55   6    -0.32   0.08   0.11     0.29  -0.11  -0.13     0.04  -0.09  -0.02
  56   6    -0.14   0.01   0.08     0.27  -0.09  -0.13    -0.01  -0.06   0.04
  57   6     0.02   0.01  -0.06     0.01   0.02  -0.03    -0.05  -0.01  -0.07
  58   6     0.01   0.02  -0.04     0.01   0.02  -0.01    -0.06  -0.00  -0.06
  59   1     0.02   0.01   0.00    -0.00   0.02  -0.02    -0.00  -0.00   0.00
  60   1     0.02   0.00  -0.01    -0.00   0.02  -0.03     0.00  -0.01  -0.01
  61   1     0.01  -0.00  -0.01    -0.00   0.00  -0.01    -0.01  -0.01  -0.01
  62   1     0.01  -0.00   0.02     0.00  -0.00   0.00    -0.01  -0.01   0.02
  63   1     0.02  -0.00  -0.03     0.01   0.01  -0.01    -0.00  -0.01  -0.01
  64   1     0.01  -0.00  -0.02     0.01   0.01   0.05    -0.01  -0.01  -0.03
  65   1    -0.00  -0.02   0.02     0.04   0.01  -0.01    -0.01   0.00  -0.02
  66   1    -0.00  -0.02   0.04     0.04  -0.00  -0.03    -0.01   0.01  -0.01
  67   1     0.04   0.03  -0.06    -0.02  -0.03   0.05     0.01   0.00  -0.02
  68   1     0.03   0.03  -0.08    -0.01  -0.01   0.07     0.01  -0.00  -0.03
  69   1     0.02  -0.00  -0.01     0.01   0.01   0.01    -0.00  -0.01  -0.01
  70   1     0.01  -0.00   0.03     0.02   0.00  -0.03    -0.00  -0.01   0.02
  71   1    -0.00  -0.02  -0.02     0.00   0.01   0.02    -0.03   0.01  -0.01
  72   1     0.00  -0.03  -0.05     0.00   0.01  -0.01    -0.03   0.03  -0.04
  73   1     0.05   0.00   0.05     0.02   0.03   0.00    -0.01   0.06  -0.08
  74   1     0.01   0.03   0.06    -0.02   0.06   0.01     0.03   0.01   0.02
  75   1    -0.07   0.05   0.01    -0.07   0.05   0.00     0.07  -0.06   0.13
  76   1    -0.10   0.03  -0.05    -0.07   0.01  -0.01     0.06  -0.07   0.10
  77   1    -0.05  -0.00  -0.05    -0.03  -0.02  -0.01     0.01  -0.01  -0.01
  78   1     0.01  -0.02  -0.02     0.00  -0.01  -0.03     0.02   0.07  -0.07
  79   1    -0.02  -0.03  -0.00    -0.04  -0.03   0.02    -0.01   0.05   0.02
  80   1    -0.05  -0.04   0.02    -0.08  -0.05   0.05    -0.04  -0.01   0.10
  81   1    -0.04  -0.03   0.02    -0.06  -0.03   0.03    -0.04  -0.05   0.09
  82   1    -0.01  -0.01  -0.01    -0.01   0.00  -0.01    -0.01  -0.02  -0.01
  83   1     0.02   0.00   0.01     0.01  -0.00  -0.02     0.03   0.03  -0.03
  84   1     0.02   0.00   0.04     0.01  -0.00  -0.02     0.03   0.01   0.01
  85   1     0.05   0.01  -0.01    -0.12   0.04   0.06    -0.00   0.01   0.02
  86   1    -0.04   0.04   0.00    -0.11   0.05   0.06     0.02  -0.00  -0.01
  87   1    -0.14   0.06   0.03     0.02  -0.01   0.00     0.04  -0.03  -0.03
  88   1    -0.13   0.03   0.04     0.14  -0.05  -0.06     0.02  -0.03  -0.01
  89   1    -0.04  -0.01   0.03     0.12  -0.05  -0.06    -0.01  -0.02   0.02
  90   1     0.00  -0.00  -0.02     0.00   0.00  -0.00    -0.02  -0.00  -0.03
  91   1    -0.00   0.01  -0.01     0.01   0.00   0.00    -0.02   0.00  -0.02
                     16                     17                     18
                        a                      a                      a 
 Frequencies --    66.2520                71.0995                81.8734
 Red. masses --    11.5725                10.7193                10.5935
 Frc consts  --     0.0000                 0.0000                 0.0000
 IR Inten    --     9.7959                27.9179                25.9355
 Raman Activ --     0.0000                 0.0000                 0.0000
 Depolar     --     0.0000                 0.0000                 0.0000
 Atom AN      X      Y      Z        X      Y      Z        X      Y      Z
   1   7     0.07  -0.20  -0.11     0.05  -0.10   0.14    -0.06   0.07  -0.20
   2   6     0.00  -0.10  -0.04     0.00  -0.02   0.03    -0.01  -0.00  -0.03
   3   6    -0.05  -0.03   0.00    -0.04   0.04  -0.05     0.03  -0.07   0.08
   4   6    -0.11  -0.02  -0.02    -0.04   0.02  -0.02     0.02  -0.04   0.04
   5   6    -0.13   0.02   0.02    -0.05   0.04  -0.03     0.02  -0.04   0.04
   6   6    -0.09   0.05   0.08    -0.06   0.06  -0.05     0.03  -0.05   0.06
   7   6    -0.09   0.05   0.10    -0.05   0.05   0.00     0.01  -0.02  -0.02
   8   6    -0.10   0.02   0.03    -0.06   0.03   0.11     0.03  -0.01  -0.19
   9   6    -0.07  -0.02  -0.05    -0.05   0.02   0.14     0.02   0.01  -0.24
  10   6    -0.03  -0.02  -0.06    -0.02   0.01   0.08    -0.01   0.01  -0.12
  11   6    -0.02   0.02   0.04    -0.01   0.02   0.02    -0.03   0.01  -0.02
  12   6    -0.05   0.05   0.13    -0.02   0.04  -0.03    -0.01  -0.01   0.05
  13   6     0.02   0.02   0.05     0.00   0.02  -0.01    -0.03   0.01   0.03
  14   6     0.05   0.07   0.05     0.00   0.01   0.07    -0.03   0.02  -0.02
  15   6     0.09   0.08   0.05    -0.00   0.01   0.04    -0.03   0.03   0.02
  16   6     0.11   0.09  -0.02    -0.01  -0.01   0.09    -0.02   0.04  -0.03
  17   6     0.12   0.06  -0.03     0.01  -0.01   0.04    -0.02   0.04  -0.03
  18   6     0.11   0.01  -0.03     0.01  -0.02   0.02    -0.02   0.04  -0.03
  19   6     0.06   0.01  -0.05    -0.01  -0.04   0.05    -0.02   0.05  -0.04
  20   6     0.01  -0.09   0.02    -0.01  -0.03  -0.05    -0.04   0.02   0.02
  21   7    -0.06  -0.24   0.10    -0.01  -0.03  -0.20    -0.06  -0.01   0.11
  22   6     0.06   0.08  -0.11    -0.05  -0.06   0.14    -0.02   0.07  -0.08
  23   6     0.08   0.12  -0.10    -0.04  -0.05   0.15    -0.02   0.06  -0.07
  24   6     0.12   0.04   0.14    -0.01   0.01  -0.09    -0.02   0.02   0.12
  25   6     0.09  -0.01   0.14    -0.01   0.01  -0.17    -0.02   0.02   0.14
  26   6     0.04  -0.01   0.04     0.00   0.01  -0.11    -0.03   0.02   0.08
  27   6     0.02  -0.05  -0.07    -0.00  -0.01  -0.09    -0.03   0.03   0.05
  28   6    -0.01  -0.06  -0.13    -0.01   0.00   0.04    -0.02   0.02  -0.06
  29   7    -0.01  -0.09  -0.22    -0.02   0.00   0.10    -0.02   0.02  -0.08
  30   6     0.00  -0.09  -0.18    -0.00  -0.02  -0.01    -0.02   0.03   0.02
  31   6     0.01  -0.06  -0.11    -0.00  -0.02  -0.00    -0.02   0.03   0.04
  32   6     0.00  -0.03  -0.07    -0.01  -0.06  -0.11    -0.02  -0.00  -0.01
  33   6     0.01   0.03   0.02    -0.01  -0.06  -0.12    -0.02  -0.04  -0.07
  34   6     0.02   0.06   0.07     0.01  -0.01  -0.02    -0.02  -0.02  -0.03
  35   7     0.03   0.06   0.07     0.02  -0.00  -0.03    -0.02  -0.03  -0.04
  36   6     0.04   0.05   0.04     0.02  -0.01  -0.04    -0.02  -0.03  -0.03
  37   6     0.00   0.06  -0.02     0.11  -0.10   0.09     0.08  -0.11   0.13
  38   6     0.03   0.05  -0.04     0.17  -0.16   0.17     0.11  -0.14   0.19
  39   6     0.09   0.02   0.01     0.14  -0.11   0.10     0.02  -0.06   0.05
  40   6     0.12   0.02   0.07     0.04   0.01  -0.07    -0.10   0.05  -0.14
  41   6     0.09   0.04   0.08    -0.02   0.06  -0.13    -0.11   0.06  -0.17
  42   6    -0.01   0.05   0.03     0.03   0.00  -0.00    -0.00  -0.03  -0.00
  43   6     0.06   0.03  -0.07     0.13   0.08  -0.10     0.09   0.05  -0.10
  44   6    -0.01   0.01  -0.09     0.20   0.11  -0.14     0.16   0.09  -0.13
  45   6    -0.13  -0.00   0.00     0.15   0.05  -0.06     0.13   0.02  -0.05
  46   6    -0.19   0.02   0.09     0.03  -0.04   0.08     0.01  -0.08   0.08
  47   6    -0.12   0.05   0.10    -0.03  -0.07   0.10    -0.05  -0.10   0.10
  48   6     0.03   0.05   0.07     0.02   0.04   0.11    -0.02   0.02   0.05
  49   6     0.03  -0.01  -0.02     0.02   0.03   0.11    -0.02   0.04   0.08
  50   7     0.02  -0.08  -0.13     0.00  -0.03  -0.15    -0.03   0.04   0.10
  51   6     0.01  -0.07  -0.08    -0.00  -0.02  -0.09    -0.02   0.04   0.07
  52   6    -0.01  -0.09  -0.05    -0.06  -0.05  -0.03    -0.10   0.10   0.09
  53   6    -0.07  -0.06   0.02    -0.13  -0.01   0.07    -0.07   0.08   0.04
  54   6    -0.12  -0.01   0.06    -0.14   0.05   0.11     0.07  -0.01  -0.05
  55   6    -0.09   0.00   0.03    -0.06   0.06   0.04     0.14  -0.07  -0.08
  56   6    -0.02  -0.02  -0.04     0.01   0.03  -0.06     0.09  -0.05  -0.01
  57   6    -0.03   0.04   0.08    -0.07   0.10  -0.12     0.06  -0.11   0.15
  58   6    -0.01   0.00   0.05    -0.06   0.09  -0.12     0.06  -0.11   0.17
  59   1    -0.04  -0.01  -0.02    -0.01  -0.00   0.01     0.00  -0.00  -0.00
  60   1    -0.06   0.01   0.00    -0.01   0.01   0.00     0.00  -0.01   0.00
  61   1    -0.03   0.00   0.01    -0.03   0.01   0.04     0.02  -0.00  -0.07
  62   1    -0.02  -0.02  -0.03    -0.02   0.00   0.06     0.01   0.01  -0.10
  63   1    -0.01   0.03   0.06    -0.00   0.01  -0.03    -0.01  -0.01   0.05
  64   1     0.01   0.03   0.01     0.00   0.00   0.05    -0.01   0.01  -0.03
  65   1     0.04   0.01  -0.00     0.01   0.00   0.00    -0.01   0.01  -0.01
  66   1     0.03  -0.01  -0.00     0.01  -0.00  -0.01    -0.01   0.01  -0.01
  67   1     0.01   0.03  -0.04    -0.02  -0.02   0.05    -0.00   0.02  -0.03
  68   1     0.02   0.05  -0.04    -0.01  -0.02   0.06    -0.01   0.02  -0.02
  69   1     0.05   0.01   0.06    -0.01   0.00  -0.04    -0.00   0.01   0.05
  70   1     0.03  -0.01   0.06    -0.00   0.00  -0.08    -0.00   0.00   0.06
  71   1    -0.00  -0.02  -0.03    -0.01  -0.03  -0.05    -0.01  -0.00  -0.00
  72   1     0.00   0.01   0.01    -0.01  -0.03  -0.06    -0.01  -0.02  -0.04
  73   1    -0.01   0.02  -0.02     0.04  -0.04   0.04     0.04  -0.05   0.06
  74   1    -0.00   0.01  -0.02     0.07  -0.07   0.08     0.06  -0.07   0.10
  75   1     0.03   0.00   0.00     0.06  -0.05   0.05     0.01  -0.02   0.03
  76   1     0.05   0.00   0.03     0.00   0.02  -0.04    -0.05   0.03  -0.07
  77   1     0.03   0.01   0.03    -0.02   0.04  -0.07    -0.05   0.04  -0.08
  78   1     0.04   0.01  -0.04     0.05   0.03  -0.05     0.03   0.02  -0.04
  79   1     0.01  -0.00  -0.05     0.08   0.05  -0.07     0.07   0.05  -0.06
  80   1    -0.05  -0.01  -0.00     0.06   0.02  -0.03     0.06   0.02  -0.02
  81   1    -0.08   0.00   0.05    -0.00  -0.03   0.05    -0.01  -0.04   0.05
  82   1    -0.04   0.02   0.05    -0.03  -0.04   0.05    -0.04  -0.05   0.05
  83   1     0.01   0.03   0.04     0.01   0.03   0.06    -0.01   0.01   0.03
  84   1     0.01  -0.01  -0.01     0.01   0.02   0.06    -0.01   0.02   0.04
  85   1     0.00  -0.04  -0.02    -0.02  -0.03  -0.02    -0.06   0.05   0.05
  86   1    -0.03  -0.02   0.01    -0.05  -0.01   0.03    -0.04   0.04   0.02
  87   1    -0.05   0.00   0.03    -0.06   0.02   0.06     0.03  -0.01  -0.03
  88   1    -0.03   0.01   0.02    -0.02   0.03   0.02     0.07  -0.04  -0.04
  89   1    -0.00  -0.00  -0.02     0.02   0.01  -0.03     0.04  -0.03  -0.01
  90   1    -0.00   0.02   0.03    -0.02   0.04  -0.04     0.02  -0.04   0.05
  91   1     0.01  -0.00   0.02    -0.02   0.03  -0.05     0.02  -0.04   0.06
                     19                     20                     21
                        a                      a                      a 
 Frequencies --   100.9576               104.4675               108.3956
 Red. masses --    11.6965                11.1873                10.2779
 Frc consts  --     0.0000                 0.0000                 0.0000
 IR Inten    --    10.4775                 1.5957                 8.4429
 Raman Activ --     0.0000                 0.0000                 0.0000
 Depolar     --     0.0000                 0.0000                 0.0000
 Atom AN      X      Y      Z        X      Y      Z        X      Y      Z
   1   7     0.05  -0.12  -0.31    -0.13   0.23   0.07    -0.04   0.13  -0.02
   2   6    -0.00  -0.05  -0.02     0.01   0.03   0.02     0.03   0.02   0.01
   3   6    -0.02  -0.02   0.14     0.08  -0.08  -0.00     0.07  -0.03   0.03
   4   6    -0.03  -0.03   0.15     0.10  -0.07  -0.02     0.10  -0.08   0.11
   5   6    -0.05   0.01   0.12     0.10  -0.08  -0.05     0.09  -0.06   0.07
   6   6    -0.06   0.05   0.08     0.08  -0.09  -0.07     0.04  -0.03  -0.03
   7   6    -0.07   0.06  -0.03     0.06  -0.05  -0.08     0.02   0.00  -0.04
   8   6    -0.07   0.04  -0.10     0.07  -0.03  -0.09    -0.01   0.02   0.31
   9   6    -0.05   0.01  -0.16     0.04   0.00  -0.00    -0.01   0.03   0.29
  10   6    -0.03   0.02  -0.15    -0.00   0.00   0.07    -0.02   0.01  -0.01
  11   6    -0.02   0.04  -0.15    -0.01  -0.01   0.08    -0.01  -0.00  -0.25
  12   6    -0.04   0.06  -0.08     0.01  -0.04   0.00     0.00  -0.02  -0.33
  13   6     0.02   0.04  -0.15    -0.02  -0.00   0.11    -0.01  -0.00  -0.24
  14   6     0.04   0.06  -0.11    -0.00   0.02   0.20     0.00   0.01  -0.25
  15   6     0.05   0.06  -0.04     0.03   0.03   0.12     0.01   0.02   0.02
  16   6     0.05   0.04   0.05     0.06   0.08   0.05     0.02   0.03   0.03
  17   6     0.04   0.01   0.10     0.10   0.10  -0.05    -0.01   0.01   0.09
  18   6     0.03  -0.02   0.14     0.11   0.11  -0.12    -0.01   0.00   0.11
  19   6     0.02  -0.01   0.12     0.08   0.09  -0.08    -0.00   0.04   0.03
  20   6     0.01  -0.04  -0.02     0.02  -0.02  -0.01    -0.02   0.00  -0.00
  21   7    -0.03  -0.12  -0.25    -0.07  -0.21   0.09    -0.06  -0.07  -0.06
  22   6     0.01  -0.00   0.12     0.06   0.10  -0.05     0.02   0.07  -0.05
  23   6     0.03   0.02   0.09     0.06   0.09   0.01     0.01   0.07  -0.03
  24   6     0.06   0.04  -0.07     0.04   0.02   0.01     0.03   0.00   0.32
  25   6     0.05   0.02  -0.12     0.02  -0.01  -0.06     0.02  -0.01   0.25
  26   6     0.04   0.02  -0.13    -0.02  -0.01  -0.01     0.00  -0.01  -0.04
  27   6     0.03  -0.00  -0.06    -0.02  -0.01  -0.04    -0.01  -0.01  -0.07
  28   6    -0.01  -0.00  -0.06    -0.02   0.01   0.08    -0.02  -0.01  -0.05
  29   7    -0.02  -0.02   0.09    -0.02   0.02   0.12    -0.02  -0.01  -0.02
  30   6     0.00  -0.03   0.15    -0.03   0.01  -0.00    -0.02  -0.01  -0.03
  31   6     0.01  -0.03   0.18    -0.04   0.01   0.01    -0.02  -0.01  -0.02
  32   6    -0.04  -0.06   0.05    -0.06  -0.06  -0.16    -0.02  -0.01  -0.02
  33   6    -0.04  -0.05  -0.05    -0.06  -0.06  -0.15    -0.02  -0.00  -0.01
  34   6     0.00  -0.01  -0.03    -0.08   0.00  -0.00    -0.03   0.00   0.00
  35   7     0.01   0.02  -0.15    -0.09  -0.00  -0.01    -0.03   0.01   0.01
  36   6    -0.01   0.02  -0.10    -0.08  -0.01  -0.03    -0.03   0.00  -0.00
  37   6    -0.01   0.07  -0.10    -0.12   0.00  -0.10    -0.03  -0.01  -0.00
  38   6    -0.01   0.05  -0.02    -0.08  -0.03  -0.07    -0.01  -0.03   0.00
  39   6     0.00  -0.02   0.08     0.00  -0.10   0.04     0.01  -0.03   0.01
  40   6     0.00  -0.06   0.07     0.03  -0.10   0.09     0.00  -0.01   0.00
  41   6    -0.01  -0.04  -0.03    -0.02  -0.05   0.04    -0.01   0.01  -0.00
  42   6     0.02   0.02  -0.09    -0.08   0.00   0.02    -0.03   0.01   0.01
  43   6    -0.06   0.01   0.02    -0.13   0.01   0.10    -0.02   0.02   0.00
  44   6    -0.08  -0.01   0.11    -0.07   0.04   0.08    -0.00   0.03  -0.01
  45   6    -0.01  -0.01   0.06     0.06   0.08  -0.04     0.01   0.03  -0.01
  46   6     0.08   0.01  -0.07     0.09   0.07  -0.10    -0.01   0.01   0.00
  47   6     0.08   0.02  -0.13     0.01   0.03  -0.05    -0.02   0.00   0.01
  48   6     0.06   0.02   0.12    -0.05   0.07   0.17    -0.02   0.00   0.01
  49   6     0.05   0.01   0.24    -0.05   0.08   0.20    -0.02  -0.01  -0.01
  50   7     0.04  -0.02   0.08    -0.03  -0.01  -0.15    -0.01  -0.02  -0.05
  51   6     0.04  -0.03   0.05    -0.01  -0.01  -0.10    -0.02  -0.01  -0.03
  52   6     0.07   0.00   0.01    -0.04  -0.06  -0.06    -0.07  -0.01   0.01
  53   6     0.01   0.02  -0.02    -0.06  -0.04   0.03    -0.05  -0.02   0.03
  54   6    -0.06   0.01  -0.01    -0.04   0.01   0.07     0.04  -0.04   0.00
  55   6    -0.08  -0.03   0.02     0.01   0.05   0.01     0.08  -0.03  -0.03
  56   6    -0.02  -0.05   0.05     0.03   0.04  -0.08     0.04  -0.02  -0.04
  57   6    -0.03   0.02   0.12     0.08  -0.11  -0.03     0.03   0.00  -0.07
  58   6    -0.01  -0.01   0.15     0.07  -0.11   0.01     0.03   0.00  -0.06
  59   1    -0.01  -0.01   0.05     0.03  -0.02  -0.00     0.04  -0.04   0.06
  60   1    -0.02   0.00   0.03     0.03  -0.02  -0.02     0.04  -0.02   0.03
  61   1    -0.02   0.01  -0.02     0.03  -0.01  -0.05    -0.01   0.01   0.16
  62   1    -0.02  -0.00  -0.06     0.02   0.01  -0.00    -0.00   0.02   0.15
  63   1    -0.01   0.02  -0.01     0.00  -0.02  -0.00     0.00  -0.02  -0.16
  64   1     0.01   0.02  -0.03    -0.00   0.01   0.09     0.00  -0.00  -0.12
  65   1     0.01   0.00   0.03     0.04   0.03  -0.01    -0.01  -0.00   0.04
  66   1     0.01  -0.01   0.04     0.04   0.04  -0.05    -0.01  -0.01   0.05
  67   1     0.00  -0.00   0.04     0.01   0.03  -0.01     0.01   0.03  -0.03
  68   1     0.01   0.01   0.02     0.01   0.03   0.01     0.00   0.03  -0.02
  69   1     0.02   0.01  -0.01     0.01   0.00  -0.01     0.02   0.00   0.17
  70   1     0.02   0.01  -0.04     0.01  -0.01  -0.04     0.01  -0.01   0.13
  71   1    -0.03  -0.03   0.00    -0.02  -0.04  -0.08    -0.01  -0.00  -0.01
  72   1    -0.02  -0.02  -0.04    -0.02  -0.04  -0.07    -0.01  -0.00  -0.00
  73   1    -0.00   0.03  -0.04    -0.05   0.01  -0.05    -0.01  -0.00  -0.00
  74   1    -0.00   0.03  -0.00    -0.03  -0.01  -0.04    -0.00  -0.01   0.00
  75   1     0.00  -0.01   0.04     0.01  -0.04   0.02     0.01  -0.01   0.00
  76   1     0.00  -0.03   0.04     0.03  -0.04   0.05     0.00  -0.00   0.00
  77   1    -0.00  -0.02  -0.01    -0.00  -0.02   0.02    -0.01   0.01  -0.00
  78   1    -0.03   0.01   0.01    -0.06  -0.00   0.05    -0.01   0.01   0.00
  79   1    -0.05  -0.01   0.06    -0.03   0.01   0.04     0.00   0.01  -0.00
  80   1    -0.01  -0.01   0.04     0.03   0.03  -0.02     0.01   0.01  -0.01
  81   1     0.04   0.00  -0.03     0.05   0.03  -0.05    -0.00   0.00   0.00
  82   1     0.04   0.01  -0.06     0.01   0.01  -0.02    -0.01  -0.00   0.01
  83   1     0.03   0.01   0.04    -0.01   0.04   0.08    -0.01   0.00   0.00
  84   1     0.03   0.01   0.10    -0.01   0.05   0.10    -0.01  -0.00  -0.00
  85   1     0.03   0.01   0.00    -0.02  -0.03  -0.02    -0.04  -0.00   0.01
  86   1     0.01   0.01  -0.01    -0.03  -0.02   0.02    -0.03  -0.01   0.02
  87   1    -0.03   0.01  -0.01    -0.02   0.01   0.04     0.02  -0.01   0.00
  88   1    -0.04  -0.01   0.01     0.01   0.03   0.01     0.04  -0.01  -0.01
  89   1    -0.01  -0.02   0.02     0.02   0.02  -0.03     0.02  -0.00  -0.02
  90   1    -0.01   0.01   0.03     0.02  -0.04  -0.01     0.01   0.01  -0.03
  91   1     0.00  -0.00   0.05     0.02  -0.04   0.01     0.00   0.01  -0.03
                     22                     23                     24
                        a                      a                      a 
 Frequencies --   117.4073               132.9144               134.7360
 Red. masses --    11.0754                11.4142                11.5185
 Frc consts  --     0.0000                 0.0000                 0.0000
 IR Inten    --    10.9305                 3.7895                 1.5052
 Raman Activ --     0.0000                 0.0000                 0.0000
 Depolar     --     0.0000                 0.0000                 0.0000
 Atom AN      X      Y      Z        X      Y      Z        X      Y      Z
   1   7    -0.16   0.18  -0.04    -0.02  -0.15   0.02    -0.12   0.12  -0.07
   2   6    -0.02  -0.03   0.02    -0.09  -0.03  -0.01    -0.01  -0.04   0.02
   3   6     0.05  -0.13   0.06    -0.12   0.01  -0.03     0.04  -0.11   0.07
   4   6     0.06  -0.13   0.05    -0.09   0.00  -0.01     0.03  -0.11   0.06
   5   6     0.03  -0.10  -0.01    -0.06  -0.03   0.02    -0.01  -0.05  -0.01
   6   6     0.01  -0.06  -0.07    -0.06  -0.04   0.04    -0.03   0.00  -0.07
   7   6    -0.02  -0.01  -0.10    -0.03  -0.06   0.04    -0.05   0.05  -0.09
   8   6    -0.02   0.01  -0.03    -0.02  -0.04   0.09    -0.05   0.05  -0.05
   9   6    -0.03   0.02   0.04    -0.01  -0.04   0.03    -0.05   0.05   0.03
  10   6    -0.04   0.02   0.05     0.02  -0.04  -0.06    -0.04   0.05   0.05
  11   6    -0.04   0.01  -0.01     0.00  -0.06  -0.05    -0.04   0.06   0.01
  12   6    -0.03  -0.01  -0.10    -0.00  -0.06  -0.03    -0.04   0.05  -0.07
  13   6    -0.02   0.02   0.00    -0.03  -0.06  -0.03    -0.03   0.06   0.04
  14   6    -0.01   0.05   0.09    -0.04  -0.06   0.13    -0.04   0.05   0.05
  15   6     0.02   0.05   0.01    -0.04  -0.06   0.16    -0.09   0.05   0.05
  16   6     0.04   0.10   0.05    -0.02  -0.01   0.10    -0.12   0.04   0.01
  17   6     0.04   0.12   0.03     0.00   0.04   0.01    -0.11   0.04  -0.03
  18   6     0.06   0.13   0.03     0.04   0.11  -0.11    -0.13   0.03  -0.07
  19   6     0.06   0.12   0.05     0.04   0.12  -0.14    -0.19   0.02  -0.06
  20   6    -0.00   0.00  -0.01     0.00   0.04  -0.04    -0.17   0.07  -0.02
  21   7    -0.14  -0.27  -0.14    -0.08  -0.13   0.15    -0.11   0.21   0.11
  22   6     0.06   0.11   0.06     0.04   0.10  -0.12    -0.20   0.01  -0.03
  23   6     0.06   0.09   0.06     0.01   0.04   0.01    -0.18   0.03   0.00
  24   6     0.02   0.03  -0.17    -0.04  -0.07   0.12    -0.08   0.04   0.05
  25   6     0.01   0.00  -0.19    -0.04  -0.06  -0.03    -0.06   0.04   0.02
  26   6    -0.02   0.00  -0.07    -0.04  -0.06  -0.11    -0.00   0.04   0.02
  27   6    -0.01  -0.00   0.02    -0.03  -0.03  -0.17     0.01   0.02   0.01
  28   6    -0.03   0.01   0.08     0.03  -0.02  -0.09    -0.02   0.02   0.06
  29   7    -0.04  -0.02   0.10     0.05   0.07   0.04    -0.03  -0.03   0.05
  30   6    -0.01  -0.03   0.06     0.02   0.10   0.05     0.03  -0.07  -0.03
  31   6    -0.03  -0.05  -0.01     0.03   0.15   0.17     0.05  -0.10  -0.03
  32   6    -0.01   0.05   0.18     0.08   0.16   0.24     0.07  -0.14  -0.08
  33   6    -0.01   0.07   0.19     0.07   0.09   0.15     0.08  -0.09  -0.05
  34   6     0.01  -0.00   0.01     0.07   0.02  -0.01     0.14  -0.04   0.01
  35   7     0.02   0.03   0.03     0.08  -0.04  -0.14     0.18  -0.01   0.01
  36   6     0.02   0.03   0.03     0.08  -0.05  -0.05     0.15   0.01   0.02
  37   6     0.04  -0.01   0.06     0.12   0.01   0.02     0.14   0.09   0.00
  38   6     0.06  -0.02   0.05     0.04   0.06   0.05     0.07   0.15  -0.03
  39   6     0.04   0.04  -0.02    -0.07   0.07  -0.01     0.04   0.13  -0.01
  40   6     0.01   0.08  -0.06    -0.08  -0.01  -0.04     0.07   0.03   0.04
  41   6     0.01   0.07  -0.02     0.01  -0.07  -0.05     0.13  -0.02   0.05
  42   6     0.03   0.03  -0.01     0.07  -0.05  -0.10     0.17  -0.01  -0.03
  43   6     0.08   0.04  -0.08     0.03  -0.04  -0.04     0.14  -0.09  -0.02
  44   6     0.04   0.02  -0.07     0.02  -0.06   0.04     0.02  -0.15   0.02
  45   6    -0.06  -0.02   0.04     0.04  -0.09   0.05    -0.05  -0.13   0.04
  46   6    -0.10  -0.02   0.09     0.09  -0.09  -0.02     0.02  -0.02  -0.02
  47   6    -0.04   0.01   0.05     0.10  -0.08  -0.09     0.14   0.03  -0.05
  48   6    -0.01  -0.12  -0.23     0.04   0.06   0.02     0.13  -0.01   0.06
  49   6    -0.01  -0.15  -0.26     0.05   0.13   0.13     0.12  -0.05   0.05
  50   7    -0.01  -0.02   0.04    -0.05   0.05  -0.13     0.04  -0.06  -0.08
  51   6    -0.01  -0.02   0.03    -0.07   0.06  -0.08     0.06  -0.06  -0.07
  52   6     0.07  -0.04  -0.02    -0.05   0.00  -0.06     0.00  -0.06  -0.03
  53   6     0.07  -0.04  -0.04     0.05  -0.04  -0.02    -0.07  -0.03   0.03
  54   6    -0.02  -0.02  -0.01     0.10   0.02  -0.00    -0.07  -0.01   0.05
  55   6    -0.10  -0.00   0.04     0.03   0.10   0.00     0.03  -0.03  -0.01
  56   6    -0.08  -0.01   0.05    -0.06   0.13  -0.04     0.08  -0.05  -0.06
  57   6     0.03  -0.09  -0.01    -0.09  -0.02   0.00     0.00  -0.03  -0.02
  58   6     0.05  -0.13   0.05    -0.12   0.02  -0.04     0.04  -0.09   0.05
  59   1     0.02  -0.04   0.02    -0.02   0.01  -0.00     0.01  -0.04   0.03
  60   1     0.01  -0.02  -0.01    -0.01  -0.01   0.01    -0.01  -0.01  -0.01
  61   1    -0.00   0.00  -0.01    -0.00  -0.01   0.05    -0.01   0.01  -0.02
  62   1    -0.01   0.01   0.02    -0.01  -0.02   0.01    -0.02   0.01   0.02
  63   1    -0.01  -0.00  -0.05     0.00  -0.02  -0.02    -0.01   0.01  -0.03
  64   1    -0.01   0.02   0.06    -0.01  -0.02   0.06    -0.01   0.01   0.02
  65   1     0.01   0.03   0.01    -0.00   0.00   0.02    -0.03   0.01  -0.01
  66   1     0.02   0.04   0.00     0.01   0.04  -0.04    -0.03   0.00  -0.03
  67   1     0.02   0.03   0.02     0.02   0.04  -0.05    -0.06   0.00  -0.01
  68   1     0.02   0.02   0.02    -0.00   0.01   0.01    -0.06   0.02   0.01
  69   1     0.01   0.01  -0.08    -0.01  -0.02   0.05    -0.02   0.01   0.02
  70   1     0.00  -0.00  -0.09    -0.01  -0.02  -0.02    -0.02   0.02  -0.00
  71   1     0.00   0.03   0.09     0.03   0.06   0.09     0.02  -0.05  -0.04
  72   1    -0.01   0.05   0.10     0.02   0.03   0.05     0.01  -0.02  -0.03
  73   1     0.02  -0.01   0.03     0.06   0.00   0.01     0.05   0.03  -0.00
  74   1     0.02  -0.02   0.02     0.02   0.03   0.03     0.01   0.06  -0.02
  75   1     0.01   0.01  -0.01    -0.04   0.03  -0.00    -0.01   0.05  -0.01
  76   1    -0.00   0.03  -0.03    -0.05  -0.01  -0.02     0.01   0.00   0.02
  77   1     0.00   0.03  -0.01     0.00  -0.04  -0.02     0.04  -0.02   0.02
  78   1     0.04   0.02  -0.04     0.00  -0.01  -0.01     0.06  -0.03  -0.01
  79   1     0.02   0.01  -0.04    -0.00  -0.02   0.03    -0.01  -0.06   0.02
  80   1    -0.03  -0.01   0.02     0.01  -0.03   0.03    -0.05  -0.05   0.03
  81   1    -0.05  -0.01   0.05     0.03  -0.03  -0.00    -0.00   0.00  -0.01
  82   1    -0.01   0.00   0.02     0.03  -0.03  -0.04     0.05   0.03  -0.02
  83   1    -0.01  -0.06  -0.11     0.00   0.00  -0.02     0.04   0.00   0.03
  84   1    -0.00  -0.07  -0.13     0.01   0.04   0.04     0.05  -0.02   0.03
  85   1     0.04  -0.01  -0.01    -0.02  -0.01  -0.02    -0.00  -0.02  -0.01
  86   1     0.04  -0.02  -0.02     0.03  -0.03  -0.00    -0.04  -0.01   0.02
  87   1    -0.01  -0.01  -0.01     0.05  -0.00   0.00    -0.04   0.01   0.03
  88   1    -0.05   0.00   0.02     0.01   0.04   0.01     0.01  -0.00  -0.00
  89   1    -0.03  -0.00   0.02    -0.03   0.06  -0.02     0.04  -0.02  -0.03
  90   1     0.01  -0.03  -0.01    -0.03  -0.01   0.00    -0.00  -0.00  -0.01
  91   1     0.02  -0.04   0.02    -0.04   0.01  -0.02     0.02  -0.03   0.02
                     25                     26                     27
                        a                      a                      a 
 Frequencies --   140.0894               147.2225               150.4888
 Red. masses --    11.8548                11.9010                11.5684
 Frc consts  --     0.0000                 0.0000                 0.0000
 IR Inten    --    63.5122                14.1912                 6.5349
 Raman Activ --     0.0000                 0.0000                 0.0000
 Depolar     --     0.0000                 0.0000                 0.0000
 Atom AN      X      Y      Z        X      Y      Z        X      Y      Z
   1   7    -0.14   0.15   0.34     0.33  -0.15  -0.06     0.04   0.20   0.17
   2   6    -0.01  -0.03  -0.08     0.10   0.17   0.00     0.13   0.05  -0.05
   3   6     0.02  -0.08  -0.23     0.03   0.27   0.00     0.15   0.01  -0.12
   4   6    -0.05  -0.10  -0.19     0.09   0.27  -0.00     0.06  -0.00  -0.09
   5   6    -0.06  -0.09  -0.02     0.16   0.15   0.02     0.03   0.03   0.01
   6   6     0.02  -0.06   0.09     0.12   0.02   0.04     0.07   0.05   0.07
   7   6     0.01  -0.04   0.20     0.14  -0.05   0.01     0.03   0.07   0.11
   8   6     0.03  -0.02   0.08     0.13  -0.06  -0.02     0.02   0.04   0.07
   9   6     0.01  -0.00  -0.03     0.10  -0.03  -0.04     0.02   0.03  -0.06
  10   6    -0.00  -0.00  -0.06     0.02  -0.03  -0.02    -0.03   0.02  -0.12
  11   6    -0.02  -0.01   0.06     0.03  -0.03  -0.03    -0.02   0.05  -0.02
  12   6    -0.01  -0.03   0.26     0.07  -0.06  -0.03    -0.01   0.06   0.09
  13   6    -0.03  -0.00  -0.04    -0.03  -0.03  -0.01     0.01   0.05  -0.02
  14   6    -0.03   0.01  -0.20    -0.06  -0.06   0.01     0.02   0.05   0.10
  15   6    -0.03   0.02  -0.14    -0.11  -0.06   0.04     0.02   0.05   0.09
  16   6    -0.02   0.06  -0.06    -0.10   0.01   0.06    -0.00   0.01   0.05
  17   6    -0.09   0.10   0.01    -0.13   0.11   0.02     0.05  -0.04   0.00
  18   6    -0.07   0.14   0.12    -0.08   0.22  -0.04     0.01  -0.11  -0.07
  19   6    -0.02   0.13   0.16    -0.04   0.22  -0.04    -0.07  -0.11  -0.09
  20   6    -0.05   0.06   0.05    -0.09   0.13  -0.01    -0.03  -0.04  -0.04
  21   7    -0.18  -0.17  -0.23    -0.25  -0.17   0.00     0.08   0.19   0.14
  22   6     0.04   0.07   0.12    -0.00   0.14  -0.01    -0.11  -0.05  -0.06
  23   6     0.02   0.04   0.01    -0.05   0.03   0.04    -0.08   0.02   0.01
  24   6    -0.02   0.00  -0.05    -0.10  -0.07  -0.01     0.02   0.04   0.06
  25   6    -0.02  -0.01   0.02    -0.08  -0.04  -0.05     0.02   0.03  -0.05
  26   6    -0.01  -0.01   0.02    -0.03  -0.03  -0.02     0.02   0.03  -0.11
  27   6    -0.01   0.00   0.02    -0.02  -0.04   0.01     0.00  -0.01  -0.15
  28   6    -0.00  -0.01  -0.12    -0.00  -0.03   0.00    -0.04  -0.01  -0.16
  29   7     0.01  -0.02  -0.19    -0.01  -0.07  -0.00    -0.08  -0.08  -0.07
  30   6     0.00  -0.01  -0.05    -0.01  -0.08   0.01    -0.03  -0.10   0.03
  31   6     0.03   0.01   0.02    -0.01  -0.09  -0.02    -0.04  -0.11   0.16
  32   6     0.03  -0.02  -0.02    -0.03  -0.09  -0.03    -0.08  -0.03   0.26
  33   6     0.03  -0.02  -0.03    -0.02  -0.05  -0.02    -0.08   0.01   0.21
  34   6     0.05  -0.00   0.00    -0.00  -0.03   0.01    -0.05  -0.04   0.06
  35   7     0.06  -0.01  -0.03     0.00   0.01   0.03    -0.05   0.03  -0.10
  36   6     0.05  -0.01  -0.02    -0.01   0.02   0.00    -0.07   0.04  -0.09
  37   6     0.05   0.02  -0.01    -0.02   0.02  -0.01    -0.04   0.02  -0.05
  38   6     0.02   0.05   0.00     0.00   0.00  -0.01     0.01  -0.04   0.05
  39   6    -0.01   0.04   0.00     0.03  -0.01   0.01     0.02  -0.05   0.06
  40   6    -0.01  -0.01   0.01     0.03   0.01   0.01    -0.04   0.00  -0.03
  41   6     0.03  -0.03  -0.00     0.01   0.03   0.00    -0.08   0.05  -0.10
  42   6     0.04  -0.02  -0.02     0.02   0.02   0.01    -0.01   0.04  -0.09
  43   6     0.02  -0.04   0.00     0.02   0.01  -0.01    -0.02   0.08  -0.07
  44   6     0.00  -0.05   0.02    -0.00  -0.00  -0.00    -0.03   0.07   0.01
  45   6     0.01  -0.04   0.01    -0.03   0.00   0.01    -0.03   0.02   0.06
  46   6     0.04  -0.02  -0.02    -0.02   0.02   0.01    -0.01  -0.00   0.01
  47   6     0.05  -0.02  -0.03     0.00   0.03   0.00     0.00   0.01  -0.07
  48   6     0.05   0.05   0.09     0.02  -0.05   0.00    -0.00  -0.10   0.02
  49   6     0.04   0.05   0.10     0.01  -0.08  -0.02    -0.01  -0.13   0.08
  50   7     0.00   0.00   0.08    -0.01  -0.08   0.03     0.02  -0.08  -0.05
  51   6     0.00   0.00   0.06    -0.00  -0.08   0.03     0.02  -0.08  -0.02
  52   6     0.00   0.03   0.05    -0.02  -0.08   0.03     0.03  -0.10  -0.02
  53   6     0.00   0.03  -0.00    -0.04  -0.07   0.01     0.01  -0.09  -0.02
  54   6     0.00  -0.01  -0.03    -0.05  -0.09   0.00    -0.03  -0.08   0.00
  55   6    -0.01  -0.04  -0.00    -0.03  -0.11  -0.00    -0.05  -0.06   0.01
  56   6    -0.01  -0.03   0.04    -0.02  -0.11   0.01    -0.03  -0.07  -0.01
  57   6     0.07  -0.01  -0.00     0.06   0.04   0.03     0.16   0.07   0.02
  58   6     0.07  -0.02  -0.17    -0.01   0.16   0.01     0.19   0.04  -0.07
  59   1    -0.03  -0.04  -0.07     0.03   0.10  -0.01     0.00  -0.02  -0.04
  60   1    -0.04  -0.04   0.01     0.07   0.04   0.01    -0.00   0.00   0.01
  61   1     0.02  -0.01   0.02     0.04  -0.02  -0.00     0.00   0.01   0.03
  62   1     0.01   0.00  -0.03     0.04   0.01  -0.02     0.01   0.02  -0.03
  63   1    -0.01  -0.01   0.12     0.01  -0.03  -0.02    -0.01   0.01   0.04
  64   1    -0.01   0.00  -0.10    -0.01  -0.03  -0.00     0.01   0.02   0.05
  65   1    -0.04   0.03  -0.01    -0.06   0.03   0.01     0.03  -0.01   0.00
  66   1    -0.03   0.05   0.05    -0.03   0.08  -0.02     0.02  -0.05  -0.03
  67   1     0.03   0.02   0.05     0.02   0.04  -0.00    -0.05  -0.01  -0.03
  68   1     0.02   0.00  -0.01    -0.01  -0.01   0.02    -0.04   0.02   0.01
  69   1     0.00   0.00  -0.01    -0.03  -0.02  -0.01     0.01   0.01   0.03
  70   1    -0.00  -0.00   0.02    -0.03  -0.00  -0.03     0.01   0.01  -0.03
  71   1     0.01  -0.01  -0.01    -0.01  -0.03  -0.01    -0.03  -0.00   0.09
  72   1     0.01  -0.01  -0.02    -0.01  -0.01  -0.01    -0.03   0.02   0.07
  73   1     0.02   0.01  -0.00    -0.01   0.01  -0.01    -0.01   0.01  -0.02
  74   1     0.01   0.02   0.00    -0.00  -0.00  -0.00     0.01  -0.02   0.03
  75   1    -0.01   0.02   0.00     0.01  -0.01   0.01     0.02  -0.03   0.04
  76   1    -0.01  -0.01   0.01     0.01   0.00   0.01    -0.01   0.00  -0.01
  77   1     0.01  -0.02  -0.00     0.00   0.01   0.00    -0.03   0.02  -0.04
  78   1     0.01  -0.01   0.00     0.01   0.00  -0.00    -0.01   0.03  -0.03
  79   1    -0.01  -0.02   0.01    -0.00  -0.00  -0.00    -0.01   0.03   0.01
  80   1    -0.00  -0.02   0.01    -0.02  -0.00   0.00    -0.02   0.00   0.04
  81   1     0.01  -0.00  -0.01    -0.01   0.01   0.00     0.00  -0.01   0.01
  82   1     0.02  -0.00  -0.01     0.00   0.01   0.00     0.00  -0.00  -0.03
  83   1     0.01   0.02   0.04     0.01  -0.01   0.00     0.01  -0.03  -0.02
  84   1     0.01   0.02   0.05     0.01  -0.03  -0.01     0.00  -0.05   0.01
  85   1     0.00   0.02   0.02    -0.00  -0.02   0.01     0.01  -0.03  -0.01
  86   1     0.00   0.02  -0.00    -0.01  -0.01   0.00     0.01  -0.03  -0.01
  87   1     0.00  -0.00  -0.02    -0.02  -0.02  -0.00    -0.02  -0.02   0.00
  88   1    -0.00  -0.02  -0.01    -0.01  -0.03  -0.00    -0.03  -0.01   0.01
  89   1    -0.00  -0.02   0.02    -0.00  -0.04   0.01    -0.01  -0.02  -0.00
  90   1     0.03   0.01   0.02     0.01  -0.01   0.01     0.06   0.04   0.02
  91   1     0.04   0.00  -0.07    -0.03   0.04   0.01     0.07   0.01  -0.03
                     28                     29                     30
                        a                      a                      a 
 Frequencies --   167.1263               183.2974               200.9116
 Red. masses --    11.1885                11.3611                11.3058
 Frc consts  --     0.0000                 0.0000                 0.0000
 IR Inten    --     7.9559                15.3070                10.1799
 Raman Activ --     0.0000                 0.0000                 0.0000
 Depolar     --     0.0000                 0.0000                 0.0000
 Atom AN      X      Y      Z        X      Y      Z        X      Y      Z
   1   7     0.07  -0.02  -0.05    -0.06  -0.11   0.12    -0.02  -0.10  -0.09
   2   6     0.03   0.04   0.02    -0.11  -0.02  -0.08    -0.08   0.00   0.06
   3   6     0.02   0.05   0.04    -0.12   0.00  -0.13    -0.08   0.01   0.08
   4   6     0.04   0.07  -0.00    -0.09  -0.03  -0.08     0.02   0.02   0.04
   5   6     0.05   0.04  -0.03    -0.04  -0.09   0.07     0.06  -0.03  -0.07
   6   6     0.04   0.00  -0.04     0.00  -0.08   0.13     0.02  -0.07  -0.11
   7   6     0.03  -0.01  -0.04     0.01  -0.06   0.10     0.03  -0.06  -0.07
   8   6     0.04  -0.02  -0.21     0.06  -0.02  -0.08     0.04  -0.02   0.09
   9   6     0.02  -0.00  -0.05     0.04   0.02  -0.11     0.02   0.02   0.14
  10   6    -0.01   0.01   0.15     0.02   0.03  -0.03     0.01   0.02   0.06
  11   6    -0.00   0.01   0.13    -0.00  -0.02  -0.05    -0.00  -0.01   0.08
  12   6     0.01   0.00   0.14     0.01  -0.05   0.10     0.02  -0.05  -0.05
  13   6    -0.02   0.01   0.05     0.02  -0.02  -0.12     0.01  -0.00   0.14
  14   6    -0.01   0.04  -0.19     0.01  -0.02  -0.14     0.00  -0.01   0.09
  15   6     0.02   0.04  -0.17    -0.00  -0.02   0.04    -0.01  -0.02  -0.05
  16   6     0.02   0.05  -0.16    -0.01  -0.02   0.06    -0.01  -0.01  -0.08
  17   6    -0.02   0.04  -0.06    -0.01  -0.02   0.05    -0.04   0.02  -0.06
  18   6    -0.05  -0.02   0.13     0.00   0.00  -0.00    -0.03   0.03   0.02
  19   6    -0.04  -0.04   0.19     0.01   0.03  -0.06    -0.00   0.02   0.07
  20   6    -0.03  -0.01   0.09     0.00   0.02  -0.04    -0.00   0.02   0.05
  21   7    -0.01   0.04  -0.19    -0.02  -0.02   0.06    -0.02  -0.02  -0.07
  22   6     0.00  -0.03   0.09     0.00   0.02  -0.05     0.03  -0.01   0.04
  23   6     0.03   0.02  -0.09    -0.01  -0.01   0.03     0.02  -0.02  -0.05
  24   6     0.04   0.02   0.09    -0.00  -0.01   0.17    -0.02   0.00  -0.09
  25   6     0.03  -0.01   0.19    -0.00   0.00   0.01    -0.01   0.02   0.08
  26   6    -0.01  -0.01   0.09     0.01   0.00  -0.12     0.01   0.02   0.16
  27   6    -0.03  -0.03  -0.01     0.04   0.05  -0.09     0.03   0.06   0.06
  28   6    -0.01  -0.00   0.17     0.01   0.07   0.07    -0.00   0.03  -0.09
[...]
  35   7    -0.00  -0.00  -0.00    -0.00  -0.00  -0.00     0.00   0.00   0.00
  36   6     0.00   0.00   0.00     0.00   0.00   0.00    -0.00  -0.00  -0.00
  37   6    -0.00   0.00   0.00    -0.00   0.01   0.01     0.01  -0.04  -0.03
  38   6    -0.00  -0.00   0.00    -0.02  -0.00   0.01     0.11   0.01  -0.06
  39   6    -0.00  -0.00  -0.00    -0.02  -0.03  -0.01     0.13   0.17   0.03
  40   6     0.00  -0.00  -0.00     0.00  -0.01  -0.01    -0.03   0.08   0.07
  41   6     0.00   0.00  -0.00     0.01   0.00  -0.00    -0.04  -0.00   0.03
  42   6     0.00   0.00  -0.00     0.00  -0.00  -0.00     0.00  -0.00   0.00
  43   6    -0.00  -0.00  -0.00    -0.00  -0.00  -0.00     0.00   0.00   0.00
  44   6    -0.00   0.00  -0.00    -0.01   0.00  -0.00     0.00  -0.00   0.00
  45   6    -0.00   0.00   0.00    -0.01   0.01   0.00     0.00  -0.00  -0.00
  46   6     0.00   0.00   0.00     0.00   0.00   0.00    -0.00  -0.00  -0.00
  47   6     0.00  -0.00   0.00     0.00  -0.00   0.00     0.00  -0.00   0.00
  48   6    -0.00   0.00  -0.00    -0.00  -0.00   0.00     0.00  -0.00   0.00
  49   6    -0.00  -0.00   0.00    -0.00  -0.00   0.00    -0.00  -0.00   0.00
  50   7     0.00  -0.00   0.00     0.00   0.00  -0.00     0.00   0.00  -0.00
  51   6    -0.00  -0.00   0.00    -0.00  -0.01   0.00    -0.00  -0.00   0.00
  52   6    -0.00   0.00  -0.00     0.01  -0.04   0.05     0.00  -0.01   0.01
  53   6    -0.00  -0.00  -0.00     0.07   0.05   0.09     0.01   0.01   0.02
  54   6    -0.00  -0.00   0.00     0.07   0.19  -0.02     0.01   0.03  -0.00
  55   6    -0.00   0.00  -0.00    -0.02   0.07  -0.11    -0.00   0.01  -0.02
  56   6    -0.00  -0.00  -0.00    -0.03  -0.02  -0.04    -0.00  -0.00  -0.01
  57   6    -0.00   0.00   0.00     0.00  -0.00  -0.00     0.00  -0.00  -0.00
  58   6    -0.00   0.00   0.00    -0.00  -0.00  -0.00    -0.00  -0.00  -0.00
  59   1     0.04  -0.02  -0.02     0.00  -0.00  -0.00     0.01  -0.00  -0.00
  60   1    -0.00  -0.12  -0.07    -0.00  -0.00  -0.00    -0.00  -0.01  -0.00
  61   1    -0.00   0.03  -0.00     0.00  -0.00   0.00     0.00  -0.01   0.00
  62   1     0.01  -0.01   0.00     0.00  -0.00   0.00     0.05  -0.02   0.00
  63   1     0.75  -0.35   0.09    -0.00   0.00  -0.00     0.01  -0.00   0.00
  64   1    -0.37  -0.23   0.03     0.00   0.00  -0.00    -0.02  -0.01   0.00
  65   1     0.01  -0.08  -0.04    -0.00   0.00   0.00    -0.00   0.00   0.00
  66   1    -0.02  -0.01  -0.01     0.00   0.00   0.00     0.01   0.00   0.00
  67   1     0.00  -0.00  -0.00     0.00  -0.00  -0.00     0.00  -0.01  -0.00
  68   1    -0.00  -0.00  -0.00    -0.01  -0.00  -0.00    -0.01  -0.01  -0.01
  69   1    -0.00   0.03  -0.00     0.00   0.00  -0.00     0.00  -0.00   0.00
  70   1    -0.00  -0.00  -0.00     0.01   0.01  -0.00     0.01   0.01  -0.00
  71   1     0.00  -0.00   0.00    -0.00   0.01  -0.01     0.00  -0.00   0.00
  72   1     0.00   0.00  -0.00     0.00   0.00  -0.00     0.00   0.00  -0.00
  73   1     0.00  -0.00  -0.00     0.01  -0.03  -0.02    -0.05   0.13   0.11
  74   1     0.01   0.00  -0.00     0.07   0.00  -0.04    -0.36  -0.02   0.20
  75   1     0.01   0.01   0.00     0.08   0.10   0.02    -0.44  -0.57  -0.09
  76   1    -0.00   0.00   0.00    -0.02   0.04   0.04     0.10  -0.27  -0.23
  77   1    -0.00  -0.00   0.00    -0.02  -0.00   0.01     0.15   0.01  -0.08
  78   1     0.00   0.00   0.00     0.00   0.01   0.01    -0.00  -0.00  -0.00
  79   1     0.00  -0.00   0.00     0.02  -0.01   0.01    -0.01   0.00  -0.00
  80   1     0.00  -0.01  -0.00     0.02  -0.04  -0.01    -0.01   0.01   0.00
  81   1    -0.00  -0.00  -0.00    -0.01  -0.02  -0.02     0.00   0.00   0.00
  82   1    -0.00   0.00  -0.00    -0.01   0.00  -0.01    -0.00   0.00  -0.00
  83   1     0.00  -0.00   0.00    -0.00   0.00  -0.00    -0.00   0.00  -0.00
  84   1     0.00   0.00  -0.00     0.00   0.00  -0.00     0.01   0.01  -0.00
  85   1     0.00  -0.00   0.00    -0.04   0.11  -0.17    -0.01   0.02  -0.03
  86   1     0.00   0.00   0.00    -0.22  -0.16  -0.30    -0.04  -0.03  -0.06
  87   1     0.00   0.00  -0.00    -0.25  -0.63   0.05    -0.05  -0.11   0.01
  88   1     0.00  -0.00   0.00     0.08  -0.23   0.35     0.01  -0.04   0.06
  89   1     0.00   0.00   0.00     0.11   0.08   0.15     0.01   0.01   0.02
  90   1     0.01  -0.01  -0.01    -0.00   0.00   0.00    -0.01   0.01   0.01
  91   1    -0.00  -0.01  -0.00     0.00   0.00   0.00     0.00   0.01   0.01
                    262                    263                    264
                        a                      a                      a 
 Frequencies --  3103.0714              3106.7386              3114.8856
 Red. masses --     1.9178                 1.8599                 1.7861
 Frc consts  --     0.0000                 0.0000                 0.0000
 IR Inten    --   111.4117               126.8514                23.6221
 Raman Activ --     0.0000                 0.0000                 0.0000
 Depolar     --     0.0000                 0.0000                 0.0000
 Atom AN      X      Y      Z        X      Y      Z        X      Y      Z
   1   7    -0.00  -0.00  -0.00     0.00   0.00  -0.00    -0.00  -0.00   0.00
   2   6     0.00   0.00   0.00    -0.00  -0.00   0.00     0.00   0.00  -0.00
   3   6     0.00   0.00  -0.00    -0.00   0.00   0.00    -0.00   0.00   0.00
   4   6     0.00  -0.00  -0.00     0.00  -0.00  -0.00     0.00  -0.00  -0.00
   5   6     0.00  -0.00  -0.00     0.00  -0.00  -0.00    -0.00  -0.01  -0.01
   6   6    -0.00  -0.00   0.00     0.00  -0.00  -0.00     0.00   0.00  -0.00
   7   6    -0.00   0.00  -0.00    -0.00   0.00  -0.00     0.00  -0.00   0.00
   8   6     0.00  -0.00   0.00     0.00  -0.08   0.01    -0.00   0.00  -0.00
   9   6     0.02  -0.01   0.00     0.24  -0.11   0.02     0.01  -0.00   0.00
  10   6     0.00   0.00   0.00     0.01   0.00   0.00    -0.00   0.00  -0.00
  11   6    -0.00   0.00  -0.00    -0.00   0.00  -0.00     0.00  -0.00   0.00
  12   6     0.00  -0.00   0.00    -0.00   0.00  -0.00     0.11  -0.05   0.01
  13   6     0.00  -0.00   0.00     0.00   0.00   0.00     0.00   0.01  -0.00
  14   6    -0.00  -0.00   0.00    -0.00  -0.00   0.00     0.20   0.12  -0.01
  15   6    -0.00  -0.00  -0.00    -0.00   0.00  -0.00     0.01   0.00  -0.00
  16   6    -0.00   0.00  -0.00    -0.00   0.00  -0.00     0.00   0.00   0.00
  17   6    -0.00   0.00   0.00     0.00   0.00   0.00    -0.00   0.02   0.01
  18   6     0.00   0.00   0.00     0.00   0.00   0.00     0.00   0.00   0.00
  19   6     0.00  -0.00   0.00     0.00  -0.00   0.00    -0.00  -0.00  -0.00
  20   6     0.00  -0.00  -0.00    -0.00   0.00  -0.00     0.00  -0.00   0.00
  21   7    -0.00   0.00   0.00     0.00  -0.00   0.00    -0.00   0.00  -0.00
  22   6     0.00  -0.00  -0.00     0.00  -0.00  -0.00     0.00   0.00   0.00
  23   6    -0.00  -0.00  -0.00    -0.00  -0.00  -0.00     0.00   0.00   0.00
  24   6    -0.00  -0.00   0.00    -0.00   0.00  -0.00    -0.00  -0.01   0.00
  25   6     0.00   0.00   0.00     0.00   0.00   0.00    -0.01  -0.01   0.00
  26   6    -0.00   0.00  -0.00    -0.00   0.00  -0.00    -0.00  -0.00   0.00
  27   6     0.00  -0.00   0.00     0.00  -0.00   0.00     0.00   0.00  -0.00
  28   6     0.00   0.00   0.00     0.00  -0.00   0.00    -0.00  -0.00  -0.00
  29   7    -0.00  -0.00   0.00    -0.00   0.00   0.00     0.00   0.00  -0.00
  30   6     0.00   0.00  -0.00     0.00   0.00  -0.00    -0.00  -0.00   0.00
  31   6    -0.00   0.00   0.00     0.00   0.00  -0.00     0.00  -0.00   0.00
  32   6     0.00  -0.00   0.00     0.00  -0.00   0.00    -0.00   0.01  -0.00
  33   6    -0.00   0.00  -0.00     0.00   0.00  -0.00     0.00   0.00  -0.00
  34   6     0.00   0.00  -0.00    -0.00  -0.00   0.00     0.00   0.00  -0.00
  35   7     0.00   0.00   0.00     0.00   0.00   0.00    -0.00   0.00  -0.00
  36   6    -0.00  -0.00   0.00    -0.00  -0.00  -0.00     0.00   0.00   0.00
  37   6     0.00  -0.00  -0.00     0.00  -0.00  -0.00    -0.00   0.00   0.00
  38   6     0.00   0.00  -0.00     0.01   0.00  -0.00    -0.00  -0.00   0.00
  39   6     0.00   0.01   0.00     0.01   0.01   0.00    -0.00  -0.00  -0.00
  40   6    -0.00   0.00   0.00    -0.00   0.01   0.00     0.00  -0.00  -0.00
  41   6    -0.00  -0.00   0.00    -0.00  -0.00   0.00     0.00  -0.00  -0.00
  42   6     0.00  -0.00  -0.00    -0.00   0.00   0.00     0.00  -0.00  -0.00
  43   6    -0.02  -0.03  -0.03     0.00   0.00   0.00    -0.00  -0.00  -0.00
  44   6    -0.09   0.03  -0.06     0.01  -0.00   0.00    -0.00   0.00  -0.00
  45   6    -0.09   0.20   0.02     0.00  -0.01  -0.00    -0.00   0.00   0.00
  46   6     0.05   0.08   0.08    -0.00  -0.01  -0.01     0.00   0.00   0.00
  47   6     0.04  -0.02   0.03    -0.00   0.00  -0.00     0.00  -0.00   0.00
  48   6    -0.00   0.00  -0.00    -0.00   0.00  -0.00     0.00  -0.00   0.00
  49   6     0.00   0.00  -0.00     0.01   0.01  -0.00    -0.01  -0.01   0.01
  50   7    -0.00   0.00  -0.00    -0.00   0.00  -0.00     0.00  -0.00   0.00
  51   6     0.00   0.00  -0.00    -0.00  -0.00   0.00    -0.00   0.00  -0.00
  52   6    -0.00   0.00  -0.00     0.00  -0.00   0.00    -0.00   0.00  -0.00
  53   6    -0.00  -0.00  -0.01     0.00   0.00   0.00    -0.00  -0.00  -0.00
  54   6    -0.00  -0.01   0.00     0.00   0.00  -0.00    -0.00  -0.00   0.00
  55   6     0.00  -0.00   0.01    -0.00   0.00  -0.00     0.00  -0.00   0.00
  56   6     0.00   0.00   0.00    -0.00  -0.00  -0.00     0.00   0.00   0.00
  57   6    -0.00   0.00   0.00     0.00  -0.00  -0.00     0.00  -0.00  -0.00
  58   6     0.00   0.00   0.00     0.00  -0.00  -0.00     0.00  -0.00  -0.00
  59   1    -0.01   0.00   0.00    -0.00   0.00   0.00    -0.00   0.00   0.00
  60   1     0.00   0.00   0.00    -0.00   0.00   0.00     0.00   0.03   0.02
  61   1    -0.00   0.01  -0.00    -0.02   0.25  -0.02     0.00  -0.00   0.00
  62   1    -0.05   0.02  -0.00    -0.83   0.38  -0.07    -0.02   0.01  -0.00
  63   1    -0.00   0.00  -0.00     0.01  -0.01   0.00    -0.41   0.19  -0.04
  64   1     0.01   0.01  -0.00     0.01   0.01  -0.00    -0.71  -0.45   0.05
  65   1     0.00  -0.00  -0.00     0.00  -0.00  -0.00     0.01  -0.09  -0.04
  66   1    -0.01  -0.00  -0.00    -0.00  -0.00  -0.00    -0.01  -0.00  -0.00
  67   1    -0.00   0.01   0.00    -0.00   0.00   0.00     0.00  -0.00  -0.00
  68   1     0.01   0.01   0.01     0.00   0.00   0.00    -0.01  -0.00  -0.00
  69   1    -0.00   0.00  -0.00     0.00  -0.00   0.00    -0.00   0.02  -0.00
  70   1    -0.01  -0.01   0.00    -0.00  -0.00  -0.00     0.03   0.02  -0.00
  71   1    -0.00   0.00  -0.00    -0.00   0.01  -0.00     0.01  -0.02   0.01
  72   1    -0.00  -0.00   0.00    -0.00  -0.00   0.00    -0.00  -0.00   0.00
  73   1    -0.00   0.01   0.01    -0.00   0.01   0.01     0.00  -0.00  -0.00
  74   1    -0.01  -0.00   0.00    -0.02  -0.00   0.01     0.00   0.00  -0.00
  75   1    -0.01  -0.02  -0.00    -0.02  -0.03  -0.00     0.01   0.01   0.00
  76   1     0.00  -0.01  -0.01     0.01  -0.02  -0.01    -0.00   0.01   0.00
  77   1     0.01   0.00  -0.00     0.01   0.00  -0.00    -0.00  -0.00   0.00
  78   1     0.06   0.10   0.10    -0.00  -0.01  -0.01     0.00   0.00   0.00
  79   1     0.31  -0.10   0.21    -0.02   0.01  -0.01     0.01  -0.00   0.00
  80   1     0.29  -0.67  -0.08    -0.02   0.04   0.00     0.00  -0.01  -0.00
  81   1    -0.16  -0.26  -0.27     0.01   0.02   0.02    -0.00  -0.01  -0.01
  82   1    -0.15   0.05  -0.10     0.01  -0.00   0.01    -0.00   0.00  -0.00
  83   1     0.00  -0.00   0.00     0.00  -0.00   0.00    -0.00   0.01  -0.00
  84   1    -0.01  -0.01   0.00    -0.02  -0.03   0.01     0.03   0.04  -0.02
  85   1     0.00  -0.01   0.01    -0.00   0.00  -0.01     0.00  -0.00   0.00
  86   1     0.01   0.01   0.02    -0.00  -0.00  -0.01     0.00   0.00   0.00
  87   1     0.01   0.04  -0.00    -0.00  -0.01   0.00     0.00   0.00  -0.00
  88   1    -0.00   0.01  -0.02     0.00  -0.00   0.01    -0.00   0.00  -0.00
  89   1    -0.00  -0.00  -0.01     0.00   0.00   0.00    -0.00  -0.00  -0.00
  90   1     0.01  -0.00  -0.01    -0.01   0.01   0.01    -0.01   0.00   0.01
  91   1    -0.00  -0.01  -0.01     0.00   0.01   0.00     0.00   0.00   0.00
                    265                    266                    267
                        a                      a                      a 
 Frequencies --  3117.4512              3121.7701              3121.9844
 Red. masses --     1.8488                 1.8290                 1.8307
 Frc consts  --     0.0000                 0.0000                 0.0000
 IR Inten    --   114.6405               596.0797                21.1915
 Raman Activ --     0.0000                 0.0000                 0.0000
 Depolar     --     0.0000                 0.0000                 0.0000
 Atom AN      X      Y      Z        X      Y      Z        X      Y      Z
   1   7    -0.00  -0.00   0.00     0.00   0.00  -0.00    -0.00  -0.00   0.00
   2   6     0.00   0.00  -0.00    -0.00  -0.00   0.00     0.00   0.00  -0.00
   3   6    -0.00  -0.00   0.00     0.00   0.00   0.00    -0.00  -0.00   0.00
   4   6    -0.00   0.00   0.00     0.00  -0.00  -0.00    -0.00   0.00   0.00
   5   6    -0.00   0.00   0.00     0.00  -0.00  -0.00    -0.00  -0.00  -0.00
   6   6     0.00   0.00  -0.00    -0.00  -0.00  -0.00     0.00   0.00   0.00
   7   6    -0.00  -0.00  -0.00     0.00   0.00  -0.00    -0.00  -0.00   0.00
   8   6     0.00  -0.00   0.00    -0.00   0.00  -0.00     0.00  -0.00   0.00
   9   6     0.01  -0.00   0.00    -0.00   0.00  -0.00     0.00  -0.00   0.00
  10   6     0.00   0.00   0.00    -0.00  -0.00   0.00     0.00   0.00   0.00
  11   6    -0.00  -0.00   0.00     0.00   0.00  -0.00     0.00  -0.00   0.00
  12   6    -0.01   0.00  -0.00     0.00  -0.00   0.00     0.00  -0.00   0.00
  13   6    -0.00  -0.00   0.00    -0.00  -0.00  -0.00    -0.00  -0.00  -0.00
  14   6    -0.01  -0.01   0.00     0.01   0.01  -0.00     0.00   0.00  -0.00
  15   6    -0.00   0.00   0.00    -0.00  -0.00   0.00    -0.00  -0.00   0.00
  16   6     0.00  -0.00   0.00    -0.00   0.00   0.00     0.00   0.00   0.00
  17   6    -0.00  -0.00  -0.00     0.00   0.00   0.00    -0.00   0.00   0.00
  18   6    -0.00  -0.00  -0.00     0.00   0.00   0.00    -0.00  -0.00  -0.00
  19   6    -0.00   0.00   0.00     0.00  -0.00  -0.00    -0.00   0.00  -0.00
  20   6     0.00  -0.00   0.00    -0.00   0.00  -0.00     0.00  -0.00  -0.00
  21   7    -0.00   0.00  -0.00     0.00  -0.00   0.00    -0.00   0.00  -0.00
  22   6     0.00   0.00   0.00    -0.00  -0.00  -0.00     0.00   0.00   0.00
  23   6     0.00   0.00   0.00     0.00   0.00   0.00     0.00   0.00   0.00
  24   6     0.00  -0.00   0.00    -0.00   0.04  -0.00    -0.00   0.05  -0.00
  25   6    -0.01  -0.01  -0.00     0.14   0.09   0.00     0.17   0.11   0.00
  26   6     0.00  -0.00   0.00     0.00  -0.00  -0.00     0.01  -0.00  -0.00
  27   6    -0.00   0.00  -0.00     0.00  -0.00   0.00     0.00   0.00  -0.00
  28   6    -0.00  -0.00  -0.00     0.00   0.00   0.00    -0.00   0.00  -0.00
  29   7     0.00   0.00  -0.00    -0.00  -0.00   0.00     0.00   0.00  -0.00
  30   6    -0.00  -0.00   0.00     0.00   0.00  -0.00    -0.00   0.00  -0.00
  31   6    -0.01  -0.00   0.00     0.00  -0.00   0.00    -0.00   0.00  -0.00
  32   6     0.00  -0.00   0.00     0.08  -0.17   0.09    -0.07   0.14  -0.07
  33   6    -0.00  -0.00   0.00    -0.02  -0.03   0.01     0.02   0.02  -0.01
  34   6     0.00   0.00  -0.00    -0.00   0.00  -0.00     0.00  -0.00   0.00
  35   7    -0.00  -0.00  -0.00     0.00  -0.00  -0.00    -0.00   0.00   0.00
  36   6     0.00   0.00   0.00    -0.00  -0.00   0.00     0.00   0.00   0.00
  37   6    -0.00   0.00   0.00     0.00  -0.00  -0.00    -0.00   0.00   0.00
  38   6    -0.00   0.00   0.00     0.00   0.00  -0.00     0.00   0.00  -0.00
  39   6    -0.00  -0.00  -0.00     0.00   0.00   0.00     0.00   0.00   0.00
  40   6     0.00  -0.00  -0.00    -0.00   0.00   0.00    -0.00   0.00   0.00
  41   6     0.00   0.00  -0.00     0.00   0.00  -0.00    -0.00  -0.00   0.00
  42   6     0.00  -0.00   0.00    -0.00   0.00   0.00     0.00  -0.00  -0.00
  43   6    -0.00  -0.00  -0.00     0.00   0.00   0.00     0.00   0.00   0.00
  44   6    -0.00   0.00  -0.00     0.00  -0.00   0.00     0.00  -0.00   0.00
  45   6    -0.00   0.00   0.00     0.00  -0.00  -0.00     0.00  -0.00  -0.00
  46   6     0.00   0.00   0.00    -0.00  -0.00  -0.00    -0.00  -0.00  -0.00
  47   6    -0.00   0.00  -0.00    -0.00   0.00  -0.00     0.00  -0.00   0.00
  48   6     0.02  -0.05   0.02     0.00  -0.00   0.00     0.00  -0.00   0.00
  49   6    -0.17  -0.19   0.09    -0.01  -0.01   0.00    -0.01  -0.01   0.00
  50   7     0.00  -0.00   0.00    -0.00   0.00  -0.00    -0.00  -0.00   0.00
  51   6    -0.00   0.00  -0.00     0.00  -0.00   0.00     0.00  -0.00   0.00
  52   6    -0.00   0.00  -0.00    -0.00   0.00  -0.01     0.00  -0.00   0.01
  53   6    -0.00  -0.00  -0.00    -0.00  -0.00  -0.00     0.00   0.00   0.00
  54   6     0.00   0.00   0.00     0.00   0.00   0.00     0.00   0.00  -0.00
  55   6     0.00  -0.00   0.00    -0.00   0.00  -0.00     0.00   0.00  -0.00
  56   6     0.00   0.00   0.00    -0.00  -0.00  -0.00    -0.00  -0.00  -0.00
  57   6     0.00  -0.00  -0.00    -0.00   0.00   0.00     0.00  -0.00  -0.00
  58   6     0.00  -0.00  -0.00    -0.00   0.00   0.00     0.00  -0.00  -0.00
  59   1     0.00  -0.00  -0.00    -0.00   0.00   0.00     0.00  -0.00  -0.00
  60   1     0.00  -0.00  -0.00    -0.00   0.00   0.00    -0.00   0.00   0.00
  61   1    -0.00   0.01  -0.00     0.00  -0.00   0.00    -0.00   0.00  -0.00
  62   1    -0.04   0.02  -0.00     0.01  -0.00   0.00    -0.01   0.00  -0.00
  63   1     0.02  -0.01   0.00    -0.02   0.01  -0.00    -0.00   0.00  -0.00
  64   1     0.04   0.03  -0.00    -0.03  -0.02   0.00    -0.01  -0.01   0.00
  65   1    -0.00   0.01   0.00     0.00  -0.01  -0.00     0.00  -0.00  -0.00
  66   1     0.01   0.00   0.00    -0.00  -0.00  -0.00     0.00   0.00   0.00
  67   1     0.00  -0.00  -0.00    -0.00   0.00   0.00     0.00  -0.00  -0.00
  68   1    -0.00  -0.00  -0.00    -0.00  -0.00  -0.00    -0.01  -0.01  -0.01
  69   1    -0.00   0.01  -0.00     0.01  -0.12   0.00     0.01  -0.14   0.00
  70   1     0.04   0.03  -0.00    -0.51  -0.33   0.00    -0.60  -0.40   0.00
  71   1    -0.00   0.00  -0.00    -0.27   0.60  -0.30     0.23  -0.51   0.26
  72   1     0.01   0.01  -0.00     0.06   0.07  -0.04    -0.05  -0.06   0.04
  73   1     0.00  -0.00  -0.00    -0.00   0.00   0.00     0.00  -0.00  -0.00
  74   1     0.00   0.00  -0.00    -0.00  -0.00   0.00    -0.00  -0.00   0.00
  75   1     0.00   0.00   0.00    -0.00  -0.01  -0.00    -0.00  -0.00  -0.00
  76   1    -0.00   0.01   0.00     0.00  -0.00  -0.00     0.00  -0.00  -0.00
  77   1    -0.00  -0.00   0.00    -0.00  -0.00   0.00     0.00   0.00  -0.00
  78   1     0.00   0.00   0.00    -0.00  -0.00  -0.00    -0.00  -0.00  -0.00
  79   1     0.01  -0.00   0.00    -0.00   0.00  -0.00    -0.00   0.00  -0.00
  80   1     0.00  -0.00  -0.00    -0.00   0.00   0.00    -0.00   0.00   0.00
  81   1    -0.00  -0.00  -0.00     0.00   0.00   0.00     0.00   0.00   0.00
  82   1     0.00  -0.00   0.00     0.00  -0.00   0.00    -0.00   0.00  -0.00
  83   1    -0.06   0.14  -0.06    -0.01   0.01  -0.01    -0.00   0.00  -0.00
  84   1     0.58   0.67  -0.34     0.02   0.02  -0.01     0.03   0.03  -0.02
  85   1     0.00  -0.00   0.00     0.00  -0.01   0.01    -0.01   0.02  -0.02
  86   1     0.00   0.00   0.00     0.00   0.00   0.00    -0.01  -0.01  -0.01
  87   1    -0.00  -0.00   0.00    -0.00  -0.00   0.00    -0.00  -0.01   0.00
  88   1    -0.00   0.00  -0.00     0.00  -0.01   0.01     0.00  -0.00   0.00
  89   1    -0.00  -0.00  -0.00     0.01   0.01   0.01     0.01   0.01   0.01
  90   1    -0.01   0.00   0.00     0.01  -0.00  -0.00    -0.00   0.00   0.00
  91   1     0.00   0.00   0.00    -0.00  -0.00  -0.00     0.00   0.00   0.00
