$hessian                                                                        
        0.6309057782  -0.0677769940   0.1038043806  -0.2913891706  -0.0669837742
       -0.0986283718  -0.0594110531   0.0561110209   0.0116742825  -0.0242300761
       -0.0280926303  -0.0186080081  -0.0018795725   0.0010119577   0.0000151235
        0.0003052491  -0.0013404806  -0.0005462138  -0.0007434690   0.0003812614
       -0.0000067207  -0.0000121218  -0.0001136952  -0.0000404108  -0.0000619891
        0.0000404882   0.0000234549  -0.0000163459  -0.0000145193  -0.0000113470
       -0.0000042820   0.0000064122   0.0000034415   0.0000128111   0.0000131219
       -0.0000031909   0.0000493907   0.0000176217   0.0000037714   0.0004340676
        0.0001891418   0.0001900833  -0.0001774328  -0.0000165309  -0.0000499156
        0.0000637711   0.0000107288   0.0000319973   0.0000258617  -0.0000930438
       -0.0000463754   0.0000061704   0.0000003588   0.0000050228  -0.0000313318
        0.0000084544  -0.0000068145  -0.0000138181   0.0000007483  -0.0000045949
       -0.0000001835   0.0000026145   0.0000002979  -0.0000010903  -0.0000067157
       -0.0000001295  -0.0000081344  -0.0000023914   0.0000026821   0.0000066141
        0.0000016888  -0.0000023163  -0.0000008691  -0.0000022859   0.0000033467
        0.0000023709   0.0000000310   0.0000006133   0.0000003321   0.0000029584
        0.0000003896   0.0000017498   0.0000012655   0.0000031046  -0.0000023656
        0.0000007612   0.0000013824   0.0000007122   0.0000004889   0.0000005140
       -0.0000004820   0.0000010344  -0.0000001595  -0.0000000419  -0.0000006770
        0.0000009287  -0.0000003837  -0.0000001552   0.0000000933   0.0000007261
       -0.0000004073  -0.0000006686   0.0000007803  -0.0000009119  -0.0000006673
       -0.0000020545   0.0000026700   0.0000004133  -0.0000013925   0.0000045221
       -0.0000010728   0.0000024304   0.0000030746  -0.0000010577   0.0000000527
        0.0000005781   0.0000013290   0.0000018848  -0.0000033705  -0.0000003417
       -0.0000076566  -0.0000052146  -0.0000042087   0.0000088692  -0.0000046858
       -0.0000046803  -0.0000545154  -0.0000042402  -0.0000067172   0.0000620599
       -0.0000283733  -0.0000055224  -0.0000013585  -0.0000183896  -0.0000157641
       -0.0000052723   0.0000118752   0.0000031327  -0.0000102733  -0.0000018837
       -0.0000027707   0.0000054188   0.0000029411   0.0000007590   0.0000030865
        0.0000066442   0.0000013302   0.0000114972  -0.0000060213  -0.0000024373
        0.0000558383  -0.0000163671  -0.0000015409   0.0000038016   0.0000345201
        0.0000168588  -0.0000400239   0.0000008871   0.0000147064  -0.0000006121
       -0.0000474617  -0.0000258813  -0.0000460965   0.0000006177  -0.0000044554
       -0.0000527704  -0.0000002451   0.0000065430   0.0000098860  -0.0000051079
        0.0000028021  -0.0000108534  -0.0000033422   0.0000027694  -0.0000053131
        0.0000338468   0.0000143706   0.0004098355   0.0002079225   0.0002015855
        0.0451384489   0.0010392331   0.0122613079  -0.1044466422  -0.0033211793
       -0.0165583202  -0.1751879128   0.1270012299   0.0257253007  -0.0074654700
       -0.0029316270  -0.0037678773  -0.0020026636   0.0039462272  -0.0008410674
        0.0000099165   0.0000003462   0.0000002699   0.0000055062  -0.0000036913
       -0.0000059096   0.0000032095  -0.0000026157  -0.0000065530  -0.0000017359
       -0.0000018492  -0.0000024476   0.0000244944  -0.0000185558   0.0000009583
        0.0000413922   0.0000472803   0.0000520528  -0.0000046981   0.0000135804
        0.0000111538  -0.0000035218   0.0000053914   0.0000050136  -0.0000001548
        0.0000021497   0.0000013542   0.0000002520   0.0000012298   0.0000014538
       -0.0000003198   0.0000012597   0.0000030982  -0.0000017788   0.0000012887
        0.0000030099  -0.0000014489   0.0000012728   0.0000013504  -0.0000015609
       -0.0000000442   0.0000008460  -0.0000015786  -0.0000006642  -0.0000007810
       -0.0000007439   0.0000000348  -0.0000014853   0.0000001929   0.0000001096
       -0.0000009146  -0.0000010824   0.0000011261  -0.0000002724  -0.0000010695
        0.0000026725  -0.0000008972   0.0000039753   0.0000043971   0.0000025607
       -0.0000019820   0.0000024411   0.0000022480   0.0000087539  -0.0000037736
       -0.0000031932   0.0000046192  -0.0000029454  -0.0000052306   0.0000003139
       -0.0000025093  -0.0000047178   0.0000047757   0.0000002240  -0.0000015139
        0.0000066124  -0.0000033641   0.0000017566   0.0000731210   0.0000312349
       -0.0000057880  -0.0000918508   0.0000577589   0.0000125004   0.0000412505
       -0.0000117817   0.0000051568  -0.0000014294   0.0000053997   0.0000009202
        0.0000013718   0.0000042535  -0.0000004499  -0.0000138487   0.0000062648
        0.0000019761  -0.0019982028   0.0042582605  -0.0006460279  -0.0083071515
       -0.0236524085  -0.0142399960
       -0.0677769940   0.5591063483   0.2014928381   0.0025027062  -0.0938180843
       -0.0220877678   0.0042447449   0.0368262983   0.0188259146  -0.0279334305
       -0.0199291048  -0.0140349544   0.0009021554  -0.0016448665  -0.0004181546
        0.0002169176   0.0003156564   0.0002413856   0.0000078890  -0.0001013507
       -0.0001200112   0.0000113161   0.0000470576   0.0000387161   0.0000312250
       -0.0000061663   0.0000007291   0.0000072728  -0.0000110564  -0.0000146652
        0.0000059176  -0.0000175880  -0.0000175946  -0.0000006007   0.0000080467
        0.0000007908  -0.0000849032   0.0000033135   0.0000166975   0.0001851995
        0.0003253643   0.0002476456   0.0003431718  -0.0006164179  -0.0002461724
       -0.0001060904  -0.0000061895  -0.0000364374   0.0000088620   0.0000360873
        0.0000338774   0.0000079973   0.0000087722   0.0000155920   0.0000020611
       -0.0000062123   0.0000026548  -0.0000109575  -0.0000107334  -0.0000096418
        0.0000048626  -0.0000079968  -0.0000020302  -0.0000043346   0.0000078442
        0.0000044586   0.0000160379   0.0000032839  -0.0000029815  -0.0000138089
       -0.0000015087   0.0000004540   0.0000016382   0.0000050912  -0.0000003364
        0.0000006354  -0.0000002506   0.0000041260   0.0000023211   0.0000036761
        0.0000031759  -0.0000001056   0.0000032932   0.0000038723   0.0000009244
        0.0000008199   0.0000037279  -0.0000009036   0.0000015188  -0.0000007723
       -0.0000015230  -0.0000023725   0.0000033451   0.0000021400  -0.0000004256
        0.0000006127  -0.0000003476  -0.0000023456   0.0000006982   0.0000016844
       -0.0000025869  -0.0000001575  -0.0000028798  -0.0000020527  -0.0000018922
        0.0000079783  -0.0000042636   0.0000029221  -0.0000019635  -0.0000073139
       -0.0000005408   0.0000019494  -0.0000049121  -0.0000012262  -0.0000106891
        0.0000003377   0.0000002867   0.0000005466   0.0000001890  -0.0000023633
        0.0000093676   0.0000035803  -0.0000007774  -0.0000061855  -0.0000013995
       -0.0000005018  -0.0000019871  -0.0000017631  -0.0000020505  -0.0000246707
        0.0000584845   0.0000161576  -0.0000252444  -0.0000016422  -0.0000054843
        0.0000110908   0.0000017391  -0.0000042150  -0.0000005860  -0.0000049066
       -0.0000079632  -0.0000104238   0.0000034261  -0.0000058142  -0.0000100386
        0.0000027821  -0.0000057901   0.0000065908   0.0000164296   0.0000010790
       -0.0000453542   0.0000319623   0.0000135405  -0.0000011067  -0.0000004438
       -0.0000123948   0.0000715671  -0.0000456836  -0.0000902771  -0.0000460101
       -0.0000125111  -0.0000348828  -0.0000086935   0.0000117862   0.0000067737
        0.0000291121  -0.0000404762   0.0000035069  -0.0000058255  -0.0000022842
       -0.0000099142  -0.0000016579  -0.0000024725  -0.0000074781   0.0000414071
       -0.0000498575  -0.0000086757  -0.0012901063   0.0003193167  -0.0001672941
        0.0528135011  -0.0522189673  -0.0123865611  -0.0727762093  -0.2532083712
       -0.1213310697   0.1270266819  -0.1623725938  -0.0294498877  -0.0236944715
       -0.0061388596  -0.0098638233   0.0043047021  -0.0007281736  -0.0033771017
        0.0000029290  -0.0000061688  -0.0000062967  -0.0000017366   0.0000048678
       -0.0000026720   0.0000076266   0.0000016159  -0.0000056273   0.0000131314
       -0.0000005747  -0.0000051700   0.0000565848   0.0000377417  -0.0000045360
       -0.0000226329   0.0000230248   0.0000075655  -0.0000024315  -0.0000039100
        0.0000019269  -0.0000035494   0.0000016314   0.0000030599   0.0000023010
        0.0000013210   0.0000017674  -0.0000009305   0.0000010700   0.0000019057
        0.0000003252   0.0000050155   0.0000023697   0.0000011951   0.0000035923
        0.0000044075   0.0000001997   0.0000018927   0.0000026087  -0.0000000339
       -0.0000009930   0.0000017228   0.0000000445  -0.0000028596  -0.0000009109
        0.0000007269  -0.0000033983  -0.0000015069   0.0000008463  -0.0000030273
       -0.0000010986   0.0000004159   0.0000005987  -0.0000015123   0.0000010573
        0.0000018144  -0.0000025562   0.0000020513  -0.0000050142   0.0000036808
        0.0000034841  -0.0000061518   0.0000011952   0.0000022234  -0.0000018417
       -0.0000055568  -0.0000004226  -0.0000000854  -0.0000046494   0.0000028292
        0.0000002103  -0.0000044685   0.0000052283  -0.0000091991  -0.0000033715
        0.0000120815  -0.0000109657   0.0000090463  -0.0000296284  -0.0000357095
        0.0000788874   0.0000439242   0.0000298923   0.0000322428  -0.0000077699
        0.0000040587   0.0000086999   0.0000031403   0.0000023492  -0.0000004233
        0.0000012662   0.0000002700  -0.0000008113  -0.0000014999   0.0000051658
        0.0000018235   0.0039247679  -0.0007285397  -0.0034415364  -0.0029518168
       -0.0054259947  -0.0038861279
        0.1038043806   0.2014928381   0.2473262229  -0.0640966832  -0.0407618684
       -0.0854787230  -0.0141153861   0.0327908358   0.0137720793  -0.0186077741
       -0.0140501352  -0.0188679664   0.0000038780  -0.0004168978  -0.0004747464
        0.0002070629  -0.0002008311  -0.0000612178  -0.0002207407   0.0000306728
       -0.0000080758   0.0000056903  -0.0000094836   0.0000002600  -0.0000015511
        0.0000039840   0.0000106057   0.0000011081  -0.0000151824  -0.0000043935
       -0.0000017103  -0.0000169310  -0.0000014366   0.0000044990   0.0000000582
        0.0000055384  -0.0000321788   0.0000060729   0.0000150755   0.0002206707
        0.0002203953   0.0001606996   0.0001079951  -0.0003391026  -0.0000875597
       -0.0000293373   0.0000061154  -0.0000233227   0.0000117953  -0.0000010668
       -0.0000050830   0.0000043422   0.0000090117   0.0000026095  -0.0000060412
        0.0000035203  -0.0000058268  -0.0000087344  -0.0000082494  -0.0000054119
        0.0000017912  -0.0000033193  -0.0000026137  -0.0000028764   0.0000002779
        0.0000000545   0.0000091640   0.0000034383   0.0000009307  -0.0000064780
       -0.0000021869  -0.0000030017   0.0000007507  -0.0000005189  -0.0000053490
        0.0000008484   0.0000005651   0.0000005276   0.0000011780  -0.0000067844
       -0.0000089383  -0.0000008961   0.0000009180  -0.0000027551  -0.0000033292
       -0.0000067263  -0.0000092245  -0.0000019720   0.0000002765  -0.0000000333
        0.0000001603  -0.0000005547  -0.0000017255   0.0000002822   0.0000002118
       -0.0000021652   0.0000014539   0.0000014046  -0.0000008736   0.0000017313
        0.0000005335  -0.0000055582  -0.0000001570   0.0000004346  -0.0000029962
        0.0000049954  -0.0000000222   0.0000012164  -0.0000017108  -0.0000020465
        0.0000002791   0.0000026581  -0.0000008903   0.0000026715  -0.0000032645
        0.0000034072  -0.0000017288  -0.0000006773   0.0000057647   0.0000003955
        0.0000033431   0.0000045183  -0.0000013655  -0.0000007781   0.0000015797
       -0.0000020272  -0.0000155655  -0.0000018092   0.0000028532   0.0000047001
        0.0000233122   0.0000087857  -0.0000101487  -0.0000017260  -0.0000001791
        0.0000046706   0.0000038033   0.0000100171  -0.0000021511  -0.0000038307
        0.0000046655  -0.0000054698   0.0000013619   0.0000081418  -0.0000030163
        0.0000061184   0.0000069117   0.0000052645   0.0000105412   0.0000078991
       -0.0000097516   0.0000157053   0.0000126571  -0.0000047777   0.0000067696
        0.0000027024   0.0000296910  -0.0000433747  -0.0000398210  -0.0000218508
       -0.0000132409  -0.0000199199  -0.0000147973   0.0000047092   0.0000030665
        0.0000006834  -0.0000170474   0.0000062093   0.0000034844  -0.0000020754
        0.0000024637  -0.0000019938  -0.0000083323   0.0000033083   0.0000182310
       -0.0000148819   0.0000002421  -0.0005195558   0.0002298682  -0.0000611964
        0.0380807296  -0.0263317842  -0.0016217745  -0.0511648074  -0.1026091373
       -0.1145769045   0.0257197034  -0.0294545632  -0.0428792426  -0.0140589479
       -0.0042781738  -0.0051215386  -0.0006191599  -0.0034536548   0.0064242161
        0.0000048943  -0.0000073153  -0.0000030675  -0.0000008154  -0.0000056999
        0.0000024575   0.0000010655  -0.0000092542   0.0000078921   0.0000066190
       -0.0000048378   0.0000020708   0.0000309374   0.0000178816   0.0000071090
       -0.0000066245   0.0000239415   0.0000154026  -0.0000016223   0.0000031377
       -0.0000026186  -0.0000027925   0.0000081524  -0.0000030912   0.0000007642
        0.0000016198  -0.0000034070  -0.0000015655  -0.0000045161  -0.0000042716
       -0.0000013892  -0.0000040274  -0.0000045837  -0.0000012056  -0.0000039138
       -0.0000069146  -0.0000017046  -0.0000014035  -0.0000054205   0.0000020510
       -0.0000008187  -0.0000022144  -0.0000005585   0.0000023441  -0.0000021119
        0.0000014388   0.0000072928   0.0000044659  -0.0000015641   0.0000040546
        0.0000001546   0.0000009095   0.0000010956   0.0000011257   0.0000008742
        0.0000017296   0.0000027084   0.0000030739   0.0000045446   0.0000038549
        0.0000014873   0.0000026872   0.0000040001  -0.0000013799  -0.0000015408
        0.0000076098   0.0000012592  -0.0000001876   0.0000072433   0.0000012103
       -0.0000023784   0.0000087142   0.0000046722  -0.0000041905   0.0000048626
        0.0000138922  -0.0000051826   0.0000088043   0.0000109407  -0.0000167891
        0.0000469967   0.0000147339   0.0000300085   0.0000190006   0.0000085614
        0.0000049526   0.0000065376   0.0000017391  -0.0000006654   0.0000047405
        0.0000006081  -0.0000010508   0.0000029362  -0.0000045820   0.0000043143
        0.0000011656  -0.0008397959  -0.0033582041   0.0064332349  -0.0039187987
       -0.0094983752  -0.0049739965
       -0.2913891706   0.0025027062  -0.0640966832   0.6178933208  -0.0509427852
        0.1092092064  -0.2156168006   0.0895686961  -0.0004830742   0.0385595999
        0.0522504765   0.0358129982   0.0052088659  -0.0047376158  -0.0029623000
        0.0000254984   0.0028053344   0.0014004805   0.0012085188  -0.0012308554
       -0.0000057226   0.0000706767   0.0002372719   0.0000883265   0.0001422722
       -0.0000748433  -0.0000393579   0.0000796344   0.0000340139   0.0000096595
       -0.0000241082  -0.0000140535  -0.0000018392  -0.0000600716  -0.0000055778
        0.0000271466  -0.0001253158   0.0000466436   0.0000143496  -0.0008372549
        0.0003966834  -0.0001005501   0.0007629979  -0.0006477897   0.0000315917
       -0.0001593509  -0.0000286126  -0.0001036147   0.0000466332   0.0000137145
        0.0000049938  -0.0000469636   0.0000756785   0.0000316186  -0.0000107455
        0.0000032440   0.0000044739  -0.0000042897  -0.0000325079  -0.0000157809
        0.0000174668  -0.0000297379  -0.0000093512  -0.0000137267   0.0000343709
        0.0000083432   0.0000664015   0.0000179445  -0.0000142942  -0.0000724404
       -0.0000088375   0.0000094468   0.0000085561   0.0000269290  -0.0000188776
        0.0000054855  -0.0000059700   0.0000116566   0.0000070344   0.0000061866
       -0.0000053444  -0.0000056224   0.0000022812  -0.0000015191   0.0000010841
       -0.0000028333   0.0000031301  -0.0000098873   0.0000046398  -0.0000078975
       -0.0000100384  -0.0000090223   0.0000100268   0.0000028165   0.0000032549
       -0.0000011365  -0.0000037580  -0.0000020713   0.0000034182   0.0000079745
        0.0000002600   0.0000032703  -0.0000077014   0.0000063386  -0.0000083939
        0.0000385427  -0.0000219563   0.0000175334  -0.0000139826  -0.0000156270
        0.0000060646   0.0000105733  -0.0000132935   0.0000007906  -0.0000197761
        0.0000064134  -0.0000046982   0.0000050630   0.0000000093  -0.0000029426
        0.0000037920   0.0000178673   0.0000023833  -0.0000028477   0.0000099295
        0.0000094196  -0.0000090505  -0.0000076325   0.0000200864   0.0000578543
        0.0000538509  -0.0000160049  -0.0000568714  -0.0000572531  -0.0000036928
        0.0000198396   0.0000073311  -0.0000038790   0.0000000850  -0.0000079634
       -0.0000060698  -0.0000028896  -0.0000052442  -0.0000051795  -0.0000352246
        0.0000025018  -0.0000049650   0.0000315626  -0.0000149227  -0.0000048890
       -0.0000366866   0.0000196125  -0.0000018708  -0.0000170500  -0.0000484704
       -0.0000284782  -0.0000790020   0.0000611687   0.0000100434  -0.0000021021
        0.0000503523   0.0000533974   0.0000256833  -0.0000813190  -0.0000409507
        0.0000321893  -0.0000239703  -0.0000058407  -0.0000022862   0.0000069184
       -0.0000137716   0.0000055848   0.0000000156  -0.0000213881   0.0000362844
       -0.0000761301  -0.0000265924  -0.0018701811   0.0000864465  -0.0003658946
       -0.0570999481   0.0187966442  -0.0044378165   0.0019112195  -0.0799957218
       -0.0395747364  -0.0226024461  -0.0014120217  -0.0071489208  -0.0548506341
       -0.0459654789  -0.0281615356  -0.0222584041   0.0183712837   0.0027712425
        0.0000060409  -0.0000066915  -0.0000159667  -0.0000096299   0.0000241730
        0.0000153542   0.0000045100   0.0000225566   0.0000088978   0.0000225990
        0.0000324316   0.0000116356  -0.0000669128  -0.0000304287  -0.0000157712
        0.0001209672  -0.0000334963   0.0000636870  -0.0000074014  -0.0000105719
       -0.0000095741  -0.0000294516   0.0000101829  -0.0000126360   0.0000065705
       -0.0000021247  -0.0000046594  -0.0000029215  -0.0000004024  -0.0000038395
        0.0000007499   0.0000013836  -0.0000015849  -0.0000020267  -0.0000012568
        0.0000017283  -0.0000039315   0.0000001381  -0.0000003470  -0.0000027761
       -0.0000006634   0.0000011486  -0.0000031912   0.0000007911  -0.0000014348
       -0.0000001218   0.0000018501  -0.0000013585   0.0000014704  -0.0000026518
        0.0000028059  -0.0000060414   0.0000057097   0.0000028074   0.0000001546
        0.0000096195   0.0000009317  -0.0000029702  -0.0000081280   0.0000023552
       -0.0000003306  -0.0000071817  -0.0000002422   0.0000028856  -0.0000016110
        0.0000029299   0.0000009596   0.0000052742   0.0000043628   0.0000047868
        0.0000098943   0.0000051059   0.0000078706   0.0000034216   0.0000016293
        0.0000183269   0.0000286766  -0.0000040848   0.0000460359  -0.0000316176
       -0.0000231334  -0.0000422586   0.0000362880  -0.0000303364   0.0000288186
        0.0000037844   0.0000162521   0.0000034164  -0.0000099278   0.0000043209
       -0.0000010448  -0.0000021619   0.0000074671   0.0000133618   0.0000059449
        0.0000078377  -0.0003776547   0.0003589055   0.0001271711   0.0013326574
       -0.0004190056  -0.0019827041
       -0.0669837742  -0.0938180843  -0.0407618684  -0.0509427852   0.5701238233
        0.2126270397   0.1573089681  -0.2004445443  -0.0339501403   0.0035806114
       -0.0493295989  -0.0246147612  -0.0019835182  -0.0014326134  -0.0053281599
        0.0007973331  -0.0015596065  -0.0004191606  -0.0003068392  -0.0005880793
        0.0000736882   0.0000961193  -0.0000152956  -0.0000160504   0.0000338726
       -0.0000411701  -0.0000260014   0.0000062925  -0.0000031351  -0.0000047256
        0.0000179266  -0.0000039098  -0.0000094322   0.0000051401   0.0000055753
        0.0000049791  -0.0000794516  -0.0000088285   0.0000038738   0.0001245050
        0.0003352911   0.0000466332   0.0002671926  -0.0003619992   0.0001057556
       -0.0001203995   0.0000353288  -0.0000679032  -0.0000103529   0.0000254859
        0.0000091463  -0.0000277651   0.0000329952   0.0000191451   0.0000033775
        0.0000126514   0.0000127911  -0.0000258374  -0.0000192570  -0.0000200344
        0.0000038382  -0.0000075864  -0.0000030111  -0.0000037547   0.0000070596
        0.0000005843   0.0000011151   0.0000036952  -0.0000006067  -0.0000002581
        0.0000007263   0.0000003827   0.0000007702   0.0000010586   0.0000008780
       -0.0000007350   0.0000006246   0.0000011092  -0.0000016314   0.0000010206
        0.0000029510  -0.0000021087   0.0000016783   0.0000007651  -0.0000006058
        0.0000013894   0.0000013148  -0.0000004517   0.0000010813  -0.0000018713
       -0.0000001705   0.0000004346  -0.0000001084  -0.0000001853   0.0000008500
       -0.0000013806  -0.0000006470  -0.0000003974  -0.0000008294  -0.0000010228
       -0.0000001673  -0.0000011266  -0.0000015893   0.0000001867  -0.0000020927
        0.0000002796   0.0000009901  -0.0000021096  -0.0000018115  -0.0000023582
       -0.0000009081  -0.0000032248   0.0000016747  -0.0000007451  -0.0000052117
        0.0000008241  -0.0000000689   0.0000013888   0.0000001475  -0.0000024738
        0.0000064185   0.0000054080   0.0000032024  -0.0000068516   0.0000046918
       -0.0000004904   0.0000215498  -0.0000010878   0.0000021617  -0.0000520164
        0.0000365341   0.0000133731  -0.0000007350   0.0000199305   0.0000070569
        0.0000051952  -0.0000080301  -0.0000053203   0.0000098851   0.0000026866
       -0.0000019023  -0.0000059806   0.0000047977  -0.0000016491  -0.0000064446
       -0.0000056970  -0.0000044534  -0.0000007414   0.0000151031   0.0000012142
       -0.0000384223   0.0000264701   0.0000105512  -0.0000018973   0.0000050205
        0.0000072206   0.0000617669   0.0000015421  -0.0000333001  -0.0000285209
       -0.0000446605  -0.0001026355   0.0000166151   0.0000558935   0.0000017167
        0.0000414489  -0.0000199550   0.0000127289  -0.0000113732  -0.0000011147
       -0.0000086722   0.0000047283   0.0000019174  -0.0000053107   0.0000336901
       -0.0000567577  -0.0000227886  -0.0007357032   0.0007779763   0.0005074832
        0.0183224871  -0.0044324838   0.0056619209  -0.0303185808   0.0053510413
       -0.0060976140   0.0192565454   0.0025810777   0.0057725263  -0.0459752078
       -0.2278827456  -0.1087056679  -0.0018707279   0.0029045925   0.0002468251
       -0.0000073672  -0.0000072189  -0.0000064981  -0.0000002147  -0.0000019858
       -0.0000030607   0.0000030425  -0.0000032434  -0.0000048964   0.0000022279
       -0.0000026940  -0.0000025459   0.0000444679   0.0000177684  -0.0000001561
        0.0000728338   0.0000306900   0.0000573627  -0.0000056976  -0.0000030986
       -0.0000015311  -0.0000050843   0.0000037241  -0.0000021142   0.0000040181
        0.0000003766   0.0000008407   0.0000018505   0.0000010474  -0.0000000707
        0.0000011919   0.0000043245  -0.0000003968   0.0000011915   0.0000033924
        0.0000010725   0.0000008248   0.0000022587   0.0000002580   0.0000005205
        0.0000005429   0.0000000328   0.0000010930  -0.0000005641  -0.0000012573
        0.0000014758  -0.0000013483  -0.0000014150   0.0000020832  -0.0000011354
       -0.0000009591   0.0000017201  -0.0000000463  -0.0000016133   0.0000017284
       -0.0000011510  -0.0000016346   0.0000019173  -0.0000046195   0.0000021599
        0.0000039588  -0.0000051548   0.0000012841  -0.0000000292  -0.0000008492
       -0.0000038366  -0.0000016629  -0.0000013594  -0.0000017245  -0.0000000959
       -0.0000006967  -0.0000020383   0.0000001188  -0.0000043006  -0.0000022282
        0.0000067606   0.0000037295   0.0000037497  -0.0000603713  -0.0000429639
        0.0000266325   0.0000525977  -0.0000088753   0.0000953896  -0.0000203497
       -0.0000169399   0.0000062904   0.0000010211   0.0000016187  -0.0000012386
        0.0000006022  -0.0000010971  -0.0000020894   0.0000038626   0.0000026715
       -0.0000000033   0.0002953287   0.0004410120   0.0004398463  -0.0008772914
       -0.0027039274  -0.0055272550
       -0.0986283718  -0.0220877678  -0.0854787230   0.1092092064   0.2126270397
        0.2509702808   0.0332638380  -0.0523073899  -0.0646948846   0.0116712061
       -0.0113469220  -0.0004658571  -0.0018264815  -0.0059930791   0.0045863950
        0.0004694953   0.0000677603   0.0000448329   0.0004283764  -0.0002290925
       -0.0009227601   0.0000697430   0.0000297191   0.0000808405   0.0000544883
       -0.0000514739  -0.0000074755   0.0000215757   0.0000110572  -0.0000083192
        0.0000028012  -0.0000123507  -0.0000037111  -0.0000117390   0.0000049891
        0.0000020337  -0.0000780199   0.0000052919   0.0000044496  -0.0002767879
        0.0001038541   0.0003324172   0.0004592876  -0.0001499189  -0.0003568996
       -0.0001414730  -0.0000283940   0.0000147894   0.0000097807   0.0000187281
        0.0000108424  -0.0000265327   0.0000452349   0.0000068399  -0.0000013820
        0.0000087663   0.0000053557  -0.0000103650  -0.0000146400  -0.0000192204
        0.0000062572  -0.0000121989  -0.0000047640  -0.0000057573   0.0000110112
        0.0000038092   0.0000236602   0.0000091975  -0.0000001627  -0.0000221157
       -0.0000065733   0.0000060698   0.0000050736   0.0000075800  -0.0000076074
        0.0000024517   0.0000002994   0.0000081509   0.0000025844  -0.0000048910
       -0.0000052961  -0.0000016649   0.0000022830   0.0000019437  -0.0000017262
       -0.0000071850  -0.0000033351  -0.0000052760   0.0000012456   0.0000033372
       -0.0000011373  -0.0000029526   0.0000046391  -0.0000008424   0.0000002931
        0.0000018348  -0.0000006713  -0.0000010897   0.0000045585   0.0000011190
       -0.0000015035  -0.0000016936  -0.0000032435   0.0000011827  -0.0000025160
        0.0000107612  -0.0000057917   0.0000071750  -0.0000058111  -0.0000060139
        0.0000033346   0.0000020917  -0.0000030941   0.0000032175  -0.0000065234
        0.0000048861  -0.0000031999  -0.0000001032   0.0000063329  -0.0000011918
        0.0000034684   0.0000097855   0.0000007060  -0.0000078110   0.0000058921
       -0.0000033323   0.0000086197  -0.0000018975   0.0000074414  -0.0000213644
        0.0000426378   0.0000060012  -0.0000132391   0.0000040524   0.0000049652
        0.0000071812  -0.0000024581   0.0000014725   0.0000057434  -0.0000004419
       -0.0000012250  -0.0000062972   0.0000000882   0.0000003569  -0.0000114582
        0.0000008174  -0.0000011318   0.0000036875   0.0000077559   0.0000011723
       -0.0000324476   0.0000269559   0.0000077785  -0.0000080745  -0.0000157754
       -0.0000046002   0.0000380685  -0.0000007453  -0.0000122207  -0.0000064692
       -0.0000071749  -0.0000568723   0.0000164759   0.0000196103  -0.0000028102
        0.0000390464  -0.0000108523   0.0000072871  -0.0000036011   0.0000021843
       -0.0000018200   0.0000035940  -0.0000060805  -0.0000032201   0.0000211615
       -0.0000531845  -0.0000104278  -0.0007599161   0.0008037499  -0.0004495198
       -0.0047313059   0.0057975536  -0.0042154488  -0.0148132540  -0.0194933978
       -0.0123917435   0.0031865695   0.0002227386   0.0023270215  -0.0282300687
       -0.1086821228  -0.0963620529  -0.0073171405   0.0056945289   0.0022845389
        0.0000016929  -0.0000106837  -0.0000087972  -0.0000024220   0.0000036846
        0.0000019849   0.0000015028  -0.0000025661   0.0000096907   0.0000085961
        0.0000061152   0.0000001703   0.0000093510  -0.0000035665  -0.0000009742
        0.0000752390   0.0000095901   0.0000323147  -0.0000022548  -0.0000036458
       -0.0000046570  -0.0000117775   0.0000069080  -0.0000035699   0.0000032937
       -0.0000008091  -0.0000017794   0.0000003134  -0.0000035180  -0.0000023483
        0.0000018643  -0.0000016353   0.0000000703   0.0000009262  -0.0000024949
       -0.0000002951  -0.0000005590  -0.0000009099   0.0000007776   0.0000017782
       -0.0000017907   0.0000039004  -0.0000018350   0.0000003618   0.0000027950
        0.0000001097   0.0000048674   0.0000080806  -0.0000018525   0.0000012249
        0.0000035686   0.0000000624   0.0000012215   0.0000025977   0.0000008652
        0.0000010811   0.0000023579   0.0000008845  -0.0000015186   0.0000032268
        0.0000001292  -0.0000035861   0.0000016021  -0.0000058382  -0.0000001533
        0.0000036522  -0.0000016054   0.0000028411   0.0000024863   0.0000005543
        0.0000023490   0.0000032741   0.0000014000  -0.0000007321  -0.0000016012
        0.0000063167   0.0000129277   0.0000000409  -0.0000479859  -0.0000367171
        0.0000094523   0.0000303474  -0.0000519720   0.0000526698  -0.0000089748
       -0.0000106579   0.0000046045   0.0000023553  -0.0000037082   0.0000016998
       -0.0000001679  -0.0000027169   0.0000025087   0.0000049629   0.0000015797
        0.0000048487   0.0001114986   0.0004410167   0.0000009649  -0.0022077116
       -0.0054110361   0.0046128362
       -0.0594110531   0.0042447449  -0.0141153861  -0.2156168006   0.1573089681
        0.0332638380   0.6513570930  -0.0653466899   0.1106226681  -0.1017092863
       -0.0677224414  -0.0472847734   0.0062970578   0.0158260862   0.0098392372
       -0.0033880393   0.0043274742   0.0007423885   0.0003358029   0.0003699174
        0.0000688032  -0.0002460190   0.0004570901   0.0002099486   0.0002484969
        0.0000098675   0.0000148986   0.0000447135   0.0000265738   0.0000107798
       -0.0000040563  -0.0000207786  -0.0000138337  -0.0000518357  -0.0000046262
        0.0000183331  -0.0002391214   0.0000195103   0.0000220405  -0.0001475716
        0.0006968811   0.0002485588   0.0016587866  -0.0006415220   0.0003054417
       -0.0003038226  -0.0000686842  -0.0001261308  -0.0001148644   0.0002878993
        0.0001464524   0.0000443234  -0.0000196854   0.0000062354   0.0000407100
       -0.0000238610   0.0000129389  -0.0000076669  -0.0000667370  -0.0000556959