      -----------------------------------------------------------      
     |                   =====================                   |     
     |                           x T B                           |     
     |                   =====================                   |     
     |                         S. Grimme                         |     
     |          Mulliken Center for Theoretical Chemistry        |     
     |                    University of Bonn                     |     
      -----------------------------------------------------------      

   * xtb version 6.7.1 (edcfbbe) compiled by 'albert@albert-system' on 2024-07-22

   xtb is free software: you can redistribute it and/or modify it under
   the terms of the GNU Lesser General Public License as published by
   the Free Software Foundation, either version 3 of the License, or
   (at your option) any later version.
   
   xtb is distributed in the hope that it will be useful,
   but WITHOUT ANY WARRANTY; without even the implied warranty of
   MERCHANTABILITY or FITNESS FOR A PARTICULAR PURPOSE.  See the
   GNU Lesser General Public License for more details.
   
   Cite this work as:
   * C. Bannwarth, E. Caldeweyher, S. Ehlert, A. Hansen, P. Pracht,
     J. Seibert, S. Spicher, S. Grimme, WIREs Comput. Mol. Sci., 2020, 11,
     e01493. DOI: 10.1002/wcms.1493
   
   for GFN2-xTB:
   * C. Bannwarth, S. Ehlert and S. Grimme., J. Chem. Theory Comput., 2019,
     15, 1652-1671. DOI: 10.1021/acs.jctc.8b01176
   for GFN1-xTB:
   * S. Grimme, C. Bannwarth, P. Shushkov, J. Chem. Theory Comput., 2017,
     13, 1989-2009. DOI: 10.1021/acs.jctc.7b00118
   for GFN0-xTB:
   * P. Pracht, E. Caldeweyher, S. Ehlert, S. Grimme, ChemRxiv, 2019, preprint.
     DOI: 10.26434/chemrxiv.8326202.v1
   for GFN-FF:
   * S. Spicher and S. Grimme, Angew. Chem. Int. Ed., 2020, 59, 15665-15673.
     DOI: 10.1002/anie.202004239
   
   for ALPB and GBSA implicit solvation:
   * S. Ehlert, M. Stahn, S. Spicher, S. Grimme, J. Chem. Theory Comput.,
     2021, 17, 4250-4261. DOI: 10.1021/acs.jctc.1c00471
   
   for ddCOSMO and CPCM-X implicit solvation:
   * M. Stahn, S. Ehlert, S. Grimme, J. Phys. Chem. A,
     2023, XX, XXXX-XXXX. DOI: 10.1021/acs.jpca.3c04382
   
   for DFT-D4:
   * E. Caldeweyher, C. Bannwarth and S. Grimme, J. Chem. Phys., 2017,
     147, 034112. DOI: 10.1063/1.4993215
   * E. Caldeweyher, S. Ehlert, A. Hansen, H. Neugebauer, S. Spicher,
     C. Bannwarth and S. Grimme, J. Chem. Phys., 2019, 150, 154122.
     DOI: 10.1063/1.5090222
   * E. Caldeweyher, J.-M. Mewes, S. Ehlert and S. Grimme, Phys. Chem. Chem. Phys.
     2020, 22, 8499-8512. DOI: 10.1039/D0CP00502A
   
   for sTDA-xTB:
   * S. Grimme and C. Bannwarth, J. Chem. Phys., 2016, 145, 054103.
     DOI: 10.1063/1.4959605
   
   in the mass-spec context:
   * V. Asgeirsson, C. Bauer and S. Grimme, Chem. Sci., 2017, 8, 4879.
     DOI: 10.1039/c7sc00601b
   * J. Koopman and S. Grimme, ACS Omega 2019, 4, 12, 15120-15133.
     DOI: 10.1021/acsomega.9b02011
   
   for metadynamics refer to:
   * S. Grimme, J. Chem. Theory Comput., 2019, 155, 2847-2862
     DOI: 10.1021/acs.jctc.9b00143
   
   for SPH calculations refer to:
   * S. Spicher and S. Grimme, J. Chem. Theory Comput., 2021, 17, 1701-1714
     DOI: 10.1021/acs.jctc.0c01306
   
   for ONIOM refer to:
   * C. Plett, A. Katbashev, S. Ehlert, S. Grimme, M. Bursch,
     Phys. Chem. Chem. Phys., 2023, 25, 17860-17868. DOI: 10.1039/D3CP02178E
   
   for DIPRO refer to:
   * J. Kohn, N. Gildemeister, S. Grimme, D. Fazzi, A. Hansen,
     J. Chem. Phys., 2023, just accepted.
   
   for PTB refer to:
   * S. Grimme, M. Mueller, A. Hansen, J. Chem. Phys., 2023, 158, 124111.
     DOI: 10.1063/5.0137838
   
   with help from (in alphabetical order)
   P. Atkinson, C. Bannwarth, F. Bohle, G. Brandenburg, E. Caldeweyher
   M. Checinski, S. Dohm, S. Ehlert, S. Ehrlich, I. Gerasimov, C. Hölzer
   A. Katbashev, J. Kohn, J. Koopman, C. Lavigne, S. Lehtola, F. März, M. Müller,
   F. Musil, H. Neugebauer, J. Pisarek, C. Plett, P. Pracht, F. Pultar,
   J. Seibert, P. Shushkov, S. Spicher, M. Stahn, M. Steiner, T. Strunk,
   J. Stückrath, T. Rose, and J. Unsleber
   
 * started run on 2025/08/24 at 16:51:42.121     
   ID    Z sym.   atoms
    1    6 C      1-22, 24-26, 28-51, 53, 55, 56
    2    7 N      23, 27, 52, 54
    3    1 H      57-90

           -------------------------------------------------
          |                Calculation Setup                |
           -------------------------------------------------

          program call               : xtb data2507/toluene/pCbz-PYR/pCbz-PYR_toluene_S0_crest.xyz --gfn 2 --gbsa toluene --ohess vtight --parallel 40 --molden --ceasefiles --namespace data2507/toluene/pCbz-PYR/pCbz-PYR_toluene_S0_finalOpt
          calculation namespace      : data2507/toluene/pCbz-PYR/pCbz-PYR_toluene_S0_finalOpt
          coordinate file            : data2507/toluene/pCbz-PYR/pCbz-PYR_toluene_S0_crest.xyz
          omp threads                :                    40


           -------------------------------------------------
          |                 G F N 2 - x T B                 |
           -------------------------------------------------

        Reference                      10.1021/acs.jctc.8b01176
      * Hamiltonian:
        H0-scaling (s, p, d)           1.850000    2.230000    2.230000
        zeta-weighting                 0.500000
      * Dispersion:
        s8                             2.700000
        a1                             0.520000
        a2                             5.000000
        s9                             5.000000
      * Repulsion:
        kExp                           1.500000    1.000000
        rExp                           1.000000
      * Coulomb:
        alpha                          2.000000
        third order                    shell-resolved
        anisotropic                    true
        a3                             3.000000
        a5                             4.000000
        cn-shift                       1.200000
        cn-exp                         4.000000
        max-rad                        5.000000

      * Solvation model:               GBSA
        Solvent                        toluene
        Parameter file                 internal GFN2-xTB/GBSA
        Dielectric constant                7.0000E+00
        Reference state                gsolv [1 M gas/solution]
        Free energy shift                  4.5239E-03 Eh       2.8388E+00 kcal/mol
        Temperature                        2.9815E+02 K
        Density                            8.6700E-01 kg/L
        Solvent mass                       9.2140E+01 g/mol
        Interaction kernel             Still
        Born radius scaling (c1)           1.5686E+00
        Born radii integrator          GBOBC
        Born offset                        0.0000E+00 a0       0.0000E+00 AA
        H-bond correction              false
        Ion screening                  false
        Surface tension                    1.0000E-05 Eh       1.5569E+01 dyn/cm
        Grid points                               230 per atom

          ...................................................
          :                      SETUP                      :
          :.................................................:
          :  # basis functions                 258          :
          :  # atomic orbitals                 258          :
          :  # shells                          146          :
          :  # electrons                       262          :
          :  max. iterations                   250          :
          :  Hamiltonian                  GFN2-xTB          :
          :  restarted?                      false          :
          :  GBSA solvation                   true          :
          :  PC potential                    false          :
          :  electronic temp.          300.0000000     K    :
          :  accuracy                    1.0000000          :
          :  -> integral cutoff          0.2500000E+02      :
          :  -> integral neglect         0.1000000E-07      :
          :  -> SCF convergence          0.1000000E-05 Eh   :
          :  -> wf. convergence          0.1000000E-03 e    :
          :  Broyden damping             0.4000000          :
          :  net charge                          0          :
          :  unpaired electrons                  0          :
          ...................................................

 iter      E             dE          RMSdq      gap      omega  full diag
   1   -143.0775841 -0.143078E+03  0.420E+00    2.68       0.0  T
   2   -143.1538029 -0.762188E-01  0.256E+00    2.58       1.0  T
   3   -143.1259370  0.278659E-01  0.879E-01    2.69       1.0  T
   4   -143.1661448 -0.402079E-01  0.215E-01    2.46       1.0  T
   5   -143.1684096 -0.226472E-02  0.673E-02    2.53       1.0  T
   6   -143.1685319 -0.122373E-03  0.248E-02    2.52       1.0  T
   7   -143.1685559 -0.240224E-04  0.130E-02    2.53       1.0  T
   8   -143.1685579 -0.192017E-05  0.427E-03    2.53       2.5  T
   9   -143.1685592 -0.131723E-05  0.111E-03    2.53       9.5  T
  10   -143.1685593 -0.685744E-07  0.404E-04    2.53      26.1  T
  11   -143.1685593 -0.278447E-08  0.248E-04    2.53      42.5  T

   *** convergence criteria satisfied after 11 iterations ***

         #    Occupation            Energy/Eh            Energy/eV
      -------------------------------------------------------------
         1        2.0000           -0.7011283             -19.0787
       ...           ...                  ...                  ...
       125        2.0000           -0.3964479             -10.7879
       126        2.0000           -0.3963693             -10.7858
       127        2.0000           -0.3856080             -10.4929
       128        2.0000           -0.3844234             -10.4607
       129        2.0000           -0.3843698             -10.4592
       130        2.0000           -0.3744429             -10.1891
       131        2.0000           -0.3700436             -10.0694 (HOMO)
       132                         -0.2771535              -7.5417 (LUMO)
       133                         -0.2669013              -7.2628
       134                         -0.2530077              -6.8847
       135                         -0.2519219              -6.8551
       136                         -0.2489740              -6.7749
       ...                                ...                  ...
       258                          0.7403494              20.1459
      -------------------------------------------------------------
                  HL-Gap            0.0928901 Eh            2.5277 eV
             Fermi-level           -0.3235985 Eh           -8.8056 eV

 SCC (total)                   0 d,  0 h,  0 min,  0.223 sec
 SCC setup                      ...        0 min,  0.011 sec (  4.818%)
 Dispersion                     ...        0 min,  0.008 sec (  3.369%)
 classical contributions        ...        0 min,  0.000 sec (  0.145%)
 integral evaluation            ...        0 min,  0.010 sec (  4.651%)
 iterations                     ...        0 min,  0.178 sec ( 79.992%)
 molecular gradient             ...        0 min,  0.015 sec (  6.537%)
 printout                       ...        0 min,  0.001 sec (  0.449%)

         :::::::::::::::::::::::::::::::::::::::::::::::::::::
         ::                     SUMMARY                     ::
         :::::::::::::::::::::::::::::::::::::::::::::::::::::
         :: total energy            -140.515991723265 Eh    ::
         :: total w/o Gsasa/hb      -140.458456075389 Eh    ::
         :: gradient norm              0.006673146503 Eh/a0 ::
         :: HOMO-LUMO gap              2.527668851263 eV    ::
         ::.................................................::
         :: SCC energy              -143.170272337757 Eh    ::
         :: -> isotropic ES            0.030513314099 Eh    ::
         :: -> anisotropic ES          0.012711243198 Eh    ::
         :: -> anisotropic XC          0.087603492739 Eh    ::
         :: -> dispersion             -0.122656716953 Eh    ::
         :: -> Gsolv                  -0.060182123464 Eh    ::
         ::    -> Gelec               -0.002646475588 Eh    ::
         ::    -> Gsasa               -0.062059527748 Eh    ::
         ::    -> Ghb                  0.000000000000 Eh    ::
         ::    -> Gshift               0.004523879872 Eh    ::
         :: repulsion energy           2.654280614492 Eh    ::
         :: add. restraining           0.000000000000 Eh    ::
         :: total charge              -0.000000000000 e     ::
         :::::::::::::::::::::::::::::::::::::::::::::::::::::

      ----------------------------------------------------------- 
     |                   =====================                   |
     |                        A N C O P T                        |
     |                   =====================                   |
     |               Approximate Normal Coordinate               |
     |                Rational Function Optimizer                |
      ----------------------------------------------------------- 

Optimization log is written to '/dev/null'
      ----------------------------------------------------------- 
     |                   =====================                   |
     |                        A N C O P T                        |
     |                   =====================                   |
     |               Approximate Normal Coordinate               |
     |                Rational Function Optimizer                |
      ----------------------------------------------------------- 

          ...................................................
          :                      SETUP                      :
          :.................................................:
          :   optimization level         verytight          :
          :   max. optcycles                  1800          :
          :   ANC micro-cycles                  20          :
          :   degrees of freedom               264          :
          :.................................................:
          :   RF solver                   davidson          :
          :   write xtbopt.log                true          :
          :   linear?                        false          :
          :   energy convergence         0.1000000E-06 Eh   :
          :   grad. convergence          0.2000000E-03 Eh/α :
          :   maxmium RF displ.          1.0000000          :
          :   Hlow (freq-cutoff)         0.1000000E-01      :
          :   Hmax (freq-cutoff)         5.0000000          :
          :   S6 in model hess.         20.0000000          :
          ...................................................

generating ANC from exact Hessian ...
Using Lindh-Hessian (1995)
 Shifting diagonal of input Hessian by   9.959866323026183E-003
 Lowest  eigenvalues of input Hessian
    0.000000    0.000000    0.000000    0.000000    0.000000    0.000000
    0.010000    0.010042    0.010065    0.010435    0.010451    0.010516
    0.010582    0.010634    0.010688    0.010794    0.010803    0.011271
 Highest eigenvalues
    2.146110    2.171431    2.197126    2.208041    2.272807    2.334364
 

........................................................................
.............................. CYCLE    1 ..............................
........................................................................

 iter      E             dE          RMSdq      gap      omega  full diag
   1   -143.1685593 -0.143169E+03  0.967E-05    2.53       0.0  T
   2   -143.1685593 -0.121162E-09  0.670E-05    2.53     157.4  T
   3   -143.1685593 -0.439400E-10  0.474E-05    2.53     222.4  T
     SCC iter.                  ...        0 min,  0.037 sec
     gradient                   ...        0 min,  0.014 sec
 * total energy  :  -140.5159917 Eh     change       -0.1705843E-08 Eh
   gradient norm :     0.0066736 Eh/α   predicted     0.0000000E+00 (-100.00%)
   displ. norm   :     0.0350415 α      lambda       -0.2527573E-04
   maximum displ.:     0.0170129 α      in ANC's #19, #25, #38, ...

........................................................................
.............................. CYCLE    2 ..............................
........................................................................

 iter      E             dE          RMSdq      gap      omega  full diag
   1   -143.1640184 -0.143164E+03  0.914E-03    2.53       0.0  T
   2   -143.1640193 -0.889465E-06  0.546E-03    2.53       1.9  T
   3   -143.1640191  0.225890E-06  0.277E-03    2.53       3.8  T
   4   -143.1640195 -0.420102E-06  0.627E-04    2.53      16.8  T
   5   -143.1640195 -0.201407E-07  0.190E-04    2.53      55.4  T
     SCC iter.                  ...        0 min,  0.055 sec
     gradient                   ...        0 min,  0.014 sec
 * total energy  :  -140.5160360 Eh     change       -0.4426357E-04 Eh
   gradient norm :     0.0034137 Eh/α   predicted    -0.3081111E-04 ( -30.39%)
   displ. norm   :     0.0442817 α      lambda       -0.3153901E-04
   maximum displ.:     0.0291748 α      in ANC's #19, #25, #38, ...

........................................................................
.............................. CYCLE    3 ..............................
........................................................................

 iter      E             dE          RMSdq      gap      omega  full diag
   1   -143.1608531 -0.143161E+03  0.931E-03    2.53       0.0  T
   2   -143.1608541 -0.962594E-06  0.556E-03    2.53       1.9  T
   3   -143.1608539  0.217146E-06  0.274E-03    2.53       3.8  T
   4   -143.1608543 -0.406596E-06  0.648E-04    2.53      16.3  T
   5   -143.1608543 -0.223182E-07  0.189E-04    2.53      55.7  T
     SCC iter.                  ...        0 min,  0.056 sec
     gradient                   ...        0 min,  0.013 sec
 * total energy  :  -140.5160538 Eh     change       -0.1777094E-04 Eh
   gradient norm :     0.0006336 Eh/α   predicted    -0.1580155E-04 ( -11.08%)
   displ. norm   :     0.0293672 α      lambda       -0.3286184E-05
   maximum displ.:     0.0232682 α      in ANC's #19, #1, #9, ...

........................................................................
.............................. CYCLE    4 ..............................
........................................................................

 iter      E             dE          RMSdq      gap      omega  full diag
   1   -143.1608985 -0.143161E+03  0.641E-03    2.53       0.0  T
   2   -143.1608985 -0.715779E-07  0.378E-03    2.53       2.8  T
   3   -143.1608985  0.789006E-07  0.990E-04    2.53      10.6  T
   4   -143.1608985 -0.945808E-07  0.168E-04    2.53      62.8  T
     SCC iter.                  ...        0 min,  0.044 sec
     gradient                   ...        0 min,  0.014 sec
 * total energy  :  -140.5160576 Eh     change       -0.3803982E-05 Eh
   gradient norm :     0.0007676 Eh/α   predicted    -0.1921828E-05 ( -49.48%)
   displ. norm   :     0.0294013 α      lambda       -0.2795523E-05
   maximum displ.:     0.0202853 α      in ANC's #19, #1, #9, ...

........................................................................
.............................. CYCLE    5 ..............................
........................................................................

 iter      E             dE          RMSdq      gap      omega  full diag
   1   -143.1614734 -0.143161E+03  0.662E-03    2.53       0.0  T
   2   -143.1614734 -0.126436E-07  0.387E-03    2.53       2.7  T
   3   -143.1614734  0.119289E-07  0.405E-04    2.53      26.0  T
   4   -143.1614734 -0.168611E-07  0.897E-05    2.53     117.5  T
     SCC iter.                  ...        0 min,  0.044 sec
     gradient                   ...        0 min,  0.014 sec
 * total energy  :  -140.5160606 Eh     change       -0.3044179E-05 Eh
   gradient norm :     0.0005403 Eh/α   predicted    -0.1399833E-05 ( -54.02%)
   displ. norm   :     0.0425521 α      lambda       -0.2639580E-05
   maximum displ.:     0.0248680 α      in ANC's #19, #1, #9, ...

........................................................................
.............................. CYCLE    6 ..............................
........................................................................

 iter      E             dE          RMSdq      gap      omega  full diag
   1   -143.1615333 -0.143162E+03  0.938E-03    2.53       0.0  T
   2   -143.1615333 -0.151757E-07  0.550E-03    2.53       1.9  T
   3   -143.1615333  0.786099E-08  0.389E-04    2.53      27.1  T
   4   -143.1615333 -0.137374E-07  0.109E-04    2.53      96.6  T
     SCC iter.                  ...        0 min,  0.044 sec
     gradient                   ...        0 min,  0.014 sec
 * total energy  :  -140.5160635 Eh     change       -0.2915129E-05 Eh
   gradient norm :     0.0004375 Eh/α   predicted    -0.1321810E-05 ( -54.66%)
   displ. norm   :     0.0552237 α      lambda       -0.2527050E-05
   maximum displ.:     0.0296656 α      in ANC's #1, #19, #9, ...

........................................................................
.............................. CYCLE    7 ..............................
........................................................................

 iter      E             dE          RMSdq      gap      omega  full diag
   1   -143.1611718 -0.143161E+03  0.117E-02    2.53       0.0  T
   2   -143.1611718 -0.226241E-07  0.689E-03    2.53       1.5  T
   3   -143.1611717  0.356426E-07  0.674E-04    2.53      15.6  T
   4   -143.1611718 -0.473483E-07  0.122E-04    2.53      86.3  T
     SCC iter.                  ...        0 min,  0.045 sec
     gradient                   ...        0 min,  0.014 sec
 * total energy  :  -140.5160662 Eh     change       -0.2707561E-05 Eh
   gradient norm :     0.0003485 Eh/α   predicted    -0.1267106E-05 ( -53.20%)
   displ. norm   :     0.0469345 α      lambda       -0.1899298E-05
   maximum displ.:     0.0275755 α      in ANC's #1, #9, #19, ...

........................................................................
.............................. CYCLE    8 ..............................
........................................................................

 iter      E             dE          RMSdq      gap      omega  full diag
   1   -143.1611445 -0.143161E+03  0.938E-03    2.53       0.0  T
   2   -143.1611445 -0.117396E-07  0.550E-03    2.53       1.9  T
   3   -143.1611445  0.143241E-07  0.442E-04    2.53      23.9  T
   4   -143.1611445 -0.203542E-07  0.926E-05    2.53     113.9  T
     SCC iter.                  ...        0 min,  0.044 sec
     gradient                   ...        0 min,  0.014 sec
 * total energy  :  -140.5160686 Eh     change       -0.2320900E-05 Eh
   gradient norm :     0.0003596 Eh/α   predicted    -0.9526328E-06 ( -58.95%)
   displ. norm   :     0.0527347 α      lambda       -0.2322606E-05
   maximum displ.:     0.0319087 α      in ANC's #1, #9, #2, ...

........................................................................
.............................. CYCLE    9 ..............................
........................................................................

 iter      E             dE          RMSdq      gap      omega  full diag
   1   -143.1610972 -0.143161E+03  0.932E-03    2.53       0.0  T
   2   -143.1610972 -0.146087E-07  0.546E-03    2.53       1.9  T
   3   -143.1610972  0.146354E-07  0.453E-04    2.54      23.3  T
   4   -143.1610972 -0.209855E-07  0.990E-05    2.54     106.5  T
     SCC iter.                  ...        0 min,  0.044 sec
     gradient                   ...        0 min,  0.014 sec
 * total energy  :  -140.5160716 Eh     change       -0.3019456E-05 Eh
   gradient norm :     0.0003799 Eh/α   predicted    -0.1163327E-05 ( -61.47%)
   displ. norm   :     0.0758335 α      lambda       -0.3260270E-05
   maximum displ.:     0.0461927 α      in ANC's #1, #9, #2, ...

........................................................................
.............................. CYCLE   10 ..............................
........................................................................

 iter      E             dE          RMSdq      gap      omega  full diag
   1   -143.1611362 -0.143161E+03  0.124E-02    2.54       0.0  T
   2   -143.1611362 -0.259734E-07  0.725E-03    2.54       1.5  T
   3   -143.1611362  0.114363E-07  0.475E-04    2.54      22.2  T
   4   -143.1611362 -0.214213E-07  0.134E-04    2.54      78.9  T
     SCC iter.                  ...        0 min,  0.044 sec
     gradient                   ...        0 min,  0.014 sec
 * total energy  :  -140.5160756 Eh     change       -0.4042996E-05 Eh
   gradient norm :     0.0004066 Eh/α   predicted    -0.1635601E-05 ( -59.54%)
   displ. norm   :     0.0894759 α      lambda       -0.3277682E-05
   maximum displ.:     0.0553271 α      in ANC's #1, #9, #2, ...

........................................................................
.............................. CYCLE   11 ..............................
........................................................................

 iter      E             dE          RMSdq      gap      omega  full diag
   1   -143.1612731 -0.143161E+03  0.141E-02    2.54       0.0  T
   2   -143.1612732 -0.319370E-07  0.828E-03    2.54       1.3  T
   3   -143.1612732  0.355652E-08  0.426E-04    2.54      24.8  T
   4   -143.1612732 -0.157179E-07  0.158E-04    2.54      66.9  T
     SCC iter.                  ...        0 min,  0.047 sec
     gradient                   ...        0 min,  0.014 sec
 * total energy  :  -140.5160797 Eh     change       -0.4066206E-05 Eh
   gradient norm :     0.0003777 Eh/α   predicted    -0.1645245E-05 ( -59.54%)
   displ. norm   :     0.0930346 α      lambda       -0.3121615E-05
   maximum displ.:     0.0584139 α      in ANC's #1, #9, #2, ...

........................................................................
.............................. CYCLE   12 ..............................
........................................................................

 iter      E             dE          RMSdq      gap      omega  full diag
   1   -143.1613290 -0.143161E+03  0.146E-02    2.54       0.0  T
   2   -143.1613290 -0.327475E-07  0.854E-03    2.54       1.2  T
   3   -143.1613290  0.410435E-08  0.420E-04    2.54      25.1  T
   4   -143.1613290 -0.162888E-07  0.156E-04    2.54      67.5  T
     SCC iter.                  ...        0 min,  0.044 sec
     gradient                   ...        0 min,  0.014 sec
 * total energy  :  -140.5160837 Eh     change       -0.3988501E-05 Eh
   gradient norm :     0.0003383 Eh/α   predicted    -0.1569466E-05 ( -60.65%)
   displ. norm   :     0.0943283 α      lambda       -0.3173901E-05
   maximum displ.:     0.0600662 α      in ANC's #1, #9, #2, ...

........................................................................
.............................. CYCLE   13 ..............................
........................................................................

 iter      E             dE          RMSdq      gap      omega  full diag
   1   -143.1614499 -0.143161E+03  0.148E-02    2.54       0.0  T
   2   -143.1614500 -0.284058E-07  0.866E-03    2.54       1.2  T
   3   -143.1614500  0.879794E-09  0.377E-04    2.54      28.0  T
   4   -143.1614500 -0.122519E-07  0.150E-04    2.54      70.5  T
     SCC iter.                  ...        0 min,  0.040 sec
     gradient                   ...        0 min,  0.012 sec
 * total energy  :  -140.5160878 Eh     change       -0.4143942E-05 Eh
   gradient norm :     0.0002699 Eh/α   predicted    -0.1596539E-05 ( -61.47%)
   displ. norm   :     0.0977387 α      lambda       -0.3268231E-05
   maximum displ.:     0.0631001 α      in ANC's #1, #9, #2, ...

........................................................................
.............................. CYCLE   14 ..............................
........................................................................

 iter      E             dE          RMSdq      gap      omega  full diag
   1   -143.1614422 -0.143161E+03  0.152E-02    2.54       0.0  T
   2   -143.1614422 -0.271989E-07  0.890E-03    2.54       1.2  T
   3   -143.1614422  0.531696E-08  0.425E-04    2.54      24.8  T
   4   -143.1614423 -0.169750E-07  0.141E-04    2.54      74.8  T
     SCC iter.                  ...        0 min,  0.038 sec
     gradient                   ...        0 min,  0.012 sec
 * total energy  :  -140.5160920 Eh     change       -0.4213022E-05 Eh
   gradient norm :     0.0002521 Eh/α   predicted    -0.1645290E-05 ( -60.95%)
   displ. norm   :     0.0884515 α      lambda       -0.2873421E-05
   maximum displ.:     0.0582077 α      in ANC's #1, #2, #9, ...

........................................................................
.............................. CYCLE   15 ..............................
........................................................................

 iter      E             dE          RMSdq      gap      omega  full diag
   1   -143.1614135 -0.143161E+03  0.133E-02    2.54       0.0  T
   2   -143.1614135 -0.191517E-07  0.779E-03    2.54       1.4  T
   3   -143.1614135  0.539717E-08  0.392E-04    2.54      26.9  T
   4   -143.1614135 -0.142725E-07  0.118E-04    2.54      89.1  T
     SCC iter.                  ...        0 min,  0.038 sec
     gradient                   ...        0 min,  0.012 sec
 * total energy  :  -140.5160957 Eh     change       -0.3691890E-05 Eh
   gradient norm :     0.0002276 Eh/α   predicted    -0.1443313E-05 ( -60.91%)
   displ. norm   :     0.0765629 α      lambda       -0.2463333E-05
   maximum displ.:     0.0511385 α      in ANC's #1, #2, #3, ...

........................................................................
.............................. CYCLE   16 ..............................
........................................................................

 iter      E             dE          RMSdq      gap      omega  full diag
   1   -143.1613545 -0.143161E+03  0.108E-02    2.54       0.0  T
   2   -143.1613545 -0.132152E-07  0.636E-03    2.54       1.7  T
   3   -143.1613545  0.689911E-08  0.374E-04    2.54      28.2  T
   4   -143.1613545 -0.132685E-07  0.952E-05    2.54     110.7  T
     SCC iter.                  ...        0 min,  0.038 sec
     gradient                   ...        0 min,  0.012 sec
 * total energy  :  -140.5160989 Eh     change       -0.3216809E-05 Eh
   gradient norm :     0.0002050 Eh/α   predicted    -0.1237118E-05 ( -61.54%)
   displ. norm   :     0.0702085 α      lambda       -0.2379367E-05
   maximum displ.:     0.0469746 α      in ANC's #1, #2, #3, ...

........................................................................
.............................. CYCLE   17 ..............................
........................................................................

 iter      E             dE          RMSdq      gap      omega  full diag
   1   -143.1612811 -0.143161E+03  0.941E-03    2.54       0.0  T
   2   -143.1612811 -0.107053E-07  0.552E-03    2.54       1.9  T
   3   -143.1612811  0.477530E-08  0.328E-04    2.54      32.1  T
   4   -143.1612811 -0.989706E-08  0.872E-05    2.54     120.8  T
     SCC iter.                  ...        0 min,  0.038 sec
     gradient                   ...        0 min,  0.012 sec
 * total energy  :  -140.5161021 Eh     change       -0.3149042E-05 Eh
   gradient norm :     0.0001920 Eh/α   predicted    -0.1194602E-05 ( -62.06%)
   displ. norm   :     0.0760692 α      lambda       -0.2656827E-05
   maximum displ.:     0.0503284 α      in ANC's #1, #2, #3, ...

........................................................................
.............................. CYCLE   18 ..............................
........................................................................

 iter      E             dE          RMSdq      gap      omega  full diag
   1   -143.1612097 -0.143161E+03  0.999E-03    2.54       0.0  T
   2   -143.1612097 -0.125222E-07  0.586E-03    2.54       1.8  T
   3   -143.1612097  0.570284E-08  0.357E-04    2.54      29.5  T
   4   -143.1612097 -0.118132E-07  0.945E-05    2.54     111.5  T
     SCC iter.                  ...        0 min,  0.038 sec
     gradient                   ...        0 min,  0.012 sec
 * total energy  :  -140.5161056 Eh     change       -0.3476387E-05 Eh
   gradient norm :     0.0001889 Eh/α   predicted    -0.1333837E-05 ( -61.63%)
   displ. norm   :     0.0877390 α      lambda       -0.2901768E-05
   maximum displ.:     0.0580058 α      in ANC's #1, #2, #3, ...

........................................................................
.............................. CYCLE   19 ..............................
........................................................................

 iter      E             dE          RMSdq      gap      omega  full diag
   1   -143.1610827 -0.143161E+03  0.115E-02    2.54       0.0  T
   2   -143.1610827 -0.156248E-07  0.677E-03    2.54       1.6  T
   3   -143.1610827  0.425050E-08  0.362E-04    2.54      29.1  T
   4   -143.1610827 -0.118480E-07  0.106E-04    2.54      99.7  T
     SCC iter.                  ...        0 min,  0.038 sec
     gradient                   ...        0 min,  0.012 sec
 * total energy  :  -140.5161093 Eh     change       -0.3761385E-05 Eh
   gradient norm :     0.0001821 Eh/α   predicted    -0.1460407E-05 ( -61.17%)
   displ. norm   :     0.0853686 α      lambda       -0.2590876E-05
   maximum displ.:     0.0569786 α      in ANC's #1, #2, #3, ...

........................................................................
.............................. CYCLE   20 ..............................
........................................................................

 iter      E             dE          RMSdq      gap      omega  full diag
   1   -143.1610453 -0.143161E+03  0.111E-02    2.54       0.0  T
   2   -143.1610453 -0.137161E-07  0.650E-03    2.54       1.6  T
   3   -143.1610453  0.352284E-08  0.332E-04    2.54      31.7  T
   4   -143.1610454 -0.103855E-07  0.101E-04    2.54     104.8  T
     SCC iter.                  ...        0 min,  0.038 sec
     gradient                   ...        0 min,  0.012 sec
 * total energy  :  -140.5161127 Eh     change       -0.3345809E-05 Eh
   gradient norm :     0.0001757 Eh/α   predicted    -0.1300708E-05 ( -61.12%)
   displ. norm   :     0.0766853 α      lambda       -0.2256339E-05
   maximum displ.:     0.0517915 α      in ANC's #1, #2, #3, ...
 * RMSD in coord.:     0.1195245 α      energy gain  -0.1209434E-03 Eh

generating ANC from exact Hessian ...
Using Lindh-Hessian (1995)
 Shifting diagonal of input Hessian by   9.960084479952931E-003
 Lowest  eigenvalues of input Hessian
    0.000000    0.000000    0.000000    0.000000    0.000000    0.000000
    0.010000    0.010043    0.010065    0.010432    0.010438    0.010519
    0.010579    0.010640    0.010687    0.010791    0.010801    0.011267
 Highest eigenvalues
    2.140807    2.167273    2.190988    2.200390    2.265312    2.332001
 

........................................................................
.............................. CYCLE   21 ..............................
........................................................................

 iter      E             dE          RMSdq      gap      omega  full diag
   1   -143.1610572 -0.143161E+03  0.965E-03    2.54       0.0  T
   2   -143.1610572 -0.101738E-07  0.565E-03    2.54       1.9  T
   3   -143.1610572  0.166003E-08  0.268E-04    2.54      39.4  T
   4   -143.1610572 -0.673657E-08  0.865E-05    2.54     121.9  T
     SCC iter.                  ...        0 min,  0.038 sec
     gradient                   ...        0 min,  0.012 sec
 * total energy  :  -140.5161157 Eh     change       -0.3028333E-05 Eh
   gradient norm :     0.0001670 Eh/α   predicted     0.0000000E+00 (-100.00%)
   displ. norm   :     0.0121615 α      lambda       -0.3608231E-07
   maximum displ.:     0.0072068 α      in ANC's #1, #15, #9, ...

........................................................................
.............................. CYCLE   22 ..............................
........................................................................

 iter      E             dE          RMSdq      gap      omega  full diag
   1   -143.1611382 -0.143161E+03  0.219E-03    2.54       0.0  T
   2   -143.1611382 -0.125840E-08  0.128E-03    2.54       8.2  T
   3   -143.1611382  0.120812E-08  0.135E-04    2.54      78.2  T
   4   -143.1611382 -0.176050E-08  0.289E-05    2.54     365.2  T
     SCC iter.                  ...        0 min,  0.038 sec
     gradient                   ...        0 min,  0.012 sec
 * total energy  :  -140.5161168 Eh     change       -0.1111598E-05 Eh
   gradient norm :     0.0001103 Eh/α   predicted    -0.3936932E-06 ( -64.58%)
   displ. norm   :     0.0630335 α      lambda       -0.3607654E-05
   maximum displ.:     0.0334614 α      in ANC's #1, #15, #9, ...

........................................................................
.............................. CYCLE   23 ..............................
........................................................................

 iter      E             dE          RMSdq      gap      omega  full diag
   1   -143.1612452 -0.143161E+03  0.116E-02    2.54       0.0  T
   2   -143.1612452 -0.251812E-07  0.683E-03    2.54       1.5  T
   3   -143.1612452  0.762378E-08  0.452E-04    2.54      23.3  T
   4   -143.1612452 -0.188557E-07  0.135E-04    2.54      78.0  T
     SCC iter.                  ...        0 min,  0.038 sec
     gradient                   ...        0 min,  0.012 sec
 * total energy  :  -140.5161208 Eh     change       -0.4018738E-05 Eh
   gradient norm :     0.0002436 Eh/α   predicted    -0.1808545E-05 ( -55.00%)
   displ. norm   :     0.0633249 α      lambda       -0.2187118E-05
   maximum displ.:     0.0361737 α      in ANC's #1, #15, #9, ...

........................................................................
.............................. CYCLE   24 ..............................
........................................................................

 iter      E             dE          RMSdq      gap      omega  full diag
   1   -143.1612897 -0.143161E+03  0.113E-02    2.54       0.0  T
   2   -143.1612897 -0.203168E-07  0.661E-03    2.54       1.6  T
   3   -143.1612897  0.108569E-07  0.443E-04    2.54      23.8  T
   4   -143.1612898 -0.207604E-07  0.125E-04    2.54      84.4  T
     SCC iter.                  ...        0 min,  0.038 sec
     gradient                   ...        0 min,  0.012 sec
 * total energy  :  -140.5161230 Eh     change       -0.2214578E-05 Eh
   gradient norm :     0.0002575 Eh/α   predicted    -0.1095694E-05 ( -50.52%)
   displ. norm   :     0.0348377 α      lambda       -0.9671222E-06
   maximum displ.:     0.0221393 α      in ANC's #1, #9, #15, ...

........................................................................
.............................. CYCLE   25 ..............................
........................................................................

 iter      E             dE          RMSdq      gap      omega  full diag
   1   -143.1614300 -0.143161E+03  0.598E-03    2.54       0.0  T
   2   -143.1614300 -0.434130E-08  0.351E-03    2.54       3.0  T
   3   -143.1614300  0.521385E-08  0.250E-04    2.54      42.1  T
   4   -143.1614300 -0.760789E-08  0.533E-05    2.54     197.8  T
     SCC iter.                  ...        0 min,  0.038 sec
     gradient                   ...        0 min,  0.012 sec
 * total energy  :  -140.5161243 Eh     change       -0.1212320E-05 Eh
   gradient norm :     0.0002002 Eh/α   predicted    -0.4842777E-06 ( -60.05%)
   displ. norm   :     0.0317926 α      lambda       -0.1196499E-05
   maximum displ.:     0.0211103 α      in ANC's #1, #9, #2, ...

........................................................................
.............................. CYCLE   26 ..............................
........................................................................

 iter      E             dE          RMSdq      gap      omega  full diag
   1   -143.1615167 -0.143162E+03  0.531E-03    2.54       0.0  T
   2   -143.1615167 -0.340097E-08  0.311E-03    2.54       3.4  T
   3   -143.1615167  0.357494E-08  0.221E-04    2.54      47.6  T
   4   -143.1615167 -0.544603E-08  0.481E-05    2.54     219.0  T
     SCC iter.                  ...        0 min,  0.039 sec
     gradient                   ...        0 min,  0.012 sec
 * total energy  :  -140.5161258 Eh     change       -0.1597209E-05 Eh
   gradient norm :     0.0001205 Eh/α   predicted    -0.6023078E-06 ( -62.29%)
   displ. norm   :     0.0506108 α      lambda       -0.1893390E-05
   maximum displ.:     0.0332040 α      in ANC's #1, #9, #2, ...

........................................................................
.............................. CYCLE   27 ..............................
........................................................................

 iter      E             dE          RMSdq      gap      omega  full diag
   1   -143.1614753 -0.143161E+03  0.809E-03    2.54       0.0  T
   2   -143.1614753 -0.106994E-07  0.474E-03    2.54       2.2  T
   3   -143.1614753  0.783780E-08  0.344E-04    2.54      30.6  T
   4   -143.1614753 -0.129622E-07  0.885E-05    2.54     119.1  T
     SCC iter.                  ...        0 min,  0.040 sec
     gradient                   ...        0 min,  0.013 sec
 * total energy  :  -140.5161281 Eh     change       -0.2292731E-05 Eh
   gradient norm :     0.0002136 Eh/α   predicted    -0.9511486E-06 ( -58.51%)
   displ. norm   :     0.0553633 α      lambda       -0.1601602E-05
   maximum displ.:     0.0369077 α      in ANC's #1, #9, #2, ...

........................................................................
.............................. CYCLE   28 ..............................
........................................................................

 iter      E             dE          RMSdq      gap      omega  full diag
   1   -143.1614333 -0.143161E+03  0.826E-03    2.54       0.0  T
   2   -143.1614334 -0.114493E-07  0.484E-03    2.54       2.2  T
   3   -143.1614334  0.623524E-08  0.324E-04    2.54      32.5  T
   4   -143.1614334 -0.113432E-07  0.906E-05    2.54     116.4  T
     SCC iter.                  ...        0 min,  0.039 sec
     gradient                   ...        0 min,  0.012 sec
 * total energy  :  -140.5161300 Eh     change       -0.1867935E-05 Eh
   gradient norm :     0.0002480 Eh/α   predicted    -0.8045046E-06 ( -56.93%)
   displ. norm   :     0.0422896 α      lambda       -0.1063238E-05
   maximum displ.:     0.0289891 α      in ANC's #1, #9, #2, ...

........................................................................
.............................. CYCLE   29 ..............................
........................................................................

 iter      E             dE          RMSdq      gap      omega  full diag
   1   -143.1613648 -0.143161E+03  0.574E-03    2.54       0.0  T
   2   -143.1613648 -0.588858E-08  0.336E-03    2.54       3.1  T
   3   -143.1613648  0.302495E-08  0.228E-04    2.54      46.1  T
   4   -143.1613648 -0.557949E-08  0.660E-05    2.54     159.6  T
     SCC iter.                  ...        0 min,  0.038 sec
     gradient                   ...        0 min,  0.012 sec
 * total energy  :  -140.5161314 Eh     change       -0.1371812E-05 Eh
   gradient norm :     0.0001969 Eh/α   predicted    -0.5323198E-06 ( -61.20%)
   displ. norm   :     0.0350338 α      lambda       -0.9902449E-06
   maximum displ.:     0.0245927 α      in ANC's #1, #9, #2, ...

........................................................................
.............................. CYCLE   30 ..............................
........................................................................

 iter      E             dE          RMSdq      gap      omega  full diag
   1   -143.1612726 -0.143161E+03  0.447E-03    2.54       0.0  T
   2   -143.1612726 -0.292363E-08  0.262E-03    2.54       4.0  T
   3   -143.1612726  0.101787E-08  0.157E-04    2.54      67.0  T
   4   -143.1612726 -0.229409E-08  0.451E-05    2.54     233.6  T
     SCC iter.                  ...        0 min,  0.038 sec
     gradient                   ...        0 min,  0.012 sec
 * total energy  :  -140.5161327 Eh     change       -0.1344288E-05 Eh
   gradient norm :     0.0001111 Eh/α   predicted    -0.4975928E-06 ( -62.98%)
   displ. norm   :     0.0389420 α      lambda       -0.1147774E-05
   maximum displ.:     0.0276529 α      in ANC's #1, #2, #9, ...

........................................................................
.............................. CYCLE   31 ..............................
........................................................................

 iter      E             dE          RMSdq      gap      omega  full diag
   1   -143.1612179 -0.143161E+03  0.494E-03    2.54       0.0  T
   2   -143.1612179 -0.295134E-08  0.290E-03    2.54       3.6  T
   3   -143.1612179  0.954657E-09  0.169E-04    2.54      62.5  T
   4   -143.1612179 -0.239422E-08  0.484E-05    2.54     217.9  T
     SCC iter.                  ...        0 min,  0.038 sec
     gradient                   ...        0 min,  0.012 sec
 * total energy  :  -140.5161342 Eh     change       -0.1509567E-05 Eh
   gradient norm :     0.0001002 Eh/α   predicted    -0.5751484E-06 ( -61.90%)
   displ. norm   :     0.0394724 α      lambda       -0.1013784E-05
   maximum displ.:     0.0285496 α      in ANC's #1, #2, #9, ...

........................................................................
.............................. CYCLE   32 ..............................
........................................................................

 iter      E             dE          RMSdq      gap      omega  full diag
   1   -143.1611849 -0.143161E+03  0.475E-03    2.54       0.0  T
   2   -143.1611849 -0.279996E-08  0.279E-03    2.54       3.8  T
   3   -143.1611849  0.168365E-08  0.178E-04    2.54      59.3  T
   4   -143.1611849 -0.310109E-08  0.474E-05    2.54     222.3  T
     SCC iter.                  ...        0 min,  0.038 sec
     gradient                   ...        0 min,  0.012 sec
 * total energy  :  -140.5161356 Eh     change       -0.1321976E-05 Eh
   gradient norm :     0.0001358 Eh/α   predicted    -0.5089102E-06 ( -61.50%)
   displ. norm   :     0.0306290 α      lambda       -0.7061450E-06
   maximum displ.:     0.0226654 α      in ANC's #1, #2, #9, ...

........................................................................
.............................. CYCLE   33 ..............................
........................................................................

 iter      E             dE          RMSdq      gap      omega  full diag
   1   -143.1612173 -0.143161E+03  0.331E-03    2.54       0.0  T
   2   -143.1612173 -0.175277E-08  0.194E-03    2.54       5.4  T
   3   -143.1612173  0.152366E-08  0.147E-04    2.54      71.6  T
   4   -143.1612173 -0.238970E-08  0.381E-05    2.54     276.3  T
     SCC iter.                  ...        0 min,  0.038 sec
     gradient                   ...        0 min,  0.012 sec
 * total energy  :  -140.5161365 Eh     change       -0.9549401E-06 Eh
   gradient norm :     0.0001311 Eh/α   predicted    -0.3550546E-06 ( -62.82%)
   displ. norm   :     0.0243806 α      lambda       -0.5904903E-06
   maximum displ.:     0.0183521 α      in ANC's #1, #2, #3, ...

........................................................................
.............................. CYCLE   34 ..............................
........................................................................

 iter      E             dE          RMSdq      gap      omega  full diag
   1   -143.1612735 -0.143161E+03  0.244E-03    2.54       0.0  T
   2   -143.1612735 -0.116589E-08  0.143E-03    2.54       7.4  T
   3   -143.1612735  0.923222E-09  0.116E-04    2.54      90.7  T
   4   -143.1612735 -0.144269E-08  0.294E-05    2.54     359.1  T
     SCC iter.                  ...        0 min,  0.038 sec
     gradient                   ...        0 min,  0.012 sec
 * total energy  :  -140.5161373 Eh     change       -0.8325172E-06 Eh
   gradient norm :     0.0000987 Eh/α   predicted    -0.2969412E-06 ( -64.33%)
   displ. norm   :     0.0245880 α      lambda       -0.6546283E-06
   maximum displ.:     0.0183792 α      in ANC's #1, #2, #12, ...

........................................................................
.............................. CYCLE   35 ..............................
........................................................................

 iter      E             dE          RMSdq      gap      omega  full diag
   1   -143.1613289 -0.143161E+03  0.272E-03    2.54       0.0  T
   2   -143.1613289 -0.126090E-08  0.159E-03    2.54       6.6  T
   3   -143.1613289  0.770484E-09  0.115E-04    2.54      91.6  T
   4   -143.1613289 -0.134460E-08  0.298E-05    2.54     353.7  T
     SCC iter.                  ...        0 min,  0.038 sec
     gradient                   ...        0 min,  0.012 sec
 * total energy  :  -140.5161383 Eh     change       -0.9382395E-06 Eh
   gradient norm :     0.0000708 Eh/α   predicted    -0.3285132E-06 ( -64.99%)
   displ. norm   :     0.0299816 α      lambda       -0.8285995E-06
   maximum displ.:     0.0216994 α      in ANC's #1, #2, #12, ...

........................................................................
.............................. CYCLE   36 ..............................
........................................................................

 iter      E             dE          RMSdq      gap      omega  full diag
   1   -143.1613890 -0.143161E+03  0.386E-03    2.54       0.0  T
   2   -143.1613890 -0.191562E-08  0.226E-03    2.54       4.7  T
   3   -143.1613890  0.607059E-09  0.127E-04    2.54      82.9  T
   4   -143.1613890 -0.150891E-08  0.367E-05    2.54     287.4  T
     SCC iter.                  ...        0 min,  0.038 sec
     gradient                   ...        0 min,  0.012 sec
 * total energy  :  -140.5161395 Eh     change       -0.1178182E-05 Eh
   gradient norm :     0.0000887 Eh/α   predicted    -0.4158417E-06 ( -64.70%)
   displ. norm   :     0.0403909 α      lambda       -0.1090989E-05
   maximum displ.:     0.0284957 α      in ANC's #1, #2, #12, ...

........................................................................
.............................. CYCLE   37 ..............................
........................................................................

 iter      E             dE          RMSdq      gap      omega  full diag
   1   -143.1614316 -0.143161E+03  0.561E-03    2.54       0.0  T
   2   -143.1614316 -0.347180E-08  0.329E-03    2.54       3.2  T
   3   -143.1614316  0.837417E-09  0.165E-04    2.54      63.8  T
   4   -143.1614316 -0.252783E-08  0.493E-05    2.54     213.7  T
     SCC iter.                  ...        0 min,  0.038 sec
     gradient                   ...        0 min,  0.012 sec
 * total energy  :  -140.5161410 Eh     change       -0.1527834E-05 Eh
   gradient norm :     0.0001299 Eh/α   predicted    -0.5476621E-06 ( -64.15%)
   displ. norm   :     0.0514762 α      lambda       -0.1308145E-05
   maximum displ.:     0.0359370 α      in ANC's #1, #2, #9, ...

........................................................................
.............................. CYCLE   38 ..............................
........................................................................

 iter      E             dE          RMSdq      gap      omega  full diag
   1   -143.1614438 -0.143161E+03  0.727E-03    2.54       0.0  T
   2   -143.1614438 -0.562588E-08  0.426E-03    2.54       2.5  T
   3   -143.1614438  0.131308E-08  0.208E-04    2.54      50.6  T
   4   -143.1614438 -0.404592E-08  0.638E-05    2.54     165.3  T
     SCC iter.                  ...        0 min,  0.038 sec
     gradient                   ...        0 min,  0.012 sec
 * total energy  :  -140.5161428 Eh     change       -0.1806164E-05 Eh
   gradient norm :     0.0001540 Eh/α   predicted    -0.6563881E-06 ( -63.66%)
   displ. norm   :     0.0577881 α      lambda       -0.1360917E-05
   maximum displ.:     0.0403802 α      in ANC's #1, #2, #9, ...

........................................................................
.............................. CYCLE   39 ..............................
........................................................................

 iter      E             dE          RMSdq      gap      omega  full diag
   1   -143.1614382 -0.143161E+03  0.804E-03    2.54       0.0  T
   2   -143.1614382 -0.694035E-08  0.471E-03    2.54       2.2  T
   3   -143.1614382  0.204102E-08  0.235E-04    2.54      44.8  T
   4   -143.1614382 -0.534999E-08  0.705E-05    2.54     149.4  T
     SCC iter.                  ...        0 min,  0.038 sec
     gradient                   ...        0 min,  0.012 sec
 * total energy  :  -140.5161447 Eh     change       -0.1862912E-05 Eh
   gradient norm :     0.0001464 Eh/α   predicted    -0.6821229E-06 ( -63.38%)
   displ. norm   :     0.0568080 α      lambda       -0.1257710E-05
   maximum displ.:     0.0399720 α      in ANC's #1, #2, #9, ...

........................................................................
.............................. CYCLE   40 ..............................
........................................................................

 iter      E             dE          RMSdq      gap      omega  full diag
   1   -143.1613988 -0.143161E+03  0.759E-03    2.54       0.0  T
   2   -143.1613988 -0.668911E-08  0.445E-03    2.54       2.4  T
   3   -143.1613988  0.262386E-08  0.241E-04    2.54      43.7  T
   4   -143.1613988 -0.570282E-08  0.696E-05    2.54     151.5  T
     SCC iter.                  ...        0 min,  0.038 sec
     gradient                   ...        0 min,  0.012 sec
 * total energy  :  -140.5161464 Eh     change       -0.1714304E-05 Eh
   gradient norm :     0.0001157 Eh/α   predicted    -0.6342969E-06 ( -63.00%)
   displ. norm   :     0.0538982 α      lambda       -0.1137184E-05
   maximum displ.:     0.0383175 α      in ANC's #1, #2, #9, ...

........................................................................
.............................. CYCLE   41 ..............................
........................................................................

 iter      E             dE          RMSdq      gap      omega  full diag
   1   -143.1613615 -0.143161E+03  0.680E-03    2.54       0.0  T
   2   -143.1613615 -0.554957E-08  0.399E-03    2.54       2.6  T
   3   -143.1613615  0.238052E-08  0.221E-04    2.54      47.7  T
   4   -143.1613615 -0.486412E-08  0.621E-05    2.54     169.8  T
     SCC iter.                  ...        0 min,  0.038 sec
     gradient                   ...        0 min,  0.012 sec
 * total energy  :  -140.5161480 Eh     change       -0.1581362E-05 Eh
   gradient norm :     0.0000814 Eh/α   predicted    -0.5726276E-06 ( -63.79%)
   displ. norm   :     0.0514329 α      lambda       -0.1070659E-05
   maximum displ.:     0.0368676 α      in ANC's #1, #2, #9, ...

........................................................................
.............................. CYCLE   42 ..............................
........................................................................

 iter      E             dE          RMSdq      gap      omega  full diag
   1   -143.1613217 -0.143161E+03  0.603E-03    2.54       0.0  T
   2   -143.1613217 -0.488865E-08  0.354E-03    2.54       3.0  T
   3   -143.1613217  0.231927E-08  0.211E-04    2.54      49.9  T
   4   -143.1613217 -0.440889E-08  0.581E-05    2.54     181.5  T
     SCC iter.                  ...        0 min,  0.038 sec
     gradient                   ...        0 min,  0.012 sec
 * total energy  :  -140.5161495 Eh     change       -0.1526715E-05 Eh
   gradient norm :     0.0000665 Eh/α   predicted    -0.5401708E-06 ( -64.62%)
   displ. norm   :     0.0527657 α      lambda       -0.1121902E-05
   maximum displ.:     0.0380394 α      in ANC's #1, #2, #9, ...
 * RMSD in coord.:     0.0817748 α      energy gain  -0.3681425E-04 Eh

generating ANC from exact Hessian ...
Using Lindh-Hessian (1995)
 Shifting diagonal of input Hessian by   9.960052855223743E-003
 Lowest  eigenvalues of input Hessian
    0.000000    0.000000    0.000000    0.000000    0.000000    0.000000
    0.010000    0.010043    0.010065    0.010431    0.010438    0.010517
    0.010582    0.010638    0.010687    0.010792    0.010800    0.011268
 Highest eigenvalues
    2.140855    2.167404    2.190906    2.200528    2.265714    2.332307
 

........................................................................
.............................. CYCLE   43 ..............................
........................................................................

 iter      E             dE          RMSdq      gap      omega  full diag
   1   -143.1612817 -0.143161E+03  0.575E-03    2.54       0.0  T
   2   -143.1612817 -0.467273E-08  0.337E-03    2.54       3.1  T
   3   -143.1612817  0.219609E-08  0.207E-04    2.54      51.0  T
   4   -143.1612817 -0.415841E-08  0.560E-05    2.54     188.3  T
     SCC iter.                  ...        0 min,  0.038 sec
     gradient                   ...        0 min,  0.012 sec
 * total energy  :  -140.5161511 Eh     change       -0.1596186E-05 Eh
   gradient norm :     0.0000784 Eh/α   predicted     0.0000000E+00 (-100.00%)
   displ. norm   :     0.0001176 α      lambda        0.0000000E+00
   maximum displ.:     0.0000561 α      in ANC's #1, #161, #263, ...

........................................................................
.............................. CYCLE   44 ..............................
........................................................................

 iter      E             dE          RMSdq      gap      omega  full diag
   1   -143.1612856 -0.143161E+03  0.791E-05    2.54       0.0  T
   2   -143.1612856 -0.935927E-10  0.455E-05    2.54     231.7  T
   3   -143.1612856  0.417799E-11  0.254E-05    2.54     414.4  T
     SCC iter.                  ...        0 min,  0.031 sec
     gradient                   ...        0 min,  0.012 sec
 * total energy  :  -140.5161511 Eh     change       -0.7324388E-08 Eh
   gradient norm :     0.0000661 Eh/α   predicted    -0.4347589E-08 ( -40.64%)
   displ. norm   :     0.0001176 α      lambda        0.0000000E+00
   maximum displ.:     0.0000561 α      in ANC's #1, #161, #263, ...

   *** GEOMETRY OPTIMIZATION CONVERGED AFTER 44 ITERATIONS ***

------------------------------------------------------------------------
 total energy gain   :        -0.0001594 Eh       -0.1000 kcal/mol
 total RMSD          :         0.1904887 a0        0.1008 Å
 total power (kW/mol):        -0.0095092 (step)   -0.1510 (real)
------------------------------------------------------------------------

 ANCopt (total)                0 d,  0 h,  0 min,  2.771 sec
 optimizer setup                ...        0 min,  0.001 sec (  0.021%)
 model hessian                  ...        0 min,  0.086 sec (  3.089%)
 ANC generation                 ...        0 min,  0.022 sec (  0.794%)
 coordinate transformation      ...        0 min,  0.003 sec (  0.117%)
 single point calculation       ...        0 min,  2.633 sec ( 95.015%)
 optimization log               ...        0 min,  0.011 sec (  0.410%)
 hessian update                 ...        0 min,  0.005 sec (  0.194%)
 rational function              ...        0 min,  0.005 sec (  0.196%)

================
 final structure:
================
90
 xtb: 6.7.1 (edcfbbe)
C           10.15681750693291       -2.86067071120679       -2.44540429595247
C            9.95300386962312       -2.33604167317472       -1.17969243538442
C            8.66957503970775       -2.09529252302522       -0.72456494553197
C            7.56624148491072       -2.38064252501147       -1.52641015349248
C            6.19965110838931       -2.12615752367868       -1.04199175911792
C            5.18221758007161       -3.05723227248399       -1.28544216523047
C            3.88474137482962       -2.86075731274132       -0.85263769667450
C            3.60195272524609       -1.69731285839433       -0.15633780210880
C            4.61095123534127       -0.74650023897121        0.09901332365358
C            5.90688276713294       -0.96153811377856       -0.34185594119874
C            3.99380636851989        0.32722146056488        0.83422275949960
C            4.50071934020391        1.48489179982500        1.40111847185491
C            3.65287949930088        2.31544964898646        2.12483169718512
C            4.15987070366765        3.55430906177084        2.73652177086193
C            5.40181814342871        3.57827011843200        3.36775894663514
C            5.87533770269526        4.74084947548364        3.94762576854859
C            5.11953531131595        5.90080633173937        3.90129282211713
C            3.88483039608495        5.88950983273157        3.27350856956020
C            3.40735084046724        4.72642210623678        2.69772730788632
C            2.31326910867756        1.94707746405574        2.29203114554467
C            1.79138498028834        0.79345737028914        1.73739211411214
C            2.62893062455044       -0.00674047206613        0.97423225385718
N            2.38880847021026       -1.22641706898622        0.34527300701729
C            1.16750590022312       -1.83856926557173        0.16649800624843
C           -0.00553153923650       -1.10266049610036        0.00155915223899
C           -1.18686726313406       -1.82617652612714       -0.15895975961002
N           -2.40112979497144       -1.20141361506131       -0.34179253248776
C           -3.61989386293883       -1.65649629289517        0.16083954992103
C           -3.91640847417794       -2.81338095674865        0.86232567891275
C           -5.21688959455168       -2.99432301554612        1.29285923785198
C           -6.22415963787516       -2.05397856696137        1.04262535584063
C           -7.59497726391239       -2.29370698090017        1.52264216752403
C           -8.69243028123910       -1.99765611299909        0.71652562954737
C           -9.97990618775301       -2.22661240963752        1.16619048293703
C          -10.19386569219622       -2.75012692783716        2.43067879648394
C           -9.11070589041397       -3.04446564174057        3.24243580401552
C           -7.82249016639385       -2.82004355787129        2.79265792427164
C           -5.91723896675123       -0.89538125485365        0.33849660824276
C           -4.61825035446377       -0.69624446311430       -0.10080465652439
C           -3.98871307288777        0.36681230011108       -0.84099622835162
C           -4.48264615870569        1.52658779583607       -1.41500904178390
C           -3.62535405223976        2.34346785284667       -2.14309569411504
C           -4.11847497494811        3.58446692287348       -2.76178256867369
C           -3.35451491820001        4.74921507898832       -2.72582026140855
C           -3.81936606177887        5.91474342618672       -3.30699037128573
C           -5.05248658004794        5.93566210307506       -3.93763044040480
C           -5.81940295564454        4.78292880151802       -3.98152592698894
C           -5.35862438932563        3.61801625026528       -3.39607813478832
C           -2.28978414717230        1.95953027899643       -2.30733707180434
C           -1.78082750722129        0.80359224127279       -1.74550809919855
C           -2.62745857955226        0.01717193269806       -0.97804981994897
N           -1.18931865611165       -3.16496598239464       -0.12086894775083
C           -0.02055546270515       -3.75315329155222        0.00975308478811
N            1.15485873646450       -3.17749059658673        0.13671542322850
C            7.78343443894487       -2.90897510245805       -2.79736762813000
C            9.06763377068762       -3.14494307985700       -3.25268622955974
H           11.15965184743786       -3.04732757731932       -2.80122474254183
H           10.79840524297091       -2.11556863900500       -0.54356392725200
H            8.51681713762490       -1.70212765214236        0.27020065496565
H            5.42463667946915       -3.96874611744877       -1.81126207167888
H            3.11775699926589       -3.59495693384921       -1.03755035211450
H            6.67227918240530       -0.22216709995616       -0.16263109267390
H            5.54124875757720        1.74039133504342        1.27358546602279
H            5.98860912581863        2.67276359363024        3.42274558809756
H            6.83741760806294        4.74174081713368        4.43980060062713
H            5.49071537461991        6.80925091286676        4.35291962048997
H            3.29198163493482        6.79209001677674        3.23124473179839
H            2.45017621168051        4.72855135871990        2.19629102351196
H            1.67210579499142        2.56816809462025        2.89961239054274
H            0.76545590323718        0.52332339213590        1.93454647511002
H            0.00061450855075       -0.02823882843825       -0.00173637111398
H           -3.15759951286296       -3.55463571870159        1.05263397488780
H           -5.46988114951830       -3.90102722753731        1.82197011663838
H           -8.53203169070827       -1.60576517204522       -0.27753132880398
H          -10.82050039377557       -1.99792927354816        0.52660950379650
H          -11.19985631770567       -2.92809505238486        2.78200778176305
H           -9.27083567666512       -3.44888497916658        4.23179906164160
H           -6.98316214835302       -3.03629288533948        3.43780689018154
H           -6.67402125621432       -0.14850554659617        0.15412276512060
H           -5.52042024848590        1.79421017495510       -1.28983577289185
H           -2.39850185355740        4.74374474304482       -2.22219208702744
H           -3.21794473446911        6.81171883545030       -3.26659390827295
H           -5.41384126756280        6.84594821978876       -4.39348649820790
H           -6.78021204547762        4.79142255754966       -4.47610475012769
H           -5.95402790441175        2.71801264393477       -3.44891269034760
H           -1.64162009330046        2.57002974701250       -2.91824724040335
H           -0.75784533624775        0.52106553509738       -1.94059688062756
H           -0.02675412228949       -4.83637699650508        0.01316708643405
H            6.93930937139262       -3.11733221437063       -3.43885978755362
H            9.21994169529250       -3.55018765636144       -4.24294033457620
 
 Bond Distances (Angstroems)
 ---------------------------
C1-C2=1.3852         C1-C56=1.3852        C1-H57=1.0803        C2-C1=1.3852         C2-C3=1.3829         C2-H58=1.0807        
C3-C2=1.3829         C3-C4=1.3935         C3-H59=1.0805        C4-C3=1.3935         C4-C5=1.4721         C4-C55=1.3934        
C5-C4=1.4721         C5-C6=1.4005         C5-C10=1.3901        C6-C5=1.4005         C6-C7=1.3818         C6-H60=1.0799        
C7-C6=1.3818         C7-C8=1.3851         C7-H61=1.0777        C8-C7=1.3851         C8-C9=1.4097         C8-N23=1.3947        
C9-C8=1.4097         C9-C10=1.3857        C9-C11=1.4402        C10-C5=1.3901        C10-C9=1.3857        C10-H62=1.0792       
C11-C9=1.4402        C11-C12=1.3851       C11-C22=1.4121       C12-C11=1.3851       C12-C13=1.3901       C12-H63=1.0790       
C13-C12=1.3901       C13-C14=1.4717       C13-C20=1.3994       C14-C13=1.4717       C14-C15=1.3934       C14-C19=1.3934       
C15-C14=1.3934       C15-C16=1.3828       C15-H64=1.0804       C16-C15=1.3828       C16-C17=1.3852       C16-H65=1.0807       
C17-C16=1.3852       C17-C18=1.3852       C17-H66=1.0803       C18-C17=1.3852       C18-C19=1.3829       C18-H67=1.0807       
C19-C14=1.3934       C19-C18=1.3829       C19-H68=1.0806       C20-C13=1.3994       C20-C21=1.3823       C20-H69=1.0798       
C21-C20=1.3823       C21-C22=1.3872       C21-H70=1.0791       C22-C11=1.4121       C22-C21=1.3872       C22-N23=1.3931       
N23-C8=1.3947        N23-C22=1.3931       N23-C24=1.3778       C24-N23=1.3778       C24-C25=1.3946       C24-N54=1.3393       
C25-C24=1.3946       C25-C26=1.3946       C25-H71=1.0744       C26-C25=1.3946       C26-N27=1.3777       C26-N52=1.3393       
N27-C26=1.3777       N27-C28=1.3947       N27-C51=1.3932       C28-N27=1.3947       C28-C29=1.3851       C28-C39=1.4097       
C29-C28=1.3851       C29-C30=1.3818       C29-H72=1.0777       C30-C29=1.3818       C30-C31=1.4005       C30-H73=1.0798       
C31-C30=1.4005       C31-C32=1.4721       C31-C38=1.3901       C32-C31=1.4721       C32-C33=1.3935       C32-C37=1.3935       
C33-C32=1.3935       C33-C34=1.3828       C33-H74=1.0805       C34-C33=1.3828       C34-C35=1.3852       C34-H75=1.0807       
C35-C34=1.3852       C35-C36=1.3852       C35-H76=1.0803       C36-C35=1.3852       C36-C37=1.3828       C36-H77=1.0808       
C37-C32=1.3935       C37-C36=1.3828       C37-H78=1.0805       C38-C31=1.3901       C38-C39=1.3856       C38-H79=1.0791       
C39-C28=1.4097       C39-C38=1.3856       C39-C40=1.4402       C40-C39=1.4402       C40-C41=1.3851       C40-C51=1.4121       
C41-C40=1.3851       C41-C42=1.3901       C41-H80=1.0790       C42-C41=1.3901       C42-C43=1.4717       C42-C49=1.3993       
C43-C42=1.4717       C43-C44=1.3934       C43-C48=1.3934       C44-C43=1.3934       C44-C45=1.3829       C44-H81=1.0806       
C45-C44=1.3829       C45-C46=1.3852       C45-H82=1.0807       C46-C45=1.3852       C46-C47=1.3852       C46-H83=1.0803       
C47-C46=1.3852       C47-C48=1.3828       C47-H84=1.0807       C48-C43=1.3934       C48-C47=1.3828       C48-H85=1.0804       
C49-C42=1.3993       C49-C50=1.3823       C49-H86=1.0798       C50-C49=1.3823       C50-C51=1.3872       C50-H87=1.0791       
C51-N27=1.3932       C51-C40=1.4121       C51-C50=1.3872       N52-C26=1.3393       N52-C53=1.3149       C53-N52=1.3149       
C53-N54=1.3150       C53-H88=1.0832       N54-C24=1.3393       N54-C53=1.3150       C55-C4=1.3934        C55-C56=1.3828       
C55-H89=1.0805       C56-C1=1.3852        C56-C55=1.3828       C56-H90=1.0808       H57-C1=1.0803        H58-C2=1.0807        
H59-C3=1.0805        H60-C6=1.0799        H61-C7=1.0777        H62-C10=1.0792       H63-C12=1.0790       H64-C15=1.0804       
H65-C16=1.0807       H66-C17=1.0803       H67-C18=1.0807       H68-C19=1.0806       H69-C20=1.0798       H70-C21=1.0791       
H71-C25=1.0744       H72-C29=1.0777       H73-C30=1.0798       H74-C33=1.0805       H75-C34=1.0807       H76-C35=1.0803       
H77-C36=1.0808       H78-C37=1.0805       H79-C38=1.0791       H80-C41=1.0790       H81-C44=1.0806       H82-C45=1.0807       
H83-C46=1.0803       H84-C47=1.0807       H85-C48=1.0804       H86-C49=1.0798       H87-C50=1.0791       H88-C53=1.0832       
H89-C55=1.0805       H90-C56=1.0808       
 C  H  Rav=1.0799 sigma=0.0014  Rmin=1.0744  Rmax=1.0832    34
 C  C  Rav=1.3976 sigma=0.0239  Rmin=1.3818  Rmax=1.4721    56
 N  C  Rav=1.3640 sigma=0.0316  Rmin=1.3149  Rmax=1.3947    10
 
 selected bond angles (degree)
 --------------------
C56-C1-C2=119.64               H57-C1-C2=120.20               H57-C1-C56=120.16              C3-C2-C1=120.21                
H58-C2-C1=120.00               H58-C2-C3=119.79               C4-C3-C2=120.65                H59-C3-C2=119.84               
H59-C3-C4=119.50               C5-C4-C3=120.68                C55-C4-C3=118.63               C55-C4-C5=120.69               
C6-C5-C4=120.15                C10-C5-C4=120.41               C10-C5-C6=119.44               C7-C6-C5=122.22                
H60-C6-C5=118.86               H60-C6-C7=118.90               C8-C7-C6=117.94                H61-C7-C6=121.17               
H61-C7-C8=120.88               C9-C8-C7=120.76                N23-C8-C7=129.94               N23-C8-C9=109.25               
C10-C9-C8=120.47               C11-C9-C8=106.77               C11-C9-C10=132.76              C9-C10-C5=119.16               
H62-C10-C5=120.55              H62-C10-C9=120.28              
 
 selected dihedral angles (degree)
 ---------------------------------
C3-C2-C1-C56=359.91           C3-C2-C1-H57=179.91           H58-C2-C1-C56=179.77          H58-C2-C1-H57=359.78          
C4-C3-C2-C1=  0.27            C4-C3-C2-H58=180.40           H59-C3-C2-C1=178.93           H59-C3-C2-H58=359.07          
C5-C4-C3-C2=179.93            C5-C4-C3-H59=  1.25           C55-C4-C3-C2=359.78           C55-C4-C3-H59=181.11          
C6-C5-C4-C3=221.72            C6-C5-C4-C55= 41.86           C10-C5-C4-C3= 41.80           C10-C5-C4-C55=221.95          
C7-C6-C5-C4=180.12            C7-C6-C5-C10=  0.03           H60-C6-C5-C4=  1.41           H60-C6-C5-C10=181.33          
C8-C7-C6-C5=  0.00            C8-C7-C6-H60=178.70           H61-C7-C6-C5=180.85           H61-C7-C6-H60=359.55          
C9-C8-C7-C6=  0.04            C9-C8-C7-H61=179.18           N23-C8-C7-C6=177.36           N23-C8-C7-H61=356.50          
C10-C9-C8-C7=359.90           C10-C9-C8-N23=182.08          C11-C9-C8-C7=180.09           C11-C9-C8-N23=  2.27          
C9-C10-C5-C4=179.82           C9-C10-C5-C6=359.91           H62-C10-C5-C4=  1.23          H62-C10-C5-C6=181.32          
C5-C10-C9-C8=  0.13           C5-C10-C9-C11=179.88          H62-C10-C9-C8=178.72          H62-C10-C9-C11=358.47         
           -------------------------------------------------
          |                Final Singlepoint                |
           -------------------------------------------------

          ...................................................
          :                      SETUP                      :
          :.................................................:
          :  # basis functions                 258          :
          :  # atomic orbitals                 258          :
          :  # shells                          146          :
          :  # electrons                       262          :
          :  max. iterations                   250          :
          :  Hamiltonian                  GFN2-xTB          :
          :  restarted?                      false          :
          :  GBSA solvation                   true          :
          :  PC potential                    false          :
          :  electronic temp.          300.0000000     K    :
          :  accuracy                    1.0000000          :
          :  -> integral cutoff          0.2500000E+02      :
          :  -> integral neglect         0.1000000E-07      :
          :  -> SCF convergence          0.1000000E-05 Eh   :
          :  -> wf. convergence          0.1000000E-03 e    :
          :  Broyden damping             0.4000000          :
          :  net charge                          0          :
          :  unpaired electrons                  0          :
          ...................................................

 iter      E             dE          RMSdq      gap      omega  full diag
   1   -143.1612856 -0.143161E+03  0.655E-06    2.54       0.0  T
   2   -143.1612856 -0.653699E-12  0.422E-06    2.54    2499.6  T
   3   -143.1612856 -0.156319E-11  0.244E-06    2.54    4317.1  T

   *** convergence criteria satisfied after 3 iterations ***

         #    Occupation            Energy/Eh            Energy/eV
      -------------------------------------------------------------
         1        2.0000           -0.7002063             -19.0536
       ...           ...                  ...                  ...
       125        2.0000           -0.3964597             -10.7882
       126        2.0000           -0.3963730             -10.7859
       127        2.0000           -0.3851871             -10.4815
       128        2.0000           -0.3845426             -10.4639
       129        2.0000           -0.3844431             -10.4612
       130        2.0000           -0.3747017             -10.1962
       131        2.0000           -0.3701557             -10.0725 (HOMO)
       132                         -0.2768574              -7.5337 (LUMO)
       133                         -0.2661105              -7.2412
       134                         -0.2530745              -6.8865
       135                         -0.2519967              -6.8572
       136                         -0.2489341              -6.7738
       ...                                ...                  ...
       258                          0.7381845              20.0870
      -------------------------------------------------------------
                  HL-Gap            0.0932983 Eh            2.5388 eV
             Fermi-level           -0.3235066 Eh           -8.8031 eV

 SCC (total)                   0 d,  0 h,  0 min,  0.047 sec
 SCC setup                      ...        0 min,  0.001 sec (  1.970%)
 Dispersion                     ...        0 min,  0.001 sec (  2.449%)
 classical contributions        ...        0 min,  0.000 sec (  0.203%)
 integral evaluation            ...        0 min,  0.004 sec (  8.771%)
 iterations                     ...        0 min,  0.029 sec ( 61.279%)
 molecular gradient             ...        0 min,  0.011 sec ( 24.169%)
 printout                       ...        0 min,  0.000 sec (  1.000%)

         :::::::::::::::::::::::::::::::::::::::::::::::::::::
         ::                     SUMMARY                     ::
         :::::::::::::::::::::::::::::::::::::::::::::::::::::
         :: total energy            -140.516151084470 Eh    ::
         :: total w/o Gsasa/hb      -140.458512914629 Eh    ::
         :: gradient norm              0.000066167620 Eh/a0 ::
         :: HOMO-LUMO gap              2.538777317770 eV    ::
         ::.................................................::
         :: SCC energy              -143.162995965909 Eh    ::
         :: -> isotropic ES            0.030698100001 Eh    ::
         :: -> anisotropic ES          0.012590833740 Eh    ::
         :: -> anisotropic XC          0.087737262769 Eh    ::
         :: -> dispersion             -0.122589645856 Eh    ::
         :: -> Gsolv                  -0.060344955680 Eh    ::
         ::    -> Gelec               -0.002706785839 Eh    ::
         ::    -> Gsasa               -0.062162049712 Eh    ::
         ::    -> Ghb                  0.000000000000 Eh    ::
         ::    -> Gshift               0.004523879872 Eh    ::
         :: repulsion energy           2.646844881439 Eh    ::
         :: add. restraining           0.000000000000 Eh    ::
         :: total charge               0.000000000000 e     ::
         :::::::::::::::::::::::::::::::::::::::::::::::::::::

           ------------------------------------------------- 
          |                Numerical Hessian                |
           ------------------------------------------------- 
step length          :   0.00500
SCC accuracy         :   0.30000
Hessian scale factor :   1.00000
frozen atoms in %    :   0.00000    0
RMS gradient         :   0.00007
estimated CPU  time     29.08 min
estimated wall time      0.73 min

writing file <hessian>.

 projected vibrational frequencies (cm⁻¹)
eigval :       -0.00    -0.00     0.00     0.00     0.00     0.00
eigval :        8.36     9.18    11.26    31.54    33.00    37.94
eigval :       39.56    41.12    42.87    43.33    46.52    56.94
eigval :       60.61    65.87    73.19    84.50    93.59    95.85
eigval :      114.09   125.33   126.50   147.26   152.19   167.29
eigval :      179.44   191.60   207.15   210.71   220.26   240.91
[...]
    47   6 C       84   1 H                                       1.0806640
    48   6 C       85   1 H                                       1.0804182
    49   6 C       86   1 H                                       1.0798323
    50   6 C       87   1 H                                       1.0790615
    53   6 C       88   1 H                                       1.0832469
    55   6 C       89   1 H                                       1.0804963
    56   6 C       90   1 H                                       1.0807517

 * 3 distinct bonds (by element types)

   Z      Z             #   av. dist./Å        max./Å        min./Å
   1 H    6 C          34     1.0799353     1.0832469     1.0744444
   6 C    6 C          52     1.3919070     1.4402398     1.3817926
   6 C    7 N          10     1.3639736     1.3946775     1.3149274

           -------------------------------------------------
          |               Frequency Printout                |
           -------------------------------------------------
 projected vibrational frequencies (cm⁻¹)
eigval :       -0.00    -0.00     0.00     0.00     0.00     0.00
eigval :        8.36     9.18    11.26    31.54    33.00    37.94
eigval :       39.56    41.12    42.87    43.33    46.52    56.94
eigval :       60.61    65.87    73.19    84.50    93.59    95.85
eigval :      114.09   125.33   126.50   147.26   152.19   167.29
eigval :      179.44   191.60   207.15   210.71   220.26   240.91
eigval :      246.41   246.69   263.88   271.77   282.34   307.37
eigval :      314.08   326.91   347.89   359.94   363.51   371.79
eigval :      371.94   372.60   373.18   380.66   385.44   394.47
eigval :      396.18   406.27   420.48   433.00   438.98   445.09
eigval :      465.06   476.34   477.61   482.58   484.69   504.50
eigval :      505.77   551.23   554.05   566.03   573.34   577.39
eigval :      585.11   586.34   589.28   592.25   592.61   611.48
eigval :      611.66   616.94   622.13   627.61   631.01   647.98
eigval :      667.29   667.65   673.53   673.85   679.17   685.90
eigval :      689.15   689.54   711.65   712.02   722.15   731.07
eigval :      742.00   742.49   754.65   758.19   758.91   759.22
eigval :      770.20   815.97   826.59   829.89   829.91   852.34
eigval :      859.39   864.57   872.60   873.23   874.03   874.97
eigval :      880.20   880.73   881.68   883.76   900.99   901.53
eigval :      902.20   902.37   902.65   905.36   910.29   915.07
eigval :      916.98   917.00   922.22   929.41   930.16   930.35
eigval :      930.39   932.25   932.30   932.34   932.61   937.05
eigval :      971.31   971.52   980.57   981.57  1020.01  1026.84
eigval :     1027.79  1033.48  1070.28  1070.45  1071.47  1074.05
eigval :     1084.63  1085.00  1085.61  1085.64  1118.38  1120.29
eigval :     1120.37  1120.70  1120.91  1136.38  1157.14  1160.02
eigval :     1173.03  1179.37  1179.70  1179.80  1180.31  1194.03
eigval :     1198.51  1199.30  1200.06  1204.57  1212.85  1213.98
eigval :     1220.12  1222.22  1231.32  1240.67  1245.56  1268.65
eigval :     1274.74  1280.10  1280.28  1280.50  1280.52  1281.25
eigval :     1295.59  1297.71  1299.22  1303.26  1315.64  1316.40
eigval :     1317.06  1317.18  1321.46  1336.33  1341.37  1344.20
eigval :     1351.80  1355.64  1401.53  1401.85  1417.91  1420.18
eigval :     1427.64  1428.35  1429.75  1430.94  1431.93  1457.25
eigval :     1457.87  1458.35  1464.19  1465.86  1491.62  1491.66
eigval :     1493.70  1493.73  1507.63  1552.10  1565.70  1567.28
eigval :     1573.68  1574.08  1581.21  1581.29  1582.63  1582.77
eigval :     1592.32  1592.39  1596.03  1596.05  1601.08  1601.12
eigval :     1610.29  1610.32  3047.58  3066.02  3066.29  3066.88
eigval :     3067.04  3067.69  3067.76  3069.07  3069.11  3076.34
eigval :     3076.45  3076.70  3076.75  3079.57  3079.62  3080.33
eigval :     3080.41  3082.43  3082.63  3086.62  3086.76  3088.32
eigval :     3088.39  3088.75  3088.88  3091.11  3091.32  3093.47
eigval :     3093.63  3096.28  3096.44  3113.45  3113.95  3142.28
 reduced masses (amu)
   1: 11.58   2: 11.59   3: 11.41   4: 11.27   5: 11.56   6: 11.35   7: 11.16   8: 11.33
   9: 11.21  10: 11.17  11: 11.09  12: 10.88  13: 10.18  14: 10.87  15:  9.99  16: 10.06
  17: 10.13  18: 10.47  19: 10.56  20: 11.43  21: 11.06  22: 10.63  23: 10.62  24: 10.90
  25: 10.26  26: 10.92  27: 11.24  28: 10.28  29: 10.31  30: 10.69  31: 11.04  32: 12.32
  33: 11.08  34: 12.13  35: 11.61  36: 11.29  37: 10.39  38: 10.40  39: 11.61  40: 10.91
  41: 10.88  42: 11.08  43: 10.92  44: 10.86  45: 11.25  46: 10.81  47: 11.40  48:  8.94
  49:  9.00  50:  8.97  51:  8.96  52: 10.89  53: 10.69  54:  9.66  55:  9.52  56: 10.53
  57:  9.77  58:  9.48  59:  9.92  60: 11.50  61: 11.18  62: 11.06  63: 11.14  64: 10.09
  65: 10.13  66: 10.13  67: 10.31  68: 10.64  69: 10.79  70: 11.25  71: 10.59  72: 11.18
  73: 11.29  74: 11.13  75: 11.40  76: 11.07  77: 11.10  78: 11.54  79: 11.49  80: 11.40
  81: 11.07  82: 10.95  83: 11.05  84: 11.76  85:  9.97  86:  9.97  87:  9.00  88:  9.00
  89: 11.59  90: 11.44  91: 10.94  92: 11.01  93: 11.69  94: 11.67  95: 12.01  96: 11.00
  97: 11.22  98: 11.15  99:  6.07 100:  5.05 101:  4.80 102:  4.76 103: 10.32 104:  4.65
 105:  4.61 106:  4.63 107:  4.63 108:  3.82 109: 10.77 110: 10.75 111:  3.43 112:  3.44
 113:  3.36 114:  3.41 115:  3.27 116:  3.28 117:  3.25 118:  3.35 119:  4.26 120:  4.43
 121:  3.90 122:  4.21 123: 10.50 124:  7.76 125:  7.29 126:  3.44 127:  3.46 128:  3.47
 129:  3.48 130:  3.82 131:  4.03 132:  3.88 133:  3.95 134:  3.32 135:  3.05 136:  3.07
 137:  3.32 138: 11.47 139: 11.28 140: 11.27 141: 10.65 142: 10.73 143:  9.34 144:  9.67
 145: 12.56 146:  9.68 147:  8.04 148:  8.17 149:  8.16 150:  8.47 151:  6.01 152:  5.72
 153:  5.84 154:  5.82 155:  5.46 156:  4.17 157:  4.15 158:  4.22 159:  4.29 160:  7.74
 161:  4.42 162:  4.55 163:  3.29 164:  1.30 165:  1.31 166:  1.34 167:  1.34 168:  3.66
 169:  1.88 170:  1.96 171:  1.93 172:  3.57 173:  5.46 174:  4.97 175:  6.82 176:  6.27
 177:  5.11 178:  5.54 179:  6.15 180:  6.66 181:  6.77 182:  3.55 183:  3.57 184:  3.72
 185:  3.53 186:  9.42 187: 10.14 188:  8.40 189: 10.45 190: 10.26 191: 11.83 192: 11.87
 193: 11.93 194: 11.77 195: 11.80 196: 10.83 197: 11.52 198: 11.51 199: 11.41 200: 11.57
 201: 10.38 202: 10.32 203:  9.98 204: 10.29 205:  9.24 206:  8.96 207:  9.63 208:  9.01
 209:  9.51 210: 10.47 211:  9.61 212: 10.94 213: 10.04 214: 10.69 215: 10.22 216: 10.22
 217: 10.50 218: 10.50 219: 12.52 220: 11.92 221: 11.66 222: 11.73 223: 11.58 224: 11.57
 225: 11.51 226: 11.51 227: 11.57 228: 11.57 229: 11.63 230: 11.63 231: 11.49 232: 11.50
 233: 11.59 234: 11.59 235: 11.70 236: 11.70 237:  1.78 238:  1.75 239:  1.74 240:  1.74
 241:  1.74 242:  1.78 243:  1.78 244:  1.78 245:  1.78 246:  1.83 247:  1.83 248:  1.83
 249:  1.83 250:  1.87 251:  1.87 252:  1.87 253:  1.87 254:  1.79 255:  1.78 256:  1.81
 257:  1.81 258:  1.91 259:  1.91 260:  1.92 261:  1.92 262:  1.83 263:  1.83 264:  1.86
 265:  1.86 266:  1.84 267:  1.84 268:  1.86 269:  1.86 270:  1.84
 IR intensities (km·mol⁻¹)
   1:  0.00   2:  0.00   3:  0.01   4:  0.02   5:  0.01   6:  0.01   7:  0.00   8:  0.02
   9:  0.01  10:  0.25  11:  0.01  12:  0.04  13:  0.07  14:  0.41  15:  0.05  16:  0.20
  17:  0.01  18:  0.32  19:  0.01  20:  2.46  21:  0.00  22:  5.22  23:  0.18  24:  0.01
  25:  0.13  26:  0.04  27:  0.01  28:  1.09  29:  0.03  30:  0.36  31:  0.14  32:  0.11
  33: 12.97  34:  1.37  35:  1.41  36:  1.01  37:  0.59  38:  0.89  39:  0.34  40:  0.65
  41:  0.55  42:  0.03  43: 14.14  44:  1.03  45:  0.48  46:  0.12  47:  8.20  48:  0.19
  49:  0.03  50:  0.35  51:  0.20  52:  2.66  53:  2.24  54:  1.85  55:  1.30  56:  1.02
  57: 17.43  58:  0.13  59:  5.71  60:  0.03  61:  1.01  62:  0.66  63: 22.91  64:  0.09
  65:  3.18  66:  5.10  67:  6.54  68:  2.09  69:  5.88  70:  6.25  71:  0.54  72:  1.76
  73:  0.55  74:  0.11  75:  0.24  76:  0.00  77:  0.19  78: 10.32  79:  4.72  80:  0.00
  81:  3.25  82:  0.00  83:  2.60  84:  7.13  85:  6.29  86:  3.61  87:  3.69  88:  3.99
  89: 12.25  90: 24.93  91:  0.27  92: 10.20  93: 15.43  94:  1.26  95: 21.24  96:  8.40
  97:  3.24  98:  1.28  99: 58.37 100: 20.35 101: 12.04 102:  7.67 103: 21.41 104: 22.06
 105:  9.69 106: 18.55 107: 15.45 108:  0.39 109:  1.41 110:  6.01 111:  3.93 112:  5.81
 113:  0.49 114:  6.89 115:  0.10 116:  0.44 117:  0.01 118:  2.99 119:  0.29 120:  0.37
 121:  0.05 122:  0.18 123:  0.27 124:  4.73 125:  0.94 126:  1.84 127:  1.72 128:  1.69
 129:  3.07 130:  1.59 131:  0.70 132:  0.36 133:  3.03 134:  0.47 135:  0.26 136:  0.16
 137:  0.31 138:  5.50 139: 10.22 140:  7.44 141:  3.35 142:  1.64 143:  3.25 144:  0.26
 145: 56.80 146:  7.63 147:  7.54 148:  1.18 149:  5.41 150:  2.36 151:  1.55 152:  1.06
 153:  0.22 154:  0.47 155: 31.07 156:  0.48 157:  0.22 158:  1.29 159:  2.04 160:  1.34
 161: 30.64 162: 35.76 163: 71.75 164:  0.17 165:  0.14 166:  0.20 167:  0.14 168:  7.47
 169:  0.02 170:  0.60 171:  0.37 172:  7.57 173: 34.07 174: 27.81 175:  6.54 176:  1.48
 177: 52.78 178: 53.88 179: 14.27 180: 52.85 181: 81.65 182:  1.68 183:  2.27 184:  5.23
 185:  1.82 186:  1.33 187: 50.57 188: 23.01 189:107.68 190: 28.97 191:  9.17 192:  0.70
 193:  5.05 194: 20.53 195: 17.42 196:945.07 197:428.70 198: 26.25 199: 11.78 200: 16.81
 201: 44.30 202:  0.57 203:  5.42 204:****** 205:152.76 206:  3.75 207:290.96 208: 20.28
 209:429.21 210: 47.31 211: 47.12 212:404.30 213: 29.31 214:190.90 215: 25.05 216: 20.82
 217:  0.18 218:  0.16 219: 76.30 220:****** 221:  9.80 222:228.09 223:  2.74 224:  1.64
 225:  0.77 226:  0.56 227:  0.27 228:  1.99 229: 54.88 230: 47.58 231:  1.86 232:  4.41
 233:  2.68 234:  1.43 235:  0.51 236:  0.05 237: 51.28 238: 10.84 239: 10.73 240:  5.16
 241:  5.69 242: 10.40 243: 10.47 244:  3.39 245:  4.84 246: 87.44 247: 70.32 248: 65.40
 249: 81.17 250:142.93 251:175.66 252: 70.10 253:242.97 254: 45.15 255:  4.60 256: 46.24
 257: 54.05 258: 66.04 259: 87.15 260: 80.17 261: 69.36 262: 24.98 263: 14.70 264:246.83
 265: 25.20 266: 23.71 267: 18.97 268: 27.35 269: 27.57 270:  7.34
 Raman intensities (Ä⁴*amu⁻¹)
   1:  0.00   2:  0.00   3:  0.00   4:  0.00   5:  0.00   6:  0.00   7:  0.00   8:  0.00
   9:  0.00  10:  0.00  11:  0.00  12:  0.00  13:  0.00  14:  0.00  15:  0.00  16:  0.00
  17:  0.00  18:  0.00  19:  0.00  20:  0.00  21:  0.00  22:  0.00  23:  0.00  24:  0.00
  25:  0.00  26:  0.00  27:  0.00  28:  0.00  29:  0.00  30:  0.00  31:  0.00  32:  0.00
  33:  0.00  34:  0.00  35:  0.00  36:  0.00  37:  0.00  38:  0.00  39:  0.00  40:  0.00
  41:  0.00  42:  0.00  43:  0.00  44:  0.00  45:  0.00  46:  0.00  47:  0.00  48:  0.00
  49:  0.00  50:  0.00  51:  0.00  52:  0.00  53:  0.00  54:  0.00  55:  0.00  56:  0.00
  57:  0.00  58:  0.00  59:  0.00  60:  0.00  61:  0.00  62:  0.00  63:  0.00  64:  0.00
  65:  0.00  66:  0.00  67:  0.00  68:  0.00  69:  0.00  70:  0.00  71:  0.00  72:  0.00
  73:  0.00  74:  0.00  75:  0.00  76:  0.00  77:  0.00  78:  0.00  79:  0.00  80:  0.00
  81:  0.00  82:  0.00  83:  0.00  84:  0.00  85:  0.00  86:  0.00  87:  0.00  88:  0.00
  89:  0.00  90:  0.00  91:  0.00  92:  0.00  93:  0.00  94:  0.00  95:  0.00  96:  0.00
  97:  0.00  98:  0.00  99:  0.00 100:  0.00 101:  0.00 102:  0.00 103:  0.00 104:  0.00
 105:  0.00 106:  0.00 107:  0.00 108:  0.00 109:  0.00 110:  0.00 111:  0.00 112:  0.00
 113:  0.00 114:  0.00 115:  0.00 116:  0.00 117:  0.00 118:  0.00 119:  0.00 120:  0.00
 121:  0.00 122:  0.00 123:  0.00 124:  0.00 125:  0.00 126:  0.00 127:  0.00 128:  0.00
 129:  0.00 130:  0.00 131:  0.00 132:  0.00 133:  0.00 134:  0.00 135:  0.00 136:  0.00
 137:  0.00 138:  0.00 139:  0.00 140:  0.00 141:  0.00 142:  0.00 143:  0.00 144:  0.00
 145:  0.00 146:  0.00 147:  0.00 148:  0.00 149:  0.00 150:  0.00 151:  0.00 152:  0.00
 153:  0.00 154:  0.00 155:  0.00 156:  0.00 157:  0.00 158:  0.00 159:  0.00 160:  0.00
 161:  0.00 162:  0.00 163:  0.00 164:  0.00 165:  0.00 166:  0.00 167:  0.00 168:  0.00
 169:  0.00 170:  0.00 171:  0.00 172:  0.00 173:  0.00 174:  0.00 175:  0.00 176:  0.00
 177:  0.00 178:  0.00 179:  0.00 180:  0.00 181:  0.00 182:  0.00 183:  0.00 184:  0.00
 185:  0.00 186:  0.00 187:  0.00 188:  0.00 189:  0.00 190:  0.00 191:  0.00 192:  0.00
 193:  0.00 194:  0.00 195:  0.00 196:  0.00 197:  0.00 198:  0.00 199:  0.00 200:  0.00
 201:  0.00 202:  0.00 203:  0.00 204:  0.00 205:  0.00 206:  0.00 207:  0.00 208:  0.00
 209:  0.00 210:  0.00 211:  0.00 212:  0.00 213:  0.00 214:  0.00 215:  0.00 216:  0.00
 217:  0.00 218:  0.00 219:  0.00 220:  0.00 221:  0.00 222:  0.00 223:  0.00 224:  0.00
 225:  0.00 226:  0.00 227:  0.00 228:  0.00 229:  0.00 230:  0.00 231:  0.00 232:  0.00
 233:  0.00 234:  0.00 235:  0.00 236:  0.00 237:  0.00 238:  0.00 239:  0.00 240:  0.00
 241:  0.00 242:  0.00 243:  0.00 244:  0.00 245:  0.00 246:  0.00 247:  0.00 248:  0.00
 249:  0.00 250:  0.00 251:  0.00 252:  0.00 253:  0.00 254:  0.00 255:  0.00 256:  0.00
 257:  0.00 258:  0.00 259:  0.00 260:  0.00 261:  0.00 262:  0.00 263:  0.00 264:  0.00
 265:  0.00 266:  0.00 267:  0.00 268:  0.00 269:  0.00 270:  0.00
 output can be read by thermo (or use thermo option).
 writing <g98.out> molden fake output.
 recommended (thermochemical) frequency scaling factor: 1.0
           -------------------------------------------------
          |             Thermodynamic Functions             |
           -------------------------------------------------

Molecule has the following symmetry elements: (C2) 
It seems to be the C2 point group
c2  symmetry found (for desy threshold:  0.10E+00) used in thermo

          ...................................................
          :                      SETUP                      :
          :.................................................:
          :  # frequencies                         264      :
          :  # imaginary freq.                       0      :
          :  linear?                             false      :
          :  only rotor calc.                    false      :
          :  symmetry                               c2      :
          :  rotational number                       2      :
          :  scaling factor                  1.0000000      :
          :  rotor cutoff                   50.0000000 cm⁻¹ :
          :  imag. cutoff                  -20.0000000 cm⁻¹ :
          :.................................................:

    mode    ω/cm⁻¹     T·S(HO)/kcal·mol⁻¹    T·S(FR)/kcal·mol⁻¹   T·S(vib)
   ------------------------------------------------------------------------
       1      8.36    -2.49475 (  0.08%)    -1.58644 ( 99.92%)    -1.58715
       2      9.18    -2.43907 (  0.11%)    -1.55860 ( 99.89%)    -1.55960
       3     11.26    -2.31813 (  0.26%)    -1.49812 ( 99.74%)    -1.50023
       4     31.54    -1.70839 ( 13.67%)    -1.19302 ( 86.33%)    -1.26348
       5     33.00    -1.68159 ( 15.96%)    -1.17959 ( 84.04%)    -1.25969
       6     37.94    -1.59918 ( 24.90%)    -1.13829 ( 75.10%)    -1.25307
       7     39.56    -1.57448 ( 28.16%)    -1.12590 ( 71.84%)    -1.25223
       8     41.12    -1.55163 ( 31.39%)    -1.11444 ( 68.61%)    -1.25169
       9     42.87    -1.52711 ( 35.08%)    -1.10214 ( 64.92%)    -1.25121
      10     43.33    -1.52078 ( 36.06%)    -1.09896 ( 63.94%)    -1.25107
      11     46.52    -1.47890 ( 42.83%)    -1.07794 ( 57.17%)    -1.24966
      12     56.94    -1.35973 ( 62.71%)    -1.01805 ( 37.29%)    -1.23232
      13     60.61    -1.32300 ( 68.34%)    -0.99956 ( 31.66%)    -1.22060
      14     65.87    -1.27399 ( 75.08%)    -0.97487 ( 24.92%)    -1.19945
      15     73.19    -1.21221 ( 82.11%)    -0.94369 ( 17.89%)    -1.16418
      16     84.50    -1.12808 ( 89.08%)    -0.90111 ( 10.92%)    -1.10329
      17     93.59    -1.06846 ( 92.47%)    -0.87084 (  7.53%)    -1.05357
      18     95.85    -1.05455 ( 93.11%)    -0.86376 (  6.89%)    -1.04139
      19    114.09    -0.95350 ( 96.44%)    -0.81215 (  3.56%)    -0.94848
      20    125.33    -0.89938 ( 97.53%)    -0.78433 (  2.47%)    -0.89654
      21    126.50    -0.89401 ( 97.62%)    -0.78156 (  2.38%)    -0.89133
      22    147.26    -0.80717 ( 98.69%)    -0.73655 (  1.31%)    -0.80625
      23    152.19    -0.78851 ( 98.85%)    -0.72680 (  1.15%)    -0.78780
      24    167.29    -0.73515 ( 99.21%)    -0.69878 (  0.79%)    -0.73487
      25    179.44    -0.69594 ( 99.40%)    -0.67800 (  0.60%)    -0.69583
      26    191.60    -0.65958 ( 99.54%)    -0.65858 (  0.46%)    -0.65958
      27    207.15    -0.61676 ( 99.66%)    -0.63546 (  0.34%)    -0.61682
      28    210.71    -0.60748 ( 99.68%)    -0.63041 (  0.32%)    -0.60755
      29    220.26    -0.58346 ( 99.74%)    -0.61728 (  0.26%)    -0.58355
      30    240.91    -0.53552 ( 99.81%)    -0.59074 (  0.19%)    -0.53562
      31    246.41    -0.52359 ( 99.83%)    -0.58405 (  0.17%)    -0.52369
      32    246.69    -0.52298 ( 99.83%)    -0.58371 (  0.17%)    -0.52308
      33    263.88    -0.48776 ( 99.87%)    -0.56376 (  0.13%)    -0.48786
      34    271.77    -0.47255 ( 99.89%)    -0.55503 (  0.11%)    -0.47264
      35    282.34    -0.45303 ( 99.90%)    -0.54373 (  0.10%)    -0.45312
   ------------------------------------------------------------------------

   temp. (K)  partition function   enthalpy   heat capacity  entropy
                                   cal/mol     cal/K/mol   cal/K/mol   J/K/mol
 298.15  VIB  0.264E+21            25605.755    161.675    160.445
         ROT  0.967E+08              888.752      2.981     39.520
         INT  0.256E+29            26494.507    164.656    199.965
         TR   0.185E+29             1481.254      4.968     45.560
         TOT                       27975.7612   169.6244   245.5255  1027.2787

       T/K    H(0)-H(T)+PV         H(T)/Eh          T*S/Eh         G(T)/Eh
   ------------------------------------------------------------------------
    298.15    0.445822E-01    0.734601E+00    0.116657E+00    0.617944E+00
   ------------------------------------------------------------------------

         :::::::::::::::::::::::::::::::::::::::::::::::::::::
         ::                  THERMODYNAMIC                  ::
         :::::::::::::::::::::::::::::::::::::::::::::::::::::
         :: total free energy        -139.898207382092 Eh   ::
         ::.................................................::
         :: total energy             -140.516151082640 Eh   ::
         :: zero point energy           0.690018573981 Eh   ::
         :: G(RRHO) w/o ZPVE           -0.072074873433 Eh   ::
         :: G(RRHO) contrib.            0.617943700548 Eh   ::
         :::::::::::::::::::::::::::::::::::::::::::::::::::::

optimized geometry written to: xtbopt.xyz


           -------------------------------------------------
          | TOTAL ENERGY             -140.516151082640 Eh   |
          | TOTAL ENTHALPY           -139.781550295395 Eh   |
          | TOTAL FREE ENERGY        -139.898207382092 Eh   |
          | GRADIENT NORM               0.000066164070 Eh/α |
          | HOMO-LUMO GAP               2.538777155443 eV   |
           -------------------------------------------------

------------------------------------------------------------------------
 * finished run on 2025/08/24 at 16:51:50.313     
------------------------------------------------------------------------
 total:
 * wall-time:     0 d,  0 h,  0 min,  8.191 sec
 *  cpu-time:     0 d,  0 h,  5 min,  0.141 sec
 * ratio c/w:    36.642 speedup
 SCF:
 * wall-time:     0 d,  0 h,  0 min,  0.224 sec
 *  cpu-time:     0 d,  0 h,  0 min,  7.831 sec
 * ratio c/w:    35.010 speedup
 ANC optimizer:
 * wall-time:     0 d,  0 h,  0 min,  2.820 sec
 *  cpu-time:     0 d,  0 h,  1 min, 52.768 sec
 * ratio c/w:    39.993 speedup
 analytical hessian:
 * wall-time:     0 d,  0 h,  0 min,  4.891 sec
 *  cpu-time:     0 d,  0 h,  2 min, 50.706 sec
 * ratio c/w:    34.902 speedup

