$hessian                                                                        
        0.5333030307  -0.1799963864  -0.1660778773  -0.1359609015  -0.0490780028
        0.1284537978  -0.0308906205   0.0012337618   0.0269172253   0.0030541619
       -0.0061070184  -0.0014128625  -0.0017912084   0.0008053683   0.0005128929
        0.0003389394   0.0001552392  -0.0004413022  -0.0000898990   0.0002520538
        0.0000699304   0.0000559515  -0.0000581153  -0.0000092390  -0.0002124121
       -0.0000384152   0.0000549820   0.0003068786  -0.0005357068   0.0002368810
        0.0000313644  -0.0001039718  -0.0000267637   0.0000130841   0.0000319955
       -0.0000001650   0.0000109456   0.0000104713  -0.0000036934  -0.0000016635
        0.0000143812  -0.0000043316  -0.0000009601  -0.0000020563  -0.0000011225
        0.0000090290   0.0000040576  -0.0000024151   0.0000003427   0.0000087086
       -0.0000036945  -0.0000024742  -0.0000030373  -0.0000005132   0.0000012248
        0.0000010706  -0.0000007861  -0.0000332025  -0.0000022898   0.0000130779
       -0.0000008334   0.0000199087  -0.0000012777  -0.0000193640  -0.0000850453
        0.0000181078   0.0000456279   0.0000512547  -0.0000399972  -0.0000147552
       -0.0000119676   0.0000001348   0.0000102565  -0.0000090627   0.0000065388
       -0.0000297869   0.0000137625  -0.0000079034   0.0000180915  -0.0000102770
        0.0000038841  -0.0000098297  -0.0000061724  -0.0000010473   0.0000009558
        0.0000017728   0.0000002615  -0.0000025484  -0.0000021468  -0.0000015257
       -0.0000037208  -0.0000011061  -0.0000006677  -0.0000042737  -0.0000007729
       -0.0000003064   0.0000003782   0.0000011708   0.0000001159  -0.0000008703
        0.0000002813   0.0000011564  -0.0000027209   0.0000006389   0.0000000326
       -0.0000015463   0.0000013380  -0.0000004107  -0.0000001004   0.0000017306
        0.0000012545  -0.0000038931   0.0000023427  -0.0000008802  -0.0000007181
       -0.0000047488   0.0000006059   0.0000057592   0.0000020519   0.0000023134
       -0.0000066328   0.0000004691  -0.0000021927  -0.0000003197   0.0000028257
        0.0000000360  -0.0000019887   0.0000032570  -0.0000002642  -0.0000007941
        0.0000002065   0.0000018767   0.0000000001   0.0000005022   0.0000010914
       -0.0000003752   0.0000028004   0.0000009517  -0.0000019800   0.0000011304
        0.0000022100  -0.0000000341  -0.0000009436   0.0000015391   0.0000010370
       -0.0000040529   0.0000015558  -0.0000031217  -0.0000018665  -0.0000011415
       -0.0000000895   0.0000131776  -0.0000011885  -0.0000128374  -0.0000040629
        0.0000021880   0.0000193911  -0.0000096900   0.0000057424  -0.0000075950
        0.0000085683  -0.0000179816  -0.0228383374   0.0266379180  -0.0085103752
       -0.1193031792   0.1101282538  -0.0567386685  -0.2316185624   0.0928893114
        0.0704486173   0.0051386740   0.0044351541  -0.0086669292  -0.0023310578
        0.0045692340   0.0040839602   0.0000509754   0.0000981657   0.0000248442
        0.0000245125  -0.0000084750   0.0000081125  -0.0000608715  -0.0000843684
       -0.0000409033  -0.0000075125  -0.0000073438  -0.0000029288  -0.0000043118
       -0.0000028467   0.0000033461  -0.0000022911   0.0000021424  -0.0000002967
        0.0000000986  -0.0000051044   0.0000006395   0.0000034232  -0.0000015030
        0.0000017966   0.0000044111  -0.0000027908   0.0000010333   0.0000051982
        0.0000055501  -0.0000061235   0.0000020511   0.0000032281  -0.0000047779
       -0.0000013639   0.0000028524   0.0000023400  -0.0000011761   0.0000003334
       -0.0000002717  -0.0000008611   0.0000019259   0.0000001997  -0.0000001835
        0.0000004438   0.0000004527  -0.0000011055   0.0000013977  -0.0000000927
       -0.0000002534   0.0000015894   0.0000008919  -0.0000010967   0.0000012725
        0.0000015051  -0.0000005884   0.0000012507   0.0000003602   0.0000001910
       -0.0000005341   0.0000009694   0.0000000800   0.0000005977   0.0000018963
        0.0000005333  -0.0000007073  -0.0000000393  -0.0000003757   0.0000008962
        0.0000008658   0.0000001418   0.0000000399   0.0000019303   0.0000006213
        0.0000005677   0.0000015368  -0.0000000857   0.0000005115   0.0000013174
       -0.0000002062   0.0000015221   0.0000007799   0.0000001037  -0.0000019142
        0.0000013118  -0.0000010641  -0.0000044073  -0.0000019131  -0.0022862986
        0.0049802876   0.0037617786   0.0051173889  -0.0102138331   0.0073740014
       -0.1799963864   0.4421363296  -0.1952829108  -0.0025777719  -0.1085227643
        0.0674268903  -0.0339090009   0.0356928286  -0.0079882812  -0.0063106973
       -0.0301040072   0.0307275135   0.0006176770  -0.0007973880  -0.0003721520
       -0.0005357762  -0.0000582032   0.0001996397   0.0001286607  -0.0001587150
        0.0000326193   0.0000193191   0.0001072504   0.0000403003   0.0000337370
        0.0000441066   0.0001177492   0.0000240856   0.0000443193  -0.0003353603
        0.0000181794   0.0000192924   0.0000012097  -0.0000099846  -0.0000038777
        0.0000031265  -0.0000015060   0.0000013749  -0.0000008530  -0.0000011893
       -0.0000092932   0.0000011790   0.0000008955   0.0000038490   0.0000001200
       -0.0000042950   0.0000017932  -0.0000003814  -0.0000016886  -0.0000052668
        0.0000016921   0.0000017256  -0.0000005986   0.0000020358  -0.0000012090
        0.0000032337  -0.0000013955   0.0000102208  -0.0000092870  -0.0000038457
        0.0000159737  -0.0000035291  -0.0000041180  -0.0000174495   0.0000084380
       -0.0000004145   0.0000015333   0.0000056110  -0.0000426466  -0.0000078730
       -0.0000126017   0.0000005622   0.0000023403   0.0000027146  -0.0000017379
        0.0000126763  -0.0000104255   0.0000064100  -0.0000073715   0.0000069511
       -0.0000022002   0.0000020818   0.0000011947  -0.0000005370  -0.0000001106
       -0.0000036414   0.0000003849   0.0000004034   0.0000022548   0.0000003231
        0.0000006189   0.0000002545   0.0000000658   0.0000022983  -0.0000000065
        0.0000010231   0.0000005688   0.0000004977  -0.0000009140   0.0000021509
        0.0000002178   0.0000009801  -0.0000004277  -0.0000011240  -0.0000001418
        0.0000000400   0.0000001871  -0.0000012312   0.0000014858  -0.0000000534
        0.0000007042  -0.0000009162  -0.0000029497  -0.0000000386   0.0000007539
        0.0000030981  -0.0000000672  -0.0000042375   0.0000015867  -0.0000016384
        0.0000041984   0.0000010798   0.0000018128  -0.0000006709  -0.0000019457
        0.0000001274   0.0000004362  -0.0000030526   0.0000012246   0.0000000770
       -0.0000001795  -0.0000001266  -0.0000005116   0.0000011900  -0.0000003182
       -0.0000013486  -0.0000015283   0.0000007951   0.0000017198  -0.0000014411
       -0.0000001803  -0.0000002337   0.0000019723  -0.0000006951  -0.0000020524
        0.0000016199  -0.0000012183   0.0000019393   0.0000028577   0.0000007195
        0.0000000646  -0.0000064508   0.0000009168   0.0000005190   0.0000121976
       -0.0000068179   0.0000037224   0.0000027703  -0.0000018276   0.0000001585
        0.0000108648   0.0000026789   0.0620839078  -0.0233169791  -0.0266252786
        0.0637697192  -0.2185287179   0.1284527788   0.0928653362  -0.0823106754
       -0.0279870819  -0.0097671619  -0.0105266193   0.0204137388   0.0050062746
        0.0029852585   0.0015234153   0.0000809764   0.0000885523  -0.0000978309
       -0.0000214198   0.0000219363  -0.0000026978   0.0000288542   0.0002185771
       -0.0000375356   0.0000109226   0.0000186759  -0.0000040842   0.0000024141
        0.0000014634   0.0000001459   0.0000016118   0.0000003938   0.0000002054
        0.0000003708   0.0000031098  -0.0000002894  -0.0000026168   0.0000013331
       -0.0000007185  -0.0000018339   0.0000017152  -0.0000000363   0.0000001496
        0.0000001831   0.0000018363   0.0000009551  -0.0000026165   0.0000009139
       -0.0000025803   0.0000012657  -0.0000025830   0.0000005727   0.0000006169
       -0.0000005499   0.0000015098  -0.0000003628  -0.0000002937   0.0000001280
       -0.0000004811  -0.0000003763   0.0000008701  -0.0000007334  -0.0000004696
        0.0000005872  -0.0000006752  -0.0000002894   0.0000004679  -0.0000007556
       -0.0000002060  -0.0000001576  -0.0000006254  -0.0000002968   0.0000001518
        0.0000007337  -0.0000004557  -0.0000002754  -0.0000004298  -0.0000007783
       -0.0000009700   0.0000007377   0.0000002528  -0.0000004499   0.0000000717
       -0.0000000655  -0.0000004548   0.0000005355  -0.0000002692  -0.0000009244
       -0.0000001457  -0.0000001095  -0.0000000766  -0.0000004933  -0.0000002557
       -0.0000001113   0.0000000365   0.0000002069  -0.0000011895   0.0000003518
       -0.0000002080   0.0000026191   0.0000030314  -0.0000012278   0.0045863033
        0.0029784430   0.0018077131   0.0038379670  -0.0100403176   0.0080420256
       -0.1660778773  -0.1952829108   0.4680567505   0.0777010829   0.1075047265
       -0.2303829423   0.0645437907  -0.0387062567  -0.0131729458  -0.0010988676
        0.0312920662  -0.0383622068   0.0006688775  -0.0000018699  -0.0004004114
        0.0003582892  -0.0000408892   0.0002131334  -0.0000916930  -0.0000183497
       -0.0000603683  -0.0000795443  -0.0001142151  -0.0000407805   0.0001713872
       -0.0000618044  -0.0001574274  -0.0003201294   0.0005332409   0.0002427576
       -0.0000307379   0.0000622031   0.0000224878  -0.0000026287  -0.0000280383
        0.0000008236  -0.0000138526  -0.0000046900   0.0000060462   0.0000004293
       -0.0000058519   0.0000031386  -0.0000000388   0.0000003818  -0.0000003354
       -0.0000038159  -0.0000056570   0.0000011731   0.0000022689  -0.0000002637
        0.0000008084  -0.0000001354   0.0000021944  -0.0000014047  -0.0000000506
       -0.0000028985   0.0000009787   0.0000171303   0.0000089489  -0.0000073297
       -0.0000121554  -0.0000108958   0.0000040129   0.0000267869   0.0000338917
       -0.0000132768  -0.0000302134  -0.0000419728   0.0000755745   0.0000281400
        0.0000253160  -0.0000034530  -0.0000179817   0.0000027756  -0.0000008371
        0.0000237410   0.0000002118  -0.0000034648  -0.0000107264   0.0000049118
       -0.0000003124   0.0000051134   0.0000033343   0.0000000796   0.0000002160
       -0.0000019441   0.0000006860  -0.0000004740  -0.0000002770   0.0000005663
        0.0000007179   0.0000015979  -0.0000002785   0.0000020305   0.0000006159
       -0.0000002074   0.0000004995   0.0000003730   0.0000001936  -0.0000004845
       -0.0000009879   0.0000002695  -0.0000000248  -0.0000001279  -0.0000007153
        0.0000012450   0.0000001226   0.0000001767   0.0000006099  -0.0000008379
       -0.0000000299   0.0000026688  -0.0000022513   0.0000012314  -0.0000021473
        0.0000013311  -0.0000010555  -0.0000023424  -0.0000010604  -0.0000010986
        0.0000037383   0.0000007287   0.0000010838  -0.0000001483  -0.0000012645
       -0.0000004700   0.0000015693  -0.0000017560  -0.0000004546   0.0000001955
       -0.0000013730  -0.0000006478   0.0000019240  -0.0000008242  -0.0000010912
        0.0000008320   0.0000006600  -0.0000017116  -0.0000003522  -0.0000009057
       -0.0000008751   0.0000023148  -0.0000006065  -0.0000010219  -0.0000009218
        0.0000010515  -0.0000009008   0.0000018371   0.0000010780   0.0000009013
        0.0000010278  -0.0000053173   0.0000003274   0.0000052910  -0.0000054045
        0.0000064954  -0.0000107748   0.0000007327  -0.0000014037   0.0000016403
       -0.0000139707   0.0000140616  -0.0465466639   0.0032850749   0.0377037783
       -0.0062386964   0.0878772589  -0.1371035982   0.0704048166  -0.0280138606
       -0.0645566625   0.0068420798   0.0084378764  -0.0137803141   0.0036673185
        0.0017565614   0.0029365548  -0.0001052862  -0.0002206182   0.0000542507
       -0.0000001644  -0.0000203696  -0.0000004020  -0.0000253322  -0.0001705263
        0.0000701631  -0.0000041536  -0.0000147950   0.0000034021  -0.0000002600
        0.0000000368  -0.0000026091   0.0000018192  -0.0000004474   0.0000005978
       -0.0000001723   0.0000007822  -0.0000000790   0.0000009544  -0.0000006067
       -0.0000003704   0.0000008881   0.0000001539   0.0000001730  -0.0000047873
       -0.0000026232   0.0000034979  -0.0000026059   0.0000004785   0.0000028932
        0.0000033925  -0.0000042640   0.0000000622  -0.0000002193   0.0000002372
       -0.0000000661   0.0000001919  -0.0000004116   0.0000001180  -0.0000004153
       -0.0000002518  -0.0000002064   0.0000000372  -0.0000000409  -0.0000001552
        0.0000003850  -0.0000003949  -0.0000003022   0.0000006084  -0.0000008729
       -0.0000004417   0.0000001481  -0.0000009416  -0.0000001871   0.0000001139
        0.0000001760  -0.0000004690  -0.0000000319  -0.0000006526  -0.0000010754
        0.0000001606   0.0000000701  -0.0000004705   0.0000002708  -0.0000009604
       -0.0000006550   0.0000005570  -0.0000007509  -0.0000014976   0.0000004394
        0.0000000610  -0.0000014611  -0.0000001976  -0.0000000660  -0.0000008721
        0.0000008057  -0.0000009699  -0.0000006702   0.0000004090   0.0000004200
       -0.0000012927  -0.0000023005   0.0000008815   0.0000021672   0.0041165691
        0.0014014705   0.0029009879  -0.0078779550   0.0205758631  -0.0142590883
       -0.1359609015  -0.0025777719   0.0777010829   0.5211627719  -0.1780972107
       -0.1553980435  -0.2624652508   0.0765904383   0.1016368135  -0.0234754715
        0.0600895946  -0.0436129095   0.0046816882   0.0026377704  -0.0000609824
        0.0002550202  -0.0005425354   0.0005674497   0.0002566284  -0.0002051033
       -0.0003167526  -0.0004474892   0.0000692262   0.0000657055   0.0004316863
        0.0001970856  -0.0004861596  -0.0015684902   0.0017898511   0.0003114922
       -0.0001193456   0.0001311797   0.0000818194   0.0000336854  -0.0000273003
       -0.0000174847  -0.0000196125   0.0000125745   0.0000013893   0.0000062943
        0.0000164769  -0.0000017856   0.0000055934  -0.0000079945   0.0000025067
        0.0000026599   0.0000055285   0.0000019056  -0.0000010761  -0.0000008616
        0.0000002079   0.0000013381   0.0000057252  -0.0000021199  -0.0000100522
       -0.0000030821   0.0000037840   0.0000020874  -0.0000000573   0.0000030177
       -0.0000216911  -0.0000183437   0.0000076583   0.0000652774   0.0001121921
        0.0000061901   0.0003298826  -0.0001936690  -0.0000139682  -0.0001939002
       -0.0000398723   0.0000398449   0.0001296277   0.0000139741  -0.0000110642
       -0.0001479713   0.0000032521  -0.0000084575   0.0001087153  -0.0000329914
        0.0000318875  -0.0000433874  -0.0000295422  -0.0000013142   0.0000065608
        0.0000102940   0.0000014058  -0.0000057285  -0.0000006495  -0.0000052950
        0.0000030718  -0.0000081754   0.0000024877  -0.0000041227  -0.0000035682
        0.0000002481   0.0000036187  -0.0000003113  -0.0000002924   0.0000010405
       -0.0000009246   0.0000023976  -0.0000010340  -0.0000018984   0.0000002796
       -0.0000016562  -0.0000004515  -0.0000035160   0.0000039655   0.0000030200
        0.0000012727  -0.0000016594   0.0000052416  -0.0000008517   0.0000063175
       -0.0000176069   0.0000036482   0.0000132009   0.0000125475   0.0000032411
       -0.0000035067  -0.0000069498  -0.0000011156   0.0000064993   0.0000026799
        0.0000028046  -0.0000019350   0.0000037624  -0.0000006536   0.0000016945
       -0.0000008860   0.0000017376  -0.0000005019   0.0000021582  -0.0000008827
       -0.0000003226  -0.0000001502   0.0000002861  -0.0000010671   0.0000006105
        0.0000009945  -0.0000010746  -0.0000030631   0.0000003241  -0.0000060059
        0.0000069381  -0.0000011744  -0.0000028737  -0.0000132124  -0.0000032945
       -0.0000063228   0.0000433218  -0.0000145360   0.0000532227  -0.0000068430
       -0.0000019501  -0.0000680754  -0.0000208777   0.0000123791   0.0000665641
        0.0000277812  -0.0000246472  -0.0396649960  -0.0008267936   0.0304435413
        0.0449110747  -0.0400963602   0.0057129595  -0.0148922045  -0.0081956106
        0.0220750805  -0.0804158751   0.0801761497  -0.0468106177  -0.0143769765
        0.0052325587   0.0069962099  -0.0001527629  -0.0001434029   0.0001729325
        0.0000170103  -0.0000058067  -0.0000453060  -0.0000944714  -0.0002447894
        0.0001396721  -0.0000285259  -0.0000203686   0.0000051260  -0.0000031543
       -0.0000002856  -0.0000005414  -0.0000051068   0.0000001050  -0.0000013181
       -0.0000016511  -0.0000034346   0.0000005669   0.0000014678  -0.0000041776
        0.0000019224   0.0000018149   0.0000008114  -0.0000011876   0.0000050853
       -0.0000085865  -0.0000009942   0.0000053055   0.0000030793  -0.0000033198
       -0.0000008876  -0.0000020688  -0.0000000470  -0.0000019111  -0.0000031310
        0.0000005649   0.0000013747   0.0000015645   0.0000005835   0.0000001381
       -0.0000006960   0.0000009614   0.0000019717   0.0000004790  -0.0000010276
        0.0000029604  -0.0000000037   0.0000006914   0.0000020440  -0.0000011543
        0.0000018784   0.0000003832  -0.0000006406  -0.0000009348   0.0000032928
       -0.0000019364   0.0000001705   0.0000033042  -0.0000006018   0.0000015684
        0.0000017211  -0.0000003756  -0.0000012506  -0.0000004108  -0.0000015606
        0.0000003270   0.0000008621  -0.0000022679   0.0000005385   0.0000017819
       -0.0000013051  -0.0000002636   0.0000003174  -0.0000001278   0.0000001421
       -0.0000006832  -0.0000003863   0.0000001999   0.0000038403   0.0000008848
        0.0000035691   0.0000032689   0.0000043022  -0.0000041159  -0.0003347790
       -0.0004090569   0.0003414616   0.0019471904   0.0046236738   0.0004632455
       -0.0490780028  -0.1085227643   0.1075047265  -0.1780972107   0.4500180405
       -0.2072408404   0.1229073599  -0.1150433382  -0.0316564832   0.0262642489
       -0.0226173633   0.0027126287   0.0033263536  -0.0002196722   0.0050731017
        0.0003664337  -0.0002065382  -0.0003771111  -0.0001815777   0.0002236882
       -0.0002070589   0.0001213925  -0.0001420406  -0.0000112574  -0.0000917271
       -0.0000749239  -0.0005572382   0.0001725453  -0.0002435949   0.0000580883
        0.0000169848   0.0000385594  -0.0000556088  -0.0000483999  -0.0000409482
        0.0000238336  -0.0000140105  -0.0000037531   0.0000129408  -0.0000083581
       -0.0000243953   0.0000049511  -0.0000038712   0.0000103924  -0.0000023215
       -0.0000100438  -0.0000110091   0.0000003668   0.0000042060  -0.0000019482
        0.0000017883  -0.0000002701   0.0000009437   0.0000003116   0.0000072729
        0.0000008212  -0.0000020865   0.0000427512   0.0000298523  -0.0000222330
        0.0000045402  -0.0000287174   0.0000042329  -0.0000024358   0.0000518812
        0.0000185128  -0.0002192896   0.0000505547   0.0001134925   0.0001565337
        0.0000495582  -0.0000194156  -0.0001063471   0.0000000483   0.0000010059
        0.0001318475  -0.0000046948   0.0000001489  -0.0000878380   0.0000291174
       -0.0000215293   0.0000383609   0.0000259593   0.0000010659  -0.0000051400
       -0.0000134923   0.0000002834   0.0000024677   0.0000034315   0.0000041446
       -0.0000016319   0.0000070322  -0.0000019170   0.0000074548   0.0000035300
        0.0000011382  -0.0000025206   0.0000010783  -0.0000009950   0.0000010634
        0.0000008055  -0.0000008562  -0.0000001102   0.0000002916  -0.0000010634
        0.0000020409   0.0000006039   0.0000014534  -0.0000014682  -0.0000029813
       -0.0000005172   0.0000019560  -0.0000077785   0.0000013372  -0.0000073034
        0.0000150173  -0.0000038465  -0.0000138890  -0.0000078357  -0.0000042042
        0.0000073547   0.0000072779   0.0000023985  -0.0000049785  -0.0000044286
       -0.0000024065   0.0000037097  -0.0000074524   0.0000008160  -0.0000008380
        0.0000003823  -0.0000024406   0.0000012378  -0.0000021494  -0.0000004182
        0.0000006018  -0.0000007333  -0.0000014755   0.0000018893  -0.0000014792
       -0.0000021056   0.0000019105   0.0000031305  -0.0000016940   0.0000009241
       -0.0000039742  -0.0000010227   0.0000049800   0.0000148075   0.0000037246
        0.0000047085  -0.0000391593   0.0000102008  -0.0000334122   0.0000040808
        0.0000094243   0.0000342480   0.0000169547  -0.0000172806  -0.0000368764
       -0.0000343478   0.0000366118  -0.0020492726  -0.0001313030  -0.0040110330
       -0.0054433799  -0.0192758627   0.0265576355   0.0061030243   0.0042699351
       -0.0090485158   0.0801145468  -0.1925930108   0.1021067128  -0.0085795184
        0.0042657360   0.0037567433   0.0002441977   0.0000292442   0.0000941605
        0.0000185162  -0.0000012171   0.0000051935   0.0001034922   0.0001330145
        0.0001446827   0.0000161899   0.0000058744  -0.0000004209   0.0000025813
       -0.0000019847  -0.0000016355   0.0000082626   0.0000010715   0.0000014855
        0.0000017197   0.0000066613  -0.0000014389  -0.0000021369   0.0000049217
       -0.0000031804  -0.0000030685  -0.0000000622   0.0000004300  -0.0000086493
        0.0000039471   0.0000047400  -0.0000067448  -0.0000010832   0.0000120121
        0.0000011565  -0.0000022209  -0.0000011378   0.0000035909   0.0000032357
       -0.0000004126   0.0000003975  -0.0000023645  -0.0000002893   0.0000001077
       -0.0000000433  -0.0000003808  -0.0000012938  -0.0000013277   0.0000007035
       -0.0000016989  -0.0000008734  -0.0000009203  -0.0000007994  -0.0000006353
       -0.0000017948  -0.0000001658  -0.0000009525   0.0000006212  -0.0000020733
        0.0000018997  -0.0000009026  -0.0000025015  -0.0000003757  -0.0000027794
       -0.0000008874  -0.0000000098   0.0000006452   0.0000008412   0.0000007118
       -0.0000013987  -0.0000005933   0.0000018289  -0.0000023158  -0.0000017684
        0.0000009632  -0.0000013820  -0.0000001312  -0.0000006046  -0.0000012058
        0.0000016832  -0.0000001438  -0.0000005223  -0.0000011501  -0.0000015808
       -0.0000034439   0.0000002390   0.0000003952   0.0000034289  -0.0002864149
        0.0004922090  -0.0004783963   0.0041918744  -0.0005023204   0.0054870105
        0.1284537978   0.0674268903  -0.2303829423  -0.1553980435  -0.2072408404
        0.4741582549   0.0528837644   0.0084006150  -0.1006940486  -0.0083700416
       -0.0277709585   0.0365220153  -0.0006624666   0.0054681016   0.0015334664
        0.0007388002   0.0000589728  -0.0004508280  -0.0001563309   0.0002628401
        0.0000342662  -0.0000118619  -0.0000301769   0.0000379821  -0.0001202908
        0.0003657640   0.0000435879  -0.0006905746  -0.0000473668   0.0003608415
       -0.0000691562  -0.0000206685   0.0000001783   0.0000126977   0.0000217611
       -0.0000054074   0.0000093080   0.0000054241  -0.0000032636   0.0000091075
        0.0000208873  -0.0000052185  -0.0000023370  -0.0000052470  -0.0000012693
        0.0000086651   0.0000044301  -0.0000000955  -0.0000007762   0.0000033644
       -0.0000014363  -0.0000020771  -0.0000003660  -0.0000009003  -0.0000051244
       -0.0000019037  -0.0000000209  -0.0000159558  -0.0000081142   0.0000081242
       -0.0000081270   0.0000031704   0.0000029271   0.0000306413  -0.0000049231
        0.0000047329   0.0001873654  -0.0000408054  -0.0001033160  -0.0001537296
       -0.0000505797   0.0000132449   0.0000871897  -0.0000090265   0.0000001992
       -0.0001052412  -0.0000045768   0.0000025045   0.0000726057  -0.0000214680
        0.0000163283  -0.0000345626  -0.0000217089  -0.0000023567   0.0000056095
        0.0000081208   0.0000013878  -0.0000061264  -0.0000046308  -0.0000040617
        0.0000002674  -0.0000028496   0.0000006515  -0.0000060674  -0.0000017416
       -0.0000016402   0.0000020579   0.0000005463   0.0000013344  -0.0000023754
       -0.0000006603   0.0000008687  -0.0000010799   0.0000010230   0.0000002830
       -0.0000013666   0.0000007600  -0.0000002280   0.0000005379   0.0000024666
        0.0000013384   0.0000001547   0.0000046580   0.0000003442   0.0000022687
       -0.0000109870   0.0000017822   0.0000085213   0.0000061399   0.0000023638
       -0.0000033834  -0.0000036994  -0.0000007531   0.0000031384   0.0000036996
        0.0000018276  -0.0000016562   0.0000042328  -0.0000001253  -0.0000016597
       -0.0000010021   0.0000030091   0.0000010103   0.0000016899   0.0000002855
       -0.0000008799   0.0000030304   0.0000009978  -0.0000028547   0.0000005889
        0.0000027751   0.0000007899  -0.0000023647   0.0000014957  -0.0000036240
        0.0000032833  -0.0000003103  -0.0000048190  -0.0000098668  -0.0000031154
       -0.0000041762   0.0000310355  -0.0000076637   0.0000411294   0.0000025571
       -0.0000053112  -0.0000454320  -0.0000289281   0.0000180793   0.0000402632
        0.0000420400  -0.0000355697   0.0317563367  -0.0050646041  -0.0276486272
       -0.0319838374   0.0566373543  -0.0320400186   0.0068192225   0.0031670015
       -0.0085698281  -0.0471164077   0.1019768840  -0.1048974116   0.0225676075
       -0.0083408052  -0.0094282024   0.0000728035  -0.0000352513  -0.0001678164
        0.0000365824  -0.0000162479   0.0000365072  -0.0000039451   0.0000589742
        0.0000034456   0.0000030040   0.0000090126  -0.0000038657   0.0000004192
        0.0000013502   0.0000032136  -0.0000044639  -0.0000007931  -0.0000010652
       -0.0000011567  -0.0000056234   0.0000009044   0.0000015527  -0.0000035424
        0.0000023770   0.0000018488  -0.0000003400  -0.0000008604   0.0000058049
       -0.0000003632  -0.0000059748   0.0000026940   0.0000004030  -0.0000051233
       -0.0000018351   0.0000042433   0.0000006923  -0.0000038221  -0.0000024044
       -0.0000006885   0.0000001752   0.0000033786   0.0000000162  -0.0000007697
        0.0000000545  -0.0000000916   0.0000002575   0.0000017727  -0.0000006535
        0.0000005272   0.0000015224   0.0000007437  -0.0000003032   0.0000011987
        0.0000012386  -0.0000005454   0.0000012618  -0.0000006532   0.0000009852
       -0.0000004577   0.0000007289   0.0000009415   0.0000000598   0.0000022812
        0.0000004752   0.0000005188  -0.0000007927  -0.0000011293   0.0000003145
        0.0000013453   0.0000003496  -0.0000008264   0.0000021348   0.0000010261
        0.0000000933   0.0000013964  -0.0000008818   0.0000006515   0.0000015618
       -0.0000005541   0.0000014654   0.0000005945   0.0000001725   0.0000009909
        0.0000029054   0.0000003186  -0.0000006795  -0.0000057001   0.0004032029
       -0.0003721977  -0.0000153275   0.0007358502   0.0051629978   0.0016630179
       -0.0308906205  -0.0339090009   0.0645437907  -0.2624652508   0.1229073599
        0.0528837644   0.5257589793  -0.1708067156  -0.1709138120  -0.1135026340
        0.0578732799  -0.0095596395  -0.0182036831   0.0247060763  -0.0093944386
       -0.0005421412   0.0018474157  -0.0013064989   0.0003241641   0.0002663092
        0.0005927103   0.0008754680   0.0000873812  -0.0001295555  -0.0007325756
        0.0011959148   0.0013594645  -0.0023662373  -0.0010711876   0.0010308080
       -0.0000934311  -0.0002226431   0.0000893449  -0.0000857551   0.0000421619
        0.0000526415   0.0000276396  -0.0000212280  -0.0000084287  -0.0000317447
       -0.0000560867   0.0000135879  -0.0000118358   0.0000387226  -0.0000078998
       -0.0000176981  -0.0000122400  -0.0000059713   0.0000033589  -0.0000010789
        0.0000011874   0.0000028477  -0.0000101300   0.0000056347   0.0000243993
        0.0000135580  -0.0000061366   0.0000018149   0.0000070481  -0.0000021942
        0.0000124613   0.0000104595  -0.0000108457  -0.0002132738  -0.0000550620
       -0.0000515890  -0.0006206726   0.0003369388   0.0000571859   0.0004682454
        0.0001484181  -0.0001363694  -0.0002667056  -0.0000135458   0.0000294826
        0.0003001977   0.0000154993  -0.0000011908  -0.0002101971   0.0000574536
       -0.0000483694   0.0000912166   0.0000594146   0.0000021073  -0.0000163161
       -0.0000245958  -0.0000028496   0.0000120092   0.0000081077   0.0000102186
       -0.0000048781   0.0000116881  -0.0000039386   0.0000130998   0.0000055600
        0.0000030885  -0.0000064660   0.0000010988  -0.0000034715   0.0000035913
        0.0000022364  -0.0000022756   0.0000003194  -0.0000003914  -0.0000005882
        0.0000029451   0.0000001025   0.0000031504  -0.0000031107  -0.0000054711
       -0.0000016483  -0.0000009187  -0.0000139029   0.0000007963  -0.0000137841
        0.0000304376  -0.0000069833  -0.0000231693  -0.0000192409  -0.0000058044
        0.0000060656   0.0000138869   0.0000023726  -0.0000125393  -0.0000078225
       -0.0000058775   0.0000033202  -0.0000106651   0.0000013768  -0.0000002939
        0.0000020564  -0.0000046890  -0.0000012638  -0.0000044220   0.0000017457
        0.0000012391  -0.0000015555  -0.0000013205   0.0000034683  -0.0000017543
       -0.0000029684   0.0000016711   0.0000062813  -0.0000015566   0.0000093238
       -0.0000151304   0.0000026270   0.0000088198   0.0000283730   0.0000113658
        0.0000139050  -0.0000810801   0.0000226366  -0.0001105708  -0.0000182912
        0.0000237158   0.0001132403   0.0000796834  -0.0000508563  -0.0001045920
       -0.0001127589   0.0000945414   0.0423054391  -0.0062347271  -0.0293394491
       -0.0352249630   0.0317076753  -0.0087066615   0.0012744705   0.0010089998
        0.0045443617  -0.0122659193   0.0076403716   0.0028000735  -0.0938186516
       -0.0392109980   0.0980137803  -0.0007827127   0.0003917447  -0.0005573777
        0.0000279350   0.0000344381  -0.0000001392  -0.0000674324   0.0000678376
       -0.0003488159   0.0000102937   0.0000044638  -0.0000091386  -0.0000010778
       -0.0000082798  -0.0000007480   0.0000182316   0.0000089435   0.0000045702
        0.0000054255   0.0000123162  -0.0000010016  -0.0000020830   0.0000111932
       -0.0000044754   0.0000001815  -0.0000050554   0.0000062664  -0.0000114700
        0.0000146042   0.0000087958  -0.0000200081   0.0000111984   0.0000133046
        0.0000142424  -0.0000107644   0.0000053825   0.0000071304   0.0000083425
       -0.0000012732  -0.0000015166  -0.0000057514  -0.0000009787   0.0000010827
        0.0000002476  -0.0000006948  -0.0000029155  -0.0000030156   0.0000013744