$hessian                                                                        
        0.3813140393   0.0493472386   0.0538603657  -0.2365228179  -0.0600084483
       -0.0521369724  -0.0245311649  -0.0048874542  -0.0072495711  -0.0003467760
       -0.0034109761  -0.0007707140   0.0040215436   0.0022517795   0.0014372786
       -0.0024941784  -0.0006879959  -0.0010282232  -0.0005950467   0.0024361942
       -0.0004557918  -0.0058973327  -0.0033699995  -0.0023263425   0.0066946334
        0.0011898584   0.0078790156  -0.0048126166   0.0006315175   0.0009703442
       -0.0006945932   0.0011015481  -0.0059067512  -0.0602667746   0.0148517205
       -0.0221076341  -0.0017285073  -0.0034790845  -0.0010274916   0.0000405445
        0.0002077758   0.0001399705   0.0001313119   0.0003275408   0.0005356985
        0.0013560832  -0.0020010199   0.0016611069  -0.0000900510  -0.0010712053
        0.0002964800   0.0000630964   0.0006034901   0.0000980677  -0.0000300901
       -0.0003786615  -0.0004134616  -0.0004415022   0.0009299731  -0.0005050573
        0.0011256991  -0.0005887755   0.0009707309  -0.0018181303   0.0003313565
       -0.0021557172   0.0003495066  -0.0089421056   0.0001019781  -0.0029081352
        0.0050260375  -0.0017843487  -0.0018058825  -0.0012531236   0.0001609813
       -0.0182407437   0.0246632221   0.0173907757  -0.0199195287  -0.0120858164
       -0.0211010807   0.0115395127   0.0038605701   0.0098076060   0.0005023415
       -0.0004469198   0.0007648449   0.0001188882  -0.0002154499   0.0001522898
        0.0000747539  -0.0000687555  -0.0000202521  -0.0002910051  -0.0003133611
       -0.0000582193   0.0003455168   0.0001863764  -0.0000989899   0.0006083637
        0.0001148199   0.0004060152  -0.0000811705  -0.0003283255   0.0004345588
        0.0001102271   0.0000913272  -0.0001640552  -0.0002179499  -0.0003055638
       -0.0002475909  -0.0002975030  -0.0000729576   0.0001293312  -0.0000711729
       -0.0002871974   0.0000627982   0.0000561595  -0.0001017395   0.0001920796
        0.0000094946   0.0000511577   0.0002143258  -0.0001103845   0.0002027440
        0.0000866197  -0.0001394583   0.0001239939   0.0001408373   0.0010448369
        0.0011533140  -0.0006119392   0.0008487540  -0.0003680288  -0.0008352159
       -0.0260027905  -0.0050105905   0.0231113195
        0.0493472386   0.0968896136   0.0490134000  -0.0494564744  -0.0657836263
       -0.0200357133  -0.0321029756  -0.0061004306  -0.0073414678  -0.0001018783
        0.0018191493  -0.0003766940  -0.0001849833   0.0003124350  -0.0003671472
        0.0002325941   0.0003064272   0.0001163480  -0.0017525238   0.0003519622
       -0.0007891130  -0.0018568187  -0.0049402501   0.0011163692  -0.0013692519
       -0.0050867744  -0.0005602394   0.0016199714   0.0011319057  -0.0001146297
        0.0006180308   0.0010540594   0.0004635489   0.0234681472   0.0080343253
        0.0043561470   0.0009700996  -0.0005788339  -0.0012391886   0.0003740502
        0.0011123404   0.0000914172  -0.0003840480  -0.0002439464  -0.0003794658
       -0.0010306082   0.0017579307  -0.0008720521   0.0000794167   0.0001201525
       -0.0001356287  -0.0001554829  -0.0000809108  -0.0001834955   0.0000930671
        0.0002344024   0.0001761994   0.0001064023  -0.0002175962   0.0000976200
       -0.0000947256   0.0000159472  -0.0001442680   0.0003288927   0.0001464347
        0.0004845890  -0.0004997182   0.0013037844   0.0007604197  -0.0007027549
       -0.0006899688  -0.0014754575   0.0030763671   0.0008244860   0.0029789033
        0.0191813178  -0.0096450867  -0.0175204709   0.0025635827  -0.0269216926
       -0.0175542768   0.0000501174   0.0003280491  -0.0019643472  -0.0001168681
        0.0006643290   0.0000634070   0.0000180640   0.0000136778  -0.0000343553
       -0.0000809562   0.0000240121   0.0000192146  -0.0002855329  -0.0004275712
       -0.0002527167   0.0002757657   0.0005986711   0.0004186707   0.0009587844
        0.0003454982   0.0009201060  -0.0000349144  -0.0001060733   0.0002098237
       -0.0000437612   0.0002283142  -0.0001666743   0.0000649772   0.0000893923
        0.0001728728   0.0004618535   0.0002820941   0.0000043827  -0.0000274295
        0.0000824287  -0.0000295331   0.0000171563   0.0000145794   0.0000215161
        0.0000082172   0.0000283330   0.0000167372   0.0000078093   0.0000791315
        0.0000468837   0.0000187246   0.0001385741  -0.0000090921  -0.0012230332
       -0.0005217988   0.0006843637  -0.0009046005   0.0005436530  -0.0002091994
       -0.0115313079   0.0024684663   0.0095222865
        0.0538603657   0.0490134000   0.1957528714  -0.0634689121  -0.0267747988
       -0.0655958192  -0.0078484946  -0.0056077766  -0.0032233227   0.0001331651
        0.0012565153  -0.0008262598  -0.0006572213  -0.0005983448  -0.0003258347
        0.0006315746  -0.0001361701   0.0002495024  -0.0004707174   0.0003440687
        0.0003360360  -0.0019883146  -0.0014134004   0.0057119247  -0.0013896068
        0.0032385599  -0.0010271049  -0.0008196694  -0.0010055630   0.0003398762
       -0.0002053516  -0.0003784471   0.0006471769  -0.0173329080   0.0037710816
       -0.0007272233   0.0000605672   0.0001216599  -0.0008882907   0.0001328729
        0.0003804248   0.0001142759   0.0001572173   0.0000050834  -0.0003084056
        0.0020661057  -0.0018309503   0.0020678824  -0.0020994895  -0.0001326728
       -0.0016594175   0.0000405003  -0.0007727927   0.0006485642   0.0002189316
        0.0001037993   0.0000462735   0.0003576389  -0.0003304502   0.0002438579
       -0.0007538763   0.0003275816  -0.0003422832  -0.0006738692  -0.0001197146
        0.0013688121  -0.0007536890   0.0110987422  -0.0005286733   0.0024940688
       -0.0059212825   0.0010508349   0.0013908370   0.0011636303   0.0005422983
        0.0156614849  -0.0219091463  -0.0052861233   0.0014483936  -0.0022485702
       -0.0695283199   0.0087915761  -0.0044830240  -0.0543493258   0.0004163511
       -0.0005564082  -0.0001626189   0.0000118727   0.0001408352  -0.0000092642
        0.0000899140   0.0000690789   0.0000817620   0.0002172842  -0.0000539553
       -0.0003928883  -0.0000704402  -0.0000416882  -0.0000113625  -0.0001266508
        0.0004475964  -0.0002863941   0.0001114538  -0.0000947834   0.0000779224
       -0.0000255419   0.0000423283  -0.0000479313   0.0000549639  -0.0000670557
        0.0001109713   0.0004588171   0.0004410958  -0.0000647076  -0.0000137319
        0.0001312279  -0.0000029556   0.0000173675   0.0000436041  -0.0000779811
        0.0000279760  -0.0000017625  -0.0001187265   0.0000329695  -0.0000113159
        0.0000164088   0.0001176321   0.0002614132   0.0001783439  -0.0006416498
       -0.0004739173   0.0004082994   0.0004280540  -0.0002976681   0.0003535796
        0.0099101785   0.0028599320  -0.0045562403
       -0.2365228179  -0.0494564744  -0.0634689121   0.5753306794   0.0565022018
        0.1060181421  -0.0943686296  -0.0813527525  -0.0142810507   0.0111913188
       -0.0064580862   0.0042920807   0.0047664894   0.0062731615  -0.0003159969
       -0.0023543905  -0.0027506378  -0.0007876550  -0.0044259438   0.0059561134
       -0.0032693003  -0.0375175000  -0.0247728903  -0.0108055621  -0.0348991123
       -0.0034424718  -0.0166178609   0.0004569806   0.0002344925  -0.0015345920
       -0.0007260146   0.0003258924   0.0047911331  -0.1296012180   0.1062527759
       -0.0409302510   0.0095169217   0.0033015707   0.0061625049  -0.0009773624
       -0.0040862373   0.0001648238   0.0009631413  -0.0004137719  -0.0004967182
       -0.0010814933   0.0012888784  -0.0001512437  -0.0005983789   0.0006421956
       -0.0009960212  -0.0001040769  -0.0004855562   0.0000896045  -0.0000269100
        0.0000705831   0.0000422515   0.0001721831  -0.0003393267   0.0002241484
       -0.0006443252   0.0003927560  -0.0004465490   0.0005811732  -0.0004542149
        0.0006754677  -0.0008629079   0.0041196069   0.0005912835   0.0020253268
       -0.0019613568   0.0019609314  -0.0011737227   0.0000697002  -0.0009522479
        0.0006828699  -0.0017350586  -0.0003091151  -0.0551267470  -0.0020321296
        0.0296585519   0.0019670945  -0.0027532023  -0.0003354725  -0.0004184786
        0.0013084506   0.0000705286   0.0002842000   0.0012545098   0.0000152061
       -0.0001539278   0.0005299396   0.0003368843  -0.0006058407  -0.0009291755
       -0.0004119478  -0.0013102780  -0.0019529805  -0.0005950790   0.0001130769
       -0.0016286462  -0.0006174663  -0.0002998358   0.0004337974  -0.0008641744
       -0.0004521079  -0.0008929255   0.0010469579  -0.0001333988   0.0003404182
        0.0000851059  -0.0002759052  -0.0004646876  -0.0000056275   0.0000428353
        0.0003253419  -0.0000889926  -0.0000255450   0.0000852320  -0.0001235757
        0.0000044351  -0.0000066577  -0.0001352424   0.0000586393  -0.0000968721
       -0.0000349818   0.0000166593  -0.0002647029  -0.0003675788  -0.0000131326
       -0.0005831907  -0.0000821473  -0.0002031464  -0.0000206419   0.0001298132
       -0.0032708770  -0.0003729699   0.0026699426
       -0.0600084483  -0.0657836263  -0.0267747988   0.0565022018   0.6065362927
       -0.0105352883  -0.0884466661  -0.2531904338  -0.0216112584  -0.0023480122
       -0.0454955783   0.0010399372   0.0041393114  -0.0008743539   0.0015293306
        0.0023392931  -0.0064904745   0.0012745929   0.0034297606   0.0109696208
        0.0011139724  -0.0343402511  -0.0121320438  -0.0107976403   0.0262883649
        0.0271290886   0.0103885817  -0.0059626520  -0.0055305625   0.0011619891
       -0.0022598757  -0.0061099364  -0.0026455579   0.0970723366  -0.2193369620
        0.0361483107   0.0143035849  -0.0245153579   0.0054661276   0.0006612085
       -0.0019346195  -0.0006699563  -0.0003094750   0.0003731470   0.0003995179
        0.0014540561  -0.0025301406   0.0007769096   0.0005100518   0.0004304771
        0.0015082475   0.0000671114   0.0000367283  -0.0001073184  -0.0000563814
        0.0000359698  -0.0000064674  -0.0000711924   0.0000373750  -0.0001141537
        0.0000296129  -0.0000345638   0.0000942948  -0.0002455588  -0.0002203366
       -0.0002143888  -0.0006356739   0.0002636369  -0.0004100956   0.0008164416
       -0.0005472248   0.0009232673  -0.0014604972  -0.0012892573  -0.0014721446
        0.0011931080   0.0004999584  -0.0000363688  -0.0089528766  -0.0009350288
        0.0122763891  -0.0005997978   0.0052481548  -0.0015305335  -0.0005176824
        0.0005091044  -0.0000001197  -0.0004548090  -0.0006450587  -0.0001480165
        0.0001391471  -0.0003505526   0.0001005789   0.0004063945   0.0004337740
        0.0000045646   0.0000329660  -0.0028435329   0.0000146187   0.0001920299
        0.0004412115  -0.0000337001   0.0002521266  -0.0002257859   0.0003639147
       -0.0000295905  -0.0001181998   0.0005023755   0.0000078640  -0.0001056008
       -0.0003894827  -0.0006676837  -0.0003268410   0.0000711609   0.0000275144
       -0.0002466476   0.0000799101  -0.0000296910  -0.0000662624  -0.0000345918
       -0.0000132373  -0.0000710683  -0.0000262438  -0.0000134771  -0.0001833840
       -0.0001193069   0.0001994409  -0.0001505769  -0.0001221067  -0.0000133186
       -0.0002768865   0.0000766767   0.0003909989  -0.0001973092   0.0002512105
       -0.0030180779  -0.0001863322   0.0022330600
       -0.0521369724  -0.0200357133  -0.0655958192   0.1060181421  -0.0105352883
        0.1250512199  -0.0088133367  -0.0057598786  -0.0357450806   0.0052446576
       -0.0043344981   0.0005848110   0.0021982674   0.0039755646   0.0047211596
       -0.0024267102  -0.0012330652  -0.0012151867  -0.0026200516   0.0025846630
        0.0027077681  -0.0159075691  -0.0071583936  -0.0044680255  -0.0133538940
       -0.0041900661  -0.0046381680   0.0030512447   0.0008079047  -0.0015603523
       -0.0013515512   0.0004368499  -0.0006793937  -0.0435870742   0.0402739777
       -0.0273262576   0.0065426993  -0.0000064532  -0.0019823677   0.0004431453
        0.0012118900  -0.0003335594   0.0001028775   0.0006582287  -0.0002361122
        0.0004433032   0.0014690004  -0.0013272381  -0.0003578051  -0.0000785848
       -0.0009902861   0.0000804513  -0.0001531748   0.0002045111   0.0000606581
       -0.0000835154   0.0000671877   0.0001333852  -0.0002082492   0.0001734508
       -0.0004249238   0.0000014309  -0.0003924610   0.0005159082   0.0001207750
        0.0005550054   0.0007843815   0.0005280318  -0.0018442089   0.0009955710
       -0.0006165518   0.0009399497  -0.0008243001  -0.0006736327  -0.0015976640
        0.0008597281   0.0008869929  -0.0001484272   0.0110362306   0.0063849930
        0.0206873072  -0.0015005103  -0.0007819003  -0.0013439306   0.0003669778
        0.0002008478  -0.0010562093  -0.0000060092   0.0005610222   0.0004981534
        0.0003681101   0.0002143960  -0.0008617491  -0.0002401757  -0.0002797784
        0.0002572142   0.0002814515  -0.0051104387  -0.0009936022   0.0002168601
       -0.0003260454   0.0006198157  -0.0002319404   0.0001719628  -0.0002399596
        0.0000240788   0.0000892854  -0.0001322665   0.0001823178   0.0000713380
        0.0000770995   0.0001988042   0.0000764884   0.0000000372   0.0000132334
        0.0000844064  -0.0000105444   0.0000206558   0.0000295520   0.0000134473
        0.0000468511   0.0000172233   0.0000059579   0.0000331924   0.0000462436
        0.0000354217   0.0000371602   0.0001122911  -0.0000448458  -0.0001297090
        0.0000708794   0.0000457860  -0.0002307412   0.0000529362   0.0000772878
        0.0038429299   0.0004260528  -0.0025588754
       -0.0245311649  -0.0321029756  -0.0078484946  -0.0943686296  -0.0884466661
       -0.0088133367   0.5339022672  -0.0042938781   0.1501039973  -0.1164356543
        0.0678520468  -0.0313094992   0.0280661490   0.0044573975   0.0104842668
       -0.0200740688   0.0206727118  -0.0057355152  -0.0329247515  -0.0491595343
       -0.0094556497  -0.2430243333   0.0157900778  -0.0726699143  -0.0100013553
        0.0238760048  -0.0059521325  -0.0005008214  -0.0000486428  -0.0014155680
       -0.0016962315  -0.0005243197   0.0009726586  -0.0039995473   0.0207680188
       -0.0034342613  -0.0032737092   0.0012090089  -0.0017789295   0.0002280416
        0.0008979413   0.0000005901  -0.0000049832  -0.0000740470  -0.0000047961
        0.0001323182  -0.0001297642  -0.0001607265   0.0001008910   0.0002770382
        0.0002835666  -0.0000093197   0.0000876422  -0.0000242093  -0.0000903701
        0.0000296357  -0.0000024785  -0.0000594641  -0.0000140318  -0.0000639721
       -0.0000411978   0.0000271392  -0.0000085568   0.0000067838  -0.0000937493
        0.0000622895   0.0000311287  -0.0000484437   0.0003093622  -0.0009728341
        0.0000762533  -0.0000327229   0.0009336786   0.0005741587   0.0011134239
        0.0001313358  -0.0007549198  -0.0006198932   0.0025526556  -0.0002176163
       -0.0002319415  -0.0017127055   0.0002093279   0.0003584124  -0.0131656606
        0.0249385879  -0.0073318298   0.0001774691  -0.0036663912  -0.0032598462
       -0.0001292240   0.0006243519  -0.0000666970   0.0005565356  -0.0025905044
       -0.0030886510   0.0000631377   0.0007630819   0.0000566575  -0.0003096118
       -0.0007438962  -0.0002432759   0.0000963556   0.0000609258   0.0001244736
        0.0000890995   0.0001035091  -0.0001892403   0.0000009843  -0.0000191335
       -0.0000124045  -0.0001275808  -0.0000069463  -0.0000392262   0.0000190718
       -0.0000453974   0.0000237192  -0.0000061655  -0.0000075311  -0.0000242692
       -0.0000060239  -0.0000292960  -0.0000188662   0.0000126101  -0.0000851220
       -0.0000316015  -0.0000028976  -0.0000952119  -0.0000135865   0.0000224432
       -0.0001141174  -0.0000444158   0.0001979106  -0.0000657624   0.0000647093
        0.0001474387   0.0000830390  -0.0000316190
       -0.0048874542  -0.0061004306  -0.0056077766  -0.0813527525  -0.2531904338
       -0.0057598786  -0.0042938781   0.6840709446  -0.0354927384   0.0919700341
       -0.2196916193   0.0475390122  -0.0304270227  -0.0648615395  -0.0076016730
        0.0201612188  -0.0015144017   0.0075661227  -0.0227924683   0.0055258458
       -0.0085437095   0.0137512053  -0.0683240822   0.0023113762   0.0220394004
       -0.0012121757   0.0071620973   0.0005690268  -0.0058699186  -0.0017032288
       -0.0016247154  -0.0055669901   0.0017768827  -0.0095378787  -0.0495710327
       -0.0028065823   0.0033918338  -0.0020762736   0.0023512613  -0.0002929494
       -0.0015579086   0.0000858966   0.0001205964  -0.0002886483  -0.0001634172
        0.0001483975  -0.0001638815  -0.0001219981   0.0000695584   0.0002588895
        0.0001831662   0.0000579996  -0.0000808822   0.0000462942  -0.0001480424
       -0.0000434091  -0.0000613612  -0.0000614466   0.0000361414  -0.0000544791
        0.0000124674   0.0001132039   0.0000913872  -0.0000132038  -0.0001745510
        0.0000418461   0.0000452924   0.0004887219   0.0000725259  -0.0005414719
       -0.0001062587  -0.0011015089   0.0014163813   0.0007259889   0.0013134167
       -0.0001488027  -0.0010386349  -0.0005963392   0.0052496353   0.0017624391
        0.0000636529  -0.0022761941  -0.0001506210   0.0004711550   0.0044311598
       -0.0026120836   0.0008329853  -0.0031654079  -0.0039515728  -0.0007321674
        0.0007033411   0.0005665963   0.0001922685  -0.0034625523  -0.0037687344
       -0.0002619505  -0.0001119423  -0.0012138001  -0.0003356167   0.0000108948
        0.0000577706  -0.0000249199   0.0000437638   0.0001403460  -0.0002598551
       -0.0000906813  -0.0000939045   0.0003111638  -0.0000228610   0.0000862333
       -0.0000218080  -0.0001049899  -0.0000986865  -0.0000170882   0.0000233527
        0.0000808584  -0.0000348771  -0.0000345793   0.0000120050  -0.0000666010
       -0.0000300909  -0.0000242301  -0.0000368319  -0.0000117180  -0.0000892868
       -0.0000480712  -0.0000501695  -0.0001898635  -0.0000967521   0.0000399716
       -0.0002341462  -0.0000135700   0.0000691138  -0.0000602941   0.0000224229
        0.0011586283  -0.0000056890  -0.0008701337
       -0.0072495711  -0.0073414678  -0.0032233227  -0.0142810507  -0.0216112584
       -0.0357450806   0.1501039973  -0.0354927384   0.1625844658  -0.0325280092
        0.0366187514  -0.0595332061   0.0113111416   0.0051077573   0.0055985850
       -0.0060164821   0.0076353285  -0.0092680519  -0.0116814352  -0.0191671038
       -0.0030644054  -0.0706352349   0.0069522149  -0.0698770730  -0.0059164962
        0.0079573332  -0.0014502233   0.0002907895  -0.0001826992  -0.0009357119
       -0.0002133696   0.0008563858  -0.0002958905  -0.0020001868   0.0100616634
        0.0015921055  -0.0024664307  -0.0000445194   0.0023517946   0.0000277052
       -0.0004490828  -0.0003461660  -0.0000334268   0.0000341582   0.0000331776
        0.0000021942   0.0001118334   0.0000030342  -0.0000213991   0.0000072034
       -0.0000259811  -0.0000351967   0.0000668447  -0.0000434657  -0.0000212281
       -0.0000049789   0.0000186768   0.0000124827  -0.0000311586   0.0000332449
       -0.0000512894   0.0000344307   0.0000029475   0.0000239029  -0.0000598568
       -0.0000421426   0.0003210627  -0.0000818560  -0.0002837889   0.0003181885
        0.0000464376  -0.0004680809   0.0002264818   0.0001746167   0.0002325145
        0.0002877029  -0.0005426281  -0.0004241628   0.0009130000  -0.0002182290
       -0.0002643706   0.0008587014  -0.0000424398  -0.0000705500  -0.0056245746
        0.0100525246  -0.0019889543  -0.0031556532  -0.0007112953   0.0076596636
        0.0000441439   0.0001885085  -0.0004005209  -0.0028596175  -0.0005272978
        0.0073861496   0.0002147920   0.0009311999   0.0001566910  -0.0001089778
       -0.0001891384  -0.0000957376   0.0000115592   0.0000197380  -0.0000220176
       -0.0000297420  -0.0000733299   0.0001118163   0.0000027711  -0.0000006683
       -0.0000132156  -0.0000122372  -0.0000144851  -0.0000004943   0.0000068874
       -0.0000154492   0.0000135409  -0.0000018830   0.0000047401  -0.0000025697
       -0.0000034289  -0.0000097440  -0.0000095381   0.0000023036  -0.0000400770
        0.0000005097  -0.0000109056  -0.0000304773  -0.0000102271  -0.0000337831
       -0.0000600552   0.0000106302   0.0000390633   0.0000024963   0.0000298363
       -0.0000272617   0.0000778681   0.0000855654
       -0.0003467760  -0.0001018783   0.0001331651   0.0111913188  -0.0023480122
        0.0052446576  -0.1164356543   0.0919700341  -0.0325280092   0.5972747942
        0.0449999890   0.1899648514  -0.1587174216  -0.1517262609  -0.0375319642
       -0.0467750668  -0.0155847890  -0.0179595089   0.0020787182  -0.0137089873
        0.0026741130  -0.0180968578   0.0292268445  -0.0089580705  -0.0057017100
       -0.0020989752  -0.0032378083  -0.0000995618   0.0013058998   0.0006921376
        0.0003361981   0.0018742842  -0.0008934803   0.0008427829  -0.0053312341
       -0.0006257056   0.0008544124  -0.0005770719  -0.0001294233  -0.0000805342
       -0.0001304814  -0.0000322780   0.0000744192  -0.0000295521  -0.0000165122
       -0.0002971614   0.0004650290  -0.0001752345   0.0000024791   0.0000561537
       -0.0000904008  -0.0000352159  -0.0000212853  -0.0000321180   0.0000118360
       -0.0000044494   0.0000270507   0.0000019950  -0.0000004429   0.0000110907
       -0.0000457893   0.0000233339  -0.0000083656  -0.0000771224   0.0000742293
       -0.0000774996  -0.0000640478  -0.0000603729   0.0000499418   0.0001053721
       -0.0000569978   0.0000437735  -0.0004162137  -0.0001156419   0.0005868469
       -0.0007791929  -0.0005667362   0.0004695084   0.0007607363  -0.0002394817
       -0.0000938686  -0.0000782379  -0.0003831363   0.0002461664  -0.2668580405
        0.0150667926  -0.0957494894   0.0053244898   0.0083741798   0.0018655499
       -0.0043430424   0.0001177729  -0.0040445431   0.0006033804  -0.0002342760
        0.0004071175  -0.0000410817  -0.0004482546  -0.0001365812   0.0000515794
        0.0000570399   0.0000344196  -0.0000455031   0.0000090210  -0.0000377366
       -0.0000392781  -0.0000461943   0.0000490716  -0.0000247895   0.0000056459
        0.0000331973   0.0000389944   0.0000197188  -0.0000084754   0.0000057520
        0.0000092110  -0.0000074940   0.0000077346  -0.0000079302   0.0000092060
        0.0000053564  -0.0000027362   0.0000182187  -0.0000017827  -0.0000155367
       -0.0000186933   0.0000065253  -0.0000165086  -0.0000815248  -0.0000368835
        0.0002126872   0.0000043540  -0.0001505283  -0.0000054291  -0.0001508710
        0.0000086190  -0.0000052145   0.0000612187
       -0.0034109761   0.0018191493   0.0012565153  -0.0064580862  -0.0454955783
       -0.0043344981   0.0678520468  -0.2196916193   0.0366187514   0.0449999890
        0.6252160099  -0.0116665317  -0.0881796640  -0.2738671374  -0.0224551322
       -0.0643970070   0.0222289128  -0.0257085022  -0.0028047343  -0.0397565104
        0.0004959302   0.0458542628   0.0100925267   0.0188805069  -0.0044685669
       -0.0051306545  -0.0007675868   0.0004908587   0.0014055051   0.0007354277
        0.0013013302   0.0014705902  -0.0002502931   0.0083606457  -0.0072102672
        0.0035300182   0.0013751355  -0.0001021216   0.0002374154  -0.0000906412
       -0.0001205081   0.0000025251  -0.0000538887   0.0000451322  -0.0000048219
        0.0000773679  -0.0000925788   0.0001612480  -0.0001200808  -0.0002483552
       -0.0002205947   0.0000472801   0.0000264179   0.0000626067   0.0000158482
       -0.0000431399  -0.0000468223  -0.0000076667   0.0000462433  -0.0000234254
        0.0000680892  -0.0000982323   0.0000085852   0.0000105562   0.0001222076
        0.0000158335  -0.0000707551  -0.0002479568   0.0001087611   0.0003824943
        0.0002079243   0.0004126256  -0.0009629378  -0.0003464158  -0.0004768968
       -0.0005092429   0.0006949166   0.0004497268  -0.0014125008  -0.0010868659
       -0.0010759467   0.0012234738   0.0000539472  -0.0001370915   0.0142458416
       -0.0439655467   0.0064827565  -0.0136788883  -0.0269839010  -0.0034626957
        0.0003415711   0.0010066253   0.0003728979   0.0003496081  -0.0004403768
       -0.0002835100  -0.0000545637  -0.0003239965   0.0000486840   0.0001395272
        0.0005408719   0.0002024939  -0.0000391326  -0.0000482193  -0.0000121792
       -0.0000322280  -0.0000428103   0.0000468041   0.0000158341  -0.0000057250
        0.0000378357   0.0001070282   0.0000869829   0.0000010963  -0.0000195797
        0.0000027969  -0.0000095428   0.0000158382  -0.0000078894   0.0000363231
        0.0000146197   0.0000266667   0.0000416980  -0.0000205843   0.0000828759
        0.0000204857   0.0000521719   0.0000767928   0.0000294155  -0.0000498693
        0.0000759273   0.0000788250   0.0000241625  -0.0000216861   0.0000628122
       -0.0005239865   0.0000490698   0.0004974662
       -0.0007707140  -0.0003766940  -0.0008262598   0.0042920807   0.0010399372
        0.0005848110  -0.0313094992   0.0475390122  -0.0595332061   0.1899648514
       -0.0116665317   0.1826337291  -0.0403743576  -0.0465376917  -0.0556894002
       -0.0155905851  -0.0073419469  -0.0039511980   0.0021846098  -0.0032139297
       -0.0024988744  -0.0095527390   0.0103777618  -0.0030013985  -0.0032626237
       -0.0003455590   0.0018884189  -0.0003718090   0.0015825504   0.0003658012
        0.0001401578  -0.0005802273   0.0001693374  -0.0004241254  -0.0022090748
        0.0037894070  -0.0003500797   0.0000611257   0.0009910584  -0.0000317257
       -0.0003853894  -0.0000083139   0.0000091254  -0.0000343134  -0.0000384553
       -0.0001194363   0.0000829730  -0.0001422557   0.0000298322   0.0000946675
        0.0000766819  -0.0000325760  -0.0000521797  -0.0000474896   0.0000221234
        0.0000514119   0.0000461771   0.0000322176  -0.0000644553   0.0000414428
       -0.0000758479   0.0000404964  -0.0000673207   0.0000919035  -0.0000227046
        0.0001243710   0.0000400090   0.0005305901  -0.0001587254   0.0002399688
       -0.0001018147   0.0004596333   0.0008566226   0.0001505095  -0.0005482306
        0.0006550861   0.0003808678  -0.0005181263   0.0010791055  -0.0005333308
       -0.0006934826   0.0001178616  -0.0002852843  -0.0000024896  -0.0959385345
        0.0064554148  -0.0690303240   0.0026374539   0.0047270201   0.0012874546
       -0.0041075700   0.0002386964   0.0045426476   0.0003142815  -0.0000846313
       -0.0000621432  -0.0000715565   0.0002702284   0.0000432398  -0.0000094512
        0.0000095629  -0.0000567841  -0.0000014258   0.0000069613  -0.0000056219
       -0.0000341670  -0.0000700149   0.0000852158  -0.0000031665   0.0000269263
        0.0000118260   0.0000074266  -0.0000026734  -0.0000104115  -0.0000014262
        0.0000241156  -0.0000054499  -0.0000075782   0.0000050453  -0.0000111225
       -0.0000076641  -0.0000045654  -0.0000107907  -0.0000019840  -0.0000169206
       -0.0000064751  -0.0000287603  -0.0000454221  -0.0000657219  -0.0000847766
        0.0002387092  -0.0000262502  -0.0000800410  -0.0000016692  -0.0001536189
       -0.0000704966   0.0000424406   0.0000286878
        0.0040215436  -0.0001849833  -0.0006572213   0.0047664894   0.0041393114
        0.0021982674   0.0280661490  -0.0304270227   0.0113111416  -0.1587174216
       -0.0881796640  -0.0403743576   0.5544319718   0.0122844689   0.1698617845
       -0.2584488889  -0.0266328696  -0.0799894477  -0.0224419806   0.0781893183
       -0.0122565870  -0.0292156009  -0.0297496173  -0.0087546633   0.0036497058
        0.0099381417   0.0006857456  -0.0001106992  -0.0018798203  -0.0004765904
       -0.0006005248  -0.0021906353   0.0006168058  -0.0090495615   0.0057311337
       -0.0039842506  -0.0009777543  -0.0005762437   0.0001003400   0.0001320725
        0.0000525119  -0.0000228854   0.0000068059  -0.0000297189  -0.0000206745
       -0.0000361341  -0.0002200235  -0.0001325270   0.0001249441   0.0002562340
        0.0002248534  -0.0000319237   0.0000405854  -0.0000420727  -0.0000890377
        0.0000423519   0.0000451754  -0.0000109276  -0.0000499895   0.0000055227
       -0.0001111859   0.0000945205  -0.0000424436   0.0000950333  -0.0001201674
        0.0001207680   0.0000483817   0.0004472575  -0.0000012841  -0.0005316960
       -0.0002434775  -0.0000018001   0.0006368865   0.0001970401   0.0006704716
        0.0000287268  -0.0006953572  -0.0002370987   0.0000471676   0.0010225886
        0.0010264068  -0.0005583367   0.0001331182  -0.0000777877  -0.0177732450
       -0.0223597353  -0.0062480241  -0.0818341606   0.0905017332  -0.0239297274
       -0.0165210756  -0.0012834059  -0.0064126510   0.0005797023   0.0021610123
       -0.0026459198   0.0000453637   0.0003219159   0.0000673600  -0.0001072431
       -0.0003420999  -0.0001134481   0.0000379772   0.0000504632   0.0000061609
        0.0000177020   0.0000276696  -0.0000174631   0.0000121448  -0.0000009860
       -0.0000211135  -0.0000696367  -0.0000728357  -0.0000055429   0.0000158779
       -0.0000122364  -0.0000015302  -0.0000068451  -0.0000007657  -0.0000354993
       -0.0000055444  -0.0000223242  -0.0000456996   0.0000389035  -0.0000929473
       -0.0000542872   0.0000145530  -0.0000954980  -0.0000141237  -0.0000170243
       -0.0001126847  -0.0000324997   0.0000752743  -0.0000062728   0.0000574924
        0.0003730718  -0.0000499944  -0.0003490749
        0.0022517795   0.0003124350  -0.0005983448   0.0062731615  -0.0008743539
        0.0039755646   0.0044573975  -0.0648615395   0.0051077573  -0.1517262609
       -0.2738671374  -0.0465376917   0.0122844689   0.6797424800  -0.0241188849
        0.0488836300  -0.0930160398   0.0211085495   0.0266900444   0.0166670083
        0.0093882985  -0.0155326626  -0.0097388457  -0.0059715448   0.0025260958
        0.0023763199   0.0006895684  -0.0006246738  -0.0003155325   0.0000927997
       -0.0005176082  -0.0005049937  -0.0004045438  -0.0046466802   0.0004065491
       -0.0018228615  -0.0001235490  -0.0007077971   0.0000869392   0.0000448778
       -0.0000305774   0.0000375414  -0.0000169315   0.0000185054  -0.0000208406
       -0.0000970645   0.0000512249  -0.0001388402   0.0000428962   0.0001128379