$hessian                                                                        
        0.4784427339   0.0051073924   0.0106393084  -0.0830530177   0.0230724728
        0.0508002854  -0.0022021459   0.0075336262   0.0083763230   0.0054805125
        0.0022987209   0.0009776134  -0.0002153775   0.0003196487   0.0005763689
        0.0060601521  -0.0002884015   0.0012075082  -0.0024133046   0.0003273787
        0.0093121755  -0.0001225448  -0.0002511393   0.0000012918   0.0000809023
        0.0002498156   0.0001220941   0.0001937937  -0.0000654500   0.0001001145
       -0.0000627020   0.0000541261  -0.0000666585  -0.0000334849  -0.0001199566
        0.0000229490   0.0000472658   0.0000718452   0.0000081948  -0.0000067723
        0.0000083618  -0.0000022796  -0.0000170243   0.0000445587   0.0000087894
        0.0000237273   0.0000177730  -0.0000037883   0.0000383340   0.0000072522
        0.0000150020  -0.0000427379  -0.0000452611  -0.0000221293   0.0000188972
       -0.0000138107   0.0000153715  -0.0000076982  -0.0000177767   0.0000160525
        0.0000069794   0.0000115545   0.0000156581  -0.0000306348   0.0000060964
        0.0000001059  -0.0000153356  -0.0000322954   0.0000219628  -0.0000024469
       -0.0000127981  -0.0000002672   0.0001370959   0.0000457875  -0.0000806618
       -0.0001731200  -0.0001104016   0.0001108845   0.0001786907  -0.0003888388
        0.0002288436   0.0000374590   0.0005804417  -0.0002660739  -0.0002682787
       -0.0002168637  -0.0000487602   0.0000666520   0.0000971131   0.0000338258
       -0.0000856361  -0.0002593493   0.0000439587   0.0003067917   0.0001537999
       -0.0000048798  -0.0002043052  -0.0001322783   0.0000347155   0.0001472267
       -0.0000028462  -0.0000193938  -0.0000539025  -0.0000549501  -0.0000097826
        0.0000316566   0.0000334073   0.0000066753  -0.0000591897  -0.0000030127
       -0.0000056654   0.0000567810   0.0001185604   0.0000059004   0.0000037351
       -0.0000273386   0.0000089035  -0.0000158931   0.0000157797  -0.0000020156
        0.0000157784   0.0000095156  -0.0000316314   0.0000264419  -0.0000157570
        0.0000168986   0.0000170623  -0.0000009457   0.0000176164   0.0000001004
       -0.0000229593   0.0000371939  -0.0003330350   0.0000426593  -0.0001044370
        0.0001021360   0.0003199063  -0.0000795092  -0.0002833028   0.0000446671
       -0.0000969956   0.0000133173   0.0000116824  -0.0000540665  -0.0000040115
        0.0001900426  -0.0000731715  -0.0000453606  -0.0001000299   0.0000830898
        0.0000353057  -0.0001266423   0.0001139585   0.0001814965   0.0000455417
       -0.0001292871  -0.0000734734  -0.0002607604   0.0001885396  -0.0008397693
       -0.0002235456  -0.0005883683  -0.0000381038  -0.0000165925  -0.0000355063
       -0.0000051532   0.0000467697  -0.0000281578  -0.0000090081  -0.0000169988
       -0.0000003346   0.0000153901   0.0000151001   0.0000007417  -0.0000422405
        0.0000252840   0.0000024287  -0.0000020230   0.0000130871  -0.0000056605
       -0.0000059382   0.0000114137   0.0000000078  -0.0000043126   0.0000045727
       -0.0000000903   0.0000294809  -0.0000204221   0.0000016994  -0.0000185120
       -0.0000234676   0.0000123106  -0.2686964691   0.0302808131  -0.0292807583
       -0.0804591363  -0.0896168976  -0.0222788200  -0.0480342441   0.0223001188
       -0.0284668445  -0.0016518933  -0.0009184514  -0.0006426683  -0.0002109051
        0.0000755626   0.0001947843  -0.0019214944  -0.0002425723  -0.0009909297
       -0.0000141562   0.0000298660  -0.0000317777  -0.0000300948   0.0000045612
        0.0000059705   0.0000040699  -0.0000012486   0.0000016776  -0.0000115632
       -0.0000139242  -0.0000004227  -0.0000102822  -0.0000022215  -0.0000039117
       -0.0000122537  -0.0000019418   0.0000010534   0.0000016156  -0.0000009388
       -0.0000093702   0.0000087609   0.0000023983   0.0000002519   0.0000052434
        0.0000149218  -0.0000001944  -0.0000104324   0.0000123470  -0.0000093478
       -0.0000055428  -0.0000034487  -0.0000089062   0.0000011415   0.0000164997
        0.0000059835  -0.0000092251   0.0000192193   0.0000034937   0.0000275342
        0.0000241934  -0.0000165969  -0.0000107260  -0.0000357519   0.0000007729
        0.0000315893  -0.0000280695  -0.0000174464   0.0000304830   0.0000043930
       -0.0000004706   0.0000078647   0.0000207292   0.0000107458   0.0000019879
       -0.0000201122  -0.0000129586  -0.0000188741  -0.0000155899   0.0000235087
       -0.0000262995   0.0000184183   0.0000059398  -0.0000125784   0.0000308105
       -0.0000201787   0.0000184826  -0.0000012788  -0.0000167780   0.0000298129
       -0.0000399243   0.0000771010   0.0000090716  -0.0000044987  -0.0000027682
        0.0000140354  -0.0000048353   0.0000035702   0.0000176650   0.0000101637
        0.0000228861   0.0000087203  -0.0000169944   0.0000130258  -0.0000349888
        0.0000099456   0.0000166920  -0.0000222073   0.0000271504   0.0000309746
       -0.0000101970   0.0000170093   0.0000031476  -0.0000076944   0.0000095213
        0.0000022703   0.0000095742  -0.0000000888  -0.0000033423  -0.0000021199
       -0.0000242383   0.0000003293  -0.0000020433  -0.0000036477  -0.0000112366
        0.0000082764  -0.0000016212  -0.0000020535  -0.0000023262  -0.0000247539
       -0.0000056246   0.0000031888  -0.0000066408  -0.0000033431  -0.0000034365
       -0.0000044442  -0.0000095552   0.0000017781  -0.0000053805  -0.0000028013
        0.0000008846   0.0000059358  -0.0000025908  -0.0000048414   0.0000066212
       -0.0000027069  -0.0000118544   0.0000134505   0.0000044347
        0.0051073924   0.5179300117  -0.0220810982   0.0234390718  -0.0863236149
       -0.0451349072   0.0138581531  -0.0158640954  -0.0244773716   0.0024535138
       -0.0042606296   0.0011987517   0.0002646740  -0.0005232149  -0.0004359464
       -0.0002474633  -0.0007698832   0.0036647528  -0.0057081681   0.0058717597
        0.0106695355  -0.0001600361   0.0004093869   0.0007713599  -0.0000056507
       -0.0000842818  -0.0000166443  -0.0001205482   0.0000662334  -0.0000204453
        0.0000300922  -0.0000720748   0.0000279915   0.0000050646   0.0001045066
       -0.0000453477  -0.0000252629  -0.0000380958   0.0000244075  -0.0000071553
       -0.0000162987   0.0000039358   0.0000195356  -0.0000325141  -0.0000067509
       -0.0000175831  -0.0000159713   0.0000021389  -0.0000409147  -0.0000026285
       -0.0000157752   0.0000191507   0.0000342203   0.0000220570  -0.0000164143
        0.0000153349  -0.0000147619   0.0000131693   0.0000107176  -0.0000096764
       -0.0000048183  -0.0000030093  -0.0000091262   0.0000256064  -0.0000139069
       -0.0000042587   0.0000167759   0.0000273207  -0.0000189112   0.0000005929
        0.0000146679   0.0000029371  -0.0001109804  -0.0000889975  -0.0000050971
        0.0001070078   0.0000818008  -0.0000038420  -0.0001083931   0.0004916282
       -0.0002334885  -0.0000675854  -0.0006359629   0.0002611115   0.0002300381
        0.0001166479  -0.0000369038  -0.0000801696  -0.0000531297   0.0000244848
        0.0000958504   0.0002414259  -0.0000358174  -0.0002691406  -0.0001288341
        0.0000261119   0.0001736959   0.0000983418  -0.0000239420  -0.0001318608
        0.0000163339   0.0000266503   0.0000470200   0.0000458895   0.0000074610
       -0.0000242454  -0.0000316993  -0.0000077457   0.0000518869   0.0000047104
        0.0000065719  -0.0000535792  -0.0001154500  -0.0000002732  -0.0000003922
        0.0000170834  -0.0000129396   0.0000147806  -0.0000022998  -0.0000014312
       -0.0000059433  -0.0000035280   0.0000218128  -0.0000224692   0.0000166722
       -0.0000165716  -0.0000181294  -0.0000095065  -0.0000154772  -0.0000074297
        0.0000101083  -0.0000157294   0.0003151251  -0.0000224696   0.0000309100
       -0.0001642385  -0.0000757843  -0.0000632147  -0.0000196245  -0.0002525104
        0.0001379362  -0.0000072401   0.0000181047   0.0001042540   0.0000237709
       -0.0001647845   0.0000797849   0.0000457144   0.0000983343  -0.0000628478
       -0.0000337052   0.0001433031  -0.0001233924  -0.0000330147   0.0000137635
        0.0001763502   0.0000165796   0.0001894164  -0.0003177862  -0.0003114684
       -0.0000213037   0.0002274820   0.0000110624  -0.0000220779  -0.0000125299
       -0.0000557091  -0.0000130879   0.0000082437   0.0000061848   0.0000018457
       -0.0000041381  -0.0000113414   0.0000001985   0.0000045078   0.0000391374
       -0.0000193154   0.0000016411   0.0000052189  -0.0000145765   0.0000035394
        0.0000067390  -0.0000149466  -0.0000003169   0.0000045608  -0.0000074983
        0.0000002260  -0.0000186992   0.0000432539  -0.0000112144   0.0000135817
        0.0000236575  -0.0000469518   0.0284375993  -0.0439983279   0.0056778528
       -0.0887197759  -0.2322835878  -0.0438876063   0.0220158281  -0.1412519109
        0.1160766718  -0.0001620334   0.0008412970  -0.0016294842   0.0005223931
       -0.0006488142  -0.0011634274  -0.0006555526   0.0009900034   0.0007555294
        0.0000338821  -0.0000501836   0.0000136567   0.0000211241  -0.0000038578
       -0.0000071509   0.0000012923  -0.0000019800   0.0000013383   0.0000076010
        0.0000086410  -0.0000001143   0.0000074155   0.0000007596   0.0000064743
        0.0000099267   0.0000000064  -0.0000005226  -0.0000013659   0.0000073246
        0.0000067511  -0.0000088758  -0.0000057092  -0.0000048472  -0.0000059506
       -0.0000145727   0.0000018049   0.0000077948  -0.0000109053   0.0000081749
        0.0000036172   0.0000041025   0.0000071297  -0.0000122830  -0.0000125272
        0.0000027754   0.0000132643  -0.0000247610   0.0000077721  -0.0000103721
       -0.0000312792  -0.0000082997   0.0000094950   0.0000366007  -0.0000014105
       -0.0000264310   0.0000304544   0.0000134171  -0.0000274666  -0.0000025419
       -0.0000009457  -0.0000037504  -0.0000157985  -0.0000111246  -0.0000017005
        0.0000230757   0.0000053212   0.0000172113   0.0000174058  -0.0000274949
        0.0000253016  -0.0000179053  -0.0000084719   0.0000116922  -0.0000190006
        0.0000237907  -0.0000057277  -0.0000008882   0.0000190684  -0.0000721821
       -0.0000194508  -0.0000322211  -0.0000128071   0.0000188323  -0.0000077183
       -0.0000153473   0.0000075439  -0.0000052559  -0.0000152059  -0.0000119440
       -0.0000185139  -0.0000076437   0.0000154197  -0.0000161445   0.0000053837
       -0.0000148734  -0.0000229158   0.0000119390  -0.0000208212  -0.0000147608
        0.0000196975  -0.0000228781  -0.0000003024   0.0000086575  -0.0000084960
       -0.0000020441  -0.0000097973  -0.0000008976   0.0000027985   0.0000029257
        0.0000217662  -0.0000015821   0.0000018000   0.0000033854   0.0000121918
       -0.0000091786   0.0000009414   0.0000005720   0.0000047122   0.0000206539
        0.0000040060  -0.0000054537   0.0000096560  -0.0000016015   0.0000048821
        0.0000054623   0.0000102568  -0.0000012526   0.0000096312   0.0000002386
        0.0000023367  -0.0000064666   0.0000005189   0.0000042761  -0.0000003341
        0.0000043160   0.0000267317  -0.0000109483   0.0000172588
        0.0106393084  -0.0220810982   0.4921529380   0.0555742669  -0.0495631122
       -0.1754229488   0.0042663281  -0.0069424442  -0.0060008974   0.0015480562
        0.0001195756   0.0016047633   0.0003910470  -0.0007787961  -0.0007773863
        0.0017432203   0.0044227677  -0.0004863776   0.0129293063  -0.0052856168
       -0.0303739969   0.0004665886  -0.0002902553  -0.0009732150  -0.0002076849
       -0.0003133610   0.0001066157   0.0000254580   0.0000217531   0.0000769185
        0.0000111190  -0.0000932621   0.0000266725  -0.0000176101   0.0001722850
       -0.0000975232  -0.0000703444  -0.0000422041   0.0000372450  -0.0000158953
       -0.0000371820  -0.0000002294   0.0000423917  -0.0000492935  -0.0000017362
       -0.0000276308  -0.0000335674   0.0000014295  -0.0000624998  -0.0000031569
       -0.0000216798   0.0000113311   0.0000370223   0.0000269216  -0.0000213457
        0.0000288366  -0.0000173308   0.0000212449   0.0000362703  -0.0000061693
       -0.0000309032  -0.0000254707  -0.0000342362   0.0000485529  -0.0000361668
       -0.0000025043   0.0000397946   0.0000574048  -0.0000161163  -0.0000017202
        0.0000104647   0.0000027953   0.0000841414  -0.0001139378   0.0000090335
       -0.0000016317   0.0002298083  -0.0000383749  -0.0000532935  -0.0000409682
       -0.0000451187   0.0000051346  -0.0000474413   0.0000644398   0.0001046695
        0.0000727992  -0.0000623783  -0.0001266163  -0.0000627756   0.0000463645
        0.0000797799   0.0001100105  -0.0000162155  -0.0001089600  -0.0000839507
        0.0000298015   0.0001798765   0.0001171629  -0.0000198462  -0.0000720267
       -0.0000216226   0.0000148139   0.0000372154   0.0000425201   0.0000206155
       -0.0000307510  -0.0000176249  -0.0000005788   0.0000647507  -0.0000187975
       -0.0000129036  -0.0000170894  -0.0000705430   0.0000024299   0.0000094936
        0.0000240472  -0.0000082045  -0.0000021049  -0.0000054886   0.0000245308
       -0.0000029319   0.0000136055   0.0000284362  -0.0000052921   0.0000023733
       -0.0000368920  -0.0000398660  -0.0000160419   0.0000085506  -0.0000079842
        0.0000546411  -0.0000339688   0.0000418012  -0.0000155892   0.0000398231
       -0.0000266033  -0.0001899900   0.0000182696  -0.0000190021   0.0001746043
       -0.0001891762   0.0000224277  -0.0000695546  -0.0001739652   0.0000210904
       -0.0001295902   0.0000071827   0.0000512076   0.0000656194  -0.0000062853
       -0.0000433078   0.0000982444  -0.0000306045  -0.0000136041   0.0000645287
        0.0000540613   0.0000243039   0.0001559685  -0.0002097972  -0.0005067332
       -0.0000468087   0.0004019450  -0.0000132481   0.0000249785  -0.0000300714
        0.0000304891  -0.0000453023   0.0000073382   0.0000087348   0.0000232131
        0.0000067152  -0.0000087973  -0.0000559346   0.0000002750   0.0000532466
       -0.0000301713   0.0000026409  -0.0000012403  -0.0000089880   0.0000130406
       -0.0000016080  -0.0000061599  -0.0000020400   0.0000038607   0.0000035895
        0.0000053358  -0.0000276154   0.0000469101  -0.0000001087   0.0000027482
       -0.0000218917   0.0000045751  -0.0341554372   0.0067971657  -0.0438173216
       -0.0222435373  -0.0422531112  -0.0539819878  -0.0290720006   0.1159713641
       -0.1832136265  -0.0010361071   0.0012419929   0.0009245531   0.0000768525
        0.0000178555  -0.0001165060  -0.0005665153  -0.0014218799   0.0006076848
       -0.0000155927   0.0000301457  -0.0000464410   0.0000368769   0.0000040688
       -0.0000150679  -0.0000039770   0.0000011965   0.0000002417   0.0000117580
        0.0000091028  -0.0000016288   0.0000050596  -0.0000004736   0.0000085123
        0.0000097180   0.0000034442   0.0000029781  -0.0000122213   0.0000070503
        0.0000116110  -0.0000072527  -0.0000000291   0.0000024104  -0.0000042897
       -0.0000135779   0.0000017914   0.0000096464  -0.0000104966   0.0000096571
        0.0000053688   0.0000034513   0.0000082061  -0.0000302654  -0.0000156875
       -0.0000017772   0.0000237539  -0.0000242512   0.0000064605  -0.0000159255
       -0.0000104959  -0.0000316907   0.0000118250   0.0000532422   0.0000016946
       -0.0000440793   0.0000369097   0.0000126915  -0.0000374036  -0.0000044449
       -0.0000040513  -0.0000138035  -0.0000187049  -0.0000155494   0.0000019682
        0.0000215627   0.0000047298   0.0000189641   0.0000162889  -0.0000291216
        0.0000233040  -0.0000202795  -0.0000120962   0.0000102992  -0.0000299308
        0.0000143251  -0.0000183429  -0.0000049412   0.0000135969   0.0000463347
        0.0000764469  -0.0000241008  -0.0000046733  -0.0000053015   0.0000321369
       -0.0000130053   0.0000133650   0.0000053021  -0.0000092205  -0.0000124408
       -0.0000238101  -0.0000246154   0.0000137275  -0.0000141419   0.0000065063
       -0.0000274950  -0.0000371988   0.0000154289  -0.0000335759  -0.0000326414
        0.0000038374  -0.0000160670  -0.0000045079   0.0000056816  -0.0000097858
        0.0000014066  -0.0000079354  -0.0000009862   0.0000036576   0.0000008553
        0.0000417737   0.0000023073   0.0000023904   0.0000029281   0.0000118538
       -0.0000077215  -0.0000001497   0.0000043109   0.0000001538   0.0000436823
        0.0000089760  -0.0000006716   0.0000048137   0.0000013806   0.0000032069
        0.0000038307   0.0000101846   0.0000009486   0.0000050561   0.0000031800
       -0.0000024691  -0.0000050521   0.0000053222   0.0000055337  -0.0000062481
        0.0000039290   0.0000137469  -0.0000119036   0.0000005341
       -0.0830530177   0.0234390718   0.0555742669   0.2229654800  -0.0950591011
       -0.1528953696  -0.0692232248   0.0726471447   0.0072152355  -0.0078444736
        0.0148490163   0.0133059432  -0.0032379503  -0.0000860907  -0.0069674729
       -0.0044763985  -0.0056001025   0.0131754326  -0.0596584234  -0.0263872984
        0.0469260798   0.0050950668   0.0021955558   0.0040614546   0.0003524380
        0.0006001835  -0.0006847821   0.0001247629   0.0001069150   0.0000126613
       -0.0000949753  -0.0000810632   0.0000063481   0.0000341491   0.0002239478
       -0.0001384627  -0.0001033772  -0.0001017506   0.0000428367   0.0000286356
       -0.0000596125  -0.0000017071   0.0000097792  -0.0000395091  -0.0000145643
       -0.0000126523  -0.0000090539   0.0000037989  -0.0000668407  -0.0000170736
       -0.0000210031   0.0000238567   0.0000636246   0.0000372158  -0.0000065234
        0.0000157414  -0.0000042185   0.0000303142   0.0000285416   0.0000004472
       -0.0000151402  -0.0000040808  -0.0000180613   0.0000331581  -0.0000138248
        0.0000076171   0.0000107396   0.0000434538  -0.0000157815  -0.0000315121
        0.0000244821  -0.0000192808   0.0000983769  -0.0001773153   0.0001342237
        0.0003165346   0.0004854010  -0.0001113559  -0.0002017028  -0.0003624827
        0.0000520638   0.0000532335   0.0002386405  -0.0000377688   0.0003799115
        0.0002996084  -0.0001106869  -0.0003495042  -0.0002474603   0.0000423631
        0.0001551210   0.0002736113   0.0000053649  -0.0002387312  -0.0002073587
        0.0000406495   0.0003368717   0.0001848859  -0.0000525816  -0.0001415924
       -0.0000632196   0.0000185801   0.0000930551   0.0000698619   0.0000127675
       -0.0000515688  -0.0000398548   0.0000023349   0.0001004443   0.0000008655
        0.0000171300  -0.0000569790  -0.0001185691  -0.0000177651  -0.0000259235
        0.0000426307   0.0000181094   0.0000062755  -0.0000186221   0.0000118544
       -0.0000230769   0.0000270561   0.0000167497  -0.0000108679  -0.0000102515
       -0.0000120697  -0.0000288054   0.0000219148  -0.0000023463   0.0000307124
        0.0000613826  -0.0000646470  -0.0000553306   0.0000781610  -0.0001997699
       -0.0003836933  -0.0006490803   0.0002409272   0.0000411192  -0.0008578449
        0.0008740638  -0.0001252535   0.0001102420   0.0000553086   0.0000404897
       -0.0002611850   0.0001278915   0.0000363206   0.0000430160   0.0000188724
       -0.0000895612   0.0001602981  -0.0000248144  -0.0000863395   0.0001139822
        0.0001674082   0.0002414330   0.0004493724  -0.0006961326  -0.0008171285
        0.0004187466   0.0021232243  -0.0001340096  -0.0000386659   0.0000133357
        0.0000690309  -0.0000008839  -0.0000273278  -0.0000352830   0.0000387339
        0.0000060236  -0.0000309905  -0.0000267816  -0.0000104418   0.0000219684
        0.0000000115  -0.0000078299  -0.0000094409  -0.0000027391   0.0000096800
       -0.0000034909  -0.0000017132  -0.0000053823   0.0000052056   0.0000021677
       -0.0000028805   0.0000140940  -0.0000086654   0.0000179733   0.0000313960
        0.0000316623   0.0000863120  -0.0164077832   0.0132047964   0.0265105316
        0.0045384100  -0.0013375521  -0.0082547976   0.0012156874  -0.0026237201
       -0.0010725566   0.0020621879  -0.0030802729   0.0002838521   0.0062080547
        0.0026851053   0.0044848113   0.0025030715   0.0044861437  -0.0043186518
       -0.0000302074  -0.0000500678   0.0000744762   0.0000413454  -0.0000207990
        0.0000056881  -0.0000171427   0.0000028665  -0.0000013690   0.0000170687
        0.0000259413   0.0000010643   0.0000204286   0.0000057186   0.0000083131
        0.0000250656   0.0000000411  -0.0000062210  -0.0000142854   0.0000064454
        0.0000214741  -0.0000031590   0.0000010090   0.0000009284  -0.0000039313
       -0.0000251539  -0.0000052601   0.0000164739  -0.0000242395   0.0000116608
        0.0000111786   0.0000036530   0.0000139935  -0.0000539443  -0.0000100871
       -0.0000108630   0.0000634900  -0.0000417243   0.0000122715  -0.0000616167
       -0.0000141347  -0.0000178267   0.0000180526   0.0000640790  -0.0000032631
       -0.0000547565   0.0000397255   0.0000213618  -0.0000518516  -0.0000126845
       -0.0000067398  -0.0000184415  -0.0000369771  -0.0000229121   0.0000047780
        0.0000126086   0.0000194713   0.0000149184   0.0000097175  -0.0000171642
        0.0000252128  -0.0000193167  -0.0000113267   0.0000087172  -0.0000509819
        0.0000234636  -0.0000251703  -0.0000261016   0.0000289772  -0.0000275723
        0.0000203074  -0.0000814264  -0.0000087094   0.0000325118   0.0000491994
       -0.0000197724   0.0000264128   0.0000053537  -0.0000167495  -0.0000217319
       -0.0000248235  -0.0000010581   0.0000182543  -0.0000014979   0.0000225974
       -0.0000337067  -0.0000437883   0.0000297199  -0.0000724317  -0.0000364033
        0.0000103842  -0.0000064513   0.0000004147   0.0000032725   0.0000071812
        0.0000051358  -0.0000049211   0.0000020689   0.0000015788   0.0000050135
        0.0000178536  -0.0000009455   0.0000026068   0.0000031682   0.0000043844
       -0.0000036614   0.0000034483   0.0000035578   0.0000046003   0.0000188886
        0.0000062849  -0.0000028095   0.0000051716   0.0000119431   0.0000016933
        0.0000016696   0.0000021728  -0.0000049998  -0.0000000671   0.0000102571
        0.0000000502  -0.0000079286   0.0000025039  -0.0000147384  -0.0000149558
        0.0000048431  -0.0000829883  -0.0000123772  -0.0000101762
        0.0230724728  -0.0863236149  -0.0495631122  -0.0950591011   0.6202427398
       -0.0409850600   0.0472453841  -0.2903570137   0.0272256371   0.0337030947
       -0.0212737951  -0.0798339050  -0.0003883895  -0.0438702495   0.0262884174
       -0.0242803195   0.0450932435   0.0418770692  -0.0011740547  -0.1744431938
        0.0745458884   0.0036974903   0.0039700214  -0.0035728179  -0.0021062231
       -0.0019274933  -0.0011137526   0.0005831045  -0.0002708054  -0.0001701940
       -0.0000676294   0.0001729956   0.0001193809   0.0000631779  -0.0005028255
        0.0004222941   0.0000198858   0.0000513993  -0.0002656813  -0.0000817569
        0.0001145964  -0.0000266867  -0.0000342122   0.0000403203   0.0000636811
        0.0000212367  -0.0000254749  -0.0000172423   0.0000932982  -0.0000325132
        0.0000686097   0.0000019817  -0.0001259846  -0.0001123788   0.0000264851
        0.0000598935   0.0000415750  -0.0000582131  -0.0000141582   0.0000110376
       -0.0000146284   0.0000003852   0.0000118353  -0.0000374822  -0.0000318473
       -0.0000200805   0.0000192868  -0.0000338889   0.0000488294   0.0000547371
       -0.0000518015   0.0000135418  -0.0002224190   0.0008464040   0.0001481220
        0.0007599824   0.0005711089  -0.0003437730  -0.0001973061  -0.0017411879
        0.0002049192   0.0002233802   0.0011754046  -0.0004057204  -0.0002332229
        0.0000942931  -0.0001913521   0.0001746239   0.0005628066   0.0001884291
       -0.0001576379  -0.0005561882   0.0001831434   0.0006307874   0.0003308992
        0.0000147365  -0.0005401383  -0.0002520053   0.0000098413   0.0003726121
       -0.0000097719  -0.0000817980  -0.0002149391  -0.0001414868   0.0000316055
        0.0000749345   0.0000954806   0.0000259551  -0.0001166038  -0.0000568622
       -0.0000628271   0.0001710416   0.0003214620  -0.0000001386   0.0000286976
       -0.0000411836   0.0000127072  -0.0000938147   0.0000536904   0.0000463276
        0.0000350816  -0.0000030886  -0.0000332223   0.0000774513  -0.0000608146
       -0.0000112207   0.0000020591  -0.0001043648   0.0000947542  -0.0000474507
        0.0000151018   0.0000572619  -0.0011238273  -0.0000718827  -0.0005331159
        0.0008316112  -0.0015076304   0.0000151451  -0.0005520660   0.0017914293
       -0.0002425553   0.0000053014   0.0000115767  -0.0000756953  -0.0001327517
        0.0007461515  -0.0002337678  -0.0001234606  -0.0001556085   0.0001663831
        0.0002451688  -0.0008903945   0.0004906223   0.0004468434  -0.0001424480
       -0.0013518233  -0.0003683990  -0.0016517880   0.0026124715   0.0014909641
        0.0008141326  -0.0041370932  -0.0001720124   0.0002160993  -0.0000259636
       -0.0001701378   0.0000235120  -0.0000545598  -0.0000085530  -0.0000422507
       -0.0000046203   0.0000807105   0.0000489968   0.0000206671  -0.0000154281
       -0.0000028363   0.0000175042   0.0000161361  -0.0000007279  -0.0000124975
       -0.0000015240   0.0000058381   0.0000118011  -0.0000052941  -0.0000090368
        0.0000098446  -0.0000784964   0.0001006808  -0.0000439451   0.0000206481
       -0.0000538912  -0.0001068101   0.0057716948  -0.0022742543  -0.0054546069
        0.0113466921  -0.0148948444  -0.0242838926  -0.0069718561   0.0064258813
        0.0151070080   0.0040729067  -0.0203979158   0.0021725309   0.0021775283
        0.0009299994  -0.0011934009  -0.0030768899  -0.0216997416   0.0223083044
        0.0000888868   0.0002488624  -0.0000470748  -0.0000297706   0.0000724651
        0.0000286710   0.0000104683   0.0000015814  -0.0000033163  -0.0000223493
       -0.0000348299   0.0000111905  -0.0000260602   0.0000023899  -0.0000300620
       -0.0000247660  -0.0000022744   0.0000053430   0.0000186286  -0.0000094578
       -0.0000312929   0.0000147418  -0.0000018275   0.0000022213   0.0000103455
        0.0000512791   0.0000144120  -0.0000385925   0.0000431830  -0.0000211975
       -0.0000193425  -0.0000096447  -0.0000209452   0.0003546212  -0.0000250105
        0.0000790179  -0.0002097539   0.0000841163   0.0000002544   0.0000884796
        0.0000427276  -0.0000890712  -0.0000365240  -0.0000789976  -0.0000029446
        0.0000726348  -0.0000714507  -0.0000371889   0.0000773163   0.0000251367
        0.0000051260   0.0000172445   0.0000543001   0.0000353487  -0.0000013444
       -0.0000354995  -0.0000293091  -0.0000268898  -0.0000234164   0.0000432920
       -0.0000579734   0.0000400961   0.0000396244   0.0000005687   0.0001082107
       -0.0000565755   0.0000370854   0.0000182925  -0.0000619020  -0.0001874143
        0.0005331362  -0.0000910134   0.0000156043  -0.0000725620  -0.0000262706
        0.0000383313  -0.0000233404   0.0000016380   0.0000448217   0.0000230725
        0.0000461130  -0.0000048912  -0.0000359841   0.0000168239  -0.0000574517
        0.0000483441   0.0000615877  -0.0000550554   0.0001141330   0.0001126188
       -0.0000305830  -0.0000097132   0.0000144263  -0.0000065823  -0.0000063303
        0.0000030145   0.0000055995  -0.0000010631   0.0000019711   0.0000002269
       -0.0000226223  -0.0000018994  -0.0000070324  -0.0000037458  -0.0000098465
       -0.0000056049  -0.0000044826  -0.0000066066   0.0000007574  -0.0000295437
       -0.0000128851   0.0000073743   0.0000025691  -0.0000320443  -0.0000060406
       -0.0000002266  -0.0000052014   0.0000126275   0.0000086538  -0.0000198590
        0.0000052548   0.0000040749  -0.0000047331   0.0000265627   0.0000102168
       -0.0000122659   0.0001735861   0.0000855027   0.0000082393
        0.0508002854  -0.0451349072  -0.1754229488  -0.1528953696  -0.0409850600
        0.5790123444   0.0237518342  -0.0457315038  -0.0875253928   0.0010236932
       -0.0266462602   0.0142193260  -0.0061533541   0.0237085594  -0.0035908359
        0.0257845777  -0.0131775052  -0.0625927533   0.0315029395   0.1468907841
       -0.2225172983   0.0021020127  -0.0046960765  -0.0010868628   0.0015623808
        0.0022984277   0.0002784529  -0.0003334272  -0.0000843818   0.0001809443
        0.0000156719   0.0001381953  -0.0001593834  -0.0000782970  -0.0002539130
        0.0000364353   0.0001458314   0.0001699286   0.0000287875  -0.0000433923
        0.0000282702   0.0000050108  -0.0000024179   0.0000695391   0.0000142556
        0.0000326212   0.0000265746  -0.0000040613   0.0000633125   0.0000250489
        0.0000060468  -0.0000721480  -0.0000739900  -0.0000228978   0.0000061934
       -0.0000330145  -0.0000010275  -0.0000200115  -0.0000430139   0.0000108443
        0.0000167217   0.0000074211   0.0000183433  -0.0000473457   0.0000159101
       -0.0000110350  -0.0000138157  -0.0000585932   0.0000195506   0.0000304731
       -0.0000190720   0.0000293097   0.0001186494   0.0000512950  -0.0002283350
       -0.0005188711  -0.0011422398   0.0004168781   0.0004222195   0.0005943749
        0.0001489084  -0.0001238653   0.0001442076  -0.0001769414  -0.0002676523
       -0.0006659000   0.0002940814   0.0002647638   0.0000889933  -0.0002348718
       -0.0001690733  -0.0003381193  -0.0000724673   0.0002556412   0.0001526968
       -0.0001063413  -0.0004228501  -0.0002662364   0.0000886196   0.0002339671
        0.0000866441  -0.0000218807  -0.0000941110  -0.0000557593  -0.0000211158
        0.0000416411   0.0000400893  -0.0000071990  -0.0001081077  -0.0000067110
       -0.0000133822   0.0000916949   0.0001591151   0.0000440377   0.0000156752
       -0.0000449866  -0.0000316890   0.0000218693  -0.0000044750  -0.0000046829
        0.0000195388  -0.0000045150  -0.0000072018   0.0000181130   0.0000164570
        0.0000161483   0.0000671487  -0.0000073425  -0.0000073697   0.0000203745
       -0.0000397836   0.0000803067  -0.0000515961   0.0000953683   0.0004130245
        0.0001777005   0.0009917041   0.0004901652   0.0004138760   0.0005578544
       -0.0008650809  -0.0000047768  -0.0000858812  -0.0000753086  -0.0000871082
        0.0002988950  -0.0001592046  -0.0000394822  -0.0000834668   0.0000302274