$hessian                                                                        
        0.6499341084  -0.0131134277   0.0335437787  -0.3258304708  -0.0409868097
       -0.0178360660  -0.0368754611   0.0847585558  -0.0016781427  -0.0447650764
       -0.0295155476  -0.0024796072  -0.0014855393   0.0008231328  -0.0001678697
        0.0000056677  -0.0014448173   0.0000578100  -0.0006602303   0.0005162690
       -0.0000418015  -0.0000451480  -0.0001107061   0.0000092962   0.0000277469
        0.0000126930  -0.0000007392   0.0000221349   0.0000006719  -0.0000015664
       -0.0000016762   0.0000028015   0.0000002599  -0.0000309755  -0.0000220277
        0.0000023986  -0.0000362663   0.0000631944   0.0000027293   0.0006042164
        0.0002127128   0.0000217928  -0.0001291363  -0.0002170392  -0.0000208193
        0.0000345710   0.0000065014   0.0000057808   0.0000197368   0.0000196971
        0.0000031744  -0.0000219479   0.0000265541  -0.0000015507   0.0000048978
       -0.0000034184   0.0000046382  -0.0000061631   0.0000023944  -0.0000063817
        0.0000018660  -0.0000061213  -0.0000025642   0.0000042745  -0.0000036340
       -0.0000000451  -0.0000014743  -0.0000027785  -0.0000040038  -0.0000020105
        0.0000028333  -0.0000028457   0.0000000437  -0.0000044082  -0.0000040986
        0.0000011694   0.0000004823  -0.0000002256  -0.0000027503   0.0000003849
       -0.0000039990   0.0000000926   0.0000021348  -0.0000008178  -0.0000017588
       -0.0000012931  -0.0000033265   0.0000015779  -0.0000013756  -0.0000009682
        0.0000025633  -0.0000002050  -0.0000037255  -0.0000587077   0.0000244046
       -0.0000052810   0.0000241024   0.0000087901   0.0000083138  -0.0000055497
        0.0000113101  -0.0000018897   0.0000012629  -0.0000019717  -0.0000034789
        0.0000005438  -0.0000005730  -0.0000015145  -0.0000002543   0.0000023199
       -0.0000005607  -0.0000002668  -0.0000042249  -0.0000050979   0.0000007552
        0.0000039730   0.0000022563   0.0000082096  -0.0000040581  -0.0000047515
       -0.0000042915  -0.0000000120  -0.0000015824   0.0000033727  -0.0000044398
       -0.0000045867   0.0000044945   0.0000002630   0.0000009636   0.0000089653
       -0.0000033773   0.0000009636  -0.0000122221  -0.0000152656  -0.0000103366
       -0.0000071208  -0.0000377671   0.0000006811   0.0000107558   0.0000385923
        0.0000070287   0.0000036035  -0.0000185998  -0.0000173325   0.0000297296
        0.0000137449  -0.0000038565   0.0000065908  -0.0000075475   0.0000114902
        0.0000080153  -0.0000111323  -0.0000093810  -0.0000037502  -0.0000147387
       -0.0000035933   0.0000077133   0.0000108544  -0.0000033601  -0.0000054615
        0.0000016842   0.0000067953   0.0000053223  -0.0000025245  -0.0000053905
       -0.0000014562  -0.0000017141   0.0000010101   0.0000004301   0.0000015199
        0.0000002017   0.0000012859  -0.0000017741  -0.0000035891  -0.0000063498
        0.0000089057  -0.0000008196   0.0000023905  -0.0000745957   0.0000130604
        0.0000770343   0.0003488738   0.0000407753   0.0585890524  -0.0298914786
        0.0034119092  -0.1547982078  -0.0608084344  -0.0073002976  -0.1077569887
        0.1116540701  -0.0036171523  -0.0175065311  -0.0024934415  -0.0012318198
       -0.0005888572   0.0028032008  -0.0005851498   0.0000430850  -0.0000249319
        0.0000045135   0.0000008155  -0.0000057202   0.0000014486   0.0000060354
       -0.0000084467   0.0000011374   0.0000039870  -0.0000074520  -0.0000005977
        0.0000060775  -0.0000066480   0.0000004005  -0.0000145423   0.0000067158
       -0.0000026583  -0.0000000301   0.0000031399   0.0000003579  -0.0000005853
        0.0000007001  -0.0000024873   0.0000000680   0.0000006681  -0.0000026568
       -0.0000004473   0.0000009267  -0.0000027902  -0.0000007735   0.0000016602
       -0.0000020403  -0.0000015015   0.0000029951  -0.0000013942   0.0000003240
        0.0000034095   0.0000014942  -0.0000001544  -0.0000008444  -0.0000006198
       -0.0000013750   0.0000014348  -0.0000007521  -0.0000018009   0.0000027847
       -0.0000005667  -0.0000023350   0.0000021170  -0.0000016027  -0.0000018093
        0.0000006829  -0.0000016256  -0.0000015438   0.0000005158  -0.0000016772
       -0.0000022385  -0.0000007346  -0.0000009938  -0.0000022996  -0.0000003493
       -0.0000003786  -0.0000037039   0.0000034450   0.0000022267  -0.0000020447
        0.0000134250   0.0000172774  -0.0000171451  -0.0000054018   0.0000008514
       -0.0000051785  -0.0000026196   0.0000044849  -0.0000014642   0.0000009106
        0.0000011693  -0.0000036836   0.0000008388   0.0000026395  -0.0000040002
        0.0000011775   0.0000014805  -0.0000043983   0.0000021503   0.0000021314
       -0.0000016463   0.0000019335  -0.0000001140   0.0000540916   0.0000489812
       -0.0000150550  -0.0005777683   0.0031638120  -0.0005845989  -0.0182682118
       -0.0257535165  -0.0014941261
       -0.0131134277   0.6667499982   0.0043018485   0.0384973328  -0.0959998019
        0.0020071870   0.0255463403   0.0268915665   0.0019524270  -0.0295107297
       -0.0105910670  -0.0018015754   0.0007932481  -0.0024376980  -0.0000214338
        0.0003786309   0.0007230304   0.0000341753   0.0000921538  -0.0003114061
       -0.0000093615   0.0000575292   0.0000929038   0.0000000979  -0.0001032423
        0.0000442208   0.0000070845  -0.0000067636   0.0000086260  -0.0000024409
       -0.0000028275  -0.0000373885  -0.0000018306   0.0000147162  -0.0000213340
       -0.0000040476   0.0000367975  -0.0000280345  -0.0000015822   0.0002052407
        0.0003730599   0.0000068490   0.0002183540  -0.0008554514  -0.0000010821
       -0.0001446761  -0.0000011713   0.0000078450   0.0000288202  -0.0000626326
       -0.0000023099  -0.0000077241  -0.0000924624   0.0000012699  -0.0000347753
        0.0000677024  -0.0000069784   0.0000263144   0.0000024658   0.0000129288
       -0.0000044361  -0.0000062640  -0.0000081435   0.0000064394  -0.0000042245
        0.0000059370   0.0000014583   0.0000010582   0.0000041038  -0.0000010227
       -0.0000074679  -0.0000036929   0.0000028412   0.0000082531   0.0000052464
       -0.0000097287   0.0000080041  -0.0000093183   0.0000075770  -0.0000070416
        0.0000013701  -0.0000021774  -0.0000028347  -0.0000062225  -0.0000002239
       -0.0000042347  -0.0000048003   0.0000041677   0.0000049580   0.0000092097
       -0.0000119220  -0.0000341978  -0.0000180358   0.0001098585  -0.0000023410
        0.0000037409  -0.0000992566   0.0000086541   0.0000088939   0.0000322122
       -0.0000435168  -0.0000191828  -0.0000045474   0.0000072252   0.0000079355
        0.0000086760  -0.0000026151  -0.0000044687  -0.0000040013  -0.0000042421
       -0.0000041458   0.0000072087   0.0000047766   0.0000025970  -0.0000126695
       -0.0000099299  -0.0000089532  -0.0000023685   0.0000098003   0.0000113056
       -0.0000000238  -0.0000077533  -0.0000034235  -0.0000048514   0.0000025278
        0.0000042449   0.0000119840   0.0000031015   0.0000074695  -0.0000009614
       -0.0000086335  -0.0000053983   0.0000231018   0.0000357578   0.0000101494
       -0.0000035215   0.0000473363   0.0000069308  -0.0000319563  -0.0000222201
        0.0000252723  -0.0000104815   0.0000152486   0.0000053784  -0.0000007484
       -0.0000120810   0.0000096421   0.0000135978   0.0000132526  -0.0000075086
       -0.0000021608  -0.0000012417  -0.0000023648   0.0000003652  -0.0000069637
       -0.0000014108   0.0000006014   0.0000108305   0.0000061441   0.0000001107
       -0.0000116956  -0.0000042637   0.0000061841   0.0000045345  -0.0000027986
        0.0000001599  -0.0000033284   0.0000023159   0.0000058467   0.0000052187
       -0.0000016717  -0.0000022443  -0.0000041819   0.0000002942   0.0000357741
        0.0000142732  -0.0000275277   0.0000200855   0.0000658724  -0.0000166308
       -0.0014744985   0.0006240815  -0.0000423459   0.0293137896  -0.0688875917
        0.0011332438  -0.1403031181  -0.2673311998  -0.0110430119   0.1116373892
       -0.2378358098   0.0052137121  -0.0261468876  -0.0018369919  -0.0017437262
        0.0031952871  -0.0040635395   0.0000526860   0.0000667775   0.0000333732
       -0.0000134535   0.0000176862  -0.0000089163  -0.0000025976   0.0000063355
       -0.0000025878  -0.0000029155  -0.0000036382   0.0000032290  -0.0000018599
       -0.0000001085  -0.0000131386  -0.0000009504   0.0000007027   0.0000007767
        0.0000031909  -0.0000006483   0.0000032875   0.0000018424   0.0000005695
       -0.0000012810   0.0000002569  -0.0000005736  -0.0000001723  -0.0000010155
        0.0000001215   0.0000009723  -0.0000002795   0.0000000027   0.0000004907
       -0.0000015489   0.0000020163   0.0000002383  -0.0000010131   0.0000015924
       -0.0000006043  -0.0000016642  -0.0000027836   0.0000041621  -0.0000021100
       -0.0000013177  -0.0000008565  -0.0000001766   0.0000009231   0.0000015165
        0.0000008448  -0.0000002458   0.0000016934   0.0000018385  -0.0000023921
        0.0000004699   0.0000005900  -0.0000038043   0.0000001547   0.0000020509
       -0.0000032632  -0.0000015247   0.0000005502  -0.0000006840  -0.0000019815
        0.0000007924  -0.0000046927   0.0000003899   0.0000026025  -0.0000145503
       -0.0000020582  -0.0000022192  -0.0000003633  -0.0000043863   0.0000093394
        0.0000016337   0.0000007752   0.0000025048  -0.0000024422  -0.0000017240
        0.0000055948  -0.0000017426  -0.0000016760   0.0000026957  -0.0000026246
        0.0000004980   0.0000047559  -0.0000011370   0.0000026072   0.0000039875
       -0.0000001944   0.0000014594   0.0000018562  -0.0000195448   0.0000181684
        0.0000087372   0.0027831817  -0.0040821362   0.0000430795  -0.0020970115
       -0.0011989675  -0.0000931540
        0.0335437787   0.0043018485   0.1221635752  -0.0169460898  -0.0031878825
       -0.0508116552  -0.0022075613   0.0058256507   0.0012378639  -0.0027756329
       -0.0019701865  -0.0070815992  -0.0000940067   0.0000197948  -0.0002873005
        0.0000176230  -0.0001144503  -0.0000244005  -0.0000433401   0.0000417075
        0.0000475244  -0.0000005807  -0.0000063778  -0.0000124519  -0.0000079524
        0.0000028053  -0.0000105055   0.0000016306   0.0000001760  -0.0000043173
       -0.0000001943  -0.0000018166  -0.0000043209   0.0000000671  -0.0000002477
        0.0000038564  -0.0000013930   0.0000009981   0.0000034713   0.0000507352
        0.0000274415  -0.0000168276  -0.0000044067  -0.0000334653   0.0000517328
       -0.0000051239   0.0000023456  -0.0000176987   0.0000009302   0.0000017104
        0.0000017845   0.0000022812   0.0000032861  -0.0000024192   0.0000001047
       -0.0000020995   0.0000010517  -0.0000002100   0.0000002806   0.0000027828
       -0.0000033141  -0.0000000941   0.0000042085  -0.0000013027   0.0000007747
        0.0000018698  -0.0000007031   0.0000018088   0.0000013620  -0.0000000040
        0.0000007423   0.0000001657  -0.0000018207  -0.0000001803   0.0000026726
       -0.0000001437  -0.0000011925   0.0000038404   0.0000003581   0.0000000178
        0.0000004058  -0.0000005222  -0.0000007584   0.0000035187   0.0000011024
       -0.0000005078   0.0000017295   0.0000002412  -0.0000010385   0.0000009269
       -0.0000005627   0.0000014097   0.0000013392  -0.0000016472   0.0000021570
        0.0000015728   0.0000011456   0.0000003939   0.0000023329  -0.0000020667
        0.0000013683   0.0000032757   0.0000015151  -0.0000005045   0.0000016482
        0.0000004572  -0.0000014425   0.0000030145   0.0000012672  -0.0000015564
        0.0000048320   0.0000009835   0.0000012727   0.0000019959  -0.0000007684
        0.0000012639   0.0000015065  -0.0000005337  -0.0000008610   0.0000029620
        0.0000008243  -0.0000035308   0.0000017374   0.0000003722   0.0000013137
        0.0000030736  -0.0000028980   0.0000003845  -0.0000003173   0.0000003713
       -0.0000010001   0.0000008640  -0.0000033236  -0.0000007374  -0.0000006511
       -0.0000004719  -0.0000008766  -0.0000022849   0.0000005483   0.0000028169
        0.0000002580  -0.0000008925   0.0000000557  -0.0000023654   0.0000019484
       -0.0000042423   0.0000012240  -0.0000014542  -0.0000000919   0.0000009548
        0.0000007524  -0.0000000631   0.0000016174   0.0000004137  -0.0000009475
       -0.0000022515   0.0000003110   0.0000017935   0.0000002575   0.0000001107
       -0.0000004506  -0.0000004600  -0.0000019008   0.0000010208  -0.0000016210
        0.0000041904  -0.0000022000   0.0000024422   0.0000019609  -0.0000024778
       -0.0000000134   0.0000034946  -0.0000009071   0.0000049881  -0.0000007968
        0.0000007341   0.0000018380   0.0000027067  -0.0000088562  -0.0000008141
       -0.0000177751   0.0000557846  -0.0000222766   0.0040671652  -0.0026471785
        0.0015546129  -0.0080602880  -0.0057683164  -0.0495705885  -0.0036334616
        0.0052033316  -0.0353962255  -0.0014963392  -0.0001924188   0.0007847074
       -0.0005492485   0.0000425479   0.0083015559   0.0000048672   0.0000033021
        0.0000031432   0.0000001108   0.0000008266  -0.0000041136  -0.0000000294
       -0.0000005094  -0.0000022535  -0.0000003927  -0.0000000401  -0.0000009587
        0.0000004285  -0.0000001512  -0.0000009575  -0.0000001888   0.0000007300
       -0.0000013112  -0.0000032839   0.0000009658   0.0000010494  -0.0000017885
        0.0000003686   0.0000021022  -0.0000024286   0.0000000412   0.0000035468
       -0.0000017604   0.0000002503   0.0000033802  -0.0000007403   0.0000003221
        0.0000022300   0.0000002787  -0.0000000195   0.0000020773   0.0000020948
       -0.0000006987  -0.0000000353   0.0000010028  -0.0000017156  -0.0000004602
       -0.0000006588  -0.0000000307   0.0000011042   0.0000013918  -0.0000001961
        0.0000010884   0.0000014918  -0.0000011413   0.0000041241   0.0000012641
       -0.0000001058   0.0000046349  -0.0000009656  -0.0000004049   0.0000026650
       -0.0000010914   0.0000002376   0.0000020718  -0.0000018412   0.0000007101
        0.0000007208  -0.0000005183   0.0000009874   0.0000006684  -0.0000031791
        0.0000058332  -0.0000008994  -0.0000008346  -0.0000021887  -0.0000053443
        0.0000001677   0.0000009863  -0.0000021835   0.0000005029  -0.0000003934
       -0.0000008154   0.0000016833  -0.0000001269   0.0000005001   0.0000028728
       -0.0000008735   0.0000020558   0.0000012581  -0.0000008706   0.0000004285
        0.0000017594  -0.0000006983   0.0000010656   0.0000093572   0.0000004413
        0.0000030116  -0.0005660868   0.0000883799   0.0082883137  -0.0012854035
       -0.0016842981   0.0007437629
       -0.3258304708   0.0384973328  -0.0169460898   0.6494706312   0.0108506090
        0.0342062836  -0.1543190969   0.0657078532  -0.0059693620   0.0523320483
        0.0309374172   0.0032030305   0.0020078324  -0.0079821118  -0.0004218102
        0.0011006044   0.0026807540   0.0000094286   0.0008527556  -0.0017570588
        0.0001908446   0.0002050813   0.0002753268  -0.0000248330  -0.0001630759
        0.0000986233   0.0000014599  -0.0000655980   0.0000406359   0.0000055685
       -0.0000310016  -0.0000147137  -0.0000000390   0.0001173836   0.0000126802
       -0.0000092816   0.0001267938  -0.0001801717  -0.0000078101  -0.0007413855
        0.0006986528  -0.0000992474   0.0008202864  -0.0010013984   0.0000895973
       -0.0002867877  -0.0000221094   0.0000015121   0.0000276954  -0.0001263409
       -0.0000143249   0.0000029306  -0.0002267079   0.0000032755  -0.0001187996
        0.0001736393  -0.0000262233   0.0001006667  -0.0000027944   0.0000655328
       -0.0000191195  -0.0000067352  -0.0000222927   0.0000181916  -0.0000099514
        0.0000180221  -0.0000025626   0.0000112404   0.0000063086  -0.0000027785
       -0.0000109237  -0.0000035918  -0.0000005961   0.0000315831   0.0000133842
       -0.0000238037   0.0000129793  -0.0000212604   0.0000105866  -0.0000032687
        0.0000053749  -0.0000102894   0.0000038442  -0.0000094334   0.0000012916
       -0.0000234258  -0.0000123569   0.0000135355   0.0000103770   0.0000297293
       -0.0000337058  -0.0000982545  -0.0000504715   0.0002529011   0.0000098632
       -0.0000026973  -0.0002920104   0.0000164901   0.0000051855   0.0000773031
       -0.0001168469  -0.0000521308  -0.0000142386   0.0000218968   0.0000236745
        0.0000253970  -0.0000113598  -0.0000144254  -0.0000150188  -0.0000102953
       -0.0000080481   0.0000101291   0.0000138863   0.0000094218  -0.0000298238
       -0.0000241758  -0.0000210919  -0.0000216808   0.0000267890   0.0000272775
        0.0000032469  -0.0000161989  -0.0000073471  -0.0000165370   0.0000096475
        0.0000117188   0.0000226110   0.0000132837   0.0000206746  -0.0000059727
       -0.0000243126  -0.0000238569   0.0000719436   0.0001117332   0.0000459995
        0.0000167606   0.0002314235  -0.0000072690  -0.0001250919  -0.0001322297
        0.0000257540  -0.0000019371   0.0000608890   0.0000189837   0.0000335625
        0.0000321757  -0.0000675041   0.0000008406   0.0000371842   0.0000330667
       -0.0000027312  -0.0000056785   0.0000145927   0.0000037457  -0.0000152302
       -0.0000067191  -0.0000159056   0.0000094658   0.0000259770  -0.0000105026
       -0.0000457351  -0.0000053826   0.0000072566   0.0000148736   0.0000006497
       -0.0000035300  -0.0000134905   0.0000021349   0.0000155439   0.0000115159
       -0.0000094573  -0.0000212745  -0.0000030419   0.0000208135   0.0001295906
        0.0000202534  -0.0000839448   0.0000398821   0.0000466061   0.0000610693
       -0.0021771977   0.0009135220  -0.0000049984  -0.0456585241   0.0296055957
       -0.0023344988  -0.0346585080  -0.0829122514  -0.0031417070  -0.0171576138
        0.0023373520  -0.0012296688  -0.1082893434  -0.1117296276  -0.0060799617
       -0.0172377792   0.0251838285  -0.0009290670  -0.0000679373  -0.0000073481
       -0.0000041355   0.0000367421   0.0000246381  -0.0000068017   0.0000100148
        0.0000200235  -0.0000058071  -0.0000014875   0.0000280393  -0.0000025838
        0.0000017255  -0.0000238918  -0.0000052474   0.0000188923   0.0000036514
        0.0000112703   0.0000028399   0.0000041414   0.0000082668  -0.0000043170
       -0.0000022195  -0.0000029321  -0.0000066688   0.0000034782  -0.0000031109
       -0.0000044387   0.0000064087   0.0000011893  -0.0000041732   0.0000069897
       -0.0000013899   0.0000006066   0.0000074184   0.0000020418   0.0000043030
        0.0000008539   0.0000006269  -0.0000031657   0.0000027415  -0.0000112703
        0.0000011873  -0.0000049189  -0.0000043126   0.0000014741   0.0000060295
        0.0000059494  -0.0000050878   0.0000050598   0.0000070559  -0.0000094614
        0.0000017192   0.0000016271  -0.0000112689   0.0000010217   0.0000044653
       -0.0000110317  -0.0000029114  -0.0000017934  -0.0000015945  -0.0000033765
       -0.0000020834   0.0000016525   0.0000053586   0.0000102107   0.0000144980
       -0.0000349377   0.0000556032  -0.0000094812   0.0000189492   0.0000082548
       -0.0000180455  -0.0000207973  -0.0000010521  -0.0000159364  -0.0000102227
        0.0000081372  -0.0000095151  -0.0000066646   0.0000046163  -0.0000088752
       -0.0000001936   0.0000105910  -0.0000050799   0.0000048067   0.0000095179
        0.0000027315  -0.0000017195  -0.0000041861   0.0001596436  -0.0000360062
       -0.0000813689  -0.0000634524   0.0006557598   0.0000365472  -0.0005100295
       -0.0028972644  -0.0005760383
       -0.0409868097  -0.0959998019  -0.0031878825   0.0108506090   0.6723851011
        0.0066137675   0.1432358991  -0.2789590060   0.0067222161  -0.0244861016
       -0.0661665700  -0.0022116408  -0.0047289865  -0.0015756977  -0.0004627076
        0.0001709166  -0.0024944114   0.0000634160  -0.0005675415  -0.0001264694
        0.0000230888   0.0000686931  -0.0000962650   0.0000055477  -0.0000550585
        0.0000025041   0.0000021809   0.0000169366   0.0000065043  -0.0000019924
        0.0000220228  -0.0000213365  -0.0000002758  -0.0000127247  -0.0000154522
       -0.0000005478  -0.0000135039  -0.0000199642   0.0000014445   0.0003466356
        0.0001734179  -0.0000118961   0.0000479827  -0.0002187687   0.0000161763
       -0.0000991576   0.0000478456   0.0000028881   0.0000079053  -0.0000498413
        0.0000049838  -0.0000262693  -0.0000308436  -0.0000033697   0.0000010990
       -0.0000046847   0.0000073011   0.0000015152   0.0000018870  -0.0000024075
       -0.0000029462   0.0000010373  -0.0000000516  -0.0000051188   0.0000035253
       -0.0000020177  -0.0000008319   0.0000010781   0.0000019752  -0.0000011781
       -0.0000006779  -0.0000006366   0.0000002486   0.0000021687   0.0000003735
       -0.0000002825   0.0000021522  -0.0000003995   0.0000013655  -0.0000006292
        0.0000021700  -0.0000012976   0.0000011914  -0.0000009918  -0.0000001109
        0.0000069579   0.0000032623  -0.0000028551   0.0000030580   0.0000012418
       -0.0000000589  -0.0000000124  -0.0000017917   0.0000459716   0.0000098025
       -0.0000062681  -0.0000133272  -0.0000064930   0.0000002520  -0.0000005606
       -0.0000030302   0.0000020570  -0.0000001190   0.0000025293   0.0000037766
       -0.0000028199   0.0000019825   0.0000016913  -0.0000042073  -0.0000030547
       -0.0000025919  -0.0000009788   0.0000041534   0.0000038350   0.0000001662
       -0.0000028285  -0.0000024770  -0.0000058266   0.0000028904   0.0000028815
       -0.0000001648  -0.0000043283  -0.0000025452  -0.0000034352   0.0000004523
        0.0000014162  -0.0000072865  -0.0000045361   0.0000004272  -0.0000036290
       -0.0000066665  -0.0000011847   0.0000081723   0.0000145990   0.0000005492
        0.0000067428   0.0000575867  -0.0000093210   0.0000045590  -0.0000204416
       -0.0000236269  -0.0000077428   0.0000389175   0.0000157509   0.0000057079
        0.0000152402  -0.0000208713  -0.0000032292  -0.0000254784   0.0000181415
        0.0000036916  -0.0000214076   0.0000107438  -0.0000050684  -0.0000081786
        0.0000020453  -0.0000114720  -0.0000106644   0.0000096982  -0.0000005590
       -0.0000000588   0.0000017681  -0.0000014966  -0.0000003893   0.0000038583
        0.0000001150  -0.0000097684  -0.0000035341  -0.0000042427  -0.0000031649
        0.0000011653  -0.0000039503   0.0000053795   0.0000046845   0.0000075495
       -0.0000075947  -0.0000038385  -0.0000117680   0.0000329487   0.0000101656
       -0.0000357861   0.0010775831   0.0000522469   0.0291527844  -0.0136581194
        0.0017908973  -0.0263612250   0.0287421584  -0.0014244167   0.0260097930
       -0.0017877143   0.0016468575  -0.1118669909  -0.2363220652  -0.0093362728
        0.0019945144  -0.0012267532   0.0000131603   0.0000691867  -0.0000026010
       -0.0000025098  -0.0000028633  -0.0000115757   0.0000010289  -0.0000023341
       -0.0000102363   0.0000004821  -0.0000026353  -0.0000109895   0.0000009979
       -0.0000068980  -0.0000083050   0.0000012328  -0.0000023023   0.0000011047
        0.0000041668   0.0000049458   0.0000000991   0.0000017665   0.0000020930
        0.0000014978   0.0000017808   0.0000028602  -0.0000001547   0.0000018396
        0.0000024590  -0.0000016114   0.0000007601   0.0000024292  -0.0000021482
        0.0000010979   0.0000017624  -0.0000045113  -0.0000008029  -0.0000009699
       -0.0000029750  -0.0000023152   0.0000001938  -0.0000039764  -0.0000004746
        0.0000019032  -0.0000019959  -0.0000015011   0.0000009203  -0.0000022345
       -0.0000017730   0.0000023755  -0.0000014124  -0.0000010073   0.0000008925
        0.0000010558   0.0000003363   0.0000013674   0.0000007370  -0.0000003187
        0.0000006197   0.0000024944   0.0000004169  -0.0000009319   0.0000026181
       -0.0000014947   0.0000090908   0.0000077620   0.0000016800   0.0000272094
        0.0000191401   0.0000079482  -0.0000035468   0.0000209132  -0.0000191708
       -0.0000115635  -0.0000077643  -0.0000035038  -0.0000042705   0.0000008614
       -0.0000005923  -0.0000042577  -0.0000002993   0.0000019165   0.0000007602
        0.0000016960  -0.0000008660   0.0000032106  -0.0000000924  -0.0000030623
        0.0000036639  -0.0000025008  -0.0000033150   0.0000673781   0.0000389076
       -0.0000111618   0.0005614197   0.0003863559   0.0000087192  -0.0033890455
       -0.0041413432  -0.0003268476
       -0.0178360660   0.0020071870  -0.0508116552   0.0342062836   0.0066137675
        0.1190661352  -0.0054406970   0.0018278353  -0.0474572551   0.0033103335
        0.0013691601   0.0022995691  -0.0004790060  -0.0005941681   0.0080537660
        0.0001728598  -0.0000471721  -0.0001263814  -0.0000518936  -0.0001554569
       -0.0009272707   0.0000231205   0.0000112825   0.0000612162  -0.0000152012
        0.0000056476  -0.0000005124  -0.0000044132   0.0000058492  -0.0000060250
       -0.0000021672  -0.0000039862   0.0000036618   0.0000090074  -0.0000005957
       -0.0000041363   0.0000076703  -0.0000156444   0.0000251905   0.0000122488
        0.0000932136   0.0003308204   0.0000363481  -0.0001528615  -0.0003971633
       -0.0000205040   0.0000062186   0.0000834774   0.0000067744  -0.0000153168
        0.0000093775   0.0000021633  -0.0000227748  -0.0000113745  -0.0000089135
        0.0000115366  -0.0000030337   0.0000077483  -0.0000002235   0.0000025208
       -0.0000015117  -0.0000020809  -0.0000017807   0.0000034272  -0.0000014040
       -0.0000019621   0.0000031274   0.0000014985  -0.0000041742   0.0000014217
       -0.0000015693  -0.0000063135   0.0000000415   0.0000015912  -0.0000006697
       -0.0000023102  -0.0000001069  -0.0000025630   0.0000009959  -0.0000002213
       -0.0000034247  -0.0000026728   0.0000000155  -0.0000014981  -0.0000012319
       -0.0000015212  -0.0000016824  -0.0000000330   0.0000000222   0.0000020053
       -0.0000029780  -0.0000068484  -0.0000050504   0.0000250647   0.0000051835
       -0.0000025306  -0.0000239779   0.0000025469   0.0000047115   0.0000056191
       -0.0000095459  -0.0000062561  -0.0000023128   0.0000016622  -0.0000003034
       -0.0000006095  -0.0000011125  -0.0000036105  -0.0000023568  -0.0000015018
       -0.0000032159   0.0000011348   0.0000031897  -0.0000042026  -0.0000051250
       -0.0000010199  -0.0000063061  -0.0000011559   0.0000017430   0.0000008733
        0.0000020344  -0.0000059673  -0.0000052844   0.0000012043   0.0000016286
       -0.0000007893   0.0000022003  -0.0000010175  -0.0000032495   0.0000033697
       -0.0000037819  -0.0000036958   0.0000015853   0.0000072581  -0.0000027704
        0.0000010890   0.0000175587  -0.0000120342  -0.0000147785   0.0000024970
        0.0000223682  -0.0000030652  -0.0000141990  -0.0000142712   0.0000054008
       -0.0000003404  -0.0000054442   0.0000175149  -0.0000025262  -0.0000204781
        0.0000013433   0.0000020538   0.0000067373   0.0000011369  -0.0000095449
       -0.0000030472  -0.0000016754   0.0000075596   0.0000060882  -0.0000046761
       -0.0000070766  -0.0000014159  -0.0000017776   0.0000044787  -0.0000025738
        0.0000000044  -0.0000007220   0.0000011557  -0.0000011599  -0.0000001509
       -0.0000022723  -0.0000009159  -0.0000007370   0.0000055290   0.0000067308
        0.0000098340  -0.0000088146  -0.0000030135   0.0000113148   0.0000083974
       -0.0002564814   0.0002676087  -0.0006430036  -0.0023192328   0.0018235915
       -0.0058591382  -0.0025669956  -0.0051276052   0.0012719956  -0.0009620492
        0.0001204762   0.0014064650  -0.0060540155  -0.0093529935  -0.0353154693
       -0.0012190000   0.0015690410   0.0014369497  -0.0000016574  -0.0000014982
        0.0000099359   0.0000019157   0.0000017539   0.0000043439   0.0000009750
        0.0000015720   0.0000073889  -0.0000012225   0.0000021652   0.0000001474
        0.0000004531  -0.0000027841   0.0000042750   0.0000015769   0.0000011300
        0.0000042336   0.0000003901   0.0000001573  -0.0000015865   0.0000032041
       -0.0000015566  -0.0000029021   0.0000018304  -0.0000014542  -0.0000041866
        0.0000005004  -0.0000002258  -0.0000037183  -0.0000009580   0.0000006631
       -0.0000039372  -0.0000018483   0.0000013188  -0.0000022190  -0.0000009521
        0.0000005140  -0.0000017879  -0.0000011329  -0.0000004109  -0.0000026165
       -0.0000024872   0.0000007835  -0.0000026655  -0.0000023213   0.0000017720
       -0.0000041672  -0.0000019623   0.0000005350  -0.0000038403  -0.0000006174
        0.0000005224  -0.0000038426  -0.0000008746  -0.0000004628  -0.0000043438
        0.0000014065  -0.0000008834  -0.0000039051   0.0000025427   0.0000000542
       -0.0000011673   0.0000015911  -0.0000003777  -0.0000008826   0.0000055168
       -0.0000077778   0.0000021960   0.0000030144   0.0000050907   0.0000176673
        0.0000017310   0.0000011630   0.0000005924  -0.0000058857  -0.0000021141
        0.0000031487  -0.0000021657  -0.0000006962  -0.0000024311  -0.0000030826
        0.0000008266  -0.0000011159  -0.0000041255   0.0000017636  -0.0000026268
       -0.0000015475   0.0000016802  -0.0000019038   0.0000040117   0.0000044929
       -0.0000129291   0.0000130767   0.0000458538  -0.0002491324  -0.0005759263
       -0.0003058275   0.0078590711
       -0.0368754611   0.0255463403  -0.0022075613  -0.1543190969   0.1432358991
       -0.0054406970   0.6710718502  -0.0203157824   0.0355375737  -0.1522761924
       -0.1270943851  -0.0072630201   0.0124651168   0.0031839010   0.0009133839
       -0.0009505605   0.0065151452  -0.0002479839   0.0008853097  -0.0012269724
       -0.0000678930   0.0000978989   0.0007269792  -0.0000303346  -0.0003416107
        0.0001374898   0.0000139741  -0.0000753057   0.0000646844   0.0000101548
       -0.0000363823  -0.0000366990   0.0000016426   0.0001268358   0.0000135294
       -0.0000077529   0.0003210962  -0.0002046287  -0.0000058254  -0.0004684805
        0.0010749741   0.0000460109   0.0017753645  -0.0014006277   0.0000274125
       -0.0005430295   0.0000673987  -0.0000218112   0.0000514654  -0.0003393729
        0.0000226704  -0.0000008415  -0.0003146074   0.0000007070  -0.0001316755
        0.0001846069  -0.0000214381   0.0001234616  -0.0000027437   0.0000893715