 Entering Gaussian System
 *********************************************
 Gaussian 98:
 frequency output generated by the xtb code
 *********************************************
                         Standard orientation:
 --------------------------------------------------------------------
  Center     Atomic     Atomic              Coordinates (Angstroms)
  Number     Number      Type              X           Y           Z
 --------------------------------------------------------------------
    1          6             0       -7.132796    1.279323   -5.088103
    2          6             0       -6.449294    0.923699   -3.801963
    3          6             0       -5.830070    1.893997   -3.023441
    4          6             0       -5.226007    1.572266   -1.823675
    5          6             0       -5.216603    0.254291   -1.368897
    6          7             0       -4.609197   -0.078237   -0.152826
    7          6             0       -5.172331   -1.064111    0.667435
    8          6             0       -6.556559   -1.183197    0.792458
    9          6             0       -7.102808   -2.159813    1.600105
   10          6             0       -6.296331   -3.039970    2.314803
   11          6             0       -6.908502   -4.100136    3.180428
   12          6             0       -4.918609   -2.912894    2.190438
   13          6             0       -4.359228   -1.945800    1.377492
   14          6             0       -3.444601    0.582371    0.254744
   15          6             0       -2.449943    0.913813   -0.665164
   16          6             0       -1.306378    1.563044   -0.251567
   17          6             0       -1.100655    1.908075    1.083321
   18          6             0        0.192034    2.626309    1.460313
   19          6             0        1.312719    1.728694    0.952466
   20          6             0        1.517824    0.495051    1.568137
   21          6             0        2.496803   -0.377997    1.142719
   22          6             0        3.305304   -0.056696    0.053274
   23          7             0        4.307991   -0.929763   -0.382711
   24          6             0        5.523787   -0.416446   -0.850526
   25          6             0        6.187419   -1.016990   -1.919252
   26          6             0        7.391256   -0.510132   -2.368799
   27          6             0        7.965709    0.610544   -1.781431
   28          6             0        9.259586    1.175816   -2.285647
   29          6             0        7.295597    1.209598   -0.720008
   30          6             0        6.097826    0.706376   -0.254135
   31          6             0        4.096022   -2.313516   -0.353619
   32          6             0        5.132934   -3.185014   -0.020635
   33          6             0        4.920933   -4.548820   -0.003321
   34          6             0        3.675142   -5.089063   -0.304257
   35          6             0        3.463456   -6.573323   -0.302108
   36          6             0        2.643613   -4.215413   -0.626264
   37          6             0        2.845192   -2.849194   -0.657256
   38          6             0        3.079325    1.153296   -0.597477
   39          6             0        2.100507    2.022966   -0.155004
   40          6             0        0.158044    4.027623    0.814876
   41          6             0        1.358437    4.898863    1.185486
   42          6             0        1.500143    5.028942    2.697129
   43          6             0        1.579758    3.640599    3.320353
   44          6             0        0.322750    2.846106    2.978505
   45          6             0       -2.092396    1.566287    1.993914
   46          6             0       -3.245726    0.918686    1.591095
   47          6             0       -5.828265   -0.725632   -2.150936
   48          6             0       -6.437786   -0.389010   -3.342757
   49          1             0       -6.748406    2.215311   -5.486480
   50          1             0       -6.992881    0.495003   -5.829399
   51          1             0       -8.204856    1.395648   -4.922045
   52          1             0       -5.826917    2.922793   -3.355568
   53          1             0       -4.758445    2.343353   -1.228396
   54          1             0       -7.199158   -0.502073    0.253174
   55          1             0       -8.177789   -2.235639    1.685830
   56          1             0       -6.158011   -4.566531    3.813831
   57          1             0       -7.364709   -4.873873    2.561891
   58          1             0       -7.688487   -3.677023    3.811480
   59          1             0       -4.268558   -3.586693    2.731020
   60          1             0       -3.285213   -1.867282    1.287652
   61          1             0       -2.579293    0.652597   -1.705759
   62          1             0       -0.544782    1.789086   -0.983529
   63          1             0        0.896389    0.199365    2.400108
   64          1             0        2.639586   -1.319823    1.652773
   65          1             0        5.752932   -1.884838   -2.394490
   66          1             0        7.889170   -0.992548   -3.198300
   67          1             0        9.878851    1.518469   -1.458800
   68          1             0        9.066804    2.030567   -2.935593
   69          1             0        9.811646    0.433197   -2.856695
   70          1             0        7.725135    2.079547   -0.243003
   71          1             0        5.598303    1.178430    0.579712
   72          1             0        6.105386   -2.783716    0.226231
   73          1             0        5.737457   -5.207459    0.257759
   74          1             0        2.409071   -6.815175   -0.191550
   75          1             0        4.021058   -7.042030    0.506392
   76          1             0        3.813818   -7.001937   -1.242261
   77          1             0        1.665756   -4.608949   -0.866452
   78          1             0        2.031821   -2.187151   -0.918142
   79          1             0        3.674877    1.410089   -1.462113
   80          1             0        1.953802    2.934816   -0.711429
   81          1             0       -0.753629    4.521975    1.163278
   82          1             0        0.077915    3.945689   -0.269919
   83          1             0        1.232880    5.886630    0.734345
   84          1             0        2.277181    4.464809    0.789287
   85          1             0        2.395619    5.605998    2.938867
   86          1             0        0.637392    5.561405    3.105809
   87          1             0        1.675215    3.721711    4.405907
   88          1             0        2.461015    3.116472    2.942816
   89          1             0       -0.542956    3.413846    3.326898
   90          1             0        0.338049    1.893718    3.508160
   91          1             0       -1.987392    1.803580    3.040385
   92          1             0       -4.004336    0.669942    2.319529
   93          1             0       -5.821107   -1.753274   -1.816964
   94          1             0       -6.906228   -1.163498   -3.933956
 --------------------------------------------------------------------
     1 basis functions        1 primitive gaussians
     1 alpha electrons        1 beta electrons
 
 Harmonic frequencies (cm**-1), IR intensities (km*mol⁻¹),
 Raman scattering activities (A**4/amu), Raman depolarization ratios,
 reduced masses (AMU), force constants (mDyne/A) and normal coordinates:
                      1                      2                      3
                        a                      a                      a 
 Frequencies --     4.0613                 6.7585                 8.6569
 Red. masses --    10.5773                10.5809                10.8015
 Frc consts  --     0.0000                 0.0000                 0.0000
 IR Inten    --     0.0147                 0.0418                 0.0442
 Raman Activ --     0.0000                 0.0000                 0.0000
 Depolar     --     0.0000                 0.0000                 0.0000
 Atom AN      X      Y      Z        X      Y      Z        X      Y      Z
   1   6    -0.19   0.12   0.13    -0.04   0.20   0.04    -0.17   0.16   0.10
   2   6    -0.14   0.09   0.09    -0.03   0.15   0.02    -0.15   0.12   0.07
   3   6    -0.13   0.07   0.10    -0.02   0.12   0.05    -0.09   0.08   0.07
   4   6    -0.08   0.04   0.07    -0.01   0.07   0.03    -0.07   0.05   0.05
   5   6    -0.04   0.03   0.02    -0.01   0.06  -0.01    -0.10   0.04   0.03
   6   7     0.01   0.00  -0.01    -0.00   0.01  -0.03    -0.08   0.00   0.00
   7   6     0.08  -0.05  -0.03     0.01  -0.02  -0.06    -0.09   0.02   0.01
   8   6     0.09  -0.10   0.02     0.01  -0.03  -0.06    -0.09   0.06   0.04
   9   6     0.15  -0.16   0.00     0.02  -0.06  -0.09    -0.10   0.08   0.05
  10   6     0.21  -0.15  -0.06     0.03  -0.08  -0.12    -0.11   0.05   0.03
  11   6     0.29  -0.21  -0.08     0.04  -0.12  -0.16    -0.13   0.07   0.04
  12   6     0.20  -0.10  -0.10     0.03  -0.07  -0.13    -0.11   0.00  -0.00
  13   6     0.14  -0.05  -0.09     0.02  -0.04  -0.10    -0.10  -0.01  -0.01
  14   6     0.01   0.02  -0.03    -0.00   0.00  -0.02    -0.05  -0.03  -0.01
  15   6    -0.02   0.06  -0.04    -0.00   0.02  -0.01    -0.06  -0.05  -0.03
  16   6    -0.02   0.07  -0.06    -0.00   0.01   0.00    -0.04  -0.07  -0.05
  17   6    -0.00   0.05  -0.06    -0.01  -0.01   0.01    -0.01  -0.07  -0.06
  18   6    -0.00   0.06  -0.07    -0.01  -0.01   0.02    -0.00  -0.07  -0.08
  19   6    -0.01   0.04  -0.05    -0.00  -0.01   0.03    -0.01  -0.07  -0.09
  20   6    -0.04   0.04  -0.04     0.02   0.00   0.06     0.00  -0.07  -0.08
  21   6    -0.04   0.03  -0.02     0.03   0.01   0.06     0.02  -0.05  -0.06
  22   6    -0.02   0.01  -0.01     0.00  -0.01   0.04     0.03  -0.05  -0.04
  23   7    -0.03  -0.01   0.02     0.00  -0.01   0.04     0.08  -0.02  -0.01
  24   6    -0.00  -0.03   0.05    -0.03  -0.01  -0.04     0.07   0.01   0.03
  25   6     0.03  -0.05   0.08    -0.07  -0.04  -0.05     0.13   0.03   0.06
  26   6     0.05  -0.07   0.12    -0.10  -0.04  -0.13     0.14   0.06   0.11
  27   6     0.05  -0.08   0.13    -0.09  -0.01  -0.21     0.08   0.08   0.12
  28   6     0.08  -0.11   0.18    -0.12  -0.01  -0.29     0.08   0.12   0.17
  29   6     0.03  -0.06   0.11    -0.04   0.02  -0.19     0.02   0.07   0.09
  30   6    -0.00  -0.04   0.07    -0.01   0.02  -0.11     0.02   0.03   0.05
  31   6    -0.05  -0.01   0.01     0.04  -0.01   0.10     0.11  -0.03  -0.00
  32   6    -0.08  -0.03   0.04     0.07   0.03   0.11     0.13   0.01   0.03
  33   6    -0.11  -0.02   0.04     0.10   0.02   0.18     0.17  -0.00   0.04
  34   6    -0.11   0.00   0.02     0.10  -0.02   0.24     0.19  -0.04   0.01
  35   6    -0.14   0.01   0.02     0.14  -0.02   0.31     0.24  -0.05   0.02
  36   6    -0.08   0.02  -0.01     0.07  -0.06   0.23     0.18  -0.08  -0.02
  37   6    -0.06   0.02  -0.01     0.04  -0.05   0.16     0.14  -0.07  -0.03
  38   6     0.01   0.01  -0.02    -0.03  -0.03   0.01     0.02  -0.06  -0.06
  39   6     0.02   0.03  -0.04    -0.03  -0.03   0.01    -0.00  -0.07  -0.08
  40   6     0.00   0.05  -0.10     0.00  -0.01   0.03    -0.01  -0.08  -0.10
  41   6    -0.00   0.06  -0.11     0.01  -0.03   0.03    -0.01  -0.07  -0.12
  42   6    -0.01   0.09  -0.11     0.00  -0.02   0.03     0.01  -0.05  -0.12
  43   6    -0.01   0.10  -0.08    -0.02  -0.02   0.04     0.02  -0.05  -0.11
  44   6    -0.00   0.09  -0.07    -0.03  -0.01   0.03     0.02  -0.05  -0.09
  45   6     0.03   0.02  -0.04    -0.00  -0.04   0.00     0.00  -0.06  -0.04
  46   6     0.03  -0.00  -0.03    -0.00  -0.03  -0.01    -0.01  -0.04  -0.02
  47   6    -0.05   0.04   0.01    -0.02   0.09  -0.05    -0.15   0.07   0.03
  48   6    -0.09   0.07   0.04    -0.03   0.13  -0.03    -0.17   0.11   0.05
  49   1    -0.06   0.03   0.04    -0.01   0.06   0.02    -0.05   0.05   0.03
  50   1    -0.07   0.04   0.03    -0.02   0.06   0.00    -0.05   0.05   0.02
  51   1    -0.05   0.04   0.05    -0.01   0.06   0.02    -0.05   0.04   0.04
  52   1    -0.05   0.02   0.04    -0.01   0.04   0.03    -0.02   0.03   0.02
  53   1    -0.02   0.01   0.02    -0.00   0.01   0.02    -0.01   0.01   0.01
  54   1     0.01  -0.03   0.02    -0.00  -0.00  -0.01    -0.02   0.03   0.02
  55   1     0.05  -0.06   0.01     0.01  -0.02  -0.02    -0.03   0.03   0.02
  56   1     0.10  -0.06  -0.04     0.01  -0.04  -0.05    -0.04   0.01   0.01
  57   1     0.08  -0.06  -0.03     0.02  -0.03  -0.05    -0.05   0.02   0.02
  58   1     0.09  -0.07  -0.01     0.01  -0.04  -0.04    -0.03   0.03   0.02
  59   1     0.07  -0.03  -0.04     0.01  -0.02  -0.04    -0.03  -0.01  -0.01
  60   1     0.04  -0.00  -0.04     0.00  -0.01  -0.03    -0.03  -0.01  -0.01
  61   1    -0.01   0.02  -0.01    -0.00   0.01  -0.00    -0.02  -0.01  -0.01
  62   1    -0.01   0.03  -0.02    -0.00   0.01   0.00    -0.01  -0.02  -0.02
  63   1    -0.02   0.02  -0.01     0.01   0.00   0.02    -0.00  -0.02  -0.02
  64   1    -0.02   0.01  -0.00     0.02   0.01   0.02     0.01  -0.01  -0.01
  65   1     0.01  -0.01   0.02    -0.02  -0.02   0.00     0.05   0.00   0.01
  66   1     0.02  -0.03   0.04    -0.04  -0.02  -0.04     0.05   0.02   0.04
  67   1     0.01  -0.03   0.06    -0.02  -0.00  -0.10     0.01   0.03   0.06
  68   1     0.04  -0.04   0.04    -0.05  -0.00  -0.08     0.02   0.04   0.05
  69   1     0.03  -0.04   0.07    -0.05  -0.00  -0.10     0.03   0.04   0.05
  70   1     0.01  -0.02   0.03    -0.01   0.01  -0.07    -0.01   0.02   0.03
  71   1    -0.01  -0.01   0.01     0.01   0.01  -0.03    -0.01   0.01   0.01
  72   1    -0.02  -0.01   0.02     0.02   0.02   0.02     0.03   0.01   0.02
  73   1    -0.04  -0.01   0.02     0.04   0.02   0.05     0.05   0.01   0.02
  74   1    -0.04   0.01   0.00     0.04  -0.01   0.10     0.07  -0.02   0.01
  75   1    -0.04  -0.00   0.01     0.05   0.01   0.09     0.07  -0.01   0.00
  76   1    -0.04  -0.00   0.01     0.04  -0.02   0.09     0.07  -0.01   0.00
  77   1    -0.02   0.01  -0.01     0.02  -0.03   0.08     0.06  -0.03  -0.01
  78   1    -0.01   0.01  -0.01     0.00  -0.02   0.05     0.04  -0.03  -0.02
  79   1     0.01  -0.00  -0.00    -0.01  -0.01  -0.00     0.01  -0.02  -0.02
  80   1     0.01   0.01  -0.01    -0.01  -0.01  -0.00    -0.00  -0.02  -0.03
  81   1    -0.00   0.02  -0.03     0.00  -0.00   0.01    -0.00  -0.02  -0.03
  82   1     0.00   0.01  -0.03     0.00  -0.00   0.01    -0.01  -0.03  -0.03
  83   1    -0.00   0.01  -0.04     0.01  -0.01   0.01    -0.01  -0.02  -0.04
  84   1     0.00   0.02  -0.03     0.00  -0.01   0.01    -0.00  -0.02  -0.04
  85   1    -0.00   0.03  -0.03     0.00  -0.01   0.01     0.00  -0.01  -0.04
  86   1    -0.00   0.03  -0.04     0.00  -0.00   0.01     0.00  -0.02  -0.03
  87   1    -0.00   0.03  -0.02    -0.01  -0.01   0.01     0.01  -0.01  -0.03
  88   1    -0.00   0.03  -0.02    -0.01  -0.01   0.02     0.01  -0.01  -0.03
  89   1    -0.00   0.02  -0.02    -0.01  -0.00   0.00     0.01  -0.02  -0.02
  90   1     0.00   0.03  -0.02    -0.01  -0.00   0.01     0.01  -0.01  -0.02
  91   1     0.01   0.00  -0.01    -0.00  -0.02   0.00     0.01  -0.02  -0.01
  92   1     0.02  -0.01  -0.00    -0.00  -0.01  -0.00    -0.00  -0.01  -0.00
  93   1    -0.00   0.01  -0.01    -0.01   0.02  -0.02    -0.05   0.02   0.00
  94   1    -0.03   0.02   0.01    -0.01   0.05  -0.02    -0.06   0.04   0.02
                      4                      5                      6
                        a                      a                      a 
 Frequencies --    23.3746                30.4238                32.1507
 Red. masses --    10.5538                10.2026                10.2686
 Frc consts  --     0.0000                 0.0000                 0.0000
 IR Inten    --     0.2004                 1.3127                 0.1999
 Raman Activ --     0.0000                 0.0000                 0.0000
 Depolar     --     0.0000                 0.0000                 0.0000
 Atom AN      X      Y      Z        X      Y      Z        X      Y      Z
   1   6     0.11   0.18   0.08     0.23   0.08  -0.03     0.19  -0.05  -0.04
   2   6     0.09   0.10   0.07     0.15   0.06   0.01     0.11  -0.02   0.01
   3   6     0.10   0.05   0.12     0.08   0.06   0.07    -0.03   0.01   0.07
   4   6     0.08  -0.03   0.11     0.01   0.04   0.10    -0.09   0.04   0.11
   5   6     0.05  -0.05   0.05     0.01   0.03   0.06    -0.03   0.03   0.09
   6   7     0.04  -0.13   0.04    -0.02   0.03   0.09    -0.08   0.07   0.13
   7   6    -0.02  -0.09   0.02    -0.01   0.00   0.06    -0.06   0.03   0.08
   8   6    -0.03  -0.04  -0.03    -0.01  -0.08  -0.03    -0.06  -0.06  -0.02
   9   6    -0.10  -0.02  -0.05    -0.00  -0.12  -0.07    -0.06  -0.12  -0.09
  10   6    -0.16  -0.05  -0.02     0.00  -0.07  -0.02    -0.07  -0.09  -0.06
  11   6    -0.24  -0.03  -0.05     0.01  -0.12  -0.07    -0.06  -0.17  -0.16
  12   6    -0.15  -0.10   0.03     0.00   0.02   0.08    -0.06   0.01   0.06
  13   6    -0.09  -0.12   0.05    -0.00   0.05   0.11    -0.06   0.06   0.13
  14   6     0.05  -0.15   0.05    -0.01   0.02   0.07    -0.06   0.06   0.10
  15   6     0.05  -0.16   0.04    -0.01  -0.03   0.05    -0.09   0.07   0.07
  16   6     0.04  -0.13   0.02    -0.00  -0.03   0.01    -0.07   0.06   0.04
  17   6     0.03  -0.09   0.01     0.01   0.03  -0.00    -0.03   0.04   0.04
  18   6    -0.00  -0.01  -0.02     0.02   0.03  -0.05    -0.00   0.01   0.00
  19   6     0.04   0.04   0.01    -0.01  -0.02  -0.02    -0.03   0.01  -0.07
  20   6     0.08   0.05   0.03    -0.01   0.01   0.04    -0.03  -0.01  -0.11
  21   6     0.09   0.07   0.04    -0.03  -0.03   0.06    -0.04  -0.00  -0.15
  22   6     0.07   0.06   0.03    -0.04  -0.08   0.04    -0.06   0.03  -0.16
  23   7     0.06   0.05   0.01    -0.04  -0.10   0.07    -0.06   0.04  -0.19
  24   6     0.06   0.02  -0.01    -0.05  -0.04   0.07    -0.03   0.03  -0.11
  25   6     0.04  -0.02  -0.00    -0.06   0.05   0.02     0.06  -0.04  -0.02
  26   6     0.05  -0.06  -0.02    -0.10   0.14   0.00     0.11  -0.08   0.06
  27   6     0.08  -0.06  -0.04    -0.14   0.14   0.04     0.07  -0.06   0.04
  28   6     0.10  -0.11  -0.06    -0.20   0.25   0.02     0.14  -0.12   0.14
  29   6     0.10  -0.02  -0.06    -0.13   0.04   0.11    -0.02   0.02  -0.06
  30   6     0.09   0.02  -0.04    -0.08  -0.05   0.12    -0.07   0.07  -0.14
  31   6     0.01   0.05   0.00    -0.02  -0.09   0.03    -0.02   0.04  -0.10
  32   6    -0.02   0.02  -0.00     0.01  -0.09  -0.08    -0.03   0.08   0.04
  33   6    -0.07   0.02  -0.01     0.02  -0.10  -0.13    -0.01   0.08   0.13
  34   6    -0.09   0.07  -0.01     0.01  -0.10  -0.06     0.02   0.03   0.09
  35   6    -0.15   0.08  -0.02     0.02  -0.10  -0.11     0.04   0.03   0.20
  36   6    -0.06   0.11  -0.01    -0.03  -0.09   0.06     0.03  -0.01  -0.05
  37   6    -0.01   0.10  -0.00    -0.04  -0.09   0.11     0.01  -0.01  -0.15
  38   6     0.06   0.06   0.02    -0.05  -0.12  -0.02    -0.08   0.03  -0.13
  39   6     0.05   0.04   0.01    -0.03  -0.08  -0.05    -0.07   0.03  -0.09
  40   6    -0.10  -0.04  -0.09     0.03  -0.01  -0.12    -0.00   0.03   0.04
  41   6    -0.17   0.08  -0.12     0.05  -0.01  -0.19     0.03  -0.01   0.02
  42   6    -0.19   0.15  -0.12     0.07   0.07  -0.20     0.11  -0.06   0.01
  43   6    -0.07   0.18  -0.07     0.06   0.11  -0.12     0.11  -0.08  -0.03
  44   6    -0.01   0.06  -0.03     0.04   0.11  -0.06     0.07  -0.04   0.00
  45   6     0.06  -0.12   0.03     0.01   0.07   0.02    -0.00   0.04   0.07
  46   6     0.07  -0.15   0.04     0.00   0.06   0.05    -0.02   0.05   0.10
  47   6     0.04   0.00  -0.00     0.08   0.04   0.01     0.10  -0.00   0.03
  48   6     0.05   0.07   0.01     0.15   0.05  -0.02     0.17  -0.03  -0.01
  49   1     0.04   0.05   0.03     0.09   0.01  -0.01     0.08  -0.03  -0.02
  50   1     0.02   0.06   0.02     0.06   0.02  -0.00     0.05  -0.03   0.00
  51   1     0.03   0.07   0.03     0.07   0.05  -0.02     0.05   0.01  -0.03
  52   1     0.04   0.02   0.05     0.02   0.02   0.03    -0.02   0.01   0.02
  53   1     0.03  -0.02   0.05    -0.01   0.01   0.04    -0.06   0.02   0.05
  54   1     0.00  -0.00  -0.01    -0.01  -0.03  -0.02    -0.02  -0.02  -0.01
  55   1    -0.03   0.01  -0.03    -0.00  -0.05  -0.04    -0.02  -0.05  -0.05
  56   1    -0.08  -0.01   0.00    -0.01   0.00   0.02    -0.03  -0.01   0.00
  57   1    -0.06  -0.01  -0.02     0.06  -0.06  -0.03     0.06  -0.08  -0.07
  58   1    -0.08  -0.00  -0.03    -0.04  -0.06  -0.06    -0.08  -0.08  -0.09
  59   1    -0.06  -0.04   0.02     0.00   0.02   0.04    -0.02   0.01   0.03
  60   1    -0.02  -0.05   0.03    -0.00   0.03   0.05    -0.02   0.04   0.06
  61   1     0.01  -0.05   0.01    -0.01  -0.02   0.02    -0.04   0.02   0.02
  62   1     0.01  -0.04   0.00    -0.00  -0.02   0.00    -0.03   0.02   0.01
  63   1     0.02   0.02   0.01    -0.00   0.02   0.02    -0.00  -0.01  -0.03
  64   1     0.03   0.02   0.01    -0.01  -0.00   0.03    -0.01  -0.00  -0.05
  65   1     0.00  -0.01   0.00    -0.01   0.02  -0.01     0.03  -0.02  -0.00
  66   1     0.01  -0.03  -0.00    -0.03   0.06  -0.01     0.05  -0.04   0.04
  67   1     0.03  -0.03  -0.02    -0.04   0.05   0.00     0.01  -0.01   0.05
  68   1     0.03  -0.04  -0.03    -0.08   0.10   0.04     0.06  -0.05   0.01
  69   1     0.02  -0.04  -0.01    -0.06   0.10  -0.04     0.06  -0.05   0.08
  70   1     0.04  -0.01  -0.02    -0.04   0.01   0.04    -0.02   0.01  -0.02
  71   1     0.03   0.01  -0.01    -0.02  -0.04   0.05    -0.04   0.04  -0.06
  72   1    -0.00  -0.01  -0.00     0.01  -0.03  -0.04    -0.02   0.03   0.02
  73   1    -0.03  -0.00  -0.00     0.01  -0.03  -0.06    -0.01   0.03   0.07
  74   1    -0.04   0.03  -0.01     0.01  -0.03  -0.04     0.01   0.01   0.07
  75   1    -0.05   0.02  -0.00     0.01  -0.03  -0.03     0.02   0.03   0.06
  76   1    -0.05   0.02  -0.00     0.01  -0.02  -0.03     0.01  -0.01   0.06
  77   1    -0.02   0.04  -0.00    -0.01  -0.03   0.03     0.01  -0.01  -0.03
  78   1     0.00   0.04   0.00    -0.02  -0.02   0.06     0.00  -0.01  -0.07
  79   1     0.02   0.02   0.01    -0.02  -0.05  -0.01    -0.03   0.02  -0.04
  80   1     0.01   0.01   0.00    -0.01  -0.03  -0.03    -0.02   0.01  -0.02
  81   1    -0.04  -0.03  -0.03     0.01   0.01  -0.04     0.01   0.01   0.03
  82   1    -0.02  -0.03  -0.02     0.00  -0.02  -0.03    -0.02   0.02   0.01
  83   1    -0.07   0.01  -0.05     0.02  -0.01  -0.07     0.01   0.00   0.02
  84   1    -0.04   0.04  -0.03     0.01  -0.01  -0.05     0.00  -0.00  -0.01
  85   1    -0.07   0.07  -0.04     0.03   0.02  -0.07     0.04  -0.02  -0.00
  86   1    -0.07   0.03  -0.04     0.03   0.03  -0.06     0.04  -0.01   0.02
  87   1    -0.02   0.07  -0.02     0.02   0.05  -0.04     0.05  -0.03  -0.01
  88   1    -0.01   0.07  -0.02     0.01   0.02  -0.03     0.02  -0.02  -0.03
  89   1    -0.02   0.00  -0.01     0.02   0.04  -0.02     0.03  -0.01   0.02
  90   1     0.02   0.03   0.00     0.01   0.04  -0.00     0.02  -0.02  -0.01
  91   1     0.02  -0.03   0.01     0.01   0.03   0.00     0.01   0.01   0.02
  92   1     0.02  -0.05   0.02     0.00   0.03   0.02     0.00   0.01   0.04
  93   1     0.00  -0.00  -0.01     0.02   0.01  -0.00     0.04  -0.00   0.01
  94   1     0.01   0.03  -0.01     0.06   0.02  -0.02     0.08  -0.02  -0.02
                      7                      8                      9
                        a                      a                      a 
 Frequencies --    37.9596                40.8641                42.8961
 Red. masses --    10.0234                 9.7516                 5.7570
 Frc consts  --     0.0000                 0.0000                 0.0000
 IR Inten    --     1.6687                 1.0601                 0.8773
 Raman Activ --     0.0000                 0.0000                 0.0000
 Depolar     --     0.0000                 0.0000                 0.0000
 Atom AN      X      Y      Z        X      Y      Z        X      Y      Z
   1   6     0.03  -0.02  -0.02    -0.26  -0.24   0.10     0.19  -0.12  -0.12
   2   6     0.01  -0.00  -0.01    -0.14  -0.15   0.06     0.07  -0.01  -0.03
   3   6    -0.03   0.01   0.01    -0.19  -0.09   0.02     0.14  -0.01  -0.09
   4   6    -0.05   0.03   0.02    -0.11  -0.01   0.00     0.07   0.03  -0.04
   5   6    -0.03   0.03   0.02     0.02   0.00   0.02    -0.06   0.06   0.06
   6   7    -0.05   0.05   0.04     0.03   0.07   0.04    -0.08   0.10   0.08
   7   6    -0.03   0.03   0.03    -0.01   0.07   0.02    -0.05   0.05   0.05
   8   6    -0.02  -0.02  -0.01    -0.02   0.13  -0.01    -0.04   0.12   0.18
   9   6    -0.01  -0.04  -0.02    -0.08   0.09  -0.10    -0.01   0.06   0.13
  10   6     0.01  -0.01  -0.00    -0.14  -0.01  -0.17     0.01  -0.07  -0.06
  11   6     0.03  -0.05  -0.03    -0.20  -0.10  -0.32     0.03  -0.12  -0.11
  12   6     0.01   0.04   0.04    -0.13  -0.05  -0.11     0.01  -0.13  -0.18
  13   6    -0.01   0.06   0.05    -0.06  -0.01  -0.01    -0.02  -0.06  -0.12
  14   6    -0.04   0.05   0.03     0.03   0.06   0.03    -0.04   0.04   0.06
  15   6    -0.04   0.04   0.02    -0.02   0.14   0.00    -0.04   0.02   0.05
  16   6    -0.04   0.03   0.02    -0.01   0.13  -0.01    -0.02  -0.01   0.03
  17   6    -0.04   0.05   0.01     0.05   0.05   0.01     0.00  -0.02   0.03
  18   6    -0.03   0.05  -0.00     0.06   0.04  -0.00     0.00  -0.00   0.00
  19   6    -0.03   0.04   0.01     0.05   0.02   0.02     0.00  -0.00  -0.00
  20   6    -0.13  -0.01  -0.05     0.06   0.04   0.05     0.01   0.00   0.01
  21   6    -0.13  -0.02  -0.02     0.06   0.03   0.07     0.01   0.00   0.00
  22   6    -0.03   0.01   0.06     0.06   0.00   0.06     0.00  -0.00  -0.00
  23   7    -0.03   0.01   0.09     0.06  -0.01   0.09     0.00  -0.00  -0.00
  24   6    -0.03  -0.02   0.03     0.05  -0.01   0.05     0.00  -0.00  -0.00
  25   6    -0.14  -0.02  -0.04     0.01   0.00   0.02     0.00  -0.00  -0.00
  26   6    -0.12  -0.10  -0.07    -0.01   0.02  -0.02     0.01  -0.01   0.00
  27   6     0.01  -0.18  -0.03     0.01   0.01  -0.02     0.00  -0.00  -0.00
  28   6     0.04  -0.28  -0.06    -0.02   0.03  -0.06     0.01  -0.01   0.00
  29   6     0.10  -0.17   0.03     0.04  -0.01   0.01     0.00   0.00  -0.01
  30   6     0.08  -0.09   0.06     0.06  -0.02   0.05    -0.00   0.00  -0.01
  31   6     0.01  -0.00   0.07     0.03  -0.01   0.05     0.00  -0.00  -0.00
  32   6     0.06   0.05   0.07     0.03  -0.04  -0.02     0.00  -0.00  -0.01
  33   6     0.16   0.04  -0.02     0.00  -0.03  -0.06     0.00  -0.00  -0.01
  34   6     0.21  -0.03  -0.12    -0.02  -0.00  -0.03     0.00  -0.00  -0.00
  35   6     0.33  -0.05  -0.26    -0.04   0.00  -0.07     0.00  -0.00  -0.00
  36   6     0.16  -0.09  -0.09    -0.01   0.03   0.04     0.00  -0.00   0.00
  37   6     0.06  -0.07   0.00     0.01   0.03   0.08     0.00  -0.00   0.00
  38   6     0.07   0.06   0.12     0.05  -0.02   0.03    -0.01  -0.01  -0.01
  39   6     0.07   0.07   0.10     0.05  -0.01   0.01    -0.01  -0.01  -0.01
  40   6    -0.06   0.04  -0.02     0.09   0.03  -0.01    -0.02  -0.02  -0.02
  41   6    -0.11   0.11  -0.00     0.11   0.01  -0.02    -0.04   0.01  -0.05
  42   6    -0.14   0.12   0.00     0.10   0.03  -0.03    -0.02   0.04  -0.05
  43   6    -0.06   0.12  -0.01     0.07   0.04  -0.00     0.01   0.05  -0.03
  44   6    -0.03   0.06  -0.00     0.06   0.06  -0.00     0.03   0.02  -0.00
  45   6    -0.04   0.06   0.02     0.10  -0.04   0.03     0.02  -0.03   0.05
  46   6    -0.04   0.07   0.02     0.09  -0.03   0.04     0.00  -0.00   0.06
  47   6     0.01   0.01   0.01     0.10  -0.07   0.05    -0.15   0.06   0.13
  48   6     0.03  -0.00  -0.00     0.02  -0.15   0.07    -0.08   0.02   0.09
  49   1     0.01  -0.01  -0.01    -0.13  -0.05   0.03    -0.16   0.12   0.12
  50   1     0.01  -0.01  -0.00    -0.05  -0.06   0.02     0.36   0.10  -0.12
  51   1     0.01  -0.00  -0.01    -0.08  -0.12   0.04     0.00  -0.36  -0.14
  52   1    -0.01   0.00   0.00    -0.09  -0.03   0.00     0.07  -0.01  -0.05
  53   1    -0.02   0.01   0.01    -0.05   0.01  -0.01     0.04   0.01  -0.03
  54   1    -0.01  -0.01  -0.01     0.01   0.06   0.01    -0.02   0.06   0.09
  55   1    -0.00  -0.03  -0.01    -0.03   0.04  -0.04    -0.00   0.03   0.07
  56   1     0.00   0.02   0.02    -0.09   0.03  -0.01     0.05  -0.18  -0.19
  57   1     0.06  -0.04  -0.02     0.05  -0.07  -0.13    -0.17   0.08  -0.04
  58   1    -0.03  -0.03  -0.04    -0.15  -0.07  -0.18     0.15  -0.00   0.12
  59   1     0.01   0.02   0.02    -0.05  -0.04  -0.04     0.01  -0.07  -0.10
  60   1    -0.00   0.03   0.02    -0.02  -0.01   0.01    -0.01  -0.03  -0.06
  61   1    -0.01   0.01   0.01    -0.02   0.06  -0.00    -0.02   0.01   0.01
  62   1    -0.01   0.01   0.00    -0.01   0.05  -0.01    -0.01  -0.00   0.01
  63   1    -0.06  -0.01  -0.03     0.02   0.02   0.02     0.00   0.00   0.00
  64   1    -0.06  -0.02  -0.02     0.02   0.01   0.03     0.00   0.00   0.00
  65   1    -0.07   0.01  -0.02    -0.00   0.00   0.01     0.00  -0.00   0.00
  66   1    -0.06  -0.03  -0.03    -0.01   0.01  -0.01     0.00  -0.00   0.00
  67   1     0.00  -0.05  -0.03     0.01  -0.00  -0.02     0.00  -0.00   0.00
  68   1     0.02  -0.11  -0.06    -0.01   0.02  -0.00     0.00  -0.00  -0.00
  69   1     0.01  -0.11   0.02    -0.02   0.02  -0.04     0.00  -0.00   0.00
  70   1     0.06  -0.07   0.01     0.02  -0.00   0.00    -0.00   0.00  -0.00
  71   1     0.05  -0.03   0.03     0.03  -0.01   0.02    -0.00   0.00  -0.00
  72   1     0.01   0.03   0.04     0.01  -0.02  -0.01     0.00  -0.00  -0.00
  73   1     0.06   0.02  -0.01     0.00  -0.02  -0.03     0.00  -0.00  -0.00
  74   1     0.10  -0.04  -0.10    -0.01   0.00  -0.03     0.00  -0.00  -0.00
  75   1     0.10  -0.02  -0.08    -0.02  -0.01  -0.02    -0.00  -0.00  -0.00
  76   1     0.12   0.02  -0.08    -0.01   0.01  -0.02     0.00  -0.00  -0.00
  77   1     0.06  -0.04  -0.05    -0.01   0.02   0.02     0.00  -0.00   0.00
  78   1     0.01  -0.03   0.00     0.00   0.01   0.04     0.00  -0.00   0.00
  79   1     0.04   0.03   0.05     0.02  -0.01   0.01    -0.00  -0.00  -0.00
  80   1     0.04   0.03   0.04     0.01  -0.01  -0.00    -0.00  -0.00  -0.00
  81   1    -0.03   0.00  -0.02     0.03   0.02  -0.01    -0.01  -0.01  -0.01
  82   1    -0.00   0.00  -0.01     0.03   0.01  -0.00    -0.01  -0.01  -0.00
  83   1    -0.05   0.03  -0.00     0.04   0.00  -0.01    -0.02   0.00  -0.02
  84   1    -0.02   0.05   0.00     0.03  -0.01  -0.00    -0.01   0.01  -0.02
  85   1    -0.05   0.05   0.00     0.03   0.01  -0.01    -0.01   0.02  -0.02
  86   1    -0.05   0.02  -0.00     0.03   0.02  -0.01    -0.01   0.01  -0.02
  87   1    -0.02   0.03  -0.00     0.02   0.02  -0.00     0.01   0.02  -0.01
  88   1    -0.01   0.05  -0.00     0.02   0.01   0.00     0.01   0.02  -0.01
  89   1    -0.01   0.01   0.00     0.02   0.02  -0.00     0.01   0.00   0.00
  90   1     0.01   0.02  -0.00     0.01   0.02   0.00     0.02   0.01   0.00
  91   1    -0.01   0.02   0.00     0.04  -0.03   0.01     0.01  -0.01   0.02
  92   1    -0.01   0.02   0.01     0.04  -0.03   0.02     0.00  -0.00   0.02
  93   1     0.01   0.00   0.00     0.06  -0.02   0.02    -0.07   0.03   0.06
  94   1     0.02  -0.00  -0.00     0.02  -0.06   0.03    -0.04   0.01   0.04
                     10                     11                     12
                        a                      a                      a 
 Frequencies --    44.2427                45.6491                47.4729
 Red. masses --     4.1308                 7.3234                 6.6558
 Frc consts  --     0.0000                 0.0000                 0.0000
 IR Inten    --     0.3937                 0.3272                 0.7737
 Raman Activ --     0.0000                 0.0000                 0.0000
 Depolar     --     0.0000                 0.0000                 0.0000
 Atom AN      X      Y      Z        X      Y      Z        X      Y      Z
   1   6     0.01  -0.02   0.03    -0.09   0.05   0.09     0.07  -0.02  -0.05
   2   6     0.03  -0.05   0.02    -0.03   0.04   0.05     0.03  -0.02  -0.03
   3   6    -0.02  -0.02   0.03    -0.05   0.02   0.09     0.15  -0.03  -0.10
   4   6    -0.02  -0.01   0.03     0.00  -0.02   0.05     0.13  -0.01  -0.09
   5   6     0.04  -0.01   0.02     0.09  -0.05  -0.03    -0.01   0.02   0.01
   6   7     0.05  -0.01   0.02     0.12  -0.11  -0.06    -0.01   0.03   0.01
   7   6     0.02  -0.01   0.00     0.07  -0.06  -0.05    -0.01   0.03   0.02
   8   6     0.02   0.06   0.03     0.06  -0.04  -0.10    -0.00   0.13   0.16
   9   6    -0.01   0.06   0.01     0.01   0.01  -0.07     0.01   0.12   0.15
  10   6    -0.04  -0.02  -0.05    -0.03   0.05   0.03     0.02   0.01   0.00
  11   6    -0.10   0.04  -0.02    -0.08   0.12   0.08     0.05  -0.07  -0.07
  12   6    -0.04  -0.09  -0.09    -0.02   0.02   0.07     0.02  -0.09  -0.13
  13   6    -0.01  -0.09  -0.06     0.03  -0.04   0.04     0.00  -0.07  -0.12
  14   6     0.04  -0.01   0.02     0.08  -0.06  -0.03     0.01  -0.01   0.01
  15   6    -0.01   0.09   0.00     0.06   0.01  -0.03     0.02  -0.02   0.01
  16   6    -0.02   0.10  -0.00     0.03   0.05  -0.02     0.02  -0.03   0.02
  17   6     0.02   0.03   0.01     0.03   0.02  -0.01     0.02  -0.03   0.02
  18   6     0.02   0.04   0.00     0.01   0.04   0.00     0.01  -0.01   0.01
  19   6     0.00   0.03  -0.01     0.01   0.04  -0.01     0.01   0.01   0.00
  20   6    -0.03   0.01  -0.04    -0.04   0.01  -0.06     0.01   0.00  -0.02
  21   6    -0.06  -0.01  -0.06    -0.08  -0.01  -0.09    -0.00  -0.00  -0.04
  22   6    -0.05  -0.01  -0.05    -0.07  -0.01  -0.09    -0.02  -0.00  -0.06
  23   7    -0.07  -0.02  -0.07    -0.10  -0.02  -0.14    -0.05  -0.01  -0.12
  24   6    -0.05  -0.01  -0.04    -0.08  -0.00  -0.07    -0.04   0.01  -0.07
  25   6    -0.07   0.05  -0.08    -0.10   0.09  -0.14    -0.06   0.09  -0.13
  26   6    -0.06   0.05  -0.04    -0.08   0.09  -0.07    -0.04   0.09  -0.08
  27   6    -0.03  -0.00   0.04    -0.03  -0.01   0.07     0.01  -0.00   0.05
  28   6    -0.01  -0.01   0.09     0.01  -0.02   0.15     0.04  -0.02   0.12
  29   6    -0.02  -0.06   0.08    -0.01  -0.10   0.13     0.03  -0.08   0.11
  30   6    -0.03  -0.06   0.04    -0.04  -0.09   0.06     0.00  -0.07   0.05
  31   6    -0.03  -0.02  -0.04    -0.05  -0.02  -0.08    -0.02  -0.01  -0.08
  32   6     0.00   0.01  -0.07     0.00   0.02  -0.14     0.02   0.01  -0.17
  33   6     0.04   0.01  -0.04     0.05   0.02  -0.07     0.04   0.01  -0.10
  34   6     0.04  -0.03   0.03     0.03  -0.03   0.07     0.01  -0.01   0.06
  35   6     0.08  -0.03   0.08     0.08  -0.04   0.18     0.02  -0.01   0.16
  36   6     0.00  -0.06   0.06    -0.02  -0.08   0.11    -0.03  -0.03   0.13
  37   6    -0.03  -0.06   0.02    -0.06  -0.07   0.03    -0.05  -0.03   0.06
  38   6    -0.01   0.01  -0.02    -0.02   0.03  -0.04    -0.01   0.02  -0.03
  39   6     0.01   0.04  -0.00     0.02   0.05  -0.00     0.01   0.03   0.00
  40   6     0.01   0.04   0.00     0.01   0.05   0.02    -0.03  -0.01   0.01
  41   6    -0.00   0.06   0.00    -0.01   0.06   0.05    -0.06   0.03   0.01
  42   6    -0.01   0.06   0.00    -0.03   0.04   0.05    -0.07   0.04   0.01
  43   6     0.02   0.06  -0.00    -0.01   0.03   0.03    -0.02   0.04   0.01
  44   6     0.03   0.04   0.00     0.01   0.01   0.01     0.01  -0.00   0.01
  45   6     0.08  -0.08   0.03     0.05  -0.04  -0.02     0.02  -0.04   0.02
  46   6     0.09  -0.10   0.04     0.07  -0.08  -0.03     0.02  -0.03   0.01
  47   6     0.09  -0.03   0.00     0.13  -0.04  -0.08    -0.15   0.04   0.10
  48   6     0.08  -0.05   0.00     0.07   0.01  -0.04    -0.13   0.02   0.08
  49   1     0.19  -0.14  -0.13    -0.26   0.18   0.19     0.14  -0.09  -0.10
  50   1    -0.24  -0.13   0.09     0.24   0.16  -0.08    -0.12  -0.08   0.04
  51   1     0.04   0.27   0.08    -0.07  -0.32  -0.03     0.04   0.16   0.01
  52   1    -0.02  -0.01   0.01    -0.04   0.01   0.05     0.08  -0.02  -0.05
  53   1    -0.02   0.00   0.01    -0.01  -0.01   0.03     0.06  -0.01  -0.04
  54   1     0.01   0.03   0.02     0.03  -0.02  -0.05    -0.00   0.06   0.08
  55   1    -0.00   0.03   0.01     0.00   0.01  -0.03     0.00   0.06   0.07
  56   1     0.03  -0.24  -0.26    -0.04   0.06   0.06    -0.03   0.17   0.18
  57   1    -0.37   0.20   0.01     0.00   0.01   0.03     0.29  -0.17  -0.04
  58   1     0.23   0.11   0.25    -0.05   0.05  -0.01    -0.20  -0.10  -0.23
  59   1    -0.02  -0.05  -0.04    -0.02   0.01   0.04     0.01  -0.05  -0.07
  60   1    -0.00  -0.04  -0.03     0.01  -0.02   0.02    -0.00  -0.04  -0.06
  61   1    -0.01   0.04  -0.00     0.02   0.01  -0.01     0.01  -0.00   0.00
  62   1    -0.02   0.05  -0.01     0.01   0.03  -0.01     0.01  -0.01   0.01
  63   1    -0.01   0.00  -0.01    -0.01   0.00  -0.02     0.01  -0.00  -0.00
  64   1    -0.03  -0.01  -0.02    -0.03  -0.01  -0.03    -0.00  -0.00  -0.02
  65   1    -0.03   0.03  -0.04    -0.04   0.05  -0.07    -0.03   0.05  -0.06
  66   1    -0.02   0.03  -0.02    -0.03   0.05  -0.04    -0.02   0.05  -0.04
  67   1    -0.01  -0.00   0.03    -0.02   0.00   0.05    -0.01   0.01   0.04
  68   1     0.00  -0.00   0.02     0.02  -0.01   0.03     0.02  -0.02   0.01
  69   1     0.00  -0.00   0.03     0.02  -0.01   0.06     0.03  -0.01   0.06
  70   1     0.00  -0.03   0.04     0.01  -0.05   0.07     0.02  -0.04   0.06
  71   1    -0.01  -0.03   0.02    -0.01  -0.05   0.03     0.00  -0.04   0.03
  72   1     0.00   0.01  -0.04     0.00   0.02  -0.07     0.01   0.01  -0.08
  73   1     0.02   0.01  -0.02     0.03   0.02  -0.03     0.02   0.01  -0.05
  74   1     0.02  -0.02   0.03     0.02  -0.02   0.06     0.01  -0.00   0.06
  75   1     0.03   0.00   0.03     0.03   0.01   0.06     0.01   0.01   0.05
  76   1     0.02  -0.02   0.03     0.02  -0.03   0.06     0.00  -0.02   0.05
  77   1     0.00  -0.03   0.03    -0.01  -0.03   0.06    -0.01  -0.01   0.07
  78   1    -0.02  -0.02   0.01    -0.03  -0.03   0.02    -0.02  -0.01   0.03
  79   1    -0.00   0.00  -0.00    -0.00   0.01  -0.01    -0.00   0.01  -0.01
  80   1     0.01   0.02   0.01     0.02   0.02   0.01     0.01   0.01   0.01
  81   1     0.00   0.01   0.00    -0.00   0.01   0.01    -0.01  -0.01   0.00
  82   1     0.00   0.01   0.00     0.01   0.02   0.01    -0.01  -0.00   0.00
  83   1    -0.00   0.02   0.00    -0.01   0.02   0.02    -0.03   0.01   0.00
  84   1     0.00   0.02   0.00    -0.00   0.02   0.01    -0.01   0.02   0.00
  85   1    -0.00   0.02   0.00    -0.01   0.01   0.02    -0.03   0.02   0.00
  86   1    -0.00   0.01   0.00    -0.01   0.00   0.02    -0.03   0.00   0.00
  87   1     0.01   0.02  -0.00    -0.00   0.00   0.01    -0.00   0.01   0.00
  88   1     0.01   0.02  -0.00     0.00   0.01   0.01    -0.00   0.02   0.00
  89   1     0.01   0.00   0.00    -0.00  -0.00   0.00    -0.00  -0.01   0.01
  90   1     0.02   0.01  -0.00     0.01   0.00  -0.00     0.01  -0.00   0.00
  91   1     0.03  -0.04   0.01     0.01  -0.02  -0.00     0.01  -0.02   0.01
  92   1     0.04  -0.05   0.02     0.03  -0.04  -0.01     0.01  -0.01   0.00
  93   1     0.04  -0.01  -0.00     0.06  -0.02  -0.04    -0.08   0.02   0.05
  94   1     0.04  -0.02  -0.00     0.03   0.01  -0.02    -0.07   0.01   0.04
                     13                     14                     15
                        a                      a                      a 
 Frequencies --    51.7971                53.2528                59.6032
 Red. masses --     6.0241                 5.0267                 9.5100
 Frc consts  --     0.0000                 0.0000                 0.0000
 IR Inten    --     0.9416                 1.4238                 0.9414
 Raman Activ --     0.0000                 0.0000                 0.0000
 Depolar     --     0.0000                 0.0000                 0.0000
 Atom AN      X      Y      Z        X      Y      Z        X      Y      Z
   1   6     0.04   0.01   0.02     0.03   0.03   0.02    -0.02  -0.04  -0.01
   2   6     0.04   0.00   0.02     0.04   0.01   0.02    -0.02  -0.01  -0.00
   3   6     0.04  -0.00   0.02     0.04   0.00   0.02    -0.03   0.00  -0.01
   4   6     0.05  -0.01   0.01     0.05  -0.01   0.02    -0.03   0.02  -0.00
   5   6     0.05  -0.02   0.00     0.06  -0.02  -0.00    -0.03   0.03   0.02
   6   7     0.07  -0.04  -0.01     0.08  -0.05  -0.02    -0.05   0.06   0.04
   7   6     0.04  -0.02  -0.00     0.05  -0.03  -0.02    -0.03   0.04   0.03
   8   6     0.04   0.07   0.06     0.05   0.07   0.05    -0.03  -0.02  -0.02
   9   6     0.02   0.10   0.08     0.02   0.10   0.07    -0.01  -0.06  -0.05
  10   6    -0.00   0.03   0.02    -0.01   0.03   0.01     0.00  -0.02  -0.02
  11   6    -0.03   0.04   0.02    -0.04   0.05   0.02     0.02  -0.06  -0.06
  12   6    -0.00  -0.07  -0.06    -0.00  -0.07  -0.06     0.00   0.06   0.05
  13   6     0.02  -0.09  -0.07     0.02  -0.10  -0.08    -0.01   0.09   0.07
  14   6     0.06  -0.03  -0.00     0.06  -0.04  -0.01    -0.03   0.04   0.01
  15   6     0.02   0.06  -0.01     0.02   0.05  -0.01    -0.01  -0.03   0.01
  16   6     0.00   0.08  -0.01     0.00   0.08  -0.01     0.02  -0.07  -0.01
  17   6     0.03   0.02   0.00     0.02   0.02   0.00     0.02  -0.03  -0.02
  18   6     0.02   0.03  -0.01     0.01   0.03   0.00     0.04  -0.05  -0.04
  19   6    -0.00   0.02  -0.02    -0.01   0.01  -0.00     0.04  -0.04  -0.05
  20   6    -0.11  -0.04  -0.10    -0.06  -0.01  -0.03    -0.11  -0.13  -0.18
  21   6    -0.13  -0.06  -0.11    -0.08  -0.03  -0.03    -0.09  -0.12  -0.16
  22   6    -0.05  -0.03  -0.03    -0.05  -0.03  -0.01     0.07  -0.03  -0.01
  23   7    -0.04  -0.03   0.00    -0.04  -0.03   0.02     0.08  -0.03   0.02
  24   6    -0.03  -0.03   0.02    -0.04  -0.02   0.04     0.09  -0.03   0.04
  25   6     0.01  -0.08   0.08     0.03  -0.07   0.10     0.02   0.08  -0.07
  26   6    -0.01  -0.04   0.05     0.00  -0.03   0.09    -0.03   0.15  -0.11
  27   6    -0.07   0.03  -0.03    -0.08   0.05   0.01     0.01   0.09  -0.04
  28   6    -0.11   0.11  -0.03    -0.13   0.09  -0.08    -0.08   0.20  -0.15
  29   6    -0.10   0.05  -0.05    -0.13   0.09  -0.04     0.12  -0.06   0.12
  30   6    -0.07   0.02  -0.02    -0.11   0.05  -0.03     0.16  -0.13   0.16
  31   6    -0.03  -0.03   0.01    -0.03  -0.03   0.02     0.04  -0.03  -0.04
  32   6    -0.07  -0.00   0.20    -0.06  -0.01   0.15    -0.01  -0.05   0.05
  33   6    -0.05  -0.01   0.20    -0.04  -0.02   0.12    -0.08  -0.04   0.12
  34   6     0.01  -0.03   0.00     0.00  -0.03  -0.03    -0.08  -0.00   0.08
  35   6     0.03  -0.04  -0.01     0.03  -0.04  -0.08    -0.18   0.01   0.22
  36   6     0.04  -0.06  -0.19     0.03  -0.05  -0.14    -0.01   0.02  -0.08
  37   6     0.02  -0.05  -0.18     0.01  -0.05  -0.11     0.05   0.01  -0.14
  38   6     0.04   0.02   0.03    -0.02  -0.02  -0.00     0.22   0.07   0.12
  39   6     0.06   0.05   0.03     0.00   0.00   0.00     0.20   0.06   0.09
  40   6     0.00   0.04   0.00     0.02   0.03  -0.00    -0.01  -0.04  -0.02
  41   6    -0.04   0.08   0.02     0.02   0.03   0.00    -0.09   0.06   0.03
  42   6    -0.05   0.06   0.02     0.01   0.04  -0.00    -0.10  -0.00   0.04
  43   6     0.01   0.06  -0.00     0.01   0.04   0.00     0.04  -0.03  -0.04
  44   6     0.03   0.01  -0.00     0.02   0.03   0.00     0.08  -0.09  -0.03
  45   6     0.07  -0.08   0.01     0.07  -0.08   0.01    -0.00   0.04  -0.01
  46   6     0.09  -0.11   0.01     0.09  -0.11   0.01    -0.03   0.08  -0.00
  47   6     0.04  -0.01   0.01     0.04  -0.01  -0.01    -0.02   0.01   0.03
  48   6     0.03  -0.00   0.01     0.03   0.01   0.00    -0.01  -0.01   0.02
  49   1     0.01   0.00   0.01     0.01   0.01   0.01    -0.00  -0.02  -0.01
  50   1     0.01   0.00   0.00     0.01   0.01   0.00    -0.01  -0.02   0.00
  51   1     0.01   0.00   0.00     0.01   0.00   0.01    -0.00  -0.01  -0.00
  52   1     0.01  -0.00   0.01     0.01   0.00   0.01    -0.01  -0.00  -0.01
  53   1     0.01  -0.00   0.01     0.02  -0.01   0.01    -0.01   0.01  -0.00
  54   1     0.02   0.04   0.03     0.02   0.03   0.03    -0.01  -0.02  -0.01
  55   1     0.00   0.05   0.04     0.00   0.05   0.04    -0.00  -0.03  -0.03
  56   1    -0.03   0.08   0.08    -0.03   0.07   0.07     0.02  -0.05  -0.05
  57   1     0.08  -0.04   0.00     0.06  -0.02   0.01    -0.03   0.01  -0.02
  58   1    -0.07  -0.00  -0.07    -0.06   0.01  -0.05     0.03  -0.02   0.02
  59   1    -0.01  -0.04  -0.03    -0.01  -0.04  -0.03     0.00   0.03   0.02
  60   1     0.01  -0.05  -0.04     0.01  -0.05  -0.04    -0.00   0.04   0.03
  61   1    -0.00   0.03  -0.01     0.00   0.03  -0.01    -0.00  -0.02   0.00
  62   1    -0.01   0.04  -0.01    -0.01   0.04  -0.01     0.01  -0.04  -0.00
  63   1    -0.05  -0.02  -0.05    -0.02  -0.00  -0.01    -0.07  -0.06  -0.09
  64   1    -0.06  -0.03  -0.05    -0.03  -0.01  -0.01    -0.06  -0.05  -0.07
  65   1     0.02  -0.04   0.04     0.03  -0.04   0.05    -0.01   0.04  -0.04
  66   1     0.00  -0.02   0.02     0.02  -0.02   0.04    -0.03   0.07  -0.06
  67   1     0.12  -0.30   0.02    -0.20   0.42  -0.07    -0.05   0.15  -0.07
  68   1    -0.03   0.26   0.30    -0.08  -0.24  -0.36    -0.07  -0.00  -0.11
  69   1    -0.18   0.15  -0.32     0.15  -0.10   0.32     0.02   0.05   0.01
  70   1    -0.04   0.03  -0.03    -0.06   0.04  -0.03     0.05  -0.04   0.06
  71   1    -0.03   0.01  -0.01    -0.04   0.02  -0.02     0.07  -0.07   0.07
  72   1    -0.03   0.01   0.10    -0.03   0.00   0.07    -0.00  -0.02   0.03
  73   1    -0.03   0.00   0.10    -0.02  -0.00   0.06    -0.04  -0.02   0.06
  74   1     0.01  -0.02  -0.01     0.01  -0.02  -0.03    -0.06   0.03   0.09
  75   1     0.00  -0.01  -0.00     0.00  -0.02  -0.02    -0.05   0.01   0.07
  76   1     0.02  -0.01  -0.00     0.02  -0.00  -0.02    -0.08  -0.03   0.07
  77   1     0.03  -0.02  -0.10     0.02  -0.02  -0.07    -0.00   0.01  -0.04
  78   1     0.02  -0.02  -0.09     0.01  -0.02  -0.06     0.03   0.01  -0.07
  79   1     0.03   0.01   0.02    -0.00  -0.01   0.00     0.10   0.04   0.07
  80   1     0.04   0.03   0.02     0.01   0.00   0.00     0.09   0.04   0.05
  81   1    -0.01   0.00  -0.00     0.01   0.01  -0.00    -0.02  -0.03  -0.02
  82   1     0.01   0.01  -0.00     0.01   0.01  -0.00     0.01  -0.01  -0.01
  83   1    -0.02   0.02   0.01     0.01   0.01  -0.00    -0.06   0.02   0.02
  84   1    -0.00   0.04   0.01     0.01   0.01   0.00    -0.01   0.05   0.00
  85   1    -0.02   0.03   0.01     0.00   0.01   0.00    -0.04   0.02   0.02
  86   1    -0.02   0.00   0.01     0.00   0.01  -0.00    -0.04  -0.03   0.02
  87   1     0.00   0.01  -0.00     0.00   0.01   0.00     0.02  -0.02  -0.01
  88   1     0.01   0.03  -0.01     0.00   0.01   0.00     0.02   0.02  -0.03
  89   1     0.00  -0.01   0.01     0.00   0.00   0.00     0.02  -0.04   0.01
  90   1     0.03   0.00  -0.01     0.01   0.01  -0.00     0.04  -0.03  -0.02
  91   1     0.03  -0.04   0.01     0.03  -0.04   0.01    -0.00   0.02  -0.01
  92   1     0.04  -0.05   0.01     0.03  -0.05   0.01    -0.01   0.04   0.00
  93   1     0.01  -0.00   0.00     0.01  -0.00  -0.00    -0.00   0.01   0.01
  94   1     0.01   0.00   0.00     0.01   0.00  -0.00    -0.00  -0.01   0.01
                     16                     17                     18
                        a                      a                      a 
 Frequencies --    62.6864                65.3533                75.8440
 Red. masses --     9.7844                 1.1029                10.2012
 Frc consts  --     0.0000                 0.0000                 0.0000
 IR Inten    --     0.9303                 0.3491                 0.6305
 Raman Activ --     0.0000                 0.0000                 0.0000
 Depolar     --     0.0000                 0.0000                 0.0000
 Atom AN      X      Y      Z        X      Y      Z        X      Y      Z
   1   6     0.21  -0.00  -0.15    -0.01  -0.00   0.01    -0.10  -0.09  -0.01
   2   6     0.06   0.02  -0.07     0.00  -0.00   0.00    -0.04  -0.03  -0.03
   3   6    -0.20   0.07   0.08     0.01  -0.00  -0.01    -0.10   0.02  -0.04
   4   6    -0.27   0.08   0.12     0.02  -0.01  -0.01    -0.08   0.08  -0.04
   5   6    -0.11   0.04   0.02     0.01  -0.00  -0.00     0.00   0.09  -0.02
   6   7    -0.10   0.04   0.01     0.01  -0.00  -0.00    -0.03   0.15   0.01
   7   6    -0.05  -0.01  -0.01     0.00  -0.00  -0.00    -0.00   0.10  -0.01
   8   6    -0.04   0.01   0.08     0.00   0.00  -0.00    -0.00   0.03  -0.05
   9   6     0.00   0.04   0.14    -0.00   0.00  -0.01     0.03   0.00  -0.06
  10   6     0.04   0.04   0.10    -0.00  -0.00  -0.00     0.06   0.06  -0.03
  11   6     0.09   0.09   0.20    -0.01  -0.00  -0.01     0.10   0.03  -0.03
  12   6     0.03  -0.03  -0.05    -0.00  -0.00  -0.00     0.06   0.13   0.01
  13   6    -0.01  -0.05  -0.11     0.00  -0.00   0.00     0.02   0.15   0.01
  14   6    -0.08   0.02  -0.01     0.01  -0.00  -0.00    -0.01   0.08   0.02
  15   6    -0.18   0.21  -0.06     0.01  -0.01   0.00     0.02   0.04   0.04
  16   6    -0.16   0.17  -0.07     0.01  -0.00   0.00     0.07  -0.06   0.07
  17   6    -0.03  -0.04  -0.04     0.00   0.01   0.00     0.07  -0.10   0.08
  18   6    -0.02  -0.05  -0.04    -0.00   0.01   0.00     0.06  -0.07   0.08
  19   6    -0.02  -0.04  -0.03    -0.00   0.00   0.00     0.09  -0.04   0.09
  20   6     0.01  -0.03  -0.01    -0.01   0.00  -0.00     0.12  -0.04   0.08
  21   6     0.05  -0.00   0.03    -0.01  -0.00  -0.00     0.09  -0.05   0.01
  22   6     0.06   0.00   0.04    -0.01  -0.00  -0.00     0.02  -0.07  -0.04
  23   7     0.08   0.01   0.06    -0.01   0.00  -0.00    -0.01  -0.08  -0.13
  24   6     0.06   0.00   0.03    -0.01   0.00  -0.00     0.00  -0.06  -0.08
  25   6     0.02   0.03  -0.01    -0.00  -0.00   0.00     0.13  -0.11   0.03
  26   6     0.01   0.03  -0.04    -0.00  -0.01   0.01     0.13  -0.07   0.08
  27   6     0.04  -0.00  -0.02    -0.00  -0.00   0.00     0.01   0.03   0.01
  28   6     0.03  -0.00  -0.06     0.00  -0.01   0.01     0.00   0.08   0.06
  29   6     0.09  -0.03   0.02    -0.01   0.00  -0.00    -0.12   0.08  -0.10
  30   6     0.10  -0.02   0.04    -0.01   0.00  -0.00    -0.11   0.04  -0.14
  31   6     0.05   0.01   0.03     0.00  -0.00   0.01     0.01  -0.08  -0.08
  32   6     0.04  -0.03  -0.05     0.00   0.01   0.02     0.02  -0.07  -0.11
  33   6     0.00  -0.02  -0.06     0.02   0.00   0.02     0.02  -0.07  -0.07
  34   6    -0.03   0.02   0.01     0.03  -0.00   0.02     0.01  -0.08  -0.01
  35   6    -0.08   0.02   0.01    -0.02   0.00  -0.05     0.01  -0.08   0.05
  36   6    -0.02   0.05   0.07     0.02  -0.01   0.01    -0.00  -0.09   0.02
  37   6     0.02   0.04   0.08     0.00  -0.01   0.01    -0.01  -0.09  -0.02
  38   6     0.04  -0.01   0.02    -0.01   0.00  -0.00    -0.00  -0.06  -0.01
  39   6     0.00  -0.03  -0.01    -0.00   0.00  -0.00     0.04  -0.04   0.06
  40   6    -0.02  -0.04  -0.03    -0.00   0.01   0.00    -0.07  -0.10   0.02
  41   6    -0.02  -0.04  -0.01    -0.00   0.01  -0.00    -0.21   0.08   0.03
  42   6    -0.06  -0.04  -0.00     0.00   0.01  -0.00    -0.33   0.17   0.03
  43   6    -0.05  -0.04  -0.01     0.00   0.01  -0.00    -0.12   0.21   0.08
  44   6    -0.04  -0.05  -0.03     0.00   0.01   0.00     0.02  -0.01   0.07
  45   6     0.08  -0.23   0.01    -0.00   0.01  -0.00     0.05  -0.07   0.07
  46   6     0.06  -0.20   0.02    -0.00   0.01  -0.00     0.01   0.02   0.03
  47   6     0.09   0.01  -0.09    -0.00  -0.00   0.00     0.09   0.03  -0.02
  48   6     0.17  -0.01  -0.14    -0.01  -0.00   0.01     0.07  -0.02  -0.02
  49   1     0.07  -0.00  -0.03    -0.00   0.00   0.00    -0.04  -0.03  -0.02
  50   1     0.09  -0.00  -0.04    -0.00   0.00   0.00    -0.03  -0.03   0.00
  51   1     0.05  -0.01  -0.08    -0.00  -0.00   0.00    -0.03  -0.03   0.01
  52   1    -0.09   0.03   0.04     0.01  -0.00  -0.00    -0.05   0.01  -0.01
  53   1    -0.13   0.03   0.06     0.01  -0.00  -0.00    -0.03   0.03  -0.01
  54   1    -0.02   0.00   0.03     0.00   0.00  -0.00    -0.01  -0.00  -0.02
  55   1     0.00   0.02   0.07    -0.00   0.00  -0.00     0.01  -0.02  -0.03
  56   1     0.03   0.09   0.11    -0.00  -0.00  -0.00     0.04   0.01  -0.02
  57   1     0.09  -0.03   0.08    -0.00   0.00  -0.00     0.02   0.01  -0.01
  58   1    -0.01   0.02   0.01    -0.00  -0.00  -0.00     0.04   0.00   0.00
  59   1     0.02  -0.01  -0.03    -0.00  -0.00   0.00     0.02   0.05   0.01
  60   1    -0.00  -0.02  -0.06     0.00  -0.00   0.00     0.01   0.06   0.01
  61   1    -0.08   0.11  -0.03     0.00  -0.00   0.00     0.00   0.02   0.01
  62   1    -0.07   0.09  -0.03     0.00  -0.00   0.00     0.03  -0.03   0.02
  63   1     0.00  -0.01  -0.00    -0.00   0.00  -0.00     0.05  -0.01   0.03
  64   1     0.02   0.00   0.01    -0.00  -0.00  -0.00     0.03  -0.01   0.00
  65   1    -0.00   0.01  -0.01    -0.00  -0.00   0.00     0.07  -0.05   0.02
  66   1    -0.01   0.01  -0.02     0.00  -0.00   0.00     0.07  -0.04   0.05
  67   1     0.01   0.00  -0.02    -0.00  -0.00   0.00    -0.01   0.03   0.02
  68   1     0.00  -0.00  -0.02     0.00  -0.00   0.00    -0.00   0.02   0.01
  69   1     0.01  -0.00  -0.02    -0.00  -0.00   0.00     0.02   0.03   0.03
  70   1     0.03  -0.01   0.01    -0.00   0.00  -0.00    -0.06   0.05  -0.05
  71   1     0.04  -0.01   0.02    -0.00   0.00  -0.00    -0.06   0.02  -0.06
  72   1     0.02  -0.02  -0.03    -0.00   0.00   0.01     0.01  -0.02  -0.04
  73   1     0.00  -0.01  -0.03     0.01   0.01   0.01     0.01  -0.02  -0.03
  74   1    -0.02   0.02   0.03     0.05   0.00   0.54     0.00  -0.02   0.02
  75   1    -0.01  -0.00  -0.01     0.43  -0.08  -0.37     0.01  -0.02   0.01
  76   1    -0.05   0.01  -0.01    -0.54   0.09  -0.25    -0.00  -0.03   0.02
  77   1    -0.01   0.02   0.03     0.01  -0.01   0.01    -0.00  -0.03   0.02
  78   1     0.01   0.02   0.04    -0.00  -0.01   0.00    -0.01  -0.03   0.00
  79   1     0.02  -0.00   0.01    -0.00  -0.00  -0.00    -0.02  -0.02  -0.01
  80   1    -0.00  -0.01  -0.01     0.00   0.00   0.00     0.01  -0.00   0.03
  81   1    -0.01  -0.01  -0.01    -0.00   0.00   0.00    -0.04  -0.06  -0.01
  82   1     0.00  -0.01  -0.01    -0.00   0.00   0.00    -0.00  -0.05   0.00
  83   1    -0.00  -0.01  -0.00    -0.00   0.00  -0.00    -0.09   0.01  -0.01
  84   1    -0.00  -0.01   0.00    -0.00   0.00  -0.00    -0.04   0.05   0.03
  85   1    -0.02  -0.01   0.00     0.00   0.00  -0.00    -0.13   0.10   0.02
  86   1    -0.02  -0.01  -0.01     0.00   0.00   0.00    -0.13   0.01  -0.02
  87   1    -0.02  -0.01  -0.00     0.00   0.00  -0.00    -0.05   0.07   0.02
  88   1    -0.01  -0.01   0.00     0.00   0.00  -0.00    -0.01   0.10   0.03
  89   1    -0.02  -0.02  -0.01     0.00   0.00   0.00    -0.02  -0.04   0.01
  90   1    -0.01  -0.02  -0.01     0.00   0.00   0.00     0.05   0.00   0.03
  91   1     0.05  -0.12   0.01    -0.00   0.01  -0.00     0.02  -0.04   0.02
  92   1     0.04  -0.10   0.02    -0.00   0.00  -0.00    -0.00   0.01   0.01
  93   1     0.05  -0.00  -0.04    -0.00  -0.00   0.00     0.05   0.01  -0.00
  94   1     0.10  -0.01  -0.07    -0.00   0.00   0.00     0.04  -0.02  -0.01
                     19                     20                     21
                        a                      a                      a 
 Frequencies --    95.1378                98.0323               108.8689
 Red. masses --     9.8677                 9.7204                 9.6399
 Frc consts  --     0.0000                 0.0000                 0.0000
 IR Inten    --     0.1194                 0.1906                 0.1248
 Raman Activ --     0.0000                 0.0000                 0.0000
 Depolar     --     0.0000                 0.0000                 0.0000
 Atom AN      X      Y      Z        X      Y      Z        X      Y      Z
   1   6     0.06   0.02  -0.01     0.01   0.02   0.04    -0.16  -0.02   0.03
   2   6     0.01   0.01   0.01     0.02  -0.00   0.02    -0.01  -0.00  -0.04
   3   6     0.12  -0.03  -0.03    -0.15   0.03   0.12     0.07  -0.00  -0.11
   4   6     0.09  -0.04  -0.02    -0.13   0.01   0.11     0.11   0.02  -0.12
   5   6    -0.02  -0.03   0.03     0.02  -0.02   0.00     0.07   0.04  -0.06
   6   7     0.01  -0.05   0.01     0.02  -0.03  -0.00    -0.03   0.07  -0.01
   7   6     0.01  -0.02   0.03     0.01  -0.01   0.00    -0.02  -0.01  -0.09
   8   6     0.00  -0.07  -0.04     0.02   0.13   0.15    -0.02  -0.06  -0.13
   9   6    -0.01  -0.08  -0.06     0.01   0.15   0.16     0.01  -0.05  -0.09
  10   6    -0.03  -0.03   0.02    -0.00   0.01  -0.00     0.03   0.02  -0.03
  11   6    -0.05  -0.05  -0.02    -0.01   0.00  -0.02     0.06   0.11   0.11
  12   6    -0.03   0.04   0.12    -0.00  -0.14  -0.16     0.02   0.02  -0.07
  13   6    -0.01   0.04   0.13     0.01  -0.13  -0.14    -0.00   0.00  -0.10
  14   6     0.01  -0.02  -0.02     0.00   0.00  -0.00    -0.03   0.01   0.08
  15   6    -0.06   0.10  -0.06     0.09  -0.20   0.03    -0.02   0.05   0.10
  16   6    -0.07   0.15  -0.09     0.09  -0.19   0.03    -0.02   0.01   0.15
  17   6    -0.00   0.07  -0.08    -0.03   0.02  -0.01    -0.02  -0.07   0.17
  18   6     0.00   0.05  -0.07    -0.02   0.00  -0.02    -0.02  -0.05   0.09
  19   6    -0.01   0.04  -0.10    -0.02   0.01  -0.04    -0.05  -0.04   0.00
  20   6    -0.15  -0.02  -0.19    -0.11  -0.04  -0.11    -0.10  -0.07  -0.04
  21   6    -0.13  -0.02  -0.13    -0.09  -0.03  -0.08    -0.08  -0.04  -0.02
  22   6     0.01   0.01  -0.02    -0.00   0.01  -0.00    -0.02   0.01   0.03
  23   7     0.03  -0.01   0.05     0.01   0.00   0.03     0.00   0.03   0.07
  24   6     0.03  -0.02   0.04     0.01  -0.00   0.02    -0.01   0.04   0.03
  25   6     0.11  -0.12   0.14     0.05  -0.06   0.08    -0.03   0.02   0.03
  26   6     0.11  -0.12   0.13     0.06  -0.06   0.07    -0.03  -0.01   0.02
  27   6     0.02   0.00  -0.01     0.01   0.00  -0.00    -0.01  -0.01   0.00
  28   6    -0.01   0.03  -0.04     0.00   0.00  -0.02     0.01  -0.05  -0.00
  29   6    -0.06   0.10  -0.11    -0.04   0.06  -0.07    -0.00   0.03  -0.02
  30   6    -0.04   0.08  -0.08    -0.03   0.06  -0.05    -0.01   0.05   0.00
  31   6     0.01  -0.01   0.05     0.00   0.00   0.02    -0.00   0.03   0.05
  32   6     0.05  -0.04  -0.16     0.03  -0.01  -0.10     0.01   0.02  -0.01
  33   6     0.05  -0.04  -0.21     0.03  -0.01  -0.12     0.00   0.02  -0.03
  34   6    -0.01  -0.02  -0.00    -0.00  -0.00  -0.00    -0.01   0.03   0.01
  35   6    -0.01  -0.02  -0.05    -0.00  -0.00  -0.02    -0.01   0.03  -0.03
  36   6    -0.06   0.00   0.25    -0.03   0.01   0.13    -0.02   0.04   0.07
  37   6    -0.05   0.00   0.25    -0.03   0.01   0.13    -0.02   0.04   0.09
  38   6     0.12   0.07   0.04     0.07   0.05   0.05    -0.01   0.02   0.05
  39   6     0.12   0.09   0.01     0.07   0.06   0.04    -0.03   0.00   0.03
  40   6     0.03   0.09   0.01    -0.04   0.01   0.01    -0.18  -0.06   0.08
  41   6    -0.01   0.10   0.12    -0.07   0.05   0.02    -0.19   0.05  -0.13
  42   6    -0.04  -0.02   0.13     0.01  -0.04   0.03     0.16  -0.03  -0.16
  43   6    -0.00  -0.06   0.01     0.06  -0.08  -0.06     0.31  -0.05  -0.23
  44   6     0.01  -0.05  -0.06     0.03  -0.04  -0.02     0.22  -0.04   0.06
  45   6     0.07  -0.05  -0.05    -0.15   0.26  -0.04    -0.00  -0.14   0.16
  46   6     0.08  -0.08  -0.02    -0.13   0.23  -0.04    -0.01  -0.10   0.11
  47   6    -0.15   0.01   0.08     0.18  -0.05  -0.08     0.07   0.03  -0.04
  48   6    -0.14   0.03   0.08     0.19  -0.04  -0.09     0.02   0.00  -0.03
  49   1     0.03   0.00  -0.00    -0.00   0.01   0.02    -0.07   0.00  -0.00
  50   1     0.02   0.00  -0.00     0.01   0.01   0.00    -0.06  -0.00   0.00
  51   1     0.02   0.01  -0.02     0.00  -0.00   0.01    -0.04  -0.02   0.05
  52   1     0.07  -0.01  -0.02    -0.08   0.02   0.06     0.03  -0.00  -0.04
  53   1     0.05  -0.02  -0.02    -0.07   0.01   0.05     0.04   0.01  -0.05
  54   1     0.00  -0.03  -0.03     0.01   0.07   0.07    -0.01  -0.03  -0.04
  55   1    -0.01  -0.04  -0.04     0.00   0.08   0.09     0.00  -0.02  -0.03
  56   1    -0.02  -0.03  -0.01    -0.01   0.00   0.00     0.02   0.06   0.05
  57   1    -0.02  -0.00  -0.01     0.01  -0.00  -0.01     0.02   0.01   0.06
  58   1    -0.01  -0.01   0.00    -0.01  -0.00  -0.02     0.02   0.05   0.02
  59   1    -0.01   0.03   0.06    -0.00  -0.07  -0.08     0.01   0.01  -0.01
  60   1    -0.00   0.02   0.06     0.00  -0.06  -0.07    -0.00   0.00  -0.03
  61   1    -0.03   0.05  -0.02     0.05  -0.10   0.02    -0.01   0.03   0.03
  62   1    -0.04   0.07  -0.04     0.05  -0.10   0.02    -0.01   0.01   0.05
  63   1    -0.08  -0.02  -0.08    -0.05  -0.02  -0.05    -0.04  -0.03  -0.03
  64   1    -0.06  -0.02  -0.05    -0.04  -0.02  -0.03    -0.03  -0.02  -0.01
  65   1     0.05  -0.06   0.06     0.03  -0.03   0.03    -0.01   0.00   0.01
  66   1     0.05  -0.06   0.06     0.03  -0.03   0.04    -0.01  -0.01   0.01
  67   1     0.00   0.01  -0.02     0.00   0.00  -0.01     0.01  -0.02  -0.00
  68   1    -0.01   0.01  -0.01    -0.00   0.00  -0.00     0.01  -0.01  -0.00
  69   1    -0.00   0.01  -0.02    -0.00   0.00  -0.01    -0.01  -0.02  -0.00
  70   1    -0.04   0.06  -0.06    -0.02   0.03  -0.04     0.00   0.01  -0.01
  71   1    -0.02   0.04  -0.04    -0.02   0.03  -0.03     0.00   0.02  -0.00
  72   1     0.03  -0.02  -0.08     0.02  -0.01  -0.05     0.01   0.00  -0.01
  73   1     0.03  -0.02  -0.12     0.02  -0.01  -0.07     0.00   0.00  -0.02
  74   1    -0.00  -0.01  -0.02    -0.00  -0.00  -0.01    -0.00   0.01  -0.02
  75   1    -0.01  -0.01  -0.01    -0.00  -0.00  -0.00    -0.01   0.00  -0.01
  76   1     0.01   0.00  -0.02     0.00   0.00  -0.00     0.00   0.02  -0.01
  77   1    -0.03   0.01   0.12    -0.02   0.01   0.07    -0.01   0.02   0.03
  78   1    -0.03   0.00   0.12    -0.02   0.00   0.06    -0.01   0.01   0.04
  79   1     0.06   0.03   0.03     0.04   0.02   0.03     0.00   0.01   0.02
  80   1     0.07   0.04   0.02     0.04   0.03   0.02    -0.01   0.00   0.02
  81   1     0.00   0.02  -0.01    -0.02  -0.01   0.00    -0.05  -0.03   0.06
  82   1     0.03   0.04  -0.00    -0.01   0.01   0.00    -0.09  -0.02   0.03
  83   1    -0.01   0.04   0.06    -0.04   0.02   0.03    -0.12   0.02  -0.01
  84   1     0.00   0.05   0.03    -0.02   0.04  -0.02    -0.07   0.06  -0.11
  85   1    -0.02  -0.00   0.05     0.00  -0.01   0.00     0.06  -0.01  -0.10
  86   1    -0.02  -0.02   0.05     0.01  -0.02   0.03     0.07  -0.02   0.02
  87   1    -0.00  -0.05   0.01     0.04  -0.04  -0.02     0.17  -0.02  -0.07
  88   1     0.00  -0.00  -0.01     0.01  -0.02  -0.04     0.06  -0.01  -0.14
  89   1     0.00  -0.02  -0.01     0.02  -0.01   0.01     0.08  -0.01   0.07
  90   1     0.00  -0.02  -0.04     0.01  -0.02  -0.01     0.09  -0.01   0.02
  91   1     0.03  -0.04  -0.01    -0.07   0.13  -0.02     0.01  -0.06   0.05
  92   1     0.04  -0.05   0.00    -0.06   0.11  -0.02    -0.00  -0.04   0.03
  93   1    -0.07   0.01   0.03     0.08  -0.02  -0.04     0.02   0.01  -0.01
  94   1    -0.07   0.02   0.04     0.10  -0.02  -0.05    -0.00  -0.00   0.00
                     22                     23                     24
                        a                      a                      a 
 Frequencies --   125.3752               138.7438               142.6021
 Red. masses --    10.0539                10.3445                10.2479
 Frc consts  --     0.0000                 0.0000                 0.0000
 IR Inten    --     0.8015                 1.1325                 1.0139
 Raman Activ --     0.0000                 0.0000                 0.0000
 Depolar     --     0.0000                 0.0000                 0.0000
 Atom AN      X      Y      Z        X      Y      Z        X      Y      Z
   1   6     0.02  -0.02  -0.02    -0.02  -0.02   0.01    -0.23   0.11   0.21
   2   6    -0.01  -0.00  -0.00    -0.00  -0.01  -0.00     0.13   0.01  -0.02
   3   6    -0.05   0.01   0.01     0.04  -0.01  -0.03     0.25  -0.02  -0.08
   4   6    -0.05   0.02   0.02     0.03  -0.00  -0.02     0.25  -0.04  -0.09
   5   6    -0.02   0.02   0.01    -0.01   0.01   0.02     0.14  -0.03  -0.05
   6   7    -0.00   0.02   0.00    -0.06   0.01   0.04    -0.03   0.04   0.06
   7   6    -0.00   0.04   0.02    -0.05  -0.11  -0.08    -0.04   0.06   0.07
   8   6    -0.00   0.04   0.03    -0.05  -0.16  -0.12    -0.04   0.08   0.13
   9   6     0.01   0.02   0.02    -0.05  -0.14  -0.10    -0.01   0.07   0.14
  10   6     0.01   0.02   0.00    -0.05  -0.09  -0.04     0.02   0.02   0.05
  11   6     0.02  -0.03  -0.05    -0.05   0.13   0.23     0.06  -0.11  -0.07
  12   6     0.01   0.05   0.03    -0.05  -0.16  -0.15     0.01   0.04   0.04
  13   6     0.00   0.06   0.04    -0.05  -0.17  -0.17    -0.02   0.07   0.05
  14   6     0.03  -0.02  -0.03    -0.08   0.05   0.09    -0.05   0.04   0.06
  15   6     0.04  -0.06  -0.03    -0.07   0.05   0.10    -0.10   0.07   0.02
  16   6     0.05  -0.08  -0.04    -0.08   0.07   0.08    -0.11   0.09  -0.01
  17   6     0.05  -0.07  -0.04    -0.06   0.10   0.07    -0.08   0.04  -0.01
  18   6     0.01  -0.01  -0.03    -0.00   0.06   0.03    -0.05  -0.02  -0.05
  19   6     0.06   0.09  -0.10     0.00   0.05   0.00    -0.09  -0.05  -0.10
  20   6     0.16   0.15  -0.01     0.07   0.07   0.01    -0.06  -0.03  -0.08
  21   6     0.15   0.16  -0.02     0.06   0.07  -0.03    -0.03  -0.01  -0.06
  22   6     0.02   0.09  -0.13     0.03   0.04  -0.07    -0.03  -0.02  -0.06
  23   7    -0.06  -0.00  -0.13    -0.02  -0.01  -0.12     0.04   0.01   0.04
  24   6     0.03  -0.10  -0.01     0.08  -0.10   0.02     0.05  -0.00   0.05
  25   6     0.05  -0.08  -0.01     0.15  -0.14   0.08     0.03  -0.01   0.04
  26   6     0.04  -0.03   0.01     0.14  -0.12   0.09     0.02  -0.01   0.01
  27   6     0.00  -0.03   0.04     0.08  -0.06   0.03     0.04  -0.02   0.00
  28   6    -0.11   0.14  -0.06    -0.10   0.16  -0.17    -0.01   0.02  -0.09
  29   6     0.04  -0.13   0.12     0.11  -0.13   0.09     0.09  -0.04   0.04
  30   6     0.05  -0.17   0.09     0.11  -0.15   0.08     0.09  -0.03   0.06
  31   6    -0.10   0.01   0.09    -0.03  -0.01  -0.09     0.04   0.01   0.02
  32   6    -0.11   0.05   0.19    -0.01   0.01  -0.10     0.04  -0.01  -0.01
  33   6    -0.06   0.04   0.17     0.02   0.01  -0.07     0.02  -0.01  -0.02
  34   6    -0.02   0.00   0.06     0.03  -0.02  -0.02     0.00   0.01  -0.00
  35   6     0.11  -0.02  -0.24     0.06  -0.03   0.07    -0.03   0.02  -0.00
  36   6    -0.06  -0.02   0.14     0.01  -0.04  -0.03     0.01   0.03   0.02
  37   6    -0.11  -0.01   0.16    -0.02  -0.04  -0.06     0.03   0.03   0.02
  38   6    -0.04   0.04  -0.20    -0.00   0.05  -0.05    -0.12  -0.08  -0.14
  39   6    -0.03   0.06  -0.17    -0.01   0.04  -0.02    -0.15  -0.09  -0.16
  40   6    -0.13   0.04   0.08     0.05   0.07   0.02    -0.02  -0.01  -0.03
  41   6    -0.19   0.11   0.10     0.09   0.02   0.03    -0.01  -0.06   0.03
  42   6    -0.04  -0.07   0.11     0.02   0.08   0.03    -0.15  -0.02   0.03
  43   6     0.09  -0.14  -0.06    -0.03   0.10   0.07    -0.14  -0.01   0.05
  44   6     0.06  -0.11  -0.02    -0.01   0.08   0.03    -0.07  -0.06  -0.04
  45   6     0.06  -0.05  -0.04    -0.09   0.15   0.06    -0.03   0.01   0.03
  46   6     0.04  -0.03  -0.03    -0.09   0.12   0.08    -0.04   0.01   0.06
  47   6    -0.01   0.01   0.01    -0.02   0.01   0.02     0.24  -0.04  -0.10
  48   6     0.00  -0.00   0.00    -0.03   0.00   0.02     0.23  -0.02  -0.09
  49   1     0.01  -0.01  -0.01    -0.01  -0.01  -0.00    -0.13   0.06   0.07
  50   1     0.01  -0.01  -0.00    -0.01  -0.01   0.00    -0.11   0.07   0.02
  51   1     0.01  -0.00  -0.02    -0.01  -0.01   0.01    -0.06  -0.01   0.16
  52   1    -0.02   0.00   0.00     0.02  -0.01  -0.02     0.08  -0.01  -0.02
  53   1    -0.02   0.01   0.01     0.01   0.00  -0.01     0.08  -0.01  -0.03
  54   1    -0.00   0.01   0.01    -0.02  -0.05  -0.04    -0.01   0.03   0.04
  55   1     0.00   0.00   0.00    -0.01  -0.04  -0.03    -0.00   0.02   0.05
  56   1     0.01  -0.02  -0.02    -0.02   0.09   0.11     0.03  -0.05  -0.04
  57   1     0.01   0.00  -0.03    -0.01  -0.01   0.13     0.02  -0.01  -0.05
  58   1     0.01  -0.02  -0.01    -0.02   0.09   0.03     0.02  -0.06   0.00
  59   1     0.00   0.02   0.01    -0.01  -0.05  -0.05     0.01   0.01  -0.00
  60   1     0.00   0.02   0.01    -0.01  -0.05  -0.06    -0.01   0.02   0.01
  61   1     0.01  -0.02  -0.01    -0.02   0.01   0.03    -0.04   0.02   0.01
  62   1     0.02  -0.03  -0.01    -0.02   0.01   0.02    -0.04   0.04  -0.01
  63   1     0.07   0.05   0.02     0.04   0.02   0.01    -0.01  -0.01  -0.02
  64   1     0.07   0.06   0.01     0.02   0.02  -0.01     0.00   0.01  -0.00
  65   1     0.02  -0.02  -0.01     0.05  -0.05   0.02     0.00   0.00   0.01
  66   1     0.01   0.01  -0.01     0.05  -0.04   0.03    -0.00  -0.00  -0.00
  67   1    -0.02   0.06  -0.03    -0.00   0.07  -0.08     0.01   0.01  -0.04
  68   1    -0.08   0.04  -0.01    -0.11   0.04  -0.03    -0.02   0.00  -0.02
  69   1    -0.02   0.06  -0.03    -0.02   0.08  -0.09    -0.01   0.01  -0.04
  70   1     0.01  -0.05   0.05     0.03  -0.04   0.03     0.03  -0.02   0.01
  71   1     0.01  -0.07   0.04     0.03  -0.05   0.03     0.03  -0.01   0.02
  72   1    -0.04   0.02   0.06    -0.00   0.01  -0.03     0.01  -0.01  -0.00
  73   1    -0.02   0.02   0.06     0.01   0.01  -0.02     0.00  -0.01  -0.01
  74   1     0.04  -0.04  -0.11     0.02  -0.01   0.04    -0.01   0.01  -0.00
  75   1     0.03  -0.04  -0.09     0.03   0.01   0.02    -0.02   0.00   0.00
  76   1     0.06   0.06  -0.09     0.01  -0.02   0.03    -0.01   0.00   0.00
  77   1    -0.01  -0.01   0.04     0.00  -0.02   0.00     0.00   0.01   0.01
  78   1    -0.04  -0.01   0.05    -0.01  -0.02  -0.02     0.01   0.01   0.01
  79   1    -0.03  -0.00  -0.07    -0.01   0.02  -0.02    -0.04  -0.03  -0.04
  80   1    -0.03   0.01  -0.05    -0.01   0.01  -0.01    -0.05  -0.03  -0.05
  81   1    -0.05  -0.02   0.04     0.02   0.03   0.01    -0.01   0.00  -0.01
  82   1    -0.04   0.03   0.02     0.01   0.02   0.01    -0.00   0.00  -0.01
  83   1    -0.10   0.05   0.07     0.05   0.00  -0.01     0.02  -0.02  -0.01
  84   1    -0.06   0.07  -0.02     0.02  -0.02   0.03    -0.00  -0.04   0.03
  85   1    -0.01  -0.02   0.02     0.01   0.02   0.01    -0.06   0.01   0.03
  86   1    -0.00  -0.05   0.08     0.01   0.03  -0.01    -0.06  -0.02  -0.02
  87   1     0.06  -0.07  -0.02    -0.03   0.04   0.02    -0.06  -0.00   0.02
  88   1     0.02  -0.02  -0.06    -0.00   0.02   0.04    -0.02   0.01   0.03
  89   1     0.02  -0.03   0.01    -0.01   0.02   0.00    -0.03  -0.03  -0.01
  90   1     0.02  -0.04  -0.02    -0.00   0.03   0.01    -0.02  -0.02  -0.02
  91   1     0.02  -0.01  -0.01    -0.03   0.05   0.02     0.00  -0.01   0.01
  92   1     0.01  -0.00  -0.01    -0.02   0.04   0.03    -0.01  -0.00   0.02
  93   1     0.00   0.00   0.00    -0.01   0.00   0.01     0.07  -0.01  -0.03
  94   1     0.01  -0.00  -0.00    -0.01   0.00   0.01     0.07  -0.00  -0.03
                     25                     26                     27
                        a                      a                      a 
 Frequencies --   149.3137               154.7428               166.5784
 Red. masses --     9.9457                10.3018                10.3654
 Frc consts  --     0.0000                 0.0000                 0.0000
 IR Inten    --     1.5730                 0.6435                 0.4527
 Raman Activ --     0.0000                 0.0000                 0.0000
 Depolar     --     0.0000                 0.0000                 0.0000
 Atom AN      X      Y      Z        X      Y      Z        X      Y      Z
   1   6    -0.09  -0.06   0.05    -0.09   0.01  -0.01    -0.07  -0.09   0.06
   2   6     0.03  -0.01  -0.00     0.00   0.01  -0.06     0.05  -0.01   0.02
   3   6     0.06   0.02  -0.05    -0.01   0.02  -0.05     0.05   0.03  -0.03
   4   6     0.05   0.06  -0.03    -0.01   0.03  -0.05     0.04   0.10  -0.01
   5   6     0.01   0.09   0.03    -0.01   0.03  -0.04     0.01   0.12   0.06
   6   7    -0.11   0.12   0.10    -0.08   0.05   0.01    -0.11   0.15   0.12
   7   6    -0.09   0.00  -0.03    -0.09   0.07   0.03    -0.10   0.04  -0.00
   8   6    -0.09  -0.08  -0.06    -0.08   0.05   0.08    -0.10  -0.05  -0.04
   9   6    -0.05  -0.10  -0.06    -0.03   0.02   0.09    -0.05  -0.10  -0.06
  10   6    -0.02  -0.05  -0.03     0.01   0.03   0.05    -0.02  -0.05  -0.03
  11   6     0.04   0.06   0.15     0.10  -0.11  -0.05     0.05   0.04   0.12
  12   6    -0.03  -0.06  -0.11     0.00   0.10   0.05    -0.02  -0.03  -0.10
  13   6    -0.07  -0.04  -0.11    -0.05   0.12   0.04    -0.07   0.00  -0.08
  14   6    -0.03  -0.01   0.09     0.01  -0.09  -0.01     0.03  -0.05   0.04
  15   6    -0.02  -0.10   0.06     0.04  -0.15   0.00     0.02  -0.17  -0.01
  16   6     0.02  -0.11   0.01     0.05  -0.16  -0.00     0.05  -0.14  -0.11
  17   6     0.04  -0.03  -0.02     0.03  -0.11  -0.01     0.07  -0.02  -0.15
  18   6     0.05  -0.01  -0.05    -0.03  -0.00   0.01     0.01   0.07  -0.12
  19   6     0.05  -0.00  -0.04     0.03   0.06   0.09     0.05   0.11  -0.08
  20   6    -0.03  -0.05  -0.11    -0.01   0.03   0.03     0.05   0.17   0.03
  21   6    -0.03  -0.04  -0.11    -0.04   0.03  -0.02     0.02   0.11   0.11
  22   6     0.03   0.01  -0.05    -0.01   0.09   0.02    -0.01   0.00   0.06
  23   7     0.00  -0.01  -0.07    -0.11   0.06  -0.11     0.01  -0.02   0.18
  24   6    -0.02   0.01  -0.11    -0.03  -0.03   0.02    -0.04   0.03   0.10
  25   6    -0.02   0.08  -0.14     0.03  -0.10   0.10    -0.10   0.02   0.07
  26   6    -0.02   0.11  -0.11     0.05  -0.13   0.12    -0.11  -0.00   0.03
  27   6    -0.01   0.07  -0.04    -0.01  -0.06   0.05    -0.09  -0.01   0.01
  28   6     0.09  -0.00   0.15    -0.12   0.06  -0.09    -0.04  -0.12   0.03
  29   6    -0.06   0.06  -0.06    -0.01  -0.06   0.05    -0.08   0.06  -0.01
  30   6    -0.06   0.03  -0.10    -0.02  -0.05   0.04    -0.06   0.07   0.04
  31   6    -0.02   0.00   0.10    -0.12   0.07  -0.09     0.03  -0.02   0.00
  32   6    -0.05   0.00   0.18    -0.07   0.13  -0.11     0.05  -0.04  -0.08
  33   6    -0.07  -0.00   0.19     0.01   0.12  -0.09     0.05  -0.04  -0.12
  34   6    -0.05   0.01   0.09     0.02   0.06  -0.03     0.04  -0.03  -0.08
  35   6     0.00   0.00  -0.24     0.13   0.05   0.08    -0.04  -0.02   0.17
  36   6    -0.07   0.02   0.18    -0.03  -0.00  -0.02     0.07  -0.03  -0.16
  37   6    -0.05   0.02   0.18    -0.11   0.01  -0.06     0.06  -0.02  -0.11
  38   6     0.11   0.05   0.01     0.11   0.18   0.15     0.00  -0.05  -0.05
  39   6     0.12   0.05   0.02     0.10   0.15   0.16     0.04   0.02  -0.11
  40   6     0.15  -0.03  -0.08     0.03  -0.03  -0.04    -0.02   0.12  -0.02
  41   6     0.20  -0.12  -0.00     0.14  -0.14  -0.10    -0.08   0.15   0.13
  42   6    -0.03   0.00   0.01     0.18  -0.07  -0.11    -0.01  -0.07   0.15
  43   6    -0.11   0.04   0.11    -0.06  -0.02   0.02     0.00  -0.15  -0.04
  44   6    -0.04  -0.00  -0.04    -0.12   0.07   0.01    -0.06  -0.01  -0.11
  45   6     0.06  -0.02   0.02     0.07  -0.20   0.00     0.14  -0.03  -0.08
  46   6     0.04  -0.01   0.08     0.07  -0.18   0.01     0.12  -0.05   0.03
  47   6     0.08   0.05   0.03     0.05   0.02  -0.07     0.08   0.07   0.07
  48   6     0.08  -0.00   0.02     0.07   0.00  -0.08     0.10   0.00   0.05
  49   1    -0.05  -0.01  -0.00    -0.04   0.01  -0.01    -0.04  -0.03  -0.01
  50   1    -0.04  -0.02   0.02    -0.03   0.01  -0.01    -0.03  -0.04   0.03
  51   1    -0.02  -0.03   0.05    -0.02  -0.00   0.02    -0.02  -0.04   0.04
  52   1     0.02   0.00  -0.03    -0.01   0.01  -0.01     0.01   0.00  -0.02
  53   1     0.02   0.02  -0.02    -0.01   0.01  -0.01     0.01   0.03  -0.01
  54   1    -0.04  -0.03  -0.02    -0.03   0.01   0.02    -0.04  -0.02  -0.01
  55   1    -0.01  -0.04  -0.01    -0.01  -0.01   0.03    -0.01  -0.04  -0.02
  56   1     0.02   0.06   0.06     0.05  -0.05  -0.04     0.03   0.05   0.05
  57   1     0.01  -0.02   0.09     0.03  -0.01  -0.04     0.02  -0.02   0.07
  58   1     0.01   0.04   0.03     0.03  -0.07   0.01     0.02   0.03   0.03
  59   1     0.00  -0.02  -0.04     0.01   0.04   0.01     0.00  -0.01  -0.04
  60   1    -0.02  -0.01  -0.04    -0.02   0.04   0.01    -0.02   0.01  -0.03
  61   1    -0.01  -0.04   0.02     0.01  -0.04  -0.00    -0.01  -0.07   0.00
  62   1     0.00  -0.05  -0.01     0.01  -0.05  -0.00     0.01  -0.05  -0.04
  63   1    -0.03  -0.02  -0.05    -0.01   0.00  -0.00     0.01   0.07   0.02
  64   1    -0.02  -0.02  -0.04    -0.03  -0.01  -0.03     0.01   0.04   0.05
  65   1    -0.00   0.02  -0.05     0.01  -0.03   0.03    -0.04   0.01   0.03
  66   1    -0.00   0.04  -0.03     0.02  -0.05   0.05    -0.04  -0.00   0.01
  67   1    -0.01  -0.01   0.07    -0.02   0.03  -0.05    -0.01  -0.05   0.01
  68   1     0.07   0.00   0.03    -0.09   0.01  -0.01     0.01  -0.03   0.00
  69   1     0.04  -0.01   0.07    -0.03   0.04  -0.05    -0.03  -0.05   0.02
  70   1    -0.02   0.01  -0.01    -0.01  -0.01   0.01    -0.02   0.02  -0.02
  71   1    -0.02   0.00  -0.03    -0.01  -0.01   0.01    -0.01   0.03   0.01
  72   1    -0.01  -0.00   0.05    -0.03   0.05  -0.04     0.01  -0.01  -0.02
  73   1    -0.02  -0.00   0.06     0.01   0.05  -0.03     0.01  -0.01  -0.04
  74   1     0.00  -0.02  -0.12     0.04  -0.01   0.05    -0.01   0.02   0.08
  75   1    -0.01  -0.05  -0.09     0.06   0.04   0.03    -0.01   0.03   0.06
  76   1     0.03   0.07  -0.09     0.03   0.00   0.03    -0.04  -0.06   0.06
  77   1    -0.02   0.01   0.05    -0.01  -0.02   0.01     0.02  -0.01  -0.06
  78   1    -0.01   0.01   0.05    -0.04  -0.01  -0.01     0.02  -0.00  -0.03
  79   1     0.05   0.03   0.02     0.05   0.07   0.06    -0.00  -0.04  -0.02
  80   1     0.05   0.02   0.02     0.03   0.05   0.05     0.02   0.00  -0.04
  81   1     0.05   0.01  -0.05     0.03   0.02  -0.01    -0.02   0.01  -0.02
  82   1     0.06  -0.02  -0.03    -0.01  -0.02  -0.01     0.02   0.06  -0.01
  83   1     0.11  -0.04  -0.03     0.07  -0.04  -0.05    -0.05   0.06   0.09
  84   1     0.06  -0.07   0.05     0.03  -0.07  -0.02    -0.02   0.08   0.00
  85   1    -0.02   0.01   0.03     0.08  -0.06  -0.05     0.00  -0.03   0.05
  86   1    -0.03   0.01  -0.05     0.08   0.03  -0.04     0.01  -0.03   0.08
  87   1    -0.08   0.03   0.03    -0.04   0.02   0.01     0.02  -0.09  -0.01
  88   1    -0.01   0.01   0.08    -0.03  -0.05   0.04    -0.01  -0.04  -0.04
  89   1    -0.02  -0.01  -0.03    -0.03   0.04  -0.02    -0.00   0.02  -0.04
  90   1    -0.01  -0.00  -0.01    -0.06   0.03   0.02    -0.05  -0.01  -0.04
  91   1     0.03  -0.00   0.00     0.03  -0.07   0.00     0.05   0.00  -0.03
  92   1     0.02   0.01   0.03     0.02  -0.06   0.01     0.05  -0.01   0.02
  93   1     0.03   0.02   0.02     0.02   0.00  -0.02     0.03   0.02   0.03
  94   1     0.03  -0.01   0.01     0.03  -0.00  -0.03     0.04  -0.01   0.02
                     28                     29                     30
                        a                      a                      a 
 Frequencies --   166.8251               193.2820               216.8323
 Red. masses --    10.4361                10.6719                 9.7596
 Frc consts  --     0.0000                 0.0000                 0.0000
 IR Inten    --     2.2809                 0.3448                 0.4287
 Raman Activ --     0.0000                 0.0000                 0.0000
[...]
  44   6     0.00  -0.00   0.00    -0.00  -0.00   0.00     0.00   0.00  -0.00
  45   6     0.00   0.00  -0.00     0.00   0.00   0.00     0.00   0.00   0.00
  46   6    -0.01  -0.00   0.01     0.00   0.00  -0.00     0.01   0.00  -0.01
  47   6    -0.00   0.14  -0.04     0.00  -0.00   0.00    -0.00  -0.08   0.03
  48   6     0.03   0.05   0.04    -0.00  -0.00  -0.00    -0.02  -0.04  -0.03
  49   1    -0.01  -0.01   0.01     0.00   0.00  -0.00    -0.00  -0.01   0.00
  50   1     0.00  -0.00  -0.00    -0.00   0.00   0.00    -0.00   0.00   0.00
  51   1     0.00   0.00   0.00    -0.00  -0.00  -0.00     0.00  -0.00  -0.00
  52   1    -0.00  -0.28   0.09     0.00   0.00  -0.00    -0.00  -0.17   0.05
  53   1    -0.26  -0.42  -0.33     0.00   0.00   0.00    -0.14  -0.23  -0.17
  54   1    -0.13   0.14  -0.11     0.01  -0.01   0.01    -0.31   0.33  -0.26
  55   1    -0.08  -0.01   0.01     0.01   0.00  -0.00    -0.32  -0.02   0.02
  56   1    -0.01   0.00  -0.01    -0.00   0.00  -0.00     0.01  -0.01   0.01
  57   1     0.00   0.00   0.00     0.00   0.00   0.00    -0.00  -0.01  -0.00
  58   1    -0.00   0.00   0.00     0.00  -0.00  -0.00    -0.01   0.00   0.01
  59   1    -0.09   0.09  -0.08    -0.00   0.00  -0.00     0.16  -0.16   0.13
  60   1    -0.33  -0.02   0.03    -0.02  -0.00   0.00     0.47   0.03  -0.04
  61   1     0.00   0.00   0.01    -0.00  -0.01  -0.02     0.00   0.00   0.00
  62   1     0.06   0.02  -0.06     0.02   0.01  -0.02     0.01   0.00  -0.01
  63   1     0.00   0.00  -0.00     0.01   0.01  -0.02    -0.01  -0.00   0.01
  64   1    -0.00   0.01  -0.00    -0.00   0.00  -0.00     0.00  -0.01   0.00
  65   1     0.00   0.01   0.01     0.14   0.28   0.15    -0.00  -0.00  -0.00
  66   1    -0.00   0.00   0.00    -0.10   0.09   0.16     0.00  -0.00  -0.00
  67   1     0.00   0.00   0.00    -0.01  -0.00  -0.01    -0.00  -0.00  -0.00
  68   1     0.00  -0.00  -0.00     0.00  -0.00   0.00     0.00  -0.00   0.00
  69   1    -0.00   0.00   0.00    -0.01   0.01   0.01     0.00  -0.00  -0.00
  70   1     0.00   0.01   0.00    -0.11  -0.23  -0.13    -0.00  -0.00  -0.00
  71   1    -0.01   0.01   0.01     0.22  -0.21  -0.36     0.00  -0.00  -0.00
  72   1    -0.01  -0.00  -0.00     0.41   0.17   0.10     0.02   0.01   0.00
  73   1    -0.00   0.00  -0.00     0.21  -0.17   0.07     0.01  -0.01   0.00
  74   1    -0.00  -0.00   0.00    -0.01  -0.00   0.00    -0.00  -0.00   0.00
  75   1    -0.00   0.00  -0.00     0.01  -0.00   0.01     0.00  -0.00   0.00
  76   1     0.00   0.00   0.00     0.00  -0.00  -0.01     0.00  -0.00  -0.00
  77   1    -0.01  -0.00  -0.00    -0.20  -0.08  -0.05    -0.00  -0.00  -0.00
  78   1    -0.01   0.01  -0.00    -0.27   0.22  -0.09    -0.00   0.00  -0.00
  79   1    -0.00  -0.00   0.00    -0.02  -0.01   0.03     0.00   0.00  -0.00
  80   1    -0.00   0.00  -0.00    -0.00   0.01  -0.01     0.00  -0.00   0.00
  81   1    -0.00   0.00   0.00     0.00  -0.00   0.00    -0.00   0.00   0.00
  82   1    -0.00  -0.00  -0.00     0.00  -0.00  -0.00    -0.00  -0.00  -0.00
  83   1     0.00  -0.00   0.00     0.00  -0.00   0.00    -0.00   0.00  -0.00
  84   1    -0.00   0.00   0.00     0.00  -0.00  -0.00    -0.00   0.00   0.00
  85   1    -0.00  -0.00  -0.00     0.00   0.00   0.00     0.00   0.00   0.00
  86   1    -0.00   0.00   0.00     0.00  -0.00  -0.00    -0.00   0.00   0.00
  87   1    -0.00  -0.00  -0.00     0.00   0.00   0.00     0.00   0.00   0.00
  88   1    -0.00   0.00   0.00     0.00  -0.00  -0.00    -0.00   0.00  -0.00
  89   1     0.00  -0.00  -0.00     0.00  -0.00  -0.00    -0.00   0.00   0.00
  90   1    -0.00   0.00  -0.00    -0.00   0.00  -0.00     0.00  -0.00   0.00
  91   1     0.00   0.00   0.00    -0.00  -0.00  -0.00    -0.00  -0.00  -0.01
  92   1     0.03   0.01  -0.03    -0.00  -0.00   0.00    -0.02  -0.01   0.02
  93   1     0.00  -0.47   0.15    -0.00   0.00  -0.00    -0.00   0.28  -0.09
  94   1    -0.09  -0.15  -0.11     0.00   0.00   0.00     0.07   0.12   0.09
                    271                    272                    273
                        a                      a                      a 
 Frequencies --  3084.0439              3084.1495              3085.1941
 Red. masses --     1.8729                 1.8709                 1.8714
 Frc consts  --     0.0000                 0.0000                 0.0000
 IR Inten    --     5.6902                34.8933                62.1386
 Raman Activ --     0.0000                 0.0000                 0.0000
 Depolar     --     0.0000                 0.0000                 0.0000
 Atom AN      X      Y      Z        X      Y      Z        X      Y      Z
   1   6    -0.00  -0.00   0.00     0.00   0.00  -0.00     0.00   0.00  -0.00
   2   6     0.00  -0.00   0.00    -0.00   0.00  -0.01    -0.00   0.00  -0.00
   3   6    -0.00  -0.00   0.00     0.00   0.06  -0.02     0.00   0.04  -0.01
   4   6    -0.00  -0.01  -0.00     0.04   0.07   0.05     0.03   0.06   0.04
   5   6    -0.00   0.00  -0.00     0.00  -0.00   0.01     0.00  -0.00   0.01
   6   7    -0.00  -0.00   0.00    -0.00  -0.00  -0.00     0.00   0.00  -0.00
   7   6    -0.00  -0.00   0.00     0.00   0.00  -0.00     0.00   0.00  -0.00
   8   6     0.00  -0.00   0.00    -0.05   0.05  -0.04    -0.03   0.03  -0.03
   9   6     0.00   0.00  -0.00    -0.05  -0.00   0.00    -0.03  -0.00   0.00
  10   6     0.00   0.00  -0.00    -0.00  -0.00   0.00    -0.00  -0.00   0.00
  11   6    -0.00   0.00  -0.00    -0.00  -0.00   0.00    -0.00  -0.00   0.00
  12   6    -0.00   0.00  -0.00     0.02  -0.02   0.02     0.01  -0.01   0.01
  13   6    -0.00  -0.00   0.00     0.06   0.00  -0.00     0.04   0.00  -0.00
  14   6     0.00   0.00   0.00     0.00   0.00   0.00    -0.01  -0.00  -0.00
  15   6     0.00   0.00   0.00     0.01   0.02   0.08    -0.02  -0.03  -0.14
  16   6    -0.00  -0.00   0.00    -0.09  -0.03   0.08     0.13   0.04  -0.12
  17   6    -0.00  -0.00  -0.00    -0.00  -0.00  -0.00     0.00   0.00   0.00
  18   6    -0.00  -0.00   0.00    -0.00   0.00   0.00     0.00   0.00  -0.00
  19   6    -0.00   0.00   0.00     0.00  -0.00  -0.00    -0.00  -0.00   0.00
  20   6    -0.02  -0.01   0.02    -0.00  -0.00   0.00     0.00   0.00  -0.01
  21   6     0.00  -0.01   0.01     0.00  -0.00   0.00    -0.00   0.01  -0.00
  22   6     0.00  -0.00  -0.00     0.00  -0.00  -0.00    -0.00   0.00   0.00
  23   7    -0.00   0.00   0.00    -0.00  -0.00   0.00    -0.00   0.00   0.00
  24   6     0.01   0.00  -0.00     0.00   0.00  -0.00     0.00   0.00  -0.00
  25   6     0.05   0.10   0.06     0.00   0.00   0.00     0.00   0.00   0.00
  26   6    -0.03   0.03   0.05    -0.00   0.00   0.00    -0.00   0.00   0.00
  27   6    -0.01  -0.00   0.00    -0.00  -0.00   0.00    -0.00  -0.00   0.00
  28   6    -0.00   0.00   0.00    -0.00   0.00   0.00    -0.00   0.00   0.00
  29   6    -0.03  -0.06  -0.03    -0.00  -0.00  -0.00    -0.00  -0.00  -0.00
  30   6     0.05  -0.05  -0.09     0.00  -0.00  -0.01     0.00  -0.00  -0.00
  31   6    -0.00  -0.01   0.00     0.00   0.00  -0.00    -0.00  -0.00   0.00
  32   6    -0.13  -0.05  -0.03    -0.00  -0.00  -0.00    -0.01  -0.00  -0.00
  33   6    -0.06   0.05  -0.02    -0.00   0.00  -0.00    -0.00   0.00  -0.00
  34   6     0.00   0.01  -0.00     0.00  -0.00   0.00     0.00   0.00  -0.00
  35   6     0.00   0.00  -0.00    -0.00   0.00  -0.00     0.00   0.00  -0.00
  36   6     0.05   0.02   0.01    -0.00  -0.00  -0.00     0.01   0.00   0.00
  37   6     0.07  -0.05   0.02    -0.00   0.00  -0.00     0.01  -0.01   0.00
  38   6    -0.01  -0.00   0.01     0.00   0.00  -0.00    -0.00  -0.00   0.00
  39   6    -0.00   0.00  -0.00     0.00  -0.00   0.00    -0.00   0.00  -0.00
  40   6     0.00  -0.00   0.00     0.00  -0.00   0.00    -0.00   0.00  -0.00
  41   6     0.00  -0.00  -0.00    -0.00  -0.00   0.00     0.00   0.00  -0.00
  42   6     0.00  -0.00  -0.00    -0.00  -0.00  -0.00     0.00   0.00   0.00
  43   6     0.00  -0.00  -0.00    -0.00   0.00  -0.00     0.00  -0.00   0.00
  44   6     0.00  -0.00   0.00     0.00  -0.00   0.00    -0.00  -0.00  -0.00
  45   6     0.00   0.00   0.00     0.00   0.00   0.01    -0.00  -0.01  -0.02
  46   6     0.00   0.00  -0.00     0.00   0.00  -0.00    -0.01  -0.00   0.01
  47   6    -0.00   0.01  -0.00     0.00  -0.14   0.04     0.00  -0.08   0.02
  48   6     0.00   0.00   0.00    -0.03  -0.06  -0.04    -0.02  -0.03  -0.02
  49   1     0.00   0.00  -0.00    -0.00  -0.01   0.00    -0.00  -0.01   0.00
  50   1     0.00  -0.00  -0.00    -0.00   0.01   0.01    -0.00   0.01   0.01
  51   1    -0.00   0.00   0.00     0.01  -0.00  -0.00     0.01  -0.00  -0.00
  52   1     0.00   0.01  -0.00    -0.00  -0.19   0.06    -0.00  -0.14   0.05
  53   1     0.01   0.02   0.01    -0.15  -0.24  -0.18    -0.12  -0.20  -0.15
  54   1    -0.00   0.00  -0.00     0.18  -0.19   0.15     0.11  -0.12   0.09
  55   1    -0.00  -0.00   0.00     0.16   0.01  -0.01     0.11   0.01  -0.01
  56   1     0.00  -0.00   0.00    -0.01   0.00  -0.01    -0.01   0.00  -0.00
  57   1    -0.00  -0.00  -0.00     0.00   0.00   0.00     0.00   0.00   0.00
  58   1    -0.00   0.00   0.00     0.01  -0.00  -0.00     0.00  -0.00  -0.00
  59   1     0.00  -0.00   0.00    -0.07   0.07  -0.06    -0.05   0.05  -0.04
  60   1     0.01   0.00  -0.00    -0.22  -0.01   0.02    -0.13  -0.01   0.01
  61   1    -0.00  -0.00  -0.02    -0.03  -0.07  -0.28     0.06   0.12   0.47
  62   1     0.01   0.00  -0.01     0.30   0.09  -0.29    -0.44  -0.13   0.43
  63   1     0.05   0.02  -0.07     0.01   0.00  -0.01    -0.02  -0.01   0.02
  64   1    -0.00   0.03  -0.02    -0.00   0.01  -0.01     0.00  -0.02   0.01
  65   1    -0.17  -0.35  -0.19    -0.01  -0.02  -0.01    -0.00  -0.01  -0.00
  66   1     0.11  -0.10  -0.18     0.01  -0.01  -0.01     0.00  -0.00  -0.00
  67   1     0.01   0.00   0.01     0.00   0.00   0.00     0.00   0.00   0.00
  68   1    -0.00   0.01  -0.00    -0.00   0.00  -0.00    -0.00   0.00  -0.00
  69   1     0.01  -0.01  -0.01     0.00  -0.00  -0.00     0.00  -0.00  -0.00
  70   1     0.10   0.20   0.11     0.01   0.01   0.01     0.00   0.00   0.00
  71   1    -0.18   0.18   0.31    -0.01   0.01   0.02    -0.00   0.00   0.01
  72   1     0.44   0.18   0.11     0.00   0.00   0.00     0.02   0.01   0.01
  73   1     0.21  -0.17   0.07     0.00  -0.00   0.00     0.01  -0.01   0.00
  74   1    -0.01  -0.00   0.00     0.00   0.00  -0.00    -0.00  -0.00   0.00
  75   1     0.01  -0.01   0.01     0.00  -0.00   0.00     0.00  -0.00   0.00
  76   1     0.00  -0.00  -0.01     0.00  -0.00  -0.00     0.00  -0.00  -0.00
  77   1    -0.18  -0.07  -0.04     0.01   0.00   0.00    -0.02  -0.01  -0.00
  78   1    -0.24   0.19  -0.08     0.02  -0.01   0.00    -0.03   0.03  -0.01
  79   1     0.02   0.01  -0.03    -0.00  -0.00   0.00     0.00   0.00  -0.01
  80   1     0.00  -0.01   0.01    -0.00   0.01  -0.01     0.00  -0.01   0.01
  81   1    -0.00   0.00   0.00    -0.00   0.00   0.00     0.00  -0.00  -0.00
  82   1    -0.00  -0.00  -0.00     0.00  -0.00  -0.01    -0.00   0.00   0.01
  83   1    -0.00   0.00  -0.00    -0.00   0.00  -0.00     0.00  -0.00   0.00
  84   1    -0.00   0.00   0.00     0.00  -0.00  -0.00    -0.00   0.00   0.00
  85   1     0.00   0.00   0.00     0.00   0.00   0.00    -0.00  -0.00  -0.00
  86   1    -0.00   0.00   0.00    -0.00   0.00   0.00     0.00  -0.00  -0.00
  87   1     0.00  -0.00   0.00     0.00   0.00   0.00    -0.00  -0.00  -0.00
  88   1    -0.00   0.00   0.00     0.00  -0.00  -0.00    -0.00   0.00   0.00
  89   1    -0.00   0.00   0.00     0.00  -0.00  -0.00    -0.00   0.00   0.00
  90   1     0.00   0.00  -0.00    -0.00   0.00  -0.00     0.00  -0.00   0.00
  91   1    -0.00  -0.00  -0.00    -0.00  -0.01  -0.03     0.01   0.02   0.08
  92   1    -0.00  -0.00   0.00    -0.00  -0.00   0.00     0.05   0.02  -0.05
  93   1     0.00  -0.03   0.01    -0.00   0.48  -0.15    -0.00   0.26  -0.08
  94   1    -0.01  -0.01  -0.01     0.11   0.19   0.14     0.06   0.11   0.08
                    274                    275                    276
                        a                      a                      a 
 Frequencies --  3088.4684              3105.1374              3105.4756
 Red. masses --     1.8685                 1.8396                 1.8406
 Frc consts  --     0.0000                 0.0000                 0.0000
 IR Inten    --    91.8572                58.3085                52.6966
 Raman Activ --     0.0000                 0.0000                 0.0000
 Depolar     --     0.0000                 0.0000                 0.0000
 Atom AN      X      Y      Z        X      Y      Z        X      Y      Z
   1   6     0.00  -0.00  -0.00     0.00  -0.00   0.00     0.00  -0.00   0.00
   2   6    -0.00   0.00  -0.00     0.00  -0.00   0.00     0.00  -0.00   0.00
   3   6     0.00   0.00  -0.00    -0.00  -0.00   0.00     0.00  -0.00   0.00
   4   6     0.00   0.00   0.00     0.00   0.00   0.00    -0.00  -0.00  -0.00
   5   6     0.00  -0.00   0.00     0.00  -0.00   0.00     0.00  -0.00   0.00
   6   7     0.00   0.00   0.00    -0.00   0.00  -0.00    -0.00  -0.00  -0.00
   7   6    -0.00  -0.00   0.00    -0.00   0.00  -0.00     0.00   0.00  -0.00
   8   6    -0.00   0.00  -0.00     0.00  -0.00   0.00     0.00  -0.00   0.00
   9   6    -0.00  -0.00   0.00     0.00   0.00  -0.00     0.00   0.00  -0.00
  10   6     0.00   0.00  -0.00     0.00   0.00  -0.00     0.00   0.00  -0.00
  11   6    -0.00   0.00   0.00     0.00   0.00  -0.00     0.00   0.00  -0.00
  12   6    -0.00   0.00  -0.00    -0.00   0.00  -0.00    -0.00   0.00  -0.00
  13   6    -0.01  -0.00   0.00     0.00   0.00   0.00    -0.00  -0.00   0.00
  14   6    -0.00  -0.00  -0.00     0.00   0.00   0.00     0.00   0.00   0.00
  15   6    -0.00  -0.00  -0.01     0.00   0.00   0.00     0.00   0.00   0.01
  16   6     0.01   0.00  -0.01    -0.01  -0.00   0.01    -0.01  -0.00   0.01
  17   6     0.00   0.00   0.00    -0.00  -0.00  -0.00    -0.01  -0.00  -0.00
  18   6    -0.00  -0.00   0.00    -0.00   0.00  -0.00     0.00  -0.00  -0.00
  19   6    -0.00   0.00   0.00    -0.01   0.01   0.00     0.00  -0.00  -0.00
  20   6    -0.13  -0.06   0.17    -0.01  -0.01   0.02     0.00   0.00  -0.00
  21   6     0.02  -0.15   0.08     0.00  -0.01   0.01    -0.00   0.00  -0.00
  22   6     0.01  -0.00  -0.00     0.00  -0.00   0.00    -0.00   0.00   0.00
  23   7    -0.00   0.00   0.00    -0.00   0.00   0.00     0.00  -0.00  -0.00
  24   6    -0.00  -0.00   0.00     0.00   0.00  -0.00    -0.00  -0.00   0.00
  25   6    -0.00  -0.01  -0.01    -0.00  -0.00  -0.00     0.00   0.00   0.00
  26   6     0.00  -0.00  -0.01     0.00  -0.00  -0.00    -0.00   0.00   0.00
  27   6     0.00   0.00  -0.00     0.00   0.00  -0.00    -0.00  -0.00   0.00
  28   6     0.00  -0.00  -0.00     0.00   0.00  -0.00     0.00  -0.00  -0.00
  29   6     0.00   0.01   0.00     0.00   0.00   0.00    -0.00  -0.00  -0.00
  30   6    -0.00   0.00   0.00    -0.00   0.00   0.00     0.00  -0.00  -0.00
  31   6     0.00   0.00   0.00    -0.00  -0.00  -0.00     0.00   0.00  -0.00
  32   6     0.01   0.00   0.00     0.00   0.00   0.00    -0.00  -0.00  -0.00
  33   6     0.01  -0.00   0.00     0.00  -0.00   0.00    -0.00   0.00  -0.00
  34   6     0.00  -0.00   0.00    -0.00  -0.00  -0.00     0.00   0.00   0.00
  35   6    -0.00  -0.00   0.00    -0.00  -0.00   0.00     0.00   0.00  -0.00
  36   6    -0.01  -0.00  -0.00    -0.00  -0.00  -0.00     0.00   0.00   0.00
  37   6    -0.01   0.01  -0.00    -0.00   0.00  -0.00     0.00  -0.00   0.00
  38   6     0.00   0.00  -0.01     0.03   0.02  -0.05    -0.01  -0.00   0.01
  39   6     0.01  -0.02   0.01    -0.03   0.22  -0.14     0.01  -0.04   0.02
  40   6    -0.00   0.00   0.00    -0.00   0.00  -0.00     0.00  -0.00   0.00
  41   6    -0.00   0.00  -0.00     0.00  -0.00   0.00    -0.00   0.00   0.00
  42   6    -0.00   0.00   0.00     0.00  -0.00  -0.00     0.00  -0.00  -0.00
  43   6     0.00  -0.00   0.00     0.00  -0.00  -0.00    -0.00  -0.00   0.00
  44   6    -0.00  -0.01   0.00    -0.00  -0.00   0.00     0.00  -0.00  -0.00
  45   6    -0.00  -0.00  -0.00    -0.00  -0.01  -0.04    -0.02  -0.06  -0.26
  46   6     0.00   0.00  -0.00     0.01   0.00  -0.01     0.04   0.01  -0.04
  47   6     0.00  -0.00   0.00    -0.00   0.00  -0.00    -0.00   0.00  -0.00
  48   6    -0.00  -0.00  -0.00     0.00   0.00   0.00     0.00   0.00   0.00
  49   1    -0.00  -0.00   0.00     0.00   0.00  -0.00     0.00   0.00  -0.00
  50   1    -0.00   0.00   0.00     0.00   0.00   0.00     0.00  -0.00  -0.00
  51   1     0.00  -0.00  -0.00    -0.00   0.00   0.00    -0.00   0.00   0.00
  52   1    -0.00  -0.00   0.00     0.00   0.00  -0.00     0.00   0.00  -0.00
  53   1    -0.00  -0.01  -0.00    -0.00  -0.00  -0.00     0.00   0.00   0.00
  54   1     0.00  -0.00   0.00    -0.00   0.00  -0.00    -0.00   0.00  -0.00
  55   1     0.00   0.00  -0.00    -0.00  -0.00   0.00    -0.00  -0.00   0.00
  56   1    -0.00  -0.00  -0.00     0.00  -0.00   0.00     0.00  -0.00   0.00
  57   1     0.00   0.00   0.00    -0.00  -0.00  -0.00    -0.00  -0.00  -0.00
  58   1     0.00  -0.00  -0.00    -0.00   0.00   0.00    -0.00   0.00   0.00
  59   1     0.00  -0.00   0.00     0.00  -0.00   0.00     0.00  -0.00   0.00
  60   1     0.02   0.00  -0.00    -0.00   0.00  -0.00     0.01   0.00  -0.00
  61   1     0.00   0.01   0.03    -0.00  -0.00  -0.01    -0.00  -0.01  -0.03
  62   1    -0.03  -0.01   0.03     0.02   0.01  -0.02     0.04   0.01  -0.04
  63   1     0.43   0.20  -0.58     0.05   0.02  -0.06    -0.01  -0.00   0.01
  64   1    -0.07   0.50  -0.27    -0.01   0.04  -0.02     0.00  -0.01   0.01
  65   1     0.02   0.03   0.02     0.00   0.01   0.00    -0.00  -0.00  -0.00
  66   1    -0.01   0.01   0.02    -0.00   0.00   0.00     0.00  -0.00  -0.00
  67   1    -0.00  -0.00  -0.00    -0.00  -0.00  -0.00     0.00   0.00   0.00
  68   1     0.00  -0.00   0.00     0.00  -0.00   0.00    -0.00   0.00  -0.00
  69   1    -0.00   0.00   0.00    -0.00   0.00   0.00    -0.00   0.00   0.00
  70   1    -0.01  -0.02  -0.01    -0.00  -0.01  -0.00     0.00   0.00   0.00
  71   1     0.01  -0.01  -0.02     0.00  -0.00  -0.01    -0.00   0.00   0.00
  72   1    -0.03  -0.01  -0.01    -0.01  -0.00  -0.00     0.00   0.00   0.00
  73   1    -0.02   0.01  -0.01    -0.00   0.00  -0.00     0.00  -0.00   0.00
  74   1     0.00   0.00  -0.00     0.00   0.00  -0.00    -0.00  -0.00   0.00
  75   1    -0.00   0.00  -0.00    -0.00   0.00  -0.00     0.00  -0.00   0.00
  76   1    -0.00   0.00   0.00    -0.00   0.00   0.00     0.00  -0.00  -0.00
  77   1     0.03   0.01   0.01     0.00   0.00   0.00    -0.00  -0.00  -0.00
  78   1     0.05  -0.04   0.02     0.00  -0.00   0.00    -0.00   0.00  -0.00
  79   1    -0.02  -0.01   0.03    -0.10  -0.05   0.15     0.02   0.01  -0.03
  80   1    -0.02   0.09  -0.05     0.13  -0.79   0.47    -0.02   0.13  -0.07
  81   1     0.00  -0.00  -0.00     0.00  -0.00  -0.00    -0.00   0.00   0.00
  82   1    -0.00   0.00  -0.00    -0.00   0.00   0.02     0.00  -0.00  -0.00
  83   1     0.00  -0.00   0.00    -0.00   0.01  -0.00     0.00   0.00  -0.00
  84   1     0.00   0.00   0.00    -0.01   0.00   0.00     0.00  -0.00  -0.00
  85   1    -0.00  -0.00  -0.00    -0.00  -0.00  -0.00     0.00   0.00   0.00
  86   1     0.00  -0.00  -0.00    -0.00   0.00   0.00    -0.00   0.00   0.00
  87   1    -0.00  -0.00  -0.00    -0.00   0.00   0.00    -0.00   0.00   0.00
  88   1    -0.00   0.00   0.00    -0.00   0.00  -0.00     0.00  -0.00  -0.00
  89   1     0.00  -0.00  -0.00    -0.00  -0.00   0.00    -0.01   0.00   0.01
  90   1    -0.00   0.03  -0.01    -0.00   0.00  -0.00    -0.00  -0.01   0.00
  91   1     0.00   0.00   0.01     0.02   0.03   0.14     0.10   0.21   0.90
  92   1    -0.00  -0.00   0.00    -0.02  -0.01   0.02    -0.13  -0.04   0.13
  93   1    -0.00   0.00  -0.00     0.00  -0.00   0.00     0.00  -0.01   0.00
  94   1     0.00   0.00   0.00    -0.00  -0.00  -0.00    -0.00  -0.00  -0.00
