$hessian                                                                        
        0.0874615318  -0.0774019239   0.0504478110  -0.0649236977   0.0535598266
       -0.0392016264  -0.0207584158   0.0424407163  -0.0278638872  -0.0104363067
        0.0058307306   0.0005543996  -0.0000002548  -0.0003521428   0.0004670148
        0.0047954626   0.0006204735   0.0005255557  -0.0033799083  -0.0017581484
        0.0002695441   0.0022470406  -0.0025402779   0.0005524107  -0.0035229482
        0.0007055684  -0.0004903553   0.0017397399  -0.0003243916   0.0002223183
       -0.0000805248   0.0002979149  -0.0005621311  -0.0000489602   0.0000909906
        0.0000790186   0.0000146495  -0.0000351666  -0.0000360319   0.0000489025
       -0.0000056087  -0.0000200482  -0.0000290311  -0.0000314871   0.0000797177
        0.0000465274  -0.0000839920  -0.0001585068   0.0000941343  -0.0000146063
        0.0000432175   0.0000248533   0.0000731020   0.0001507017   0.0000036892
        0.0000529404  -0.0000663480   0.0000396737  -0.0000099586   0.0000538220
        0.0000109124   0.0000240417   0.0000356367   0.0000264655  -0.0001090441
       -0.0000424548  -0.0003769495  -0.0001733286   0.0004411359   0.0028948532
        0.0016632946   0.0004164849  -0.0027160556   0.0023659659  -0.0018672508
        0.0058171417  -0.0253852545   0.0126699509  -0.0005227851  -0.0010087930
        0.0006209638   0.0007831152   0.0016163580   0.0009504956   0.0000651529
        0.0001284779   0.0000344277   0.0000612076  -0.0003491268   0.0004292161
        0.0000486366   0.0010049235   0.0002752245   0.0004913768  -0.0004488172
       -0.0001398417   0.0003397170   0.0005307836  -0.0001783921  -0.0006385894
       -0.0000618432   0.0002072270   0.0001003662  -0.0005757532  -0.0000334310
       -0.0010964440   0.0003850083   0.0004386302   0.0008320401   0.0006217135
       -0.0003992648  -0.0001376748  -0.0013076195   0.0002872607  -0.0004141197
        0.0002626578   0.0001204708  -0.0003048125  -0.0006282535   0.0001073385
        0.0006191249   0.0001235052  -0.0002232244  -0.0001662541   0.0006527813
       -0.0000360057   0.0010072847  -0.0004394156  -0.0003833850  -0.0021487446
       -0.0005786040   0.0010277084  -0.0027285928   0.0001414638  -0.0008816563
        0.0036789143   0.0008201097   0.0008131246   0.0002246235  -0.0001192493
       -0.0003472763   0.0000737636   0.0001730996   0.0000396206   0.0000222052
        0.0000487064   0.0000520735   0.0000209981  -0.0000422370  -0.0000074122
        0.0000102936  -0.0000513961   0.0000318482   0.0000334957   0.0000266898
        0.0000062058  -0.0000201098   0.0000044652  -0.0000024679  -0.0000234375
        0.0000133629  -0.0000018125  -0.0000160162  -0.0000153861  -0.0000205938
        0.0000130628   0.0000002139  -0.0000201646   0.0000370917   0.0000348124
        0.0000135195  -0.0000486994   0.0000676246  -0.0000347687   0.0000845335
       -0.0000875122  -0.0002749930   0.0008008697   0.0001154773   0.0005637054
        0.0002913199  -0.0000976820  -0.0001245596  -0.0000381534   0.0000819030
       -0.0000361367  -0.0000371430   0.0000357571  -0.0000223534  -0.0000092487
        0.0000395179   0.0000261639  -0.0000668703   0.0000056818   0.0000162275
       -0.0000770761   0.0000189220   0.0000070013   0.0000559773  -0.0000379422
        0.0000302603   0.0000548406  -0.0000516873  -0.0000086990   0.0000593117
        0.0000548982  -0.0000382464  -0.0001136179  -0.0002907993   0.0003547323
       -0.0001934585  -0.0003170316   0.0000611391
       -0.0774019239   0.4203657568  -0.2306728856   0.0479043944  -0.3372813310
        0.1671701612   0.0376033605  -0.0284428692   0.0259841496   0.0181153423
       -0.0065436018   0.0045649338  -0.0012274782  -0.0011195175  -0.0003624239
       -0.0180140142   0.0020928912  -0.0029343348   0.0119070280   0.0045165546
       -0.0004524560  -0.0073260582   0.0076630733  -0.0029573184   0.0085357494
       -0.0017795401   0.0012083305  -0.0016522396   0.0004453985  -0.0002638004
        0.0002734838   0.0010199931   0.0013594922  -0.0000422901  -0.0005863799
       -0.0006181049  -0.0000849471   0.0001583728   0.0001429306  -0.0001896733
       -0.0002381823  -0.0002181690   0.0002227976   0.0002702427   0.0001958490
        0.0000923702  -0.0004713551  -0.0000094241   0.0001649952  -0.0000642898
        0.0000063341   0.0002086514   0.0003723528   0.0000272911   0.0001804290
       -0.0003964148  -0.0001283165  -0.0001560865   0.0003087944   0.0000824863
       -0.0000435331  -0.0001149412  -0.0001705323  -0.0002807892   0.0007666139
        0.0003734385   0.0002999034  -0.0011133822  -0.0011643135  -0.0103629387
       -0.0038961753  -0.0005425266   0.0088010746  -0.0089390681   0.0046031002
       -0.0137421873  -0.0471408758   0.0320636141   0.0024106942   0.0000253715
        0.0021940104   0.0001143167   0.0011869488  -0.0007918578   0.0002146986
        0.0001387853   0.0004270994   0.0004035274  -0.0000425297  -0.0004337944
       -0.0002531209  -0.0009026691   0.0001909203  -0.0006287982   0.0004180210
        0.0000543344  -0.0005742568  -0.0006060394   0.0002461989   0.0008110188
        0.0001285577  -0.0002752891  -0.0001868451   0.0008533405  -0.0002170179
        0.0016949036  -0.0005630510  -0.0004365571  -0.0012889842  -0.0008855060
        0.0004705141   0.0002246524   0.0019321697  -0.0002538044   0.0005880423
       -0.0003417726  -0.0003101270   0.0004300917   0.0009220181  -0.0002288601
       -0.0007924537  -0.0002439940   0.0002689011   0.0000549615  -0.0006001566
       -0.0000054842  -0.0008388523   0.0001658989   0.0002927007  -0.0005543988
        0.0012233584   0.0026417414  -0.0054205819  -0.0020543637   0.0005653736
       -0.0006086154  -0.0000119336  -0.0025216600  -0.0000790956   0.0010244647
        0.0002492244   0.0002821774  -0.0001355923   0.0000854614   0.0002134985
       -0.0000386511  -0.0002468367  -0.0001041574   0.0002389206   0.0001593896
       -0.0000736783   0.0002444022  -0.0000845247  -0.0001767310  -0.0001150784
       -0.0000041390   0.0001330957   0.0000034899  -0.0000310962   0.0001180738
       -0.0000643997   0.0000288353   0.0000848965   0.0000757788   0.0001027486
       -0.0000216739   0.0000519805   0.0000743567  -0.0001344512  -0.0002815829
       -0.0001802561   0.0001127794  -0.0000810193   0.0004119863  -0.0008053994
        0.0000016271   0.0005611427   0.0002536983  -0.0001265304  -0.0008814600
       -0.0000729404  -0.0001004407   0.0002851952   0.0000844956   0.0000937819
        0.0002149610   0.0000943061  -0.0000336403   0.0000503229   0.0000091561
       -0.0001205827  -0.0000437777   0.0004048172  -0.0000167019  -0.0000113978
        0.0004034674  -0.0000487885   0.0000005043  -0.0002050672   0.0001151302
       -0.0000543617  -0.0001071356   0.0001386080   0.0000532952  -0.0000036374
       -0.0004459000   0.0000963728  -0.0004793247  -0.0004556121   0.0002077064
        0.0004834097  -0.0005182378  -0.0002085006
        0.0504478110  -0.2306728856   0.1511403518  -0.0439240505   0.1679526490
       -0.1387794232  -0.0156848465   0.0215009250  -0.0018011833  -0.0150270833
        0.0075093160   0.0004711458   0.0015940673   0.0013069755   0.0003059723
        0.0135681552  -0.0015933585   0.0024000628  -0.0080956689  -0.0029035943
        0.0005235015   0.0048393131  -0.0050249695   0.0019587216  -0.0053056323
        0.0012285206  -0.0008243121   0.0001695319  -0.0001169096   0.0000979027
        0.0001966003  -0.0014901483  -0.0011148099   0.0002085822   0.0006944994
        0.0006676285   0.0003650750  -0.0003327939  -0.0001377033  -0.0001557309
        0.0001283782  -0.0000035391  -0.0002324718   0.0000335422  -0.0000570286
       -0.0006071455   0.0000568649  -0.0003352899   0.0004619024  -0.0000700821
        0.0000878599  -0.0006079048   0.0002212929   0.0001289641  -0.0002334016
        0.0001093558  -0.0000210303  -0.0001925278  -0.0000227617  -0.0000152162
        0.0003856887   0.0001508978   0.0002776569   0.0002500336  -0.0008279301
       -0.0004767861   0.0003668632   0.0012846134   0.0011619337   0.0070072816
        0.0023383169   0.0001340818  -0.0061623051   0.0062357271  -0.0033932896
        0.0147125785   0.0352763855  -0.0092610392  -0.0044146547  -0.0008523770
       -0.0023032680   0.0014924740   0.0000570219  -0.0007354182  -0.0006928779
       -0.0005384838   0.0002448061  -0.0003378201   0.0000679750   0.0003460760
        0.0000068782   0.0006255194  -0.0002315764   0.0003769326  -0.0002439372
        0.0000015691   0.0002721001   0.0003272753  -0.0000866682  -0.0003740165
       -0.0000845102   0.0001448015   0.0000627643  -0.0003827434   0.0001752128
       -0.0008054250   0.0001619017   0.0001650288   0.0005798244   0.0003722454
       -0.0001989104  -0.0001882769  -0.0008665697   0.0000902536  -0.0002809321
        0.0001432772   0.0001899609  -0.0002156880  -0.0004275214   0.0001086960
        0.0004149708   0.0000926836  -0.0001229588  -0.0000393924   0.0003587716
        0.0000563599   0.0005410887  -0.0002419722  -0.0001428114   0.0023204218
       -0.0003275613  -0.0008221806   0.0012338888  -0.0005793805   0.0024655791
        0.0014111621  -0.0011402046  -0.0020032751  -0.0000291100  -0.0006197674
       -0.0003802181  -0.0002181356   0.0000580415  -0.0001472340  -0.0001665314
       -0.0000093482   0.0001858226   0.0000723748  -0.0001939782  -0.0001284001
        0.0000339878  -0.0001447169   0.0000411323   0.0000934928   0.0000627782
        0.0000015838  -0.0000915672  -0.0000048351   0.0000262269  -0.0000795842
        0.0000308932  -0.0000194277  -0.0000465055  -0.0000455828  -0.0000651423
        0.0000215956  -0.0000313628  -0.0000311615   0.0001088653   0.0001733861
        0.0001357929  -0.0000828787   0.0000473492  -0.0002821475   0.0004878113
        0.0000205748  -0.0003063425   0.0006968354   0.0004795172   0.0007851394
        0.0000865590   0.0000515094  -0.0002384472  -0.0000843892  -0.0000005739
       -0.0001414995  -0.0000388622   0.0000077339  -0.0000296508  -0.0000044620
        0.0000470639   0.0000154880  -0.0002417744  -0.0000039380  -0.0000003828
       -0.0002311406   0.0000171562   0.0000001043   0.0000959469  -0.0000579587
        0.0000207322   0.0000381846  -0.0000698410  -0.0000332503   0.0000225930
        0.0001630830  -0.0001013937   0.0001146249   0.0001575446  -0.0000489878
       -0.0002660674   0.0003710351   0.0002652541
       -0.0649236977   0.0479043944  -0.0439240505   0.5140064506  -0.0286274638
        0.0436670540  -0.2414814438   0.0258981965  -0.0151147817  -0.0191083825
        0.0265667105  -0.0196910162   0.0013909313  -0.0001870936   0.0003976011
        0.0044582792  -0.0020055128   0.0003103810   0.0029974376   0.0011867222
       -0.0001395567  -0.0028013334   0.0045146042  -0.0004257778   0.0070748600
       -0.0012335997   0.0008987560  -0.0052814941   0.0011618298  -0.0008635257
        0.0006833877  -0.0021534682   0.0006766206   0.0001657342   0.0002231990
        0.0002071363   0.0002777630  -0.0001828874  -0.0000095150  -0.0003964794
       -0.0000129981  -0.0000304214   0.0000259858   0.0001708960  -0.0001697731
       -0.0007464661   0.0000262456   0.0000018497   0.0003668970  -0.0001183619
        0.0000531892  -0.0006535579   0.0002890517  -0.0002238668  -0.0001049299
       -0.0001686536   0.0001184858  -0.0003530286   0.0001786026  -0.0001169184
        0.0003211722   0.0000600140   0.0001145231   0.0000357137  -0.0002415177
       -0.0002303727   0.0017197810   0.0015628786  -0.0001699849  -0.0043908619
       -0.0031891169  -0.0008481779   0.0022087982  -0.0010423206   0.0021449450
       -0.1313401787  -0.0420273079   0.0259390966  -0.0401018446  -0.0160119535
       -0.0019959320   0.0023850349   0.0011523908  -0.0101317045  -0.0037400792
       -0.0031313857   0.0025069409  -0.0007740666   0.0005581102  -0.0002409431
       -0.0003922795   0.0003679665  -0.0005780037   0.0000034985   0.0000520152
        0.0000952163  -0.0002286379  -0.0001377511   0.0001480864   0.0004299645
       -0.0000242166  -0.0001304997  -0.0001217312   0.0004411060   0.0001362103
        0.0005512373  -0.0004580542  -0.0003569118  -0.0004816633  -0.0004346400
        0.0003547243  -0.0001963724   0.0009088021  -0.0003051327   0.0002646414
       -0.0002586917  -0.0000652713   0.0001328481   0.0004069143  -0.0000316720
       -0.0002063545  -0.0001628319   0.0001409998  -0.0000029612  -0.0001153049
        0.0000854253  -0.0001067948  -0.0004090137   0.0002494952   0.0114603341
        0.0018181370  -0.0009237801  -0.0032431822  -0.0186058030   0.0189341979
       -0.0274071220   0.0028597168  -0.0009497545  -0.0004606771   0.0001270014
        0.0006681307   0.0002634695  -0.0003619909  -0.0003486673  -0.0001287989
       -0.0001008682   0.0000209516  -0.0000423202  -0.0000265699  -0.0000967084
        0.0000038884   0.0000603252  -0.0000572326  -0.0000396696  -0.0000313249
       -0.0000164648   0.0000201661   0.0000029657   0.0000109695   0.0000286928
       -0.0000100037  -0.0000177208   0.0000126832   0.0000292953   0.0000251369
       -0.0000074764  -0.0000014069   0.0000454979  -0.0000681482   0.0000398251
        0.0000886866  -0.0000308009   0.0000038632  -0.0001118360  -0.0000932125
        0.0002682279   0.0005083380  -0.0006813715   0.0004428717   0.0007975905
       -0.0008352820  -0.0005202006   0.0001752609  -0.0001156866   0.0000901757
        0.0000722724   0.0000376707  -0.0000605960   0.0000282978  -0.0000040073
       -0.0000820280  -0.0000405470   0.0000404969  -0.0000434726  -0.0000339651
        0.0000455856  -0.0000319662   0.0000078091  -0.0000974556   0.0000518410
       -0.0000453932  -0.0000528337   0.0000720779   0.0000040178   0.0000121901
       -0.0002183409  -0.0000374527  -0.0001693124   0.0009741889  -0.0003537973
       -0.0000135973   0.0019575543  -0.0008067648
        0.0535598266  -0.3372813310   0.1679526490  -0.0286274638   0.5002074178
       -0.2088553735   0.0454369685  -0.0779595560   0.0163026702   0.0057788994
       -0.0015087913   0.0005491248   0.0016809305   0.0034902054  -0.0002831044
        0.0234548615  -0.0070551155   0.0054222877  -0.0158990830  -0.0057344982
        0.0006455671   0.0093380158  -0.0100272395   0.0035096997  -0.0117308650
        0.0025960717  -0.0017916205   0.0025865050  -0.0006173893   0.0003613714
       -0.0000397891  -0.0014952517  -0.0019924516   0.0002821489   0.0010277543
        0.0009847351   0.0005365403  -0.0004583993  -0.0001997528  -0.0001450238
        0.0001994828  -0.0000083477  -0.0003787155  -0.0000001077  -0.0000215693
       -0.0007116489   0.0000713188  -0.0005417238   0.0006262132  -0.0001000591
        0.0001171652  -0.0007567985   0.0002892530   0.0003239512  -0.0003497329
        0.0002277332  -0.0001071028  -0.0001795834  -0.0001011270   0.0000093120
        0.0005168049   0.0001982651   0.0003898718   0.0004338927  -0.0012535453
       -0.0006818663  -0.0001394736   0.0014540171   0.0019067146   0.0133175994
        0.0050581644   0.0010638631  -0.0098720645   0.0112250414  -0.0055457952
       -0.0487854575  -0.0810264502   0.0126157908  -0.0164527476  -0.0016480990
       -0.0050710400   0.0007178557   0.0070292545   0.0005173141  -0.0023551356
       -0.0013804049   0.0009835935   0.0011813190  -0.0007002955  -0.0000215770
        0.0000633756   0.0004868940   0.0002132232   0.0004721064  -0.0003421591
       -0.0000806425   0.0004868966   0.0005149030  -0.0002208292  -0.0007114787
       -0.0001132093   0.0002580109   0.0001229570  -0.0007830653   0.0001647476
       -0.0013886191   0.0004840772   0.0005434028   0.0011012835   0.0007678493
       -0.0005331811  -0.0000762034  -0.0017409801   0.0003224501  -0.0005208149
        0.0003011794   0.0002815927  -0.0003693703  -0.0007981134   0.0001668265
        0.0006847443   0.0002051316  -0.0002649843  -0.0000479875   0.0005502757
       -0.0000595722   0.0008026397  -0.0000178915  -0.0003475242  -0.0002938837
        0.0037517901   0.0011904306  -0.0066233312  -0.0095114819   0.0124560155
       -0.0204112989   0.0039842572  -0.0005739109   0.0002054437  -0.0007947597
       -0.0002312332   0.0001152048   0.0001316477  -0.0000101187  -0.0001897504
        0.0000856624   0.0003397715   0.0001113139  -0.0002827117  -0.0001460870
        0.0000573721  -0.0002694885   0.0000918668   0.0001689678   0.0001012432
        0.0000118865  -0.0001424798  -0.0000081235   0.0000436968  -0.0001242904
        0.0000592574  -0.0000306762  -0.0000811060  -0.0000687426  -0.0001093301
        0.0000272544  -0.0000319041  -0.0000741319   0.0001704851   0.0002820607
        0.0001941913   0.0000075108  -0.0000067376  -0.0005098764   0.0007824485
        0.0000220776  -0.0008430603   0.0021115098  -0.0013374989   0.0005700738
        0.0008297018   0.0001001824  -0.0002872165  -0.0000996757  -0.0000434653
       -0.0001789488  -0.0000868035   0.0000278453  -0.0000424711   0.0000017916
        0.0001103418   0.0000625729  -0.0003979630   0.0000043233   0.0000298936
       -0.0003905964   0.0000494718   0.0000129630   0.0001933580  -0.0001017575
        0.0000662383   0.0000900417  -0.0001302753  -0.0000384195  -0.0000328684
        0.0003629594  -0.0000643951   0.0002728326   0.0002206025  -0.0000658180
        0.0000844828  -0.0009479864  -0.0008417832
       -0.0392016264   0.1671701612  -0.1387794232   0.0436670540  -0.2088553735
        0.2656396833  -0.0324897460   0.0118661412  -0.0541372441   0.0037833501
        0.0038238794  -0.0017379559  -0.0019606952  -0.0029456038  -0.0014783522
       -0.0149727890   0.0041481240   0.0009423579   0.0095421943   0.0028447422
       -0.0005487729  -0.0055935412   0.0062463055  -0.0024102963   0.0066254751
       -0.0017300968   0.0010998598   0.0003120242   0.0001244675  -0.0000909266
       -0.0006557494   0.0025103479   0.0016651677  -0.0005770469  -0.0012458087
       -0.0011407227  -0.0008875278   0.0006755700   0.0002029210   0.0005926415
       -0.0001336841   0.0002454421   0.0004386343  -0.0003536392  -0.0000571782
        0.0014872197   0.0003243615   0.0009148959  -0.0013645360   0.0002034556
       -0.0002423328   0.0013269845  -0.0009227234  -0.0004256604   0.0004880970
        0.0001024247   0.0002626901   0.0006450251  -0.0001968798  -0.0000532266
       -0.0009569551  -0.0002392825  -0.0005514529  -0.0004800344   0.0014359341
        0.0008916018  -0.0008866055  -0.0019445602  -0.0018547501  -0.0088670267
       -0.0030933672  -0.0003344569   0.0074599889  -0.0076209828   0.0036778273
        0.0203156239   0.0168004141  -0.0666757676  -0.0066390634  -0.0080548340
        0.0091806476  -0.0051654002   0.0003402693  -0.0014607833   0.0012044395
        0.0007674188  -0.0000114322  -0.0000040207  -0.0007054719   0.0000101414
       -0.0001445413   0.0001542733   0.0001573717   0.0000098496  -0.0000876562
       -0.0000475386   0.0000009773   0.0000657843  -0.0000105653  -0.0000551177
        0.0000336543  -0.0000192817  -0.0000112375   0.0000412128  -0.0001303099
        0.0000192294  -0.0000442549   0.0000215919  -0.0000212943   0.0000143425
        0.0000118046   0.0000343798   0.0000688365   0.0000419397  -0.0000120487
        0.0000441891  -0.0000920699  -0.0000092724   0.0000173165  -0.0000490111
        0.0000321203   0.0000034071  -0.0000258470  -0.0000477300   0.0001714675
       -0.0000366194   0.0002185178  -0.0000860793  -0.0000555944  -0.0030877598
        0.0022283409  -0.0032760815   0.0192891376   0.0171622102  -0.0139326149
        0.0068486926  -0.0000483634   0.0039085741   0.0001765259   0.0006094558
        0.0002349426   0.0001295093  -0.0001531501   0.0000918052   0.0001980160
        0.0000490288  -0.0002615807  -0.0000978487   0.0002555200   0.0001388997
       -0.0000245039   0.0001513287  -0.0000341221  -0.0000766356  -0.0000463170
       -0.0000006336   0.0001022726   0.0000139300  -0.0000475636   0.0000868072
       -0.0000241612   0.0000201381   0.0000466409   0.0000372419   0.0000625617
       -0.0000217736   0.0000007427   0.0000176271  -0.0001479902  -0.0001963297
       -0.0001802458   0.0000712306   0.0000462979   0.0004167505  -0.0005233870
        0.0000398469   0.0003596908  -0.0013364350  -0.0009684641  -0.0003351493
       -0.0011453903  -0.0006626760   0.0003307088   0.0001137603   0.0000105098
        0.0000657269   0.0000307154   0.0000249697   0.0000120227  -0.0000037719
       -0.0000101704  -0.0000143339   0.0002229411   0.0000084583  -0.0000058559
        0.0002042159  -0.0000049377  -0.0000024532  -0.0000616198   0.0000203532
       -0.0000073503  -0.0000189078   0.0000239680   0.0000230964  -0.0000099159
       -0.0001863934   0.0000460006   0.0007821018   0.0003291088  -0.0003097505
        0.0010531518  -0.0004485510   0.0001708186
       -0.0207584158   0.0376033605  -0.0156848465  -0.2414814438   0.0454369685
       -0.0324897460   0.5793726991  -0.0115310764   0.0364300246  -0.0807203341
        0.0563064989  -0.0109011426   0.0065666853  -0.0233008595   0.0044949058
       -0.0282992013   0.0308918782  -0.0118515651  -0.0011587175   0.0011845940
        0.0003147033   0.0017295747  -0.0024285493   0.0003837670  -0.0034510269
        0.0005940430  -0.0004809728   0.0010027887  -0.0001816903   0.0001917191
        0.0001217637  -0.0006817941  -0.0009381911   0.0003642496   0.0005608221
        0.0005580957   0.0003985873  -0.0003232843  -0.0001031157  -0.0002305380
        0.0000875033  -0.0001094690  -0.0002619947   0.0001249442   0.0000478866
       -0.0005199047  -0.0001967824  -0.0004832782   0.0006232366  -0.0001420447
        0.0000961490  -0.0005042161   0.0004830457   0.0002827691  -0.0002525441
       -0.0000077474  -0.0001309576  -0.0002357180   0.0000203613   0.0000174053
        0.0004151605   0.0001147277   0.0002668893   0.0002659224  -0.0007310782
       -0.0003761764   0.0001239346   0.0006856307   0.0009393052   0.0020216620
        0.0031913914  -0.0010954686  -0.0046448719  -0.0023738831  -0.0006208417
       -0.0472199950  -0.0111598250   0.0021798868   0.0059779656  -0.0005506862
        0.0038655376  -0.0031909499  -0.0040979988   0.0033145032   0.0025869178
        0.0018461200  -0.0015464283   0.0006916652   0.0006317477  -0.0000316913
        0.0004462503  -0.0012555994   0.0001574033  -0.0004446457   0.0004130696
        0.0000715805  -0.0001318824  -0.0003998463   0.0000617169   0.0002398237
        0.0000686684  -0.0000710466   0.0000405796   0.0001372620  -0.0000500328
        0.0004464014   0.0001445423  -0.0001499579  -0.0002717324  -0.0002251996
        0.0000693987   0.0002998484   0.0004070036  -0.0000717995   0.0001497138
       -0.0000109161  -0.0000103315   0.0001614904   0.0001890634  -0.0000563383
       -0.0004020632   0.0000313989   0.0001104354   0.0002306304  -0.0005733579
        0.0000087753  -0.0011148019   0.0008341567   0.0000735258  -0.0051519720
       -0.0025125095  -0.0010041212   0.0019009902   0.0070928220  -0.0079990486
       -0.1605953913  -0.1241468588   0.0316475319  -0.0021834858  -0.0045960406
        0.0005484029  -0.0028024167   0.0016262465  -0.0002395557  -0.0000497909
        0.0000241776   0.0000209834   0.0000281112  -0.0001122905  -0.0000695703
       -0.0000048444  -0.0000357780   0.0000116596  -0.0000023749   0.0000079777
        0.0000039320  -0.0000314843  -0.0000025298   0.0000205012  -0.0000196245
        0.0000076529  -0.0000188099  -0.0000176957  -0.0000018705  -0.0000215746
       -0.0000061076   0.0000066263  -0.0000222354   0.0000409635   0.0001301087
        0.0000612321  -0.0004521384   0.0002624725  -0.0001349470   0.0000391416
       -0.0000084736  -0.0000137503   0.0002156587   0.0003908668   0.0002970761
       -0.0002327454   0.0000298184   0.0002049759   0.0000758347  -0.0001585428
       -0.0000297895  -0.0000042713   0.0000022774  -0.0000028351   0.0000127924
        0.0000208027   0.0000056922  -0.0000060597   0.0000270502   0.0000111749
       -0.0000020018   0.0000054935  -0.0000146003   0.0000290412  -0.0000019701
        0.0000021496   0.0000067842  -0.0000182674  -0.0000032362  -0.0000707595
        0.0001553254   0.0000114090   0.0001726668  -0.0001914417  -0.0001846050
        0.0001286261   0.0001802714   0.0002289725
        0.0424407163  -0.0284428692   0.0215009250   0.0258981965  -0.0779595560
        0.0118661412  -0.0115310764   0.5738910956  -0.1637812070   0.0506248538
       -0.2452995489   0.0594261051  -0.0047666342  -0.0464782246   0.0135884645
        0.0405643777  -0.0166092455   0.0084370296  -0.0053784691  -0.0060415247
        0.0007195217   0.0014176420  -0.0005933529  -0.0008979221  -0.0024784279
       -0.0001888470   0.0000901115   0.0043944293  -0.0009779643   0.0008549849
       -0.0011792167   0.0037740845   0.0006344383  -0.0009184567  -0.0014395143
       -0.0013490013  -0.0014207644   0.0008848789   0.0001041445   0.0013020667
       -0.0000535452   0.0004278784   0.0005209053  -0.0007748113  -0.0000660380
        0.0024199521   0.0007814245   0.0013514453  -0.0023450527   0.0006104311
       -0.0004050673   0.0022143784  -0.0018997791  -0.0005391175   0.0007401485
        0.0004646555   0.0003141295   0.0012357155  -0.0005341844   0.0000398895
       -0.0014945674  -0.0001734748  -0.0006452118  -0.0006102591   0.0017370448
        0.0010826399  -0.0024330303  -0.0029649286  -0.0014055953   0.0023502044
        0.0000648327   0.0019201711  -0.0036222625   0.0082325921  -0.0018485362
       -0.0010672088   0.0134283019  -0.0026150408  -0.0105419854  -0.0012201735
       -0.0009991509   0.0024205974   0.0029651340  -0.0046823202  -0.0021716506
       -0.0017246773   0.0012563150  -0.0020118275  -0.0011077767   0.0007489643
       -0.0003381550   0.0037316355  -0.0003038634   0.0016800095  -0.0013736214
       -0.0003838770   0.0010577555   0.0017196701  -0.0004805821  -0.0018507686
       -0.0002823374   0.0005960011   0.0001362556  -0.0014278881   0.0000866167
       -0.0032116238   0.0004931018   0.0009725975   0.0022525265   0.0016300291
       -0.0008426051  -0.0008445254  -0.0033220154   0.0005769462  -0.0012417493
        0.0006669363   0.0002566284  -0.0009714191  -0.0016053383   0.0003846555
        0.0019647405   0.0003675873  -0.0006192343  -0.0006239500   0.0021540839
       -0.0000616512   0.0034606171  -0.0018049683  -0.0006066372   0.0055941703
        0.0004957778   0.0008276557  -0.0035636048  -0.0057108134   0.0055793226
       -0.1237077735  -0.1654329201   0.0487336262  -0.0021035956  -0.0029249754
        0.0001609625  -0.0017880371   0.0006880092   0.0001284693   0.0000888452
        0.0000903572  -0.0001262790   0.0000456589   0.0001337964   0.0001566173
       -0.0000094707   0.0000664276   0.0000786402  -0.0000060663   0.0000613984
        0.0000316770  -0.0000205035   0.0000206250  -0.0000596037  -0.0000522967
        0.0000006931   0.0000454201  -0.0000356618  -0.0000547147  -0.0000257596
       -0.0000175325  -0.0000657601  -0.0000769147   0.0000268670  -0.0001408213
       -0.0001560531   0.0000328683  -0.0001615374  -0.0000121846  -0.0000866164
       -0.0003493317  -0.0005946780  -0.0002371350   0.0000224138   0.0001471715
        0.0000475272  -0.0004076210  -0.0003157377  -0.0000421318   0.0002136296
        0.0000282455  -0.0000476336   0.0001547579  -0.0000209202  -0.0000336959
        0.0000777855   0.0000156239   0.0000315821  -0.0000008745  -0.0000151727
        0.0000026895   0.0000542217   0.0000116366   0.0000675860  -0.0000725068
        0.0000202254   0.0000714575  -0.0001166690  -0.0000063610   0.0001373916
       -0.0002440325  -0.0000368511  -0.0000682391   0.0001933633   0.0003525127
       -0.0003696570   0.0001119690   0.0004246229
       -0.0278638872   0.0259841496  -0.0018011833  -0.0151147817   0.0163026702
       -0.0541372441   0.0364300246  -0.1637812070   0.1369793001  -0.0127484167
        0.0631282536  -0.0465686928   0.0006547110   0.0094095735  -0.0004982071
       -0.0185575278   0.0080663649  -0.0048943232   0.0033089697   0.0029409013
       -0.0005336189  -0.0010856745   0.0006824626   0.0000698588   0.0008641817
       -0.0001955865   0.0000574102  -0.0005267127   0.0001751254  -0.0001255537
        0.0001010584  -0.0004943904   0.0000657084   0.0000708511   0.0001722545
        0.0001734612   0.0001531163  -0.0000878255  -0.0000007346  -0.0001426182
        0.0000284770  -0.0000069072  -0.0000622107   0.0000880742  -0.0000261849
       -0.0002828101  -0.0000904923  -0.0001484080   0.0002481320  -0.0000290944
        0.0000794808  -0.0002251575   0.0001890329   0.0000360022  -0.0001104367
       -0.0000419976  -0.0000050719  -0.0001317360   0.0000466943  -0.0000278899
        0.0001610520  -0.0000002213   0.0000529352   0.0001235200  -0.0002033224
       -0.0000935990   0.0002554439   0.0003214302  -0.0000484185  -0.0014731519
        0.0003314303  -0.0001507446   0.0008154683  -0.0021959392   0.0040224650
       -0.0036809961  -0.0071759351   0.0077877044   0.0054197720   0.0022554254
        0.0012706133  -0.0013318524  -0.0016596101   0.0027081127   0.0013585086
        0.0010332044  -0.0005904950   0.0008953345   0.0004547101  -0.0002091376
        0.0002342008  -0.0015138635   0.0001625380  -0.0005769218   0.0005047619
        0.0001178441  -0.0003045820  -0.0005763144   0.0001484649   0.0005389468
        0.0001050100  -0.0001753916  -0.0000193379   0.0004050646  -0.0000278038
        0.0009801060  -0.0000739806  -0.0003038592  -0.0006674800  -0.0004459623
        0.0002406631   0.0003325756   0.0009418236  -0.0001647761   0.0003673790
       -0.0001642424  -0.0000569315   0.0003072667   0.0004696191  -0.0001286681
       -0.0006442173  -0.0000789885   0.0001950438   0.0002299082  -0.0007463063
        0.0000167018  -0.0012565676   0.0007666410   0.0001807793  -0.0034567965
       -0.0009118608  -0.0000024607   0.0010121275   0.0036419229  -0.0040678730
        0.0339003403   0.0427245364  -0.0403489174   0.0000524520   0.0000508539