$hessian                                                                        
        0.0943792781  -0.0915842323   0.0410836711  -0.0814678634   0.0711015957
       -0.0339628383  -0.0158863342   0.0522924771  -0.0218481062  -0.0086582759
       -0.0052230527  -0.0011263068   0.0035638606   0.0038563527  -0.0000306235
       -0.0013468914   0.0018048247   0.0015729196   0.0001707503   0.0006209073
       -0.0000477561  -0.0001460586   0.0003927287  -0.0001903424   0.0012746540
       -0.0002014359   0.0001602441  -0.0011305549   0.0003610647  -0.0001753176
        0.0000954096  -0.0005113924   0.0000637059  -0.0000216002   0.0000247505
        0.0000176191  -0.0001296402   0.0000278152  -0.0000415950   0.0000980022
        0.0000620952   0.0000774063   0.0000135655  -0.0001400741  -0.0001109804
        0.0000610938   0.0002274675   0.0001654525  -0.0002399417   0.0000837431
       -0.0000388729   0.0000324059  -0.0002753537  -0.0001519660   0.0000329593
        0.0001236895   0.0001183572   0.0000771656  -0.0000999613  -0.0000400634
       -0.0001233766   0.0000380829  -0.0000121367  -0.0000020219  -0.0000068062
       -0.0000349835   0.0003040800   0.0003569006   0.0000030240  -0.0006708452
       -0.0004717519  -0.0002807421  -0.0001323004  -0.0007304420   0.0001438614
        0.0091579895  -0.0291417486   0.0094081888  -0.0001919411  -0.0013800666
        0.0008270514   0.0003877218   0.0015129835   0.0008867727   0.0005405812
        0.0003604258   0.0004893953  -0.0003388748  -0.0007636992   0.0000565582
       -0.0001550113   0.0004837664  -0.0001338045   0.0001148976  -0.0000897586
       -0.0000102577  -0.0000552843   0.0000128923   0.0000250374   0.0000605398
       -0.0000404874  -0.0000110041  -0.0000477168   0.0000427934   0.0000224181
        0.0000419488  -0.0001370653  -0.0000051880  -0.0000620330  -0.0000946359
        0.0000311624  -0.0000961300   0.0001204830   0.0000058597   0.0000429969
       -0.0000620902  -0.0000070792  -0.0000333714  -0.0000013844   0.0000103354
        0.0000054707  -0.0000598359   0.0000085870  -0.0000200525   0.0001205571
        0.0000266993   0.0003920122  -0.0001697794  -0.0000092124  -0.0011915754
        0.0004957782   0.0012698968  -0.0031439395  -0.0026534894   0.0002075922
        0.0036262423   0.0002494955   0.0008762967  -0.0000029653  -0.0005792606
        0.0000785255   0.0001508771   0.0000295574  -0.0001014596  -0.0000960143
       -0.0000247117   0.0000157448   0.0000231728  -0.0000683910  -0.0000392591
        0.0000178376   0.0000167727   0.0000102320  -0.0000108119   0.0000187916
        0.0000088606  -0.0000221183   0.0000053635  -0.0000013712  -0.0000223360
        0.0000070934  -0.0000066967  -0.0000153806  -0.0000129954  -0.0000101647
        0.0000152895  -0.0000189441   0.0000046668   0.0000321188   0.0000438985
        0.0000582204  -0.0000801811   0.0000833003  -0.0000383422   0.0000431299
        0.0000748199   0.0001442389   0.0010424607  -0.0001002947   0.0005187156
        0.0000931551  -0.0000306109  -0.0000973210  -0.0000929380   0.0001340030
        0.0000044859  -0.0000037466  -0.0000232181  -0.0000030229  -0.0000133448
       -0.0000230870   0.0000010427  -0.0000170696  -0.0000129267  -0.0000005278
       -0.0000227934  -0.0000088712   0.0000060785  -0.0000183855   0.0000086917
        0.0000030571   0.0000246360   0.0000203219  -0.0000103665   0.0000693228
       -0.0000207812  -0.0000443989  -0.0003098216  -0.0001493555   0.0002513100
        0.0000339159  -0.0003042931  -0.0000411844
       -0.0915842323   0.6058329128  -0.2404850654   0.0633767742  -0.5061914860
        0.1835539597   0.0479885643  -0.0563367504   0.0232114624   0.0043441699
        0.0220517330   0.0005444410  -0.0060530925  -0.0075463661  -0.0011149956
        0.0048838872  -0.0028642682  -0.0006610825  -0.0014500643  -0.0019346719
        0.0001888842   0.0007315253  -0.0012355080   0.0003031677  -0.0030758969
        0.0006511161  -0.0004990209   0.0024988780  -0.0005991144   0.0003469713
       -0.0001167361   0.0009085032  -0.0002356343   0.0001213573   0.0000495557
       -0.0000010372   0.0003168771  -0.0000908101   0.0000686383  -0.0002540763
       -0.0001185803  -0.0001910334  -0.0000617341   0.0003514741   0.0002489347
       -0.0002300591  -0.0005768522  -0.0004194558   0.0005913441  -0.0001538840
        0.0001170729  -0.0001102672   0.0006323913   0.0003663947  -0.0000980620
       -0.0002689997  -0.0002880046  -0.0002512398   0.0002735712   0.0000959659
        0.0003307634  -0.0000712676   0.0000349487   0.0000604616  -0.0000308856
       -0.0000031612  -0.0006551663  -0.0007611080   0.0001392960   0.0017331939
        0.0010638484   0.0004039417  -0.0004282325   0.0024672601  -0.0006122022
       -0.0192550367  -0.0552069599   0.0303579552   0.0061219985  -0.0001820325
        0.0032024734  -0.0008710720  -0.0008415015   0.0012496956   0.0033762121
        0.0023933681  -0.0006876689  -0.0020404475  -0.0017541374   0.0003391059
       -0.0003272314   0.0009218938  -0.0006690371  -0.0000975734  -0.0000371543
       -0.0000521216  -0.0002525003  -0.0001001948   0.0000766963   0.0002712373
       -0.0000565222  -0.0000875375  -0.0001710548   0.0004305512   0.0000851601
        0.0005460201  -0.0005734714  -0.0001107358  -0.0005059933  -0.0003705779
        0.0001626862  -0.0002725505   0.0006964562   0.0000490914   0.0002685619
       -0.0002744195  -0.0001215199   0.0000790061   0.0004217525  -0.0000416822
       -0.0001597314  -0.0001802879   0.0000371841  -0.0000875098   0.0000204681
        0.0000213737   0.0012127567  -0.0003904353   0.0004603791  -0.0032157736
       -0.0002345446   0.0023404668  -0.0059597101  -0.0001657472  -0.0023496982
       -0.0007114242   0.0001970783   0.0015873266  -0.0002744315   0.0017311593
        0.0003253382   0.0000008898  -0.0000006138   0.0001876292   0.0002320421
        0.0000322201   0.0000044169  -0.0000697786   0.0000828036   0.0000746230
       -0.0000449152  -0.0000428605  -0.0000130412   0.0000077933  -0.0000364103
       -0.0000189470   0.0000372741  -0.0000175088   0.0000067819   0.0000330704
       -0.0000265951   0.0000188719   0.0000331425   0.0000129751   0.0000284346
       -0.0000045233   0.0000435809   0.0000246728  -0.0000554176  -0.0001399694
       -0.0000874832   0.0001239474  -0.0001737267   0.0000499916  -0.0001755572
       -0.0001328004  -0.0002844511  -0.0001203831   0.0000815288  -0.0010584129
       -0.0002805548  -0.0001336035  -0.0000806634   0.0000689080   0.0001181901
        0.0000341362   0.0000829494  -0.0000040085  -0.0000017946   0.0000159996
       -0.0000426200   0.0000029189  -0.0000317550  -0.0000447215   0.0000088336
       -0.0000285167  -0.0000280975   0.0000224725  -0.0000526792  -0.0000042962
        0.0000186176  -0.0000780689   0.0000357365   0.0000015671   0.0000430750
       -0.0001996918  -0.0000035868  -0.0005723332  -0.0006430026   0.0003341786
        0.0005527023  -0.0006830633  -0.0005580835
        0.0410836711  -0.2404850654   0.1196752370  -0.0350832511   0.1861411950
       -0.1300643565  -0.0162324234   0.0271996100   0.0071528100  -0.0030701667
       -0.0039470454   0.0033912200   0.0006555434   0.0007033281   0.0007798516
       -0.0009505270   0.0015758472  -0.0017577177   0.0005937995   0.0004314932
        0.0000302893  -0.0001306949   0.0003713683   0.0000658556   0.0007151986
       -0.0001974653   0.0001138220  -0.0005253826   0.0001009952  -0.0000643659
        0.0000417710  -0.0001694313   0.0000410716  -0.0000462444  -0.0000224979
        0.0000157949  -0.0000788555   0.0000186064  -0.0000136202   0.0000645089
        0.0000252951   0.0000494297   0.0000139645  -0.0000733590  -0.0000493741
        0.0000602267   0.0001251415   0.0000940869  -0.0001415516   0.0000376546
       -0.0000136710   0.0000357708  -0.0001504687  -0.0000986606   0.0000187330
        0.0000584345   0.0000690625   0.0000527992  -0.0000611084  -0.0000114510
       -0.0000816563   0.0000047179  -0.0000011005  -0.0000214967   0.0000177815
        0.0000177135   0.0001249535   0.0001578180  -0.0000678598  -0.0003866509
       -0.0000278549  -0.0000761644  -0.0003507673  -0.0006635101   0.0000031451
        0.0109498139   0.0302094155   0.0031262404  -0.0036090190   0.0003814052
       -0.0022626504   0.0014839456   0.0006684667  -0.0011718450  -0.0020546814
       -0.0015862204   0.0005652487   0.0013993207   0.0013955652  -0.0001374803
        0.0002388104  -0.0006363445   0.0004980075   0.0000338625   0.0000163710
        0.0000209975   0.0001613955   0.0000932985  -0.0000329264  -0.0002175171
        0.0000398856   0.0000747468   0.0001102554  -0.0002666463  -0.0000431403
       -0.0003391461   0.0003707438   0.0000516567   0.0003140159   0.0002482019
       -0.0000976842   0.0001847161  -0.0004548236  -0.0000424604  -0.0001860426
        0.0002068414   0.0001103530  -0.0000446688  -0.0002545319   0.0000016951
        0.0001175730   0.0001200445  -0.0000210172   0.0000522265  -0.0000061186
        0.0000175921  -0.0007730853   0.0002157786  -0.0003902565   0.0028364467
       -0.0009753529  -0.0003105876   0.0002459490  -0.0012060837   0.0024716325
        0.0016544574  -0.0005172283  -0.0017480135   0.0002886766  -0.0003506219
       -0.0006020197  -0.0000377488  -0.0000306883  -0.0001414498  -0.0000524253
       -0.0000126045  -0.0000142420   0.0000189480  -0.0000156206  -0.0000268801
        0.0000092038   0.0000070242   0.0000055798  -0.0000025200   0.0000084293
        0.0000017412  -0.0000057780   0.0000028687  -0.0000037208  -0.0000052942
        0.0000088946  -0.0000064336  -0.0000024556   0.0000002546  -0.0000072176
        0.0000091770  -0.0000044509  -0.0000100820   0.0000260017   0.0000301236
        0.0000040630  -0.0000704951   0.0000694519  -0.0000179395   0.0000557937
        0.0000079615   0.0000235144   0.0008974962   0.0003327982   0.0006944090
        0.0002474740   0.0000832226  -0.0000136881   0.0000085735  -0.0000805815
       -0.0000379869  -0.0000425059   0.0000221079  -0.0000040517  -0.0000012446
        0.0000365014  -0.0000012435   0.0000244767   0.0000308770  -0.0000016170
        0.0000276290   0.0000211448  -0.0000184114   0.0000353953  -0.0000041826
       -0.0000123281   0.0000261973  -0.0000316867  -0.0000063653  -0.0000354754
        0.0000756309  -0.0000219914   0.0000493009   0.0000701452  -0.0000836721
       -0.0003883008   0.0004888525   0.0003408768
       -0.0814678634   0.0633767742  -0.0350832511   0.4868885428  -0.0361185152
        0.0399250187  -0.1974890330   0.0081004613  -0.0185301064  -0.0032560577
        0.0521766460  -0.0067439666  -0.0150342998  -0.0201257559  -0.0008315898
        0.0067177187  -0.0021095832  -0.0003916751  -0.0015194489  -0.0027224809
        0.0001413510   0.0009343241  -0.0019074372   0.0004688214  -0.0047303425
        0.0008865750  -0.0007323825   0.0040055491  -0.0010979112   0.0007565109
       -0.0002817557   0.0016894426  -0.0002977162   0.0001213069  -0.0000551028
       -0.0000451528   0.0004430094  -0.0001163476   0.0001243755  -0.0003603068
       -0.0001913948  -0.0002780999  -0.0000796621   0.0004990547   0.0003829992
       -0.0002457984  -0.0008391911  -0.0006105426   0.0008284002  -0.0002502374
        0.0001478430  -0.0000740746   0.0009438988   0.0005522728  -0.0001424907
       -0.0004319947  -0.0004258104  -0.0003054924   0.0003560849   0.0001357248
        0.0004518557  -0.0001143950   0.0000575641   0.0000711461  -0.0000120377
        0.0000962245  -0.0010768151  -0.0012938626   0.0000301693   0.0024897706
        0.0015149138   0.0002862555  -0.0005675862   0.0038629693  -0.0005818984
       -0.1427600333  -0.0482773290   0.0236973069  -0.0323141059  -0.0126145736
       -0.0034358123   0.0001554930  -0.0008012697  -0.0068757350  -0.0052540928
       -0.0039540572   0.0005740418   0.0036589087   0.0040185143  -0.0008631809
        0.0007640853  -0.0022633658   0.0012071033  -0.0001608777   0.0003317195
        0.0000080015   0.0003320464   0.0000795128  -0.0001349370  -0.0005425703
        0.0001435056   0.0001465861   0.0002727773  -0.0005751409  -0.0001576215
       -0.0006563237   0.0009728680   0.0001260792   0.0006687425   0.0005718099
       -0.0002339032   0.0006297856  -0.0009813281  -0.0001046654  -0.0004569187
        0.0004655044   0.0001780941  -0.0000020479  -0.0004161962   0.0000070580
        0.0001687144   0.0003359055  -0.0000584909   0.0002098439  -0.0002351322
       -0.0000836827  -0.0022797407   0.0008686523  -0.0006117911   0.0067366604
       -0.0012527071  -0.0015438860   0.0010334459  -0.0106160479   0.0106237714
       -0.0258559906   0.0029914194  -0.0006844214  -0.0001500061   0.0026291159
        0.0001680208  -0.0002788534   0.0002376061   0.0002145136   0.0003293443
        0.0001081570  -0.0000414900  -0.0000769554   0.0001888527   0.0001055602
       -0.0000628704  -0.0000519537  -0.0000374821   0.0000262244  -0.0000553070
       -0.0000364405   0.0000688565  -0.0000148706   0.0000008132   0.0000641870
       -0.0000315254   0.0000235502   0.0000420195   0.0000321769   0.0000382498
       -0.0000414068   0.0000679546   0.0000059739  -0.0000981350  -0.0001491968
       -0.0001594671   0.0002137753  -0.0003009758   0.0000887176  -0.0002529688
       -0.0003431243  -0.0003404693  -0.0004083793   0.0000580881   0.0008771586
       -0.0002238523  -0.0003327306   0.0003822758   0.0002454155  -0.0003717510
       -0.0000293839  -0.0000350061   0.0001084246  -0.0000047634   0.0000250599
        0.0000944312  -0.0000112958   0.0000800300   0.0000639822  -0.0000110364
        0.0000878740   0.0000447148  -0.0000396115   0.0000819465  -0.0000288486
       -0.0000214331  -0.0000149235  -0.0001028831   0.0000343394  -0.0002242592
        0.0001098502   0.0000792593   0.0004867038   0.0007024603  -0.0006488288
       -0.0005522182   0.0025245150  -0.0009695843
        0.0711015957  -0.5061914860   0.1861411950  -0.0361185152   0.6836200919
       -0.2098673112   0.0218534815  -0.0523003814   0.0077759744   0.0275629314
       -0.0387021825   0.0055121812   0.0058385664   0.0093030197   0.0014580487
       -0.0050116541  -0.0011751330  -0.0012710770   0.0015816793   0.0021254757
        0.0001169755  -0.0007703816   0.0015196742  -0.0001376833   0.0031416711
       -0.0006498095   0.0004750777  -0.0025532257   0.0005822367  -0.0004426495
        0.0001224915  -0.0009201951   0.0002369909  -0.0001418904  -0.0000534077
       -0.0000068428  -0.0003105857   0.0000888028  -0.0000709831   0.0002699801
        0.0001231765   0.0001938696   0.0000674146  -0.0003631087  -0.0002578654
        0.0002427065   0.0005947338   0.0004358452  -0.0006222125   0.0001618353
       -0.0001171115   0.0001109634  -0.0006513646  -0.0003794511   0.0000984501
        0.0002750194   0.0003014233   0.0002612899  -0.0002908336  -0.0000917680
       -0.0003378336   0.0000644822  -0.0000273569  -0.0000548754   0.0000481230
        0.0000124401   0.0006523197   0.0007828141  -0.0001505278  -0.0018352004
       -0.0010318050   0.0000004509   0.0015227749  -0.0031354599   0.0007987921
       -0.0486556156  -0.0893921613   0.0049885610  -0.0151929708  -0.0012752734
       -0.0054454962  -0.0005178294   0.0078575012   0.0010050962  -0.0053981615
       -0.0034543445   0.0017192893   0.0041955886   0.0013318217  -0.0016425104
        0.0002979434  -0.0015902044   0.0010779082   0.0000677043   0.0001452211
        0.0000410160   0.0003554471   0.0000983011  -0.0000887876  -0.0004337583
        0.0001064518   0.0001322286   0.0002216897  -0.0006434949  -0.0001112764
       -0.0008142517   0.0007784547   0.0001702618   0.0007947628   0.0005468022
       -0.0002350338   0.0005802552  -0.0010565865  -0.0001027753  -0.0004270042
        0.0004559821   0.0002017460  -0.0001114383  -0.0006328136   0.0000452373
        0.0002401470   0.0002731947  -0.0000395868   0.0001067707  -0.0000048273
       -0.0000230707  -0.0017011666   0.0008468198  -0.0008030139   0.0020536452
        0.0049529125   0.0034176055  -0.0081226972  -0.0162979533   0.0134941020
       -0.0185959087   0.0052986257  -0.0069506785   0.0004254510  -0.0016052793
       -0.0000720662   0.0001324443  -0.0000782583  -0.0004080715  -0.0002223540
       -0.0000177923  -0.0000067491   0.0000599962  -0.0000611975  -0.0000631595
        0.0000428343   0.0000493031   0.0000120855  -0.0000104349   0.0000424097
        0.0000129504  -0.0000415311   0.0000199619  -0.0000133337  -0.0000377500
        0.0000280270  -0.0000189141  -0.0000375586  -0.0000148403  -0.0000257719
        0.0000049229  -0.0000446511  -0.0000222023   0.0000645032   0.0001191869
        0.0000841436  -0.0000574893   0.0001798715  -0.0000407804   0.0002132607
        0.0002424392   0.0001087600   0.0028449261  -0.0016935151   0.0003400350
        0.0007700841   0.0002807699   0.0000943753  -0.0000554361  -0.0001134650
       -0.0000403678  -0.0001117532   0.0000368598   0.0000008210  -0.0000139414
        0.0000745179  -0.0000199303   0.0000544356   0.0000621229  -0.0000277922
        0.0000621274   0.0000379908  -0.0000485138   0.0000769894  -0.0000003699
       -0.0000332044   0.0000882490  -0.0000651865   0.0000059669  -0.0001531993
        0.0002006215   0.0000086816   0.0000434459   0.0004941837  -0.0002618231
        0.0002426844  -0.0003424579  -0.0010545983
       -0.0339628383   0.1835539597  -0.1300643565   0.0399250187  -0.2098673112
        0.2652337074  -0.0189735506  -0.0047122769  -0.0632977939  -0.0002047688
        0.0134623301  -0.0048818404  -0.0011985745  -0.0031778791  -0.0049117128
        0.0002315617  -0.0020185204   0.0113145609  -0.0019420443  -0.0005583643
       -0.0001227607   0.0003242402  -0.0009099819  -0.0002192324  -0.0008298240
        0.0003992953  -0.0002997716   0.0005136237  -0.0000781068   0.0001569907
       -0.0000685135   0.0002050250  -0.0000374938   0.0000747161   0.0000249445
       -0.0000172659   0.0000934760  -0.0000203424   0.0000036286  -0.0000650045
       -0.0000281720  -0.0000573573  -0.0000167951   0.0000982748   0.0000462886
       -0.0000561549  -0.0001299546  -0.0000851792   0.0001644349  -0.0000929155
       -0.0000019607  -0.0000636356   0.0001952734   0.0001059542  -0.0000194578
       -0.0000661344  -0.0000741719  -0.0000673930   0.0000599800   0.0000258470
        0.0000907787  -0.0000112350   0.0000164276   0.0000187032  -0.0000197633
       -0.0000297084  -0.0000772608  -0.0001286578   0.0001077698   0.0003342954
       -0.0007291358  -0.0003610904   0.0016070008   0.0007557466   0.0002697839
        0.0141868367   0.0116071183  -0.0680612214  -0.0072944470  -0.0099008121
        0.0067037537  -0.0059463234  -0.0001810598   0.0005653627   0.0018396962
        0.0019625193  -0.0017725243  -0.0013816668  -0.0018329114   0.0001568813
       -0.0003602100   0.0007527724  -0.0005678535  -0.0000368428  -0.0000296149
        0.0000070015  -0.0001607172  -0.0000750798   0.0000623129   0.0002520769
       -0.0000428413  -0.0000858976  -0.0001323514   0.0003223280   0.0000750137
        0.0003278916  -0.0004662399  -0.0000777492  -0.0003316338  -0.0003230799
        0.0001097543  -0.0001822515   0.0005288144   0.0000262736   0.0002028699
       -0.0001825557  -0.0000833235   0.0000378510   0.0002502970  -0.0000280896
       -0.0000978121  -0.0001487691   0.0000339525  -0.0000608415   0.0000468186
        0.0000359507   0.0008419789  -0.0002144203   0.0003293827  -0.0026295447
        0.0047899009  -0.0029555597   0.0184762253   0.0173181414  -0.0104325945
       -0.0022940583   0.0004239997   0.0029553408  -0.0003816161   0.0006413339
        0.0007689346  -0.0000782107   0.0002919014   0.0001765163   0.0000441324
        0.0000434306   0.0000299197  -0.0000333291   0.0000184414   0.0000286668
       -0.0000132095  -0.0000166037  -0.0000076399  -0.0000029052  -0.0000054531
       -0.0000132961   0.0000039686  -0.0000041417   0.0000018038   0.0000074067
       -0.0000167678   0.0000072375   0.0000062980  -0.0000057665   0.0000119204
       -0.0000116675  -0.0000029007   0.0000076152  -0.0000313590  -0.0000349333
        0.0000008746   0.0001955086  -0.0001227041   0.0000678141  -0.0000654026
        0.0001488300   0.0001071205  -0.0016182213  -0.0012029281  -0.0005449978
       -0.0012264792  -0.0005497718   0.0001380809   0.0000210084   0.0000644903
       -0.0000142500   0.0000557879  -0.0000289723  -0.0000016654   0.0000079793
       -0.0000407849  -0.0000080720  -0.0000271168  -0.0000369482  -0.0000001000
       -0.0000296284  -0.0000265053   0.0000165783  -0.0000442137  -0.0000017012
        0.0000166056  -0.0000282048   0.0000254374   0.0000056862   0.0000400985
       -0.0001041150  -0.0000145592   0.0008228317   0.0006334137  -0.0002773989
        0.0012977842  -0.0004776847  -0.0003188250
       -0.0158863342   0.0479885643  -0.0162324234  -0.1974890330   0.0218534815
       -0.0189735506   0.5394205927  -0.0280604423   0.0658166051  -0.1070581270
        0.0801091206   0.0006994313   0.0171940844  -0.0150954642   0.0000986171
       -0.0240671544   0.0311377052  -0.0042650627   0.0012563300   0.0044367214
       -0.0000144967  -0.0007583895   0.0016132337  -0.0008546325   0.0047541749
       -0.0006023884   0.0003775989  -0.0037100767   0.0010248992  -0.0005258155
        0.0002195413  -0.0015234506   0.0002548680  -0.0000737982   0.0000194633
        0.0000529006  -0.0003958854   0.0000803594  -0.0001189001   0.0003350660
        0.0001825257   0.0002609205   0.0000715259  -0.0004665836  -0.0003542139
        0.0002862457   0.0008076933   0.0005951327  -0.0008042072   0.0001777430
       -0.0001818173   0.0000771154  -0.0008464289  -0.0005081337   0.0001370397
        0.0003969635   0.0003986323   0.0003090187  -0.0003690507  -0.0001402124
       -0.0003957137   0.0001241420  -0.0000275737  -0.0000392713  -0.0000244880
       -0.0000662058   0.0010894285   0.0012641831   0.0000236199  -0.0035000665
       -0.0007227311  -0.0016124850  -0.0029633735  -0.0041164903   0.0011101941
       -0.0343171287  -0.0037134059  -0.0032752389  -0.0011189579  -0.0027996395
        0.0029568830  -0.0009502959  -0.0014816267  -0.0001422329   0.0017188881
        0.0012979614  -0.0006331819  -0.0014041606  -0.0009958054   0.0006077146
       -0.0001808639   0.0009750993  -0.0004285298   0.0000874144  -0.0001555253
       -0.0000030759  -0.0001240619  -0.0000306343   0.0000525625   0.0001941121
       -0.0000532097  -0.0000477817  -0.0000849648   0.0001844528   0.0000500912
        0.0001584799  -0.0002975984  -0.0000342489  -0.0001714550  -0.0002232892
        0.0000675298  -0.0002431037   0.0003733034   0.0000298827   0.0001492254
       -0.0001682358  -0.0000571550  -0.0000013915   0.0001065250   0.0000001454
       -0.0000584577  -0.0001189606   0.0000186837  -0.0000678802   0.0000830568
        0.0000455372   0.0007349092  -0.0003479285   0.0002150012  -0.0008350779
       -0.0008669128  -0.0005144574  -0.0018057864   0.0020773859  -0.0025838395
       -0.1657234687  -0.1292792934  -0.0224360274  -0.0016338675  -0.0058882820
       -0.0013954482  -0.0010989432   0.0009023907   0.0001677838  -0.0002964535
       -0.0000370990  -0.0000139329   0.0000554989  -0.0001781934  -0.0001266839
        0.0000460945   0.0000530878   0.0000270172  -0.0000342266   0.0000584486
        0.0000277881  -0.0000722260   0.0000242868  -0.0000031102  -0.0000638686
        0.0000237335  -0.0000298385  -0.0000545365  -0.0000318262  -0.0000460725
        0.0000019815  -0.0000785195  -0.0000352631   0.0000350507   0.0002027297
        0.0001425856  -0.0005588853   0.0003400055  -0.0001555947   0.0001228204
        0.0002746726   0.0005944630   0.0001752967   0.0006009702   0.0003038548
       -0.0004545397  -0.0002386877  -0.0000113669  -0.0001201891   0.0001473648
        0.0000171521   0.0000108003  -0.0000421439   0.0000000342  -0.0000136964
       -0.0000321315   0.0000057764  -0.0000263097  -0.0000128337   0.0000035101
       -0.0000331055  -0.0000160529   0.0000157609  -0.0000229287   0.0000151338
        0.0000053838   0.0000202585   0.0000350258  -0.0000153698   0.0001077428
       -0.0000470949  -0.0000500158  -0.0001239258  -0.0001371392   0.0001872705
        0.0000674509   0.0001071540   0.0006830567
        0.0522924771  -0.0563367504   0.0271996100   0.0081004613  -0.0523003814
       -0.0047122769  -0.0280604423   0.7442906510  -0.0181481048   0.1036468619
       -0.3878996483   0.0002539168  -0.0115047509  -0.0607578599  -0.0053443328
        0.0291357371  -0.0173107938   0.0075971593  -0.0062043876  -0.0046971600
       -0.0000437125   0.0017186035  -0.0022213368   0.0004624186  -0.0034116178
        0.0006051824  -0.0004883354   0.0019850559  -0.0003882432   0.0004152908
       -0.0000549045   0.0005740495  -0.0003449038   0.0000817617   0.0000757521
        0.0000235602   0.0002801247  -0.0001084684   0.0000478995  -0.0002167143
       -0.0000937794  -0.0001582198  -0.0000671802   0.0002705882   0.0002083165
       -0.0002567357  -0.0004536457  -0.0003766519   0.0004927325  -0.0000701346
        0.0001262559  -0.0000971561   0.0004884886   0.0002953363  -0.0000966372
       -0.0002254279  -0.0002442574  -0.0002158366   0.0002223167   0.0000813358
        0.0003028373  -0.0000387374   0.0000645142   0.0000515463  -0.0000897564
       -0.0000063001  -0.0005119412  -0.0005384071   0.0001977133   0.0034156244
        0.0005599597   0.0005932716  -0.0016205501   0.0064182355  -0.0014205453
       -0.0095859225   0.0102805646   0.0044508758  -0.0032227794   0.0002510439
       -0.0002159935   0.0004311358  -0.0004641331  -0.0011969606  -0.0009877707
       -0.0008357227   0.0002335187   0.0008006088   0.0009528870  -0.0001795975
        0.0001558183  -0.0006179443   0.0002850773  -0.0000115175   0.0001188076
       -0.0000072035   0.0000571533   0.0000238914  -0.0000195296  -0.0001676195
        0.0000277440   0.0000491514   0.0000407587  -0.0001229331  -0.0000254137
       -0.0001002716   0.0002017395   0.0000193174   0.0000737754   0.0001418707
       -0.0000336484   0.0001557385  -0.0002429220  -0.0000242117  -0.0001212425
        0.0001009058   0.0000470260  -0.0000115989  -0.0000655691  -0.0000033379
        0.0000284751   0.0000688296  -0.0000137442   0.0000589660  -0.0000028621
       -0.0000387236  -0.0004366271   0.0001764247  -0.0001511702   0.0012246436
       -0.0004233150   0.0000863371  -0.0006131532  -0.0020285242   0.0007090795
       -0.1329178374  -0.1763067241  -0.0100570199  -0.0029996006  -0.0012370877
       -0.0005830064  -0.0005078305   0.0005931152   0.0003816743   0.0001127687
        0.0000954574   0.0000693496  -0.0000446879   0.0000460356   0.0000512809
       -0.0000387383  -0.0000272301  -0.0000051029   0.0000102946  -0.0000330697
       -0.0000091647   0.0000332872  -0.0000102168   0.0000043617   0.0000235047
       -0.0000099489   0.0000126343   0.0000188760   0.0000190777   0.0000202410
       -0.0000048370   0.0000426497   0.0000076393  -0.0000309529  -0.0000673317
       -0.0000682423   0.0001672105  -0.0001755395  -0.0000240856  -0.0001525612
       -0.0002225152  -0.0005210713  -0.0002182058  -0.0002038964   0.0001948549
        0.0001036335  -0.0000814278   0.0000407214   0.0001605995  -0.0000953382
       -0.0000386833   0.0000176519   0.0000641334  -0.0000109684   0.0000077460
        0.0000082873   0.0000020655   0.0000067796   0.0000025293   0.0000050428
        0.0000156021   0.0000064967  -0.0000072899   0.0000048264  -0.0000125324
       -0.0000018690  -0.0000194505  -0.0000298227   0.0000090772  -0.0000349121
       -0.0000212858   0.0000157173   0.0000613216   0.0000887907  -0.0001048032
       -0.0007280278   0.0000519181   0.0003668396
       -0.0218481062   0.0232114624   0.0071528100  -0.0185301064   0.0077759744
       -0.0632977939   0.0658166051  -0.0181481048   0.1023545652  -0.0014212516
        0.0019397505  -0.0364985851   0.0007060746  -0.0050375746   0.0031339573
       -0.0067572518   0.0042285178   0.0032620181   0.0017498835   0.0015187489
       -0.0005544329  -0.0007256645   0.0002702874  -0.0001568926   0.0006934045
       -0.0003492325   0.0002408817  -0.0004013643   0.0001275586   0.0000674578
        0.0000477474  -0.0001795855   0.0000634057  -0.0000298254  -0.0000186947
       -0.0000049550  -0.0000716477   0.0000315291  -0.0000070149   0.0000654443
        0.0000251486   0.0000500906   0.0000161773  -0.0000618588  -0.0000470865
        0.0000143612   0.0000776254   0.0000592475  -0.0001147998   0.0000910481
        0.0000234728   0.0000694513  -0.0001461198  -0.0000792637   0.0000170713
        0.0000443933   0.0000549925   0.0000388503  -0.0000388998  -0.0000102678
       -0.0000620928   0.0000008358  -0.0000088229   0.0000201554   0.0000221459
        0.0000301028   0.0000403189   0.0000421838  -0.0001427634  -0.0004599182
       -0.0004325103  -0.0002647982  -0.0001363681  -0.0000795584   0.0011999809
        0.0002646597  -0.0004151159   0.0110501805   0.0020591785   0.0016473695
       -0.0001710134   0.0006373723  -0.0008291236   0.0006956579   0.0004507983
        0.0002192366  -0.0000607586  -0.0002239035  -0.0000469054   0.0002041220
        0.0000002940   0.0000194035  -0.0001212549  -0.0000167398  -0.0000040877
        0.0000127854  -0.0000224931  -0.0000296425   0.0000255282   0.0000299277
        0.0000090172  -0.0000058071  -0.0000002908   0.0000397265   0.0000226669
        0.0000448479  -0.0000448348  -0.0000257196  -0.0000343838  -0.0000275074
        0.0000198148  -0.0000336846   0.0000653923   0.0000080569   0.0000274451
       -0.0000214843  -0.0000116323   0.0000208295   0.0000280260  -0.0000135342
       -0.0000400107  -0.0000105090   0.0000094110   0.0000018662  -0.0000249952
        0.0000002500   0.0000557145  -0.0000108643   0.0001148579  -0.0005106511
       -0.0008289086   0.0001493339  -0.0006808622   0.0007406781  -0.0010741670
       -0.0204329251  -0.0141148045  -0.0296524796  -0.0007509500  -0.0010297994