 Entering Gaussian System
 *********************************************
 Gaussian 98:
 frequency output generated by the xtb code
 *********************************************
                         Standard orientation:
 --------------------------------------------------------------------
  Center     Atomic     Atomic              Coordinates (Angstroms)
  Number     Number      Type              X           Y           Z
 --------------------------------------------------------------------
    1          6             0       -3.397311   -3.077098   -1.952235
    2          6             0       -3.546883   -1.940335   -0.992927
    3          6             0       -4.738511   -1.232269   -0.948065
    4          6             0       -4.917109   -0.169897   -0.071640
    5          7             0       -6.151103    0.541579   -0.038419
    6          6             0       -6.257551    1.668119   -0.849434
    7          6             0       -5.217954    1.993723   -1.722772
    8          6             0       -5.281255    3.108098   -2.540366
    9          6             0       -6.394572    3.926063   -2.521480
   10          6             0       -7.439610    3.615619   -1.669270
   11          6             0       -7.372908    2.509786   -0.838308
   12         16             0       -8.749462    2.257199    0.246370
   13          6             0       -8.436333    0.617579    0.839269
   14          6             0       -9.469582    0.009867    1.532661
   15          6             0       -9.303198   -1.241545    2.099160
   16          6             0       -8.084177   -1.878340    1.967280
   17          6             0       -7.054812   -1.281072    1.261583
   18          6             0       -7.207058   -0.025488    0.670509
   19          6             0       -3.886335    0.207970    0.776406
   20          6             0       -2.689354   -0.478962    0.731681
   21          6             0       -2.504976   -1.550201   -0.139630
   22          6             0       -1.207978   -2.245176   -0.129448
   23          6             0       -0.012697   -1.534902   -0.026316
   24          6             0        1.174335   -2.265713    0.002820
   25          6             0        2.480775   -1.591760    0.067909
   26          6             0        2.668584   -0.438081   -0.690229
   27          6             0        3.875588    0.232651   -0.684597
   28          6             0        4.914313   -0.248071    0.098920
   29          7             0        6.162926    0.439202    0.110716
   30          6             0        7.141190    0.004728   -0.779692
   31          6             0        6.903173   -1.114032   -1.580233
   32          6             0        7.849650   -1.576255   -2.477363
   33          6             0        9.070275   -0.939790   -2.595479
   34          6             0        9.324610    0.172246   -1.812230
   35          6             0        8.373902    0.646659   -0.924097
   36         16             0        8.796195    2.119821   -0.035876
   37          6             0        7.513223    2.179172    1.183536
   38          6             0        7.682527    3.095334    2.208046
   39          6             0        6.710576    3.260887    3.179035
   40          6             0        5.563045    2.494243    3.114196
   41          6             0        5.397301    1.567044    2.100645
   42          6             0        6.367176    1.382466    1.113453
   43          6             0        4.733290   -1.393737    0.862375
   44          6             0        3.530190   -2.083839    0.857129
   45          6             0        3.379568   -3.312647    1.694948
   46          7             0        1.151081   -3.598733   -0.047612
   47          6             0       -0.028805   -4.173110   -0.153359
   48          7             0       -1.201497   -3.577008   -0.206416
   49          1             0       -4.230574   -3.101390   -2.650014
   50          1             0       -3.362831   -4.017787   -1.406639
   51          1             0       -2.467694   -2.993848   -2.511734
   52          1             0       -5.552106   -1.509367   -1.603345
   53          1             0       -4.341958    1.365052   -1.759121
   54          1             0       -4.451888    3.328347   -3.195320
   55          1             0       -6.454187    4.795369   -3.157038
   56          1             0       -8.321473    4.236743   -1.628019
   57          1             0      -10.403556    0.541714    1.633015
   58          1             0      -10.113322   -1.702152    2.642032
   59          1             0       -7.922789   -2.848391    2.412342
   60          1             0       -6.111200   -1.796374    1.175565
   61          1             0       -4.027308    1.031967    1.458945
   62          1             0       -1.892214   -0.197612    1.404049
   63          1             0       -0.006976   -0.458117    0.027250
   64          1             0        1.865535   -0.076147   -1.315305
   65          1             0        4.019215    1.120271   -1.281420
   66          1             0        5.957841   -1.627994   -1.504082
   67          1             0        7.622962   -2.441275   -3.081916
   68          1             0        9.815771   -1.295296   -3.289052
   69          1             0       10.264356    0.697946   -1.888137
   70          1             0        8.585425    3.686701    2.224308
   71          1             0        6.850747    3.982955    3.967796
   72          1             0        4.785884    2.609436    3.854521
   73          1             0        4.493853    0.978220    2.070524
   74          1             0        5.554075   -1.751086    1.467921
   75          1             0        2.456082   -3.280952    2.269499
   76          1             0        4.219373   -3.415735    2.377559
   77          1             0        3.331691   -4.191365    1.055152
   78          1             0       -0.035364   -5.255261   -0.203235
 --------------------------------------------------------------------
     1 basis functions        1 primitive gaussians
     1 alpha electrons        1 beta electrons
 
 Harmonic frequencies (cm**-1), IR intensities (km*mol⁻¹),
 Raman scattering activities (A**4/amu), Raman depolarization ratios,
 reduced masses (AMU), force constants (mDyne/A) and normal coordinates:
                      1                      2                      3
                        a                      a                      a 
 Frequencies --     4.0673                 5.5094                 9.6420
 Red. masses --    11.4501                11.6734                15.0327
 Frc consts  --     0.0000                 0.0000                 0.0000
 IR Inten    --     0.0114                 0.0161                 0.1763
 Raman Activ --     0.0000                 0.0000                 0.0000
 Depolar     --     0.0000                 0.0000                 0.0000
 Atom AN      X      Y      Z        X      Y      Z        X      Y      Z
   1   6    -0.00   0.04  -0.06     0.02  -0.05   0.09    -0.05  -0.12   0.07
   2   6    -0.00   0.02  -0.04     0.01  -0.03   0.07    -0.01  -0.10   0.05
   3   6    -0.00   0.02  -0.02     0.01  -0.03   0.04     0.00  -0.07   0.05
   4   6     0.00   0.00   0.00    -0.01  -0.02   0.02     0.03  -0.05   0.03
   5   7    -0.00  -0.00   0.03    -0.00  -0.02  -0.01     0.06  -0.01   0.01
   6   6     0.00   0.03   0.07     0.05   0.03   0.06     0.11  -0.00   0.00
   7   6     0.01   0.06   0.08     0.09   0.06   0.11     0.12  -0.06  -0.01
   8   6     0.01   0.09   0.13     0.15   0.11   0.18     0.17  -0.07  -0.01
   9   6     0.01   0.10   0.16     0.17   0.13   0.19     0.21  -0.01  -0.01
  10   6     0.01   0.07   0.14     0.13   0.10   0.12     0.20   0.05   0.00
  11   6     0.01   0.03   0.10     0.07   0.05   0.06     0.15   0.05   0.01
  12  16     0.01  -0.01   0.14     0.02   0.01  -0.04     0.25   0.21   0.04
  13   6    -0.00  -0.03   0.02    -0.05  -0.05  -0.13     0.07   0.11   0.02
  14   6    -0.01  -0.06  -0.01    -0.10  -0.08  -0.24     0.04   0.16   0.02
  15   6    -0.01  -0.08  -0.06    -0.16  -0.12  -0.31    -0.02   0.15   0.02
  16   6    -0.01  -0.08  -0.07    -0.15  -0.12  -0.27    -0.06   0.09   0.01
  17   6    -0.01  -0.05  -0.05    -0.10  -0.09  -0.17    -0.03   0.04   0.01
  18   6    -0.00  -0.03  -0.00    -0.05  -0.05  -0.10     0.03   0.05   0.01
  19   6     0.00  -0.02   0.01    -0.02  -0.01   0.03     0.05  -0.06   0.02
  20   6     0.00  -0.01  -0.01    -0.01  -0.01   0.05     0.03  -0.09   0.02
  21   6     0.00   0.00  -0.03    -0.00  -0.02   0.07     0.00  -0.10   0.03
  22   6     0.00   0.00  -0.05    -0.00  -0.01   0.10    -0.00  -0.11   0.02
  23   6     0.00  -0.00  -0.04    -0.00  -0.01   0.08    -0.00  -0.11  -0.01
  24   6     0.00  -0.00  -0.06    -0.00  -0.00   0.10     0.00  -0.11  -0.03
  25   6     0.00  -0.00  -0.05    -0.00   0.00   0.07    -0.00  -0.10  -0.04
  26   6     0.00   0.00  -0.04    -0.01  -0.02   0.04    -0.03  -0.09  -0.03
  27   6     0.01  -0.00  -0.03    -0.01  -0.01   0.01    -0.05  -0.06  -0.03
  28   6     0.00  -0.01  -0.03    -0.00   0.01   0.02    -0.03  -0.04  -0.03
  29   7     0.00  -0.01  -0.02    -0.00   0.01  -0.02    -0.06  -0.00  -0.01
  30   6     0.05  -0.07   0.07    -0.03   0.01  -0.05    -0.03   0.05  -0.01
  31   6     0.09  -0.12   0.12    -0.05   0.01  -0.04     0.02   0.05  -0.02
  32   6     0.14  -0.19   0.21    -0.08   0.01  -0.06     0.04   0.10  -0.02
  33   6     0.15  -0.20   0.24    -0.09   0.01  -0.11     0.01   0.15  -0.01
  34   6     0.11  -0.15   0.18    -0.06   0.01  -0.12    -0.04   0.15   0.00
  35   6     0.06  -0.08   0.09    -0.04   0.01  -0.09    -0.06   0.10   0.00
  36  16     0.01  -0.02  -0.00    -0.01   0.01  -0.16    -0.21   0.18   0.04
  37   6    -0.06   0.08  -0.08     0.03   0.01  -0.06    -0.15   0.06   0.00
  38   6    -0.12   0.15  -0.14     0.06   0.01  -0.07    -0.20   0.07   0.00
  39   6    -0.17   0.22  -0.20     0.08   0.02  -0.04    -0.22   0.03  -0.01
  40   6    -0.15   0.20  -0.19     0.08   0.02  -0.01    -0.18  -0.03  -0.02
  41   6    -0.10   0.12  -0.13     0.05   0.02  -0.00    -0.13  -0.04  -0.02
  42   6    -0.05   0.06  -0.08     0.02   0.01  -0.03    -0.11   0.01  -0.01
  43   6    -0.00  -0.01  -0.04     0.00   0.03   0.05    -0.00  -0.06  -0.05
  44   6    -0.00  -0.01  -0.05     0.00   0.03   0.08     0.01  -0.09  -0.06
  45   6    -0.01  -0.02  -0.06     0.01   0.05   0.11     0.04  -0.11  -0.08
  46   7    -0.00  -0.00  -0.08     0.00  -0.00   0.14     0.00  -0.12  -0.03
  47   6    -0.00   0.00  -0.08     0.01  -0.01   0.15     0.00  -0.11  -0.01
  48   7    -0.00   0.00  -0.08     0.00  -0.02   0.14    -0.00  -0.12   0.02
  49   1    -0.00   0.02  -0.02     0.01  -0.02   0.02    -0.02  -0.04   0.03
  50   1    -0.00   0.01  -0.02     0.01  -0.01   0.03    -0.01  -0.03   0.03
  51   1    -0.00   0.02  -0.02     0.01  -0.01   0.03    -0.02  -0.04   0.01
  52   1    -0.00   0.01  -0.01     0.01  -0.01   0.01    -0.00  -0.02   0.02
  53   1     0.00   0.02   0.02     0.02   0.01   0.03     0.02  -0.03  -0.00
  54   1     0.00   0.03   0.04     0.05   0.04   0.07     0.05  -0.03  -0.01
  55   1     0.01   0.04   0.06     0.06   0.05   0.07     0.07  -0.00  -0.00
  56   1     0.00   0.02   0.05     0.04   0.03   0.04     0.07   0.03   0.00
  57   1    -0.00  -0.02   0.00    -0.03  -0.02  -0.08     0.02   0.06   0.01
  58   1    -0.00  -0.03  -0.02    -0.06  -0.04  -0.11    -0.01   0.06   0.00
  59   1    -0.00  -0.03  -0.03    -0.06  -0.04  -0.09    -0.03   0.02   0.00
  60   1    -0.00  -0.01  -0.02    -0.03  -0.03  -0.04    -0.02  -0.00   0.00
  61   1     0.00  -0.01   0.01    -0.01   0.00   0.00     0.02  -0.01   0.00
  62   1     0.00  -0.01  -0.00    -0.01   0.00   0.02     0.01  -0.03   0.00
  63   1     0.00  -0.00  -0.01    -0.00  -0.00   0.02    -0.00  -0.03  -0.00
  64   1     0.00   0.00  -0.01    -0.01  -0.01   0.01    -0.01  -0.03  -0.01
  65   1     0.00   0.00  -0.01    -0.01  -0.01  -0.00    -0.02  -0.01  -0.00
  66   1     0.02  -0.03   0.03    -0.01   0.00  -0.00     0.01   0.00  -0.01
  67   1     0.05  -0.07   0.07    -0.03   0.00  -0.02     0.02   0.03  -0.01
  68   1     0.06  -0.07   0.09    -0.03   0.00  -0.04     0.01   0.05  -0.00
  69   1     0.03  -0.05   0.06    -0.02   0.00  -0.04    -0.02   0.06   0.00
  70   1    -0.04   0.05  -0.04     0.02   0.00  -0.03    -0.07   0.03   0.00
  71   1    -0.06   0.08  -0.07     0.03   0.00  -0.01    -0.07   0.01  -0.00
  72   1    -0.05   0.07  -0.07     0.03   0.01   0.00    -0.06  -0.02  -0.01
  73   1    -0.02   0.03  -0.04     0.01   0.01   0.01    -0.03  -0.02  -0.01
  74   1    -0.00  -0.00  -0.01     0.00   0.01   0.01     0.00  -0.01  -0.02
  75   1    -0.00  -0.00  -0.02     0.01   0.02   0.03     0.02  -0.04  -0.02
  76   1    -0.00  -0.01  -0.02     0.01   0.02   0.03     0.02  -0.03  -0.03
  77   1    -0.00  -0.00  -0.02     0.00   0.01   0.04     0.01  -0.03  -0.03
  78   1    -0.00   0.00  -0.03     0.00  -0.00   0.05     0.00  -0.03  -0.00
                      4                      5                      6
                        a                      a                      a 
 Frequencies --    14.0013                14.3338                20.8600
 Red. masses --    20.2433                21.0504                10.3607
 Frc consts  --     0.0000                 0.0000                 0.0000
 IR Inten    --     0.7457                 0.7479                 0.1837
 Raman Activ --     0.0000                 0.0000                 0.0000
 Depolar     --     0.0000                 0.0000                 0.0000
 Atom AN      X      Y      Z        X      Y      Z        X      Y      Z
   1   6    -0.01  -0.04   0.03    -0.00   0.02  -0.03    -0.10  -0.21   0.14
   2   6    -0.01  -0.02   0.01    -0.00   0.02  -0.02    -0.04  -0.09   0.01
   3   6    -0.01  -0.03   0.01    -0.00   0.02  -0.02    -0.04  -0.10   0.00
   4   6    -0.01  -0.01  -0.01    -0.00   0.01  -0.01     0.00   0.00  -0.11
   5   7    -0.01  -0.01   0.01    -0.01   0.01  -0.01    -0.01  -0.02  -0.09
   6   6    -0.04  -0.04  -0.03    -0.01   0.01  -0.00    -0.02   0.03  -0.01
   7   6    -0.13  -0.14  -0.19    -0.01   0.02   0.00    -0.03   0.06  -0.02
   8   6    -0.18  -0.17  -0.23    -0.01   0.02   0.01    -0.03   0.11   0.05
   9   6    -0.14  -0.12  -0.13    -0.01   0.02   0.00    -0.01   0.13   0.13
  10   6    -0.04  -0.01   0.03    -0.01   0.01  -0.00    -0.00   0.09   0.12
  11   6     0.01   0.03   0.08    -0.01   0.01  -0.00    -0.01   0.03   0.05
  12  16     0.30   0.28   0.53    -0.03  -0.01  -0.02    -0.04  -0.06   0.02
  13   6     0.03   0.05   0.08    -0.01   0.00  -0.00     0.03  -0.03   0.01
  14   6    -0.01   0.04   0.02    -0.00  -0.00   0.00     0.06  -0.03   0.06
  15   6    -0.09  -0.04  -0.14     0.01   0.00   0.01     0.09  -0.02   0.07
  16   6    -0.13  -0.11  -0.23     0.01   0.01   0.01     0.10  -0.00   0.04
  17   6    -0.10  -0.11  -0.18     0.01   0.01   0.00     0.06  -0.00  -0.00
  18   6    -0.02  -0.03  -0.03    -0.00   0.01  -0.00     0.03  -0.02  -0.03
  19   6     0.00   0.03  -0.04    -0.01   0.00  -0.00     0.06   0.12  -0.23
  20   6     0.01   0.04  -0.05    -0.01   0.00  -0.01     0.07   0.12  -0.23
  21   6     0.00   0.01  -0.02    -0.01   0.01  -0.01     0.01   0.01  -0.11
  22   6     0.01   0.02  -0.01    -0.01   0.01  -0.01     0.01   0.00  -0.08
  23   6     0.01   0.02  -0.02    -0.01   0.00  -0.01     0.02  -0.00  -0.16
  24   6     0.01   0.02  -0.00    -0.01   0.00  -0.01     0.01  -0.02  -0.06
  25   6     0.01   0.02  -0.00    -0.01  -0.00  -0.01     0.01  -0.02  -0.08
  26   6     0.02   0.01  -0.02    -0.00   0.00  -0.00     0.07  -0.14  -0.23
  27   6     0.02   0.01  -0.02    -0.00  -0.00   0.00     0.07  -0.13  -0.22
  28   6     0.01   0.02   0.00    -0.00  -0.00  -0.00     0.00  -0.01  -0.06
  29   7     0.01   0.02   0.00    -0.01   0.01  -0.01    -0.01   0.00  -0.03
  30   6     0.01   0.00   0.01     0.02  -0.02   0.03     0.01   0.01  -0.01
  31   6     0.01  -0.00   0.02     0.11  -0.14   0.17     0.04   0.00  -0.01
  32   6     0.01  -0.01   0.02     0.15  -0.17   0.22     0.06   0.02   0.00
  33   6     0.01  -0.02   0.02     0.10  -0.08   0.15     0.05   0.04   0.01
  34   6     0.02  -0.01   0.01     0.00   0.04   0.02     0.02   0.04   0.02
  35   6     0.02  -0.00   0.01    -0.04   0.07  -0.05     0.01   0.03   0.01
  36  16     0.03   0.00  -0.00    -0.36   0.41  -0.44    -0.02   0.02   0.06
  37   6     0.03  -0.00   0.01    -0.04   0.05  -0.07    -0.02  -0.03   0.04
  38   6     0.04  -0.02   0.02     0.02   0.00  -0.03    -0.02  -0.07   0.07
  39   6     0.05  -0.02   0.02     0.12  -0.13   0.09    -0.04  -0.08   0.06
  40   6     0.04  -0.00   0.02     0.16  -0.21   0.18    -0.05  -0.06   0.00
  41   6     0.03   0.01   0.01     0.12  -0.16   0.14    -0.05  -0.02  -0.03
  42   6     0.02   0.00   0.01     0.02  -0.03   0.02    -0.02  -0.02  -0.00
  43   6    -0.00   0.03   0.02    -0.01  -0.01  -0.01    -0.06   0.09   0.08
  44   6    -0.00   0.04   0.02    -0.01  -0.01  -0.01    -0.06   0.09   0.08
  45   6    -0.02   0.05   0.04    -0.01  -0.01  -0.01    -0.13   0.21   0.24
  46   7     0.01   0.03   0.02    -0.01   0.00  -0.02    -0.01  -0.02   0.09
  47   6     0.01   0.02   0.02    -0.01   0.00  -0.02    -0.02  -0.02   0.12
  48   7     0.01   0.02   0.01    -0.01   0.01  -0.02    -0.01  -0.00   0.06
  49   1    -0.01  -0.02   0.01    -0.00   0.01  -0.01    -0.04  -0.08   0.05
  50   1    -0.00  -0.01   0.02    -0.00   0.01  -0.01    -0.03  -0.04   0.07
  51   1    -0.01  -0.01   0.01    -0.00   0.01  -0.01    -0.04  -0.09   0.03
  52   1    -0.01  -0.01   0.01    -0.00   0.01  -0.01    -0.02  -0.05   0.03
  53   1    -0.05  -0.05  -0.08    -0.00   0.01   0.00    -0.01   0.01  -0.03
  54   1    -0.07  -0.07  -0.10    -0.00   0.01   0.00    -0.01   0.04   0.01
  55   1    -0.05  -0.04  -0.05    -0.00   0.01   0.00    -0.00   0.05   0.05
  56   1     0.00   0.01   0.03    -0.01   0.00  -0.00     0.00   0.03   0.05
  57   1     0.01   0.03   0.03    -0.00  -0.00   0.00     0.02  -0.01   0.03
  58   1    -0.03  -0.01  -0.05     0.00   0.00   0.00     0.03  -0.01   0.03
  59   1    -0.06  -0.05  -0.10     0.00   0.00   0.00     0.04   0.00   0.02
  60   1    -0.04  -0.05  -0.07     0.00   0.00   0.00     0.02   0.00  -0.01
  61   1     0.00   0.01  -0.02    -0.00  -0.00   0.00     0.03   0.06  -0.09
  62   1     0.01   0.02  -0.02    -0.00  -0.00  -0.00     0.03   0.06  -0.09
  63   1     0.00   0.01  -0.01    -0.00   0.00  -0.00     0.01   0.00  -0.08
  64   1     0.01   0.00  -0.01    -0.00   0.00  -0.00     0.04  -0.07  -0.10
  65   1     0.01  -0.00  -0.01    -0.00   0.00   0.00     0.04  -0.06  -0.10
  66   1     0.00   0.00   0.01     0.04  -0.06   0.07     0.02  -0.01  -0.00
  67   1     0.00  -0.00   0.01     0.06  -0.07   0.09     0.02   0.00   0.00
  68   1     0.00  -0.01   0.01     0.04  -0.03   0.06     0.02   0.02   0.00
  69   1     0.01  -0.01   0.00    -0.01   0.03  -0.01     0.01   0.01   0.01
  70   1     0.01  -0.01   0.01    -0.01   0.02  -0.03    -0.00  -0.02   0.03
  71   1     0.02  -0.01   0.01     0.04  -0.05   0.03    -0.01  -0.03   0.02
  72   1     0.01  -0.00   0.01     0.07  -0.09   0.08    -0.02  -0.02  -0.00
  73   1     0.01   0.00   0.00     0.05  -0.07   0.06    -0.02   0.00  -0.02
  74   1    -0.00   0.01   0.01    -0.00  -0.00  -0.00    -0.03   0.05   0.06
  75   1    -0.01   0.02   0.01    -0.00  -0.00  -0.00    -0.05   0.09   0.06
  76   1    -0.01   0.02   0.02    -0.00  -0.00  -0.01    -0.05   0.08   0.09
  77   1    -0.00   0.01   0.02    -0.00  -0.00  -0.01    -0.04   0.04   0.11
  78   1     0.00   0.01   0.01    -0.00   0.00  -0.01    -0.01  -0.01   0.06
                      7                      8                      9
                        a                      a                      a 
 Frequencies --    23.7884                26.1518                33.2331
 Red. masses --    11.3024                11.5440                10.2877
 Frc consts  --     0.0000                 0.0000                 0.0000
 IR Inten    --     0.0636                 0.3401                 0.0214
 Raman Activ --     0.0000                 0.0000                 0.0000
 Depolar     --     0.0000                 0.0000                 0.0000
 Atom AN      X      Y      Z        X      Y      Z        X      Y      Z
   1   6     0.13   0.16  -0.29     0.05   0.13   0.04     0.09   0.24  -0.17
   2   6     0.07   0.06  -0.19     0.05   0.13   0.04     0.04   0.11  -0.03
   3   6     0.07   0.07  -0.20     0.06   0.15   0.02     0.04   0.11   0.01
   4   6     0.03  -0.01  -0.10     0.06   0.14   0.03     0.02   0.01   0.14
   5   7     0.03  -0.02  -0.10     0.05   0.13   0.06     0.04   0.04   0.15
   6   6     0.01   0.01  -0.04    -0.03   0.08   0.01     0.04  -0.01   0.07
   7   6    -0.00   0.03  -0.05    -0.05   0.11  -0.01     0.07  -0.02   0.09
   8   6    -0.02   0.06  -0.02    -0.13   0.07  -0.05     0.06  -0.08   0.02
   9   6    -0.01   0.06   0.04    -0.18  -0.00  -0.08     0.02  -0.12  -0.09
  10   6     0.01   0.05   0.06    -0.16  -0.03  -0.06     0.01  -0.10  -0.10
  11   6     0.02   0.02   0.02    -0.08   0.01  -0.01     0.02  -0.04  -0.02
  12  16     0.09   0.01   0.10    -0.06  -0.03   0.05     0.03   0.02  -0.01
  13   6     0.08   0.01   0.05     0.01  -0.03  -0.03    -0.01   0.01   0.00
  14   6     0.12   0.02   0.12     0.01  -0.11  -0.10    -0.05  -0.01  -0.06
  15   6     0.14   0.01   0.10     0.05  -0.12  -0.13    -0.07  -0.01  -0.07
  16   6     0.11  -0.01  -0.00     0.09  -0.05  -0.09    -0.06  -0.00  -0.01
  17   6     0.07  -0.02  -0.07     0.09   0.03  -0.03    -0.02   0.01   0.05
  18   6     0.06  -0.01  -0.03     0.05   0.03  -0.00     0.00   0.02   0.07
  19   6    -0.02  -0.10  -0.01     0.06   0.14   0.03    -0.02  -0.12   0.24
  20   6    -0.02  -0.11   0.00     0.05   0.12   0.04    -0.02  -0.13   0.20
  21   6     0.01  -0.03  -0.08     0.04   0.11   0.05     0.00  -0.01   0.07
  22   6     0.01  -0.05  -0.05     0.01   0.06   0.09     0.00  -0.01   0.02
  23   6     0.00  -0.05   0.02     0.04   0.00   0.06    -0.00  -0.01  -0.01
  24   6    -0.00  -0.06   0.06     0.01  -0.05   0.07    -0.00  -0.01  -0.04
  25   6    -0.01  -0.06   0.10     0.04  -0.11   0.02    -0.00   0.00  -0.08
  26   6     0.02  -0.10   0.06     0.05  -0.12   0.01     0.03  -0.10  -0.23
  27   6     0.02  -0.10   0.07     0.06  -0.13  -0.01     0.02  -0.09  -0.25
  28   6    -0.01  -0.07   0.13     0.06  -0.14  -0.02    -0.02   0.03  -0.12
  29   7    -0.00  -0.08   0.13     0.05  -0.13   0.01    -0.04   0.06  -0.12
  30   6    -0.05  -0.03   0.04     0.06  -0.03  -0.02    -0.00   0.03  -0.05
  31   6    -0.07  -0.05   0.06     0.11  -0.03  -0.04     0.02   0.02  -0.05
  32   6    -0.12  -0.00  -0.02     0.12   0.05  -0.07     0.06  -0.00   0.00
  33   6    -0.16   0.05  -0.12     0.08   0.13  -0.08     0.07  -0.02   0.05
  34   6    -0.14   0.05  -0.13     0.03   0.12  -0.05     0.05  -0.01   0.05
  35   6    -0.09   0.01  -0.05     0.02   0.04  -0.02     0.01   0.01  -0.00
  36  16    -0.08  -0.00  -0.08    -0.06   0.05   0.04    -0.02   0.01   0.03
  37   6    -0.03   0.04  -0.03    -0.07  -0.01  -0.01    -0.02  -0.04   0.01
  38   6    -0.04   0.11  -0.09    -0.15   0.03  -0.04    -0.00  -0.11   0.07
  39   6    -0.02   0.14  -0.08    -0.18  -0.00  -0.06    -0.02  -0.13   0.06
  40   6     0.00   0.09  -0.00    -0.13  -0.08  -0.05    -0.06  -0.06  -0.03
  41   6     0.01   0.02   0.06    -0.05  -0.12  -0.03    -0.07   0.00  -0.08
  42   6    -0.01  -0.01   0.05    -0.02  -0.08  -0.01    -0.04   0.00  -0.06
  43   6    -0.04  -0.02   0.19     0.06  -0.15  -0.04    -0.06   0.13   0.03
  44   6    -0.04  -0.02   0.18     0.05  -0.14  -0.02    -0.05   0.12   0.05
  45   6    -0.10   0.03   0.23     0.06  -0.14  -0.03    -0.11   0.24   0.22
  46   7    -0.01  -0.07   0.06    -0.06  -0.06   0.15     0.00  -0.01  -0.04
  47   6    -0.01  -0.05  -0.02    -0.09  -0.00   0.19     0.00  -0.01  -0.01
  48   7    -0.00  -0.05  -0.08    -0.06   0.06   0.18    -0.00  -0.01   0.02
  49   1     0.05   0.06  -0.09     0.02   0.04   0.01     0.03   0.08  -0.05
  50   1     0.04   0.03  -0.11     0.01   0.04   0.01     0.05   0.05  -0.08
  51   1     0.04   0.07  -0.07     0.02   0.03   0.02     0.02   0.11  -0.05
  52   1     0.03   0.04  -0.08     0.02   0.04   0.01     0.02   0.06  -0.02
  53   1    -0.00   0.01  -0.03    -0.00   0.05   0.00     0.03   0.00   0.05
  54   1    -0.01   0.02  -0.01    -0.04   0.03  -0.02     0.02  -0.03   0.01
  55   1    -0.01   0.02   0.02    -0.07  -0.01  -0.04     0.00  -0.05  -0.04
  56   1     0.00   0.02   0.03    -0.06  -0.02  -0.02    -0.00  -0.04  -0.05
  57   1     0.04   0.01   0.06    -0.01  -0.05  -0.03    -0.02  -0.00  -0.03
  58   1     0.05   0.01   0.04     0.01  -0.05  -0.05    -0.03  -0.01  -0.03
  59   1     0.04  -0.01  -0.01     0.04  -0.02  -0.03    -0.02  -0.00  -0.00
  60   1     0.02  -0.01  -0.04     0.03   0.02  -0.00    -0.00   0.01   0.03
  61   1    -0.02  -0.05   0.02     0.02   0.04   0.01    -0.01  -0.06   0.10
  62   1    -0.02  -0.05   0.02     0.02   0.03   0.01    -0.01  -0.06   0.08
  63   1     0.00  -0.02   0.01     0.03   0.00   0.01    -0.00  -0.00  -0.00
  64   1     0.01  -0.04   0.00     0.01  -0.03   0.01     0.01  -0.06  -0.09
  65   1     0.01  -0.04   0.01     0.02  -0.04  -0.00     0.01  -0.05  -0.11
  66   1    -0.01  -0.03   0.04     0.04  -0.02  -0.01     0.01   0.01  -0.02
  67   1    -0.04  -0.00   0.00     0.05   0.02  -0.03     0.02  -0.00   0.00
  68   1    -0.06   0.02  -0.05     0.03   0.06  -0.03     0.03  -0.01   0.02
  69   1    -0.05   0.03  -0.06    -0.00   0.05  -0.02     0.02  -0.01   0.03
  70   1    -0.02   0.04  -0.05    -0.05   0.03  -0.01     0.01  -0.04   0.04
  71   1    -0.01   0.06  -0.04    -0.07   0.01  -0.02    -0.00  -0.05   0.03
  72   1     0.01   0.03   0.00    -0.04  -0.03  -0.02    -0.02  -0.02  -0.01
  73   1     0.01  -0.00   0.03    -0.00  -0.05  -0.01    -0.03   0.02  -0.04
  74   1    -0.02   0.00   0.07     0.02  -0.05  -0.01    -0.03   0.06   0.04
  75   1    -0.03   0.02   0.06     0.02  -0.04  -0.00    -0.03   0.11   0.06
  76   1    -0.03   0.01   0.08     0.02  -0.05  -0.02    -0.03   0.08   0.07
  77   1    -0.03  -0.00   0.08     0.01  -0.04  -0.01    -0.05   0.04   0.10
  78   1    -0.00  -0.01  -0.01    -0.04  -0.00   0.07     0.00  -0.00  -0.00
                     10                     11                     12
                        a                      a                      a 
 Frequencies --    37.4551                49.8680                76.0487
 Red. masses --    11.0831                11.8188                10.4057
 Frc consts  --     0.0000                 0.0000                 0.0000
 IR Inten    --     0.7798                 0.0159                 2.2186
 Raman Activ --     0.0000                 0.0000                 0.0000
 Depolar     --     0.0000                 0.0000                 0.0000
 Atom AN      X      Y      Z        X      Y      Z        X      Y      Z
   1   6     0.18   0.06  -0.13    -0.08  -0.04   0.07     0.01   0.11  -0.18
   2   6     0.06   0.01  -0.09     0.00   0.00   0.03    -0.02   0.04  -0.10
   3   6     0.05  -0.00  -0.17     0.05   0.09   0.02    -0.04  -0.00   0.00
   4   6    -0.03  -0.05  -0.13     0.13   0.11   0.01    -0.01  -0.03   0.05
   5   7    -0.05  -0.08  -0.18     0.15   0.14   0.07     0.00  -0.01   0.10
   6   6    -0.03  -0.02  -0.09     0.07   0.09   0.02     0.02  -0.03   0.06
   7   6    -0.04   0.00  -0.09     0.05   0.12   0.01     0.04  -0.05   0.08
   8   6    -0.02   0.06  -0.01    -0.03   0.08  -0.04     0.06  -0.08   0.04
   9   6     0.01   0.10   0.08    -0.09  -0.00  -0.08     0.05  -0.08  -0.00
  10   6     0.02   0.08   0.08    -0.06  -0.03  -0.06     0.04  -0.05  -0.01
  11   6    -0.00   0.02   0.00     0.02   0.02  -0.00     0.02  -0.03   0.02
  12  16     0.01  -0.00   0.02     0.10  -0.03   0.07     0.02   0.01   0.02
  13   6     0.03   0.01   0.03     0.11  -0.03  -0.02    -0.03  -0.00   0.01
  14   6     0.08   0.05   0.14     0.10  -0.12  -0.10    -0.06  -0.00  -0.04
  15   6     0.08   0.05   0.13     0.15  -0.12  -0.13    -0.08   0.00  -0.02
  16   6     0.04  -0.01  -0.00     0.20  -0.04  -0.07    -0.07   0.01   0.05
  17   6    -0.01  -0.05  -0.11     0.20   0.05   0.00    -0.04   0.01   0.09
  18   6    -0.01  -0.04  -0.08     0.15   0.05   0.02    -0.02  -0.00   0.07
  19   6    -0.11  -0.07  -0.03     0.16   0.07  -0.01     0.04  -0.02  -0.02
  20   6    -0.09  -0.06   0.04     0.11  -0.01  -0.01     0.06   0.02  -0.12
  21   6    -0.02  -0.02   0.02     0.03  -0.05   0.02     0.01   0.04  -0.15
  22   6    -0.02  -0.02   0.11     0.00  -0.09   0.00     0.00   0.02  -0.15
  23   6    -0.03  -0.01   0.08     0.00  -0.10  -0.01     0.02   0.02  -0.39
  24   6    -0.02   0.00   0.11     0.00  -0.09  -0.02     0.01  -0.01  -0.16
  25   6    -0.02   0.01   0.02    -0.03  -0.04  -0.02     0.01  -0.03  -0.16
  26   6    -0.10   0.04   0.03    -0.11  -0.02  -0.00     0.06  -0.01  -0.12
  27   6    -0.11   0.07  -0.03    -0.15   0.06   0.01     0.04   0.02  -0.02
  28   6    -0.05   0.07  -0.12    -0.13   0.11   0.00    -0.01   0.03   0.05
  29   7    -0.07   0.12  -0.16    -0.15   0.15  -0.05     0.01   0.01   0.10
  30   6    -0.02   0.05  -0.07    -0.15   0.05  -0.01    -0.02  -0.00   0.07
  31   6    -0.02   0.07  -0.09    -0.20   0.05   0.01    -0.04  -0.01   0.09
  32   6     0.03   0.01  -0.01    -0.19  -0.04   0.06    -0.07  -0.01   0.05
  33   6     0.08  -0.07   0.10    -0.14  -0.13   0.10    -0.09  -0.00  -0.01
  34   6     0.07  -0.07   0.11    -0.09  -0.13   0.08    -0.06   0.00  -0.02
  35   6     0.02  -0.01   0.02    -0.10  -0.03   0.02    -0.03  -0.00   0.02
  36  16    -0.01   0.01   0.01    -0.10  -0.02  -0.05     0.03  -0.01   0.02
  37   6    -0.01  -0.02   0.00    -0.02   0.01   0.01     0.03   0.03   0.02
  38   6     0.01  -0.11   0.07     0.06  -0.05   0.05     0.04   0.06  -0.01
  39   6     0.00  -0.13   0.06     0.08  -0.03   0.07     0.06   0.09   0.01
  40   6    -0.04  -0.07  -0.02     0.02   0.06   0.04     0.07   0.08   0.05
  41   6    -0.06   0.01  -0.09    -0.06   0.12   0.00     0.05   0.05   0.08
  42   6    -0.05   0.03  -0.08    -0.08   0.09  -0.01     0.03   0.03   0.07
  43   6     0.04   0.04  -0.15    -0.05   0.10  -0.00    -0.04   0.00   0.00
  44   6     0.05   0.01  -0.08    -0.00   0.01  -0.02    -0.02  -0.04  -0.11
  45   6     0.16  -0.02  -0.10     0.07  -0.02  -0.06     0.02  -0.10  -0.20
  46   7    -0.02  -0.00   0.25     0.00  -0.10  -0.02    -0.05  -0.02   0.22
  47   6    -0.02  -0.02   0.29     0.00  -0.09  -0.01    -0.06  -0.02   0.34
  48   7    -0.02  -0.03   0.24    -0.00  -0.10  -0.00    -0.05  -0.00   0.22
  49   1     0.06   0.01  -0.05    -0.03  -0.01   0.03    -0.03  -0.01  -0.00
  50   1     0.07   0.01  -0.05    -0.03  -0.01   0.03     0.10   0.03  -0.06
  51   1     0.06   0.04  -0.03    -0.03  -0.03   0.01    -0.03   0.10  -0.11
  52   1     0.03   0.01  -0.07     0.01   0.04   0.01    -0.02   0.00   0.01
  53   1    -0.02  -0.01  -0.04     0.03   0.05   0.01     0.01  -0.01   0.03
  54   1    -0.01   0.02  -0.01    -0.01   0.03  -0.02     0.02  -0.03   0.02
  55   1     0.01   0.04   0.04    -0.04  -0.01  -0.04     0.02  -0.03  -0.01
  56   1     0.01   0.03   0.04    -0.03  -0.02  -0.02     0.01  -0.02  -0.01
  57   1     0.03   0.03   0.07     0.02  -0.05  -0.04    -0.02  -0.00  -0.02
  58   1     0.04   0.02   0.06     0.04  -0.06  -0.05    -0.03  -0.00  -0.02
  59   1     0.01  -0.00  -0.01     0.07  -0.01  -0.02    -0.02   0.01   0.02
  60   1    -0.01  -0.03  -0.06     0.07   0.03   0.02    -0.01   0.01   0.04
  61   1    -0.05  -0.03  -0.00     0.06   0.02  -0.01     0.02  -0.01  -0.00
  62   1    -0.04  -0.02   0.03     0.04  -0.01  -0.01     0.03   0.01  -0.05
  63   1    -0.01  -0.00   0.01     0.00  -0.03  -0.00     0.01   0.01  -0.19
  64   1    -0.04   0.01   0.03    -0.04  -0.02  -0.00     0.03  -0.00  -0.05
  65   1    -0.05   0.02  -0.01    -0.06   0.02   0.00     0.02   0.01  -0.00
  66   1    -0.02   0.04  -0.05    -0.07   0.03  -0.01    -0.01  -0.01   0.04
  67   1     0.01   0.01  -0.01    -0.07  -0.01   0.02    -0.03  -0.01   0.02
  68   1     0.04  -0.03   0.05    -0.04  -0.06   0.04    -0.03   0.00  -0.01
  69   1     0.03  -0.04   0.05    -0.02  -0.06   0.03    -0.02   0.00  -0.02
  70   1     0.01  -0.05   0.04     0.03  -0.03   0.02     0.01   0.02  -0.01
  71   1     0.01  -0.06   0.04     0.04  -0.02   0.03     0.02   0.03  -0.01
  72   1    -0.01  -0.02  -0.01     0.01   0.03   0.01     0.02   0.03   0.02
  73   1    -0.03   0.02  -0.04    -0.03   0.05  -0.01     0.02   0.01   0.03
  74   1     0.03   0.01  -0.06    -0.01   0.04  -0.00    -0.02  -0.00   0.01
  75   1     0.05  -0.03  -0.02     0.03  -0.02  -0.01    -0.03  -0.09  -0.11
  76   1     0.06   0.00  -0.04     0.03  -0.00  -0.03    -0.03   0.00  -0.01
  77   1     0.06  -0.00  -0.04     0.02  -0.00  -0.03     0.09  -0.02  -0.07
  78   1    -0.00  -0.01   0.12     0.00  -0.03  -0.00    -0.03  -0.01   0.18
                     13                     14                     15
                        a                      a                      a 
 Frequencies --    90.5098                96.6947                98.8958
 Red. masses --    11.5092                10.2019                10.0697
 Frc consts  --     0.0000                 0.0000                 0.0000
 IR Inten    --     0.0076                 0.1281                 0.0812
 Raman Activ --     0.0000                 0.0000                 0.0000
 Depolar     --     0.0000                 0.0000                 0.0000
 Atom AN      X      Y      Z        X      Y      Z        X      Y      Z
   1   6    -0.13   0.04  -0.17     0.12   0.11  -0.03     0.10   0.06  -0.00
   2   6    -0.07   0.01  -0.13     0.08   0.07   0.01     0.04   0.03   0.03
   3   6    -0.08  -0.02   0.00     0.03  -0.01   0.05     0.03   0.00   0.01
   4   6    -0.01  -0.02   0.02    -0.01  -0.00   0.02     0.01   0.00   0.00
   5   7     0.01   0.02   0.11    -0.04  -0.05  -0.00     0.00  -0.02  -0.02
   6   6     0.01  -0.01   0.07    -0.04  -0.07  -0.04    -0.02  -0.06  -0.07
   7   6     0.01  -0.04   0.05    -0.10  -0.17  -0.14    -0.11  -0.18  -0.22
   8   6     0.01  -0.06   0.02    -0.04  -0.13  -0.08    -0.06  -0.12  -0.15
   9   6     0.02  -0.05  -0.00     0.08   0.04   0.10     0.09   0.07   0.10
  10   6     0.02  -0.02   0.01     0.11   0.10   0.15     0.14   0.14   0.18
  11   6     0.02   0.00   0.04     0.03   0.02   0.05     0.06   0.05   0.06
  12  16     0.01   0.03   0.05    -0.04  -0.03  -0.04     0.03  -0.04  -0.01
  13   6    -0.03  -0.00  -0.01    -0.05  -0.03  -0.04    -0.01  -0.06  -0.08
  14   6    -0.08  -0.03  -0.11    -0.08  -0.04  -0.09    -0.04  -0.12  -0.18
  15   6    -0.09  -0.02  -0.07    -0.07  -0.01  -0.03     0.01  -0.08  -0.10
  16   6    -0.03   0.05   0.09    -0.03   0.04   0.11     0.10   0.05   0.13
  17   6     0.01   0.07   0.17    -0.01   0.04   0.13     0.11   0.08   0.18
  18   6    -0.00   0.03   0.09    -0.03  -0.01   0.03     0.04   0.01   0.04
  19   6     0.08   0.01  -0.10     0.01   0.10  -0.05    -0.01   0.03   0.02
  20   6     0.07   0.02  -0.21     0.04   0.15  -0.04    -0.01   0.03   0.06
  21   6     0.01   0.01  -0.23     0.07   0.12   0.00     0.01   0.03   0.07
  22   6     0.01   0.01  -0.21     0.05   0.09   0.03     0.00   0.03   0.06
  23   6    -0.00  -0.01  -0.00     0.09  -0.00   0.12     0.00   0.03   0.01
  24   6    -0.01  -0.01   0.21     0.05  -0.09   0.03    -0.00   0.03  -0.06
  25   6    -0.01  -0.00   0.23     0.07  -0.12  -0.00    -0.01   0.03  -0.06
  26   6    -0.07   0.00   0.22     0.03  -0.14  -0.05     0.01   0.02  -0.06
  27   6    -0.07   0.00   0.11     0.00  -0.09  -0.05     0.01   0.02  -0.02
  28   6     0.01  -0.02  -0.02    -0.01   0.00   0.02    -0.01   0.00  -0.00
  29   7    -0.01   0.03  -0.10    -0.04   0.06  -0.00    -0.01  -0.02   0.02
  30   6     0.00   0.04  -0.08    -0.03   0.00   0.03    -0.04   0.02  -0.03
  31   6    -0.00   0.08  -0.14     0.01  -0.08   0.14    -0.11   0.11  -0.14
  32   6     0.04   0.06  -0.08    -0.01  -0.08   0.11    -0.10   0.07  -0.10
  33   6     0.10  -0.03   0.05    -0.08   0.02  -0.03     0.00  -0.08   0.07
  34   6     0.09  -0.05   0.08    -0.10   0.07  -0.10     0.05  -0.14   0.14
  35   6     0.03  -0.00   0.00    -0.06   0.05  -0.04     0.01  -0.06   0.06
  36  16    -0.02   0.05  -0.05    -0.05   0.03  -0.03    -0.03  -0.04   0.00
  37   6    -0.02   0.00  -0.04     0.03  -0.04   0.05    -0.06   0.05  -0.04
  38   6    -0.03  -0.03  -0.01     0.12  -0.15   0.14    -0.12   0.16  -0.13
  39   6    -0.03  -0.06  -0.01     0.08  -0.08   0.09    -0.08   0.09  -0.07
  40   6    -0.02  -0.06  -0.03    -0.06   0.15  -0.07     0.06  -0.13   0.11
  41   6    -0.02  -0.03  -0.06    -0.12   0.21  -0.13     0.10  -0.19   0.15
  42   6    -0.01  -0.00  -0.06    -0.05   0.08  -0.03     0.02  -0.06   0.05
  43   6     0.08  -0.02  -0.01     0.03   0.01   0.04    -0.03   0.01  -0.01
  44   6     0.06  -0.00   0.13     0.08  -0.07   0.01    -0.04   0.02  -0.02
  45   6     0.13   0.02   0.18     0.12  -0.11  -0.04    -0.09   0.05   0.01
  46   7    -0.02  -0.02   0.31    -0.03  -0.08  -0.07    -0.00   0.03  -0.09
  47   6     0.00   0.00   0.01    -0.07   0.01  -0.09    -0.01   0.03  -0.00
  48   7     0.02   0.01  -0.29    -0.03   0.10  -0.07    -0.01   0.03   0.09
  49   1    -0.06   0.01  -0.03     0.07   0.08  -0.05     0.03   0.02  -0.01
  50   1    -0.02   0.01  -0.06    -0.03   0.02  -0.03     0.03   0.01  -0.01
  51   1    -0.05   0.02  -0.08     0.07   0.01   0.04     0.03   0.03   0.01
  52   1    -0.04  -0.01   0.03     0.01  -0.02   0.02     0.01  -0.00  -0.00
  53   1     0.00  -0.01   0.02    -0.05  -0.08  -0.08    -0.06  -0.09  -0.11
  54   1     0.00  -0.03   0.00    -0.03  -0.06  -0.05    -0.04  -0.06  -0.08
  55   1     0.01  -0.02  -0.01     0.04   0.03   0.05     0.05   0.04   0.06
  56   1     0.01  -0.00  -0.00     0.05   0.06   0.07     0.07   0.08   0.09
  57   1    -0.03  -0.02  -0.06    -0.03  -0.02  -0.05    -0.03  -0.06  -0.09
  58   1    -0.04  -0.01  -0.05    -0.03  -0.01  -0.02    -0.01  -0.04  -0.05
  59   1    -0.01   0.02   0.04    -0.00   0.02   0.06     0.04   0.03   0.07
  60   1     0.01   0.03   0.08     0.01   0.02   0.06     0.05   0.05   0.09
  61   1     0.04   0.01  -0.03    -0.00   0.04  -0.03    -0.01   0.01   0.00
  62   1     0.04   0.01  -0.08     0.01   0.06  -0.02    -0.01   0.01   0.02
  63   1    -0.00  -0.00  -0.00     0.05  -0.00   0.06     0.00   0.01   0.00
  64   1    -0.03   0.00   0.08     0.01  -0.06  -0.02     0.01   0.01  -0.02
  65   1    -0.04   0.00   0.03    -0.00  -0.04  -0.03     0.01   0.01  -0.00
  66   1    -0.01   0.04  -0.07     0.02  -0.04   0.07    -0.05   0.06  -0.07
  67   1     0.01   0.03  -0.04     0.00  -0.04   0.06    -0.04   0.04  -0.06
  68   1     0.04  -0.02   0.03    -0.03   0.01  -0.02     0.01  -0.04   0.04
  69   1     0.04  -0.03   0.05    -0.04   0.04  -0.05     0.03  -0.07   0.07
  70   1    -0.01  -0.01   0.00     0.06  -0.08   0.07    -0.06   0.08  -0.07
  71   1    -0.01  -0.02   0.00     0.04  -0.05   0.05    -0.04   0.05  -0.04
  72   1    -0.01  -0.03  -0.01    -0.03   0.07  -0.04     0.03  -0.07   0.05
  73   1    -0.00  -0.01  -0.02    -0.06   0.10  -0.07     0.05  -0.09   0.08
  74   1     0.04  -0.01  -0.03     0.01   0.02   0.02    -0.01   0.00   0.00
  75   1     0.05   0.01   0.07     0.06  -0.02   0.03    -0.03   0.03   0.00
  76   1     0.06   0.01   0.03     0.07  -0.06  -0.06    -0.03   0.01   0.00
  77   1     0.02   0.00   0.06    -0.02  -0.02  -0.03    -0.04   0.01   0.01
  78   1     0.00   0.00   0.00    -0.04   0.00  -0.04    -0.00   0.01  -0.00
                     16                     17                     18
                        a                      a                      a 
 Frequencies --   101.4696               111.1432               122.6095
 Red. masses --    10.2517                12.4830                 1.7970
 Frc consts  --     0.0000                 0.0000                 0.0000
 IR Inten    --     0.4813                 0.0184                 0.2763
 Raman Activ --     0.0000                 0.0000                 0.0000
 Depolar     --     0.0000                 0.0000                 0.0000
 Atom AN      X      Y      Z        X      Y      Z        X      Y      Z
   1   6     0.08   0.07   0.02    -0.10  -0.07  -0.01    -0.07  -0.04   0.01
   2   6     0.07   0.06   0.02    -0.06  -0.06  -0.01     0.00   0.02  -0.05
   3   6     0.03  -0.01   0.05    -0.02   0.01  -0.05     0.01   0.03  -0.06
   4   6    -0.01  -0.00   0.03    -0.04  -0.00  -0.03    -0.01  -0.02  -0.01
   5   7    -0.04  -0.05   0.01    -0.04   0.05  -0.03    -0.00  -0.00   0.00
   6   6    -0.00  -0.02   0.04    -0.08   0.06  -0.02     0.00  -0.00   0.00
   7   6     0.05   0.02   0.11    -0.12   0.08  -0.05     0.01   0.00   0.01
   8   6     0.06   0.01   0.09    -0.16   0.10  -0.04     0.00   0.00   0.01
   9   6     0.00  -0.06  -0.02    -0.15   0.10   0.02    -0.00  -0.01  -0.01
  10   6    -0.03  -0.09  -0.08    -0.12   0.08   0.05    -0.00  -0.01  -0.00
  11   6    -0.03  -0.05  -0.03    -0.09   0.06   0.02     0.00   0.00   0.00
  12  16    -0.05  -0.02  -0.05    -0.15   0.10   0.01     0.02   0.02   0.04
  13   6    -0.02   0.02   0.06    -0.06   0.06  -0.04    -0.00  -0.00  -0.01
  14   6     0.01   0.11   0.17    -0.09   0.04  -0.09    -0.01  -0.02  -0.04
  15   6    -0.04   0.08   0.12    -0.09   0.05  -0.06    -0.01  -0.01  -0.03
  16   6    -0.13  -0.05  -0.08    -0.05   0.10   0.04     0.01   0.02   0.03
  17   6    -0.15  -0.11  -0.15    -0.04   0.11   0.07     0.02   0.02   0.04
  18   6    -0.07  -0.05  -0.04    -0.04   0.08   0.01     0.01   0.01   0.02
  19   6     0.02   0.11  -0.06    -0.05  -0.13   0.05    -0.03  -0.07   0.04
  20   6     0.06   0.18  -0.08    -0.08  -0.19   0.07    -0.03  -0.05   0.02
  21   6     0.08   0.13  -0.02    -0.05  -0.16   0.03    -0.01  -0.01  -0.03
  22   6     0.06   0.09   0.01    -0.02  -0.16   0.02    -0.02  -0.00  -0.03
  23   6     0.11  -0.01   0.07    -0.01  -0.17   0.00    -0.02   0.01  -0.04
  24   6     0.06  -0.11   0.00     0.02  -0.16  -0.02    -0.02   0.01   0.00
  25   6     0.08  -0.14  -0.03     0.04  -0.14  -0.03    -0.01   0.00  -0.01
  26   6     0.06  -0.19  -0.10     0.06  -0.17  -0.08     0.01  -0.01  -0.03
  27   6     0.02  -0.12  -0.08     0.04  -0.12  -0.05     0.01  -0.02  -0.03
  28   6    -0.01   0.00   0.02     0.04  -0.01   0.03     0.00   0.00  -0.00
  29   7    -0.04   0.06   0.01     0.03   0.05   0.02     0.01   0.00   0.00
  30   6    -0.07   0.07  -0.04     0.04   0.08   0.01     0.01   0.01   0.00
  31   6    -0.16   0.16  -0.14     0.05   0.11  -0.04     0.01   0.01  -0.01
  32   6    -0.13   0.09  -0.08     0.07   0.10  -0.01     0.02   0.01  -0.00
  33   6    -0.01  -0.10   0.12     0.10   0.05   0.05     0.02   0.01   0.00
  34   6     0.04  -0.15   0.17     0.09   0.03   0.07     0.02   0.01   0.01
  35   6    -0.01  -0.03   0.06     0.06   0.05   0.03     0.01   0.01   0.00
  36  16    -0.04   0.04  -0.04     0.16   0.09   0.01     0.03   0.01   0.00
  37   6    -0.02   0.07  -0.03     0.09   0.05  -0.01     0.01   0.01  -0.00
  38   6    -0.03   0.11  -0.07     0.13   0.06  -0.03     0.01   0.01  -0.01
  39   6     0.02   0.07  -0.02     0.16   0.09  -0.00     0.02   0.01  -0.00
  40   6     0.08  -0.03   0.09     0.15   0.10   0.03     0.02   0.01   0.00
  41   6     0.07  -0.04   0.10     0.11   0.09   0.04     0.02   0.00   0.01
  42   6     0.00   0.02   0.03     0.08   0.06   0.01     0.01   0.00   0.00
  43   6     0.03   0.01   0.05     0.02   0.01   0.05    -0.02   0.02   0.01
  44   6     0.08  -0.07   0.02     0.05  -0.06   0.01    -0.02   0.01   0.00
  45   6     0.10  -0.07   0.02     0.10  -0.07   0.00     0.02  -0.01  -0.03
  46   7    -0.03  -0.11  -0.06     0.01  -0.17  -0.03    -0.03   0.01   0.09
  47   6    -0.08  -0.00  -0.07     0.00  -0.16  -0.01    -0.02   0.00   0.04
  48   7    -0.03   0.10  -0.06    -0.01  -0.18   0.01    -0.03  -0.00  -0.03
  49   1     0.07   0.07  -0.05    -0.05  -0.05   0.03     0.22   0.28  -0.30
  50   1    -0.06   0.01  -0.00     0.02  -0.02  -0.00    -0.55  -0.04  -0.00
  51   1     0.07  -0.03   0.07    -0.05   0.00  -0.04     0.21  -0.33   0.35
  52   1     0.01  -0.02   0.02     0.00   0.02  -0.03     0.01   0.02  -0.03
  53   1     0.02   0.02   0.05    -0.04   0.02  -0.03     0.00   0.00   0.01
  54   1     0.03   0.01   0.05    -0.05   0.03  -0.02     0.00   0.00   0.00
  55   1    -0.00  -0.03  -0.02    -0.05   0.03   0.01    -0.00  -0.00  -0.00
  56   1    -0.02  -0.04  -0.04    -0.03   0.02   0.03    -0.00  -0.00  -0.00
  57   1     0.02   0.05   0.08    -0.03   0.00  -0.05    -0.01  -0.01  -0.02
  58   1    -0.01   0.04   0.06    -0.03   0.01  -0.03    -0.00  -0.01  -0.01
  59   1    -0.06  -0.03  -0.05    -0.01   0.04   0.03     0.01   0.01   0.02
  60   1    -0.06  -0.06  -0.08    -0.01   0.04   0.04     0.01   0.01   0.02
  61   1     0.00   0.04  -0.03    -0.01  -0.05   0.03    -0.02  -0.03   0.03
  62   1     0.02   0.08  -0.04    -0.03  -0.07   0.04    -0.01  -0.02   0.01
  63   1     0.06  -0.01   0.04    -0.00  -0.05   0.00    -0.01   0.00  -0.02
  64   1     0.02  -0.08  -0.05     0.02  -0.06  -0.04     0.00  -0.00  -0.01
  65   1     0.00  -0.04  -0.04     0.00  -0.05  -0.03     0.01  -0.01  -0.01
  66   1    -0.07   0.08  -0.08     0.01   0.04  -0.02     0.00   0.00  -0.00
  67   1    -0.06   0.05  -0.05     0.02   0.03  -0.01     0.01   0.00  -0.00
  68   1     0.01  -0.06   0.06     0.03   0.01   0.02     0.01   0.00   0.00
  69   1     0.03  -0.08   0.08     0.03   0.00   0.04     0.00   0.00   0.00
  70   1    -0.02   0.05  -0.04     0.04   0.01  -0.02     0.00   0.00  -0.01
  71   1     0.00   0.03  -0.01     0.05   0.03  -0.00     0.01   0.01  -0.00
  72   1     0.04  -0.02   0.04     0.05   0.03   0.01     0.01   0.00   0.00
  73   1     0.03  -0.03   0.05     0.03   0.03   0.02     0.01   0.00   0.00
  74   1     0.01   0.02   0.03     0.00   0.01   0.03    -0.01   0.01   0.01
  75   1     0.07   0.02   0.07     0.05  -0.01   0.03    -0.10  -0.12  -0.17
  76   1     0.07  -0.06  -0.05     0.05  -0.04  -0.03    -0.09   0.11   0.13
  77   1    -0.05  -0.01   0.00    -0.01  -0.02  -0.00     0.23  -0.02  -0.01
  78   1    -0.05  -0.00  -0.03     0.00  -0.05  -0.01    -0.01   0.00   0.02
                     19                     20                     21
                        a                      a                      a 
 Frequencies --   124.9101               141.0925               144.9245
 Red. masses --     2.5319                12.8425                14.3652
 Frc consts  --     0.0000                 0.0000                 0.0000
 IR Inten    --     0.9935                 0.0758                 0.1730
 Raman Activ --     0.0000                 0.0000                 0.0000
 Depolar     --     0.0000                 0.0000                 0.0000
 Atom AN      X      Y      Z        X      Y      Z        X      Y      Z
   1   6     0.04   0.02   0.02     0.17  -0.04  -0.03    -0.18   0.05   0.01
   2   6     0.02   0.00   0.04     0.07  -0.06  -0.03    -0.05   0.05   0.02
   3   6     0.01  -0.01   0.04     0.03  -0.11  -0.05    -0.01   0.11   0.07
   4   6     0.01   0.01   0.01    -0.03  -0.08  -0.09     0.04   0.09   0.11
   5   7    -0.01   0.00  -0.00    -0.04  -0.08  -0.10     0.05   0.10   0.14
   6   6    -0.02   0.00  -0.01    -0.02   0.01   0.01    -0.01   0.01   0.01
   7   6    -0.03   0.00  -0.02     0.02   0.12   0.10    -0.07  -0.10  -0.11
   8   6    -0.03   0.01  -0.01    -0.01   0.12   0.11    -0.06  -0.11  -0.12
   9   6    -0.02   0.02   0.01    -0.11  -0.01  -0.03     0.05   0.03   0.04
  10   6    -0.01   0.02   0.02    -0.12  -0.08  -0.07     0.09   0.10   0.11
  11   6    -0.02   0.01   0.00    -0.05  -0.03  -0.01     0.02   0.04   0.04
  12  16    -0.05  -0.00  -0.04     0.06   0.12   0.18    -0.17  -0.11  -0.23
  13   6    -0.01   0.01  -0.00    -0.04   0.01  -0.05     0.02   0.02   0.06
  14   6    -0.01   0.03   0.02    -0.09   0.00  -0.14     0.06   0.05   0.15
  15   6    -0.02   0.02   0.02    -0.11   0.04  -0.06     0.05   0.01   0.06
  16   6    -0.03   0.00  -0.02    -0.05   0.11   0.14    -0.02  -0.09  -0.15
  17   6    -0.03  -0.01  -0.03    -0.02   0.08   0.15    -0.04  -0.06  -0.15
  18   6    -0.02   0.00  -0.01    -0.02   0.01   0.01     0.01   0.02   0.01
  19   6     0.01   0.03  -0.00    -0.02  -0.01  -0.12     0.07   0.01   0.11
  20   6     0.02   0.03   0.01     0.00   0.02  -0.07     0.05  -0.04   0.04
  21   6     0.03   0.01   0.03     0.05  -0.02  -0.01    -0.00  -0.01  -0.02
  22   6     0.03   0.01   0.02     0.07  -0.01   0.05    -0.01  -0.03  -0.07
  23   6     0.04  -0.00   0.09     0.06  -0.01   0.14    -0.00  -0.04  -0.00
  24   6     0.03  -0.01   0.03     0.07  -0.00   0.05    -0.00  -0.03   0.06
  25   6     0.03  -0.02   0.04     0.05   0.02  -0.01    -0.01  -0.01   0.02
  26   6     0.03  -0.05  -0.01    -0.01  -0.01  -0.08    -0.05  -0.04  -0.03
  27   6     0.03  -0.06  -0.04    -0.03   0.03  -0.13    -0.07   0.01  -0.10
  28   6     0.01  -0.02   0.01    -0.03   0.10  -0.09    -0.04   0.10  -0.09
  29   7    -0.00  -0.01  -0.00    -0.05   0.11  -0.09    -0.06   0.12  -0.11
  30   6    -0.02   0.00  -0.02    -0.02  -0.01   0.00    -0.00   0.02  -0.01
  31   6    -0.04   0.03  -0.04    -0.01  -0.11   0.14     0.05  -0.08   0.12
  32   6    -0.03   0.01  -0.03    -0.04  -0.13   0.12     0.04  -0.10   0.12
  33   6    -0.00  -0.03   0.02    -0.12  -0.02  -0.06    -0.04   0.02  -0.05
  34   6     0.01  -0.04   0.03    -0.11   0.03  -0.13    -0.06   0.08  -0.12
  35   6    -0.01  -0.01   0.00    -0.04   0.00  -0.05    -0.02   0.04  -0.04
  36  16    -0.06   0.02  -0.04     0.08  -0.17   0.16     0.18  -0.15   0.18
  37   6    -0.01  -0.01  -0.00    -0.05   0.03  -0.01    -0.02   0.05  -0.03
  38   6    -0.01  -0.02   0.01    -0.13   0.11  -0.06    -0.08   0.12  -0.08
  39   6    -0.02  -0.03   0.01    -0.12   0.02  -0.02    -0.04   0.05  -0.03
  40   6    -0.03  -0.00  -0.01    -0.00  -0.15   0.09     0.06  -0.12   0.09
  41   6    -0.03   0.01  -0.02     0.03  -0.15   0.09     0.07  -0.11   0.08
  42   6    -0.02  -0.00  -0.01    -0.02  -0.01   0.01     0.00   0.01  -0.01
  43   6     0.00   0.02   0.07     0.03   0.12  -0.05     0.01   0.11  -0.06
  44   6     0.01   0.01   0.07     0.08   0.06  -0.02     0.05   0.05  -0.01
  45   6     0.08  -0.04   0.00     0.17   0.05  -0.02     0.17   0.04  -0.00
  46   7     0.06  -0.01  -0.04     0.10   0.00  -0.01    -0.01  -0.04   0.15
  47   6     0.05   0.01  -0.08     0.10  -0.00  -0.02    -0.00  -0.03  -0.00
  48   7     0.06   0.02  -0.08     0.10  -0.01  -0.02     0.00  -0.03  -0.15
  49   1    -0.07  -0.10   0.12     0.06  -0.02  -0.02    -0.07   0.03   0.02
  50   1     0.20   0.02   0.01     0.05  -0.01  -0.01    -0.06   0.01   0.00
  51   1    -0.07   0.12  -0.12     0.06   0.00   0.01    -0.06  -0.01  -0.01
  52   1     0.00  -0.01   0.01     0.02  -0.05  -0.02    -0.01   0.05   0.02
  53   1    -0.01  -0.00  -0.01     0.02   0.06   0.05    -0.04  -0.05  -0.05
  54   1    -0.01   0.00  -0.01     0.01   0.06   0.06    -0.04  -0.06  -0.07
  55   1    -0.01   0.01   0.01    -0.05  -0.01  -0.02     0.03   0.02   0.03
  56   1    -0.00   0.01   0.01    -0.05  -0.04  -0.03     0.04   0.05   0.05
  57   1     0.00   0.01   0.01    -0.03  -0.00  -0.07     0.03   0.02   0.07
  58   1    -0.00   0.01   0.01    -0.04   0.01  -0.04     0.02   0.01   0.03
  59   1    -0.01  -0.00  -0.01    -0.01   0.05   0.08    -0.02  -0.05  -0.09
  60   1    -0.01  -0.01  -0.01     0.00   0.03   0.07    -0.02  -0.03  -0.08
  61   1     0.01   0.01  -0.01    -0.01   0.01  -0.05     0.04  -0.01   0.05
  62   1     0.00   0.01   0.00    -0.01   0.02  -0.02     0.02  -0.03   0.01
  63   1     0.02  -0.00   0.05     0.02  -0.00   0.06    -0.00  -0.01  -0.00
  64   1     0.01  -0.02  -0.01    -0.01  -0.02  -0.02    -0.02  -0.03  -0.01
  65   1     0.01  -0.03  -0.02    -0.02   0.00  -0.05    -0.04  -0.00  -0.04
  66   1    -0.02   0.02  -0.02     0.01  -0.05   0.07     0.03  -0.04   0.06
  67   1    -0.01   0.01  -0.02    -0.00  -0.06   0.07     0.03  -0.06   0.07
  68   1     0.00  -0.02   0.01    -0.05   0.00  -0.03    -0.02   0.02  -0.03
  69   1     0.01  -0.02   0.02    -0.04   0.02  -0.07    -0.03   0.04  -0.06
  70   1    -0.00  -0.01   0.01    -0.06   0.06  -0.03    -0.04   0.06  -0.04
  71   1    -0.00  -0.01   0.01    -0.05   0.02  -0.02    -0.02   0.03  -0.02
  72   1    -0.01   0.00  -0.01     0.01  -0.08   0.05     0.04  -0.07   0.05
  73   1    -0.01   0.01  -0.01     0.03  -0.07   0.04     0.04  -0.06   0.04
  74   1    -0.00   0.01   0.03     0.02   0.05  -0.01     0.01   0.05  -0.02
  75   1    -0.21  -0.28  -0.37     0.06  -0.00   0.00     0.05  -0.01   0.01
  76   1    -0.21   0.24   0.33     0.06   0.03  -0.02     0.06   0.03  -0.01
  77   1     0.54  -0.04  -0.00     0.06   0.02  -0.01     0.06   0.01  -0.00
  78   1     0.01   0.00  -0.04     0.03  -0.00  -0.02    -0.00  -0.01  -0.00
                     22                     23                     24
                        a                      a                      a 
 Frequencies --   158.6020               164.5654               194.9931
 Red. masses --    13.3434                10.8249                10.5856
 Frc consts  --     0.0000                 0.0000                 0.0000
 IR Inten    --     0.2170                 1.0412                 1.4337
 Raman Activ --     0.0000                 0.0000                 0.0000
 Depolar     --     0.0000                 0.0000                 0.0000
 Atom AN      X      Y      Z        X      Y      Z        X      Y      Z
   1   6     0.06  -0.03   0.03     0.15   0.15  -0.14     0.01   0.11  -0.21
   2   6     0.08  -0.01   0.01     0.04  -0.00   0.03    -0.07  -0.10   0.02
   3   6     0.09   0.01   0.03     0.01  -0.05   0.09    -0.09  -0.12   0.11
   4   6     0.06   0.00   0.05     0.04   0.02   0.01     0.01  -0.01  -0.01
   5   7     0.05   0.04   0.07     0.02   0.00   0.06     0.04   0.04   0.07
   6   6    -0.03   0.03   0.04     0.00   0.00   0.05     0.04   0.05   0.08
   7   6    -0.10   0.04  -0.05    -0.02  -0.01   0.02     0.01   0.02   0.04
   8   6    -0.16   0.03  -0.06    -0.03  -0.02   0.00    -0.02  -0.05  -0.04
   9   6    -0.13   0.07   0.04    -0.03  -0.01   0.01    -0.02  -0.04  -0.04
  10   6    -0.07   0.06   0.10    -0.01  -0.01   0.03     0.02   0.02   0.03
  11   6    -0.03   0.03   0.06    -0.00  -0.00   0.04     0.03   0.05   0.07
  12  16    -0.21  -0.00  -0.14    -0.08  -0.02  -0.05    -0.08  -0.02  -0.08
  13   6    -0.01   0.07   0.01    -0.01   0.02   0.02     0.03   0.04   0.06
  14   6    -0.03   0.11   0.02    -0.02   0.05   0.03     0.03   0.03   0.05
  15   6    -0.10   0.10  -0.00    -0.06   0.04   0.01     0.00  -0.02  -0.03
  16   6    -0.13   0.04  -0.06    -0.09   0.00  -0.01    -0.01  -0.03  -0.07
  17   6    -0.09   0.02  -0.02    -0.06  -0.01   0.00     0.01   0.01   0.01
  18   6    -0.01   0.05   0.02    -0.01  -0.00   0.02     0.03   0.04   0.05
  19   6     0.09  -0.08   0.06     0.15   0.18  -0.19     0.11   0.12  -0.20
  20   6     0.10  -0.09   0.03     0.12   0.11  -0.12     0.03  -0.02  -0.10
  21   6     0.12  -0.07  -0.00     0.03  -0.04   0.04    -0.06  -0.15   0.04
  22   6     0.14  -0.05  -0.07    -0.02  -0.15   0.10    -0.06  -0.13   0.12
  23   6     0.12  -0.00  -0.22    -0.01  -0.16   0.00    -0.13  -0.01   0.26
  24   6     0.15   0.04  -0.09    -0.00  -0.14  -0.11    -0.06   0.12   0.14
  25   6     0.11   0.06  -0.01    -0.05  -0.04  -0.05    -0.07   0.15   0.05
  26   6     0.09   0.09   0.05    -0.12   0.09   0.13     0.02   0.03  -0.10
  27   6     0.08   0.09   0.09    -0.15   0.15   0.21     0.10  -0.10  -0.22
  28   6     0.06  -0.01   0.04    -0.05   0.02  -0.01    -0.00   0.01  -0.01
  29   7     0.06  -0.05   0.05    -0.03   0.01  -0.05     0.04  -0.06   0.06
  30   6    -0.01  -0.05   0.01     0.01   0.01  -0.02     0.03  -0.05   0.04
  31   6    -0.09  -0.02  -0.02     0.08  -0.01  -0.01     0.02  -0.02   0.00
  32   6    -0.13  -0.03  -0.05     0.11   0.00   0.02    -0.01   0.05  -0.07
  33   6    -0.09  -0.09  -0.02     0.08   0.06  -0.01     0.00   0.03  -0.03
  34   6    -0.03  -0.11   0.00     0.02   0.07  -0.02     0.03  -0.03   0.05
  35   6    -0.01  -0.07  -0.00     0.01   0.03  -0.01     0.03  -0.05   0.05
  36  16    -0.20   0.03  -0.11     0.11  -0.03   0.05    -0.10   0.03  -0.06
  37   6    -0.03  -0.03   0.05     0.01   0.01  -0.04     0.03  -0.07   0.06
  38   6    -0.06  -0.07   0.08     0.02   0.01  -0.04     0.03  -0.03   0.03
  39   6    -0.13  -0.07   0.03     0.04  -0.00  -0.02    -0.01   0.05  -0.03
  40   6    -0.15  -0.02  -0.05     0.05  -0.02  -0.00    -0.02   0.07  -0.03
  41   6    -0.09  -0.03  -0.05     0.03   0.00  -0.02     0.02  -0.02   0.04
  42   6    -0.02  -0.03   0.03     0.00   0.01  -0.05     0.04  -0.07   0.07
  43   6     0.09  -0.02   0.01    -0.02  -0.04  -0.09    -0.10   0.12   0.12
  44   6     0.08   0.01   0.01    -0.05  -0.00  -0.03    -0.08   0.10   0.03
  45   6     0.05   0.05   0.05    -0.16   0.13   0.15    -0.00  -0.09  -0.23
  46   7     0.22   0.04   0.02     0.01  -0.15  -0.24     0.07   0.13   0.05
  47   6     0.23  -0.01   0.04    -0.02  -0.15  -0.01     0.13  -0.00   0.03
  48   7     0.22  -0.07   0.05    -0.04  -0.17   0.22     0.07  -0.13   0.02
  49   1     0.05   0.03  -0.04     0.09   0.10  -0.10     0.04   0.09  -0.10
  50   1    -0.06  -0.01   0.01    -0.02   0.01  -0.10    -0.03  -0.01  -0.13
  51   1     0.05  -0.06   0.06     0.08   0.06   0.02     0.03   0.06  -0.01
  52   1     0.03   0.01   0.00    -0.01  -0.03   0.04    -0.04  -0.05   0.05
  53   1    -0.03   0.01  -0.03    -0.01  -0.00  -0.00     0.00   0.00   0.01
  54   1    -0.06  -0.00  -0.04    -0.01  -0.01  -0.01    -0.02  -0.03  -0.03
  55   1    -0.05   0.02   0.01    -0.01  -0.01   0.00    -0.01  -0.02  -0.03
  56   1    -0.02   0.01   0.05    -0.01  -0.00   0.01     0.01   0.01   0.01
  57   1    -0.00   0.05   0.00    -0.00   0.02   0.01     0.01   0.01   0.02
  58   1    -0.03   0.04  -0.00    -0.02   0.02   0.00    -0.00  -0.01  -0.02
  59   1    -0.05   0.00  -0.03    -0.03  -0.00  -0.01    -0.01  -0.02  -0.04
  60   1    -0.03  -0.01  -0.01    -0.02  -0.01   0.00     0.00   0.00   0.00
  61   1     0.04  -0.03   0.03     0.07   0.09  -0.10     0.07   0.08  -0.11
  62   1     0.03  -0.03   0.01     0.04   0.05  -0.06     0.02   0.00  -0.04
  63   1     0.02   0.00  -0.10    -0.00  -0.05   0.00    -0.06  -0.00   0.09
  64   1     0.03   0.03   0.02    -0.04   0.05   0.06     0.01   0.00  -0.04
  65   1     0.03   0.04   0.05    -0.07   0.08   0.11     0.06  -0.07  -0.12
  66   1    -0.03   0.01  -0.01     0.03  -0.01  -0.00     0.01  -0.01  -0.00
  67   1    -0.05   0.01  -0.03     0.04  -0.01   0.01    -0.01   0.03  -0.04
  68   1    -0.03  -0.03  -0.01     0.03   0.02  -0.00    -0.00   0.02  -0.02
  69   1    -0.00  -0.04  -0.00     0.00   0.03  -0.00     0.01  -0.01   0.02
  70   1    -0.02  -0.02   0.04     0.01   0.00  -0.02     0.01  -0.01   0.00
  71   1    -0.04  -0.02   0.01     0.02  -0.00  -0.00    -0.01   0.03  -0.02
  72   1    -0.06   0.00  -0.03     0.02  -0.01   0.01    -0.02   0.04  -0.02
  73   1    -0.03  -0.01  -0.03     0.01  -0.00   0.00     0.00  -0.00   0.01
  74   1     0.03  -0.01  -0.01    -0.00  -0.03  -0.04    -0.04   0.05   0.06
  75   1     0.04   0.06   0.06    -0.09   0.05  -0.02     0.03  -0.06  -0.02
  76   1     0.04  -0.01  -0.02    -0.09   0.09   0.11     0.03  -0.09  -0.12
  77   1    -0.05   0.01   0.03     0.02  -0.00   0.09    -0.04   0.03  -0.14
  78   1     0.08  -0.00   0.03    -0.01  -0.04  -0.00     0.07  -0.00  -0.01
                     25                     26                     27
                        a                      a                      a 
 Frequencies --   215.4982               216.2319               225.2278
 Red. masses --    11.5789                11.8603                10.8247
 Frc consts  --     0.0000                 0.0000                 0.0000
 IR Inten    --     1.2775                 0.6589                 0.6227
 Raman Activ --     0.0000                 0.0000                 0.0000
 Depolar     --     0.0000                 0.0000                 0.0000
 Atom AN      X      Y      Z        X      Y      Z        X      Y      Z
   1   6    -0.04   0.19  -0.08     0.10  -0.04   0.01    -0.09  -0.06   0.09
   2   6    -0.06  -0.05   0.19     0.01  -0.03  -0.01     0.06   0.14  -0.13
   3   6    -0.07  -0.09   0.30     0.00  -0.05  -0.03     0.12   0.25  -0.21
   4   6     0.02   0.04   0.14    -0.01  -0.04  -0.03     0.05   0.08  -0.03
   5   7     0.01   0.01  -0.03     0.01  -0.01   0.00    -0.01  -0.00   0.05
   6   6    -0.03  -0.07  -0.16     0.03   0.04   0.06    -0.07  -0.09  -0.06
   7   6    -0.05  -0.01  -0.15     0.02   0.03   0.05    -0.05  -0.10  -0.04
   8   6    -0.00   0.15   0.05    -0.02  -0.03  -0.03     0.05  -0.01   0.08
   9   6    -0.01   0.14   0.09    -0.03  -0.04  -0.04     0.07   0.02   0.09
  10   6    -0.09  -0.04  -0.08     0.02   0.02   0.04    -0.02  -0.06  -0.05
  11   6    -0.05  -0.09  -0.15     0.03   0.04   0.07    -0.06  -0.09  -0.09
  12  16     0.21  -0.01   0.11    -0.07  -0.00  -0.06     0.03  -0.01   0.05
  13   6    -0.05  -0.12  -0.21     0.03   0.05   0.07    -0.01  -0.01   0.03
  14   6    -0.04  -0.04  -0.12     0.03   0.02   0.04    -0.04   0.01   0.00
  15   6     0.05   0.09   0.15    -0.01  -0.03  -0.06    -0.07   0.02   0.01
  16   6     0.03   0.07   0.13    -0.00  -0.02  -0.05    -0.07   0.00   0.03
  17   6    -0.05  -0.09  -0.14     0.03   0.04   0.04    -0.04  -0.02   0.04
  18   6    -0.05  -0.12  -0.20     0.03   0.04   0.06    -0.01  -0.02   0.05
  19   6     0.08   0.10   0.06    -0.02  -0.03  -0.02     0.04   0.02   0.02
  20   6     0.03  -0.02   0.11    -0.01  -0.01  -0.00     0.06   0.06  -0.07
  21   6    -0.03  -0.06   0.14    -0.00  -0.01   0.00     0.04   0.06  -0.07
  22   6    -0.01  -0.04  -0.05     0.00   0.02  -0.01    -0.00  -0.04   0.02
  23   6    -0.02  -0.01  -0.23    -0.01   0.05  -0.13     0.01  -0.06  -0.04
  24   6    -0.01   0.01  -0.03    -0.01   0.05  -0.03     0.01  -0.05  -0.05
  25   6    -0.02   0.03   0.07    -0.02   0.04   0.13    -0.04   0.04   0.09
  26   6    -0.00   0.01   0.05     0.03   0.01   0.10    -0.07   0.05   0.10
  27   6     0.02  -0.02   0.00     0.08  -0.11   0.04    -0.06   0.03  -0.00
  28   6     0.00   0.01   0.04     0.02  -0.07   0.13    -0.06   0.10   0.04
  29   7     0.01  -0.01  -0.01    -0.01  -0.02  -0.02    -0.01  -0.00  -0.05
  30   6    -0.01   0.02  -0.04    -0.07   0.15  -0.17    -0.00  -0.02  -0.05
  31   6    -0.00   0.01  -0.03    -0.06   0.11  -0.12     0.05  -0.03  -0.06
  32   6     0.02  -0.02   0.01     0.05  -0.09   0.11     0.09   0.01  -0.04
  33   6     0.02  -0.02   0.01     0.07  -0.12   0.13     0.09   0.03  -0.02
  34   6     0.00   0.01  -0.02    -0.05   0.08  -0.11     0.04   0.02  -0.00
  35   6    -0.01   0.02  -0.04    -0.08   0.16  -0.18    -0.00  -0.01  -0.03
  36  16     0.03  -0.01   0.00     0.22  -0.05   0.10    -0.06  -0.02  -0.05
  37   6    -0.00   0.01  -0.02    -0.07   0.14  -0.14     0.07  -0.14   0.08
  38   6    -0.02   0.00  -0.01    -0.09   0.07  -0.08     0.02  -0.09   0.03
  39   6    -0.02  -0.03   0.00     0.01  -0.16   0.07    -0.08   0.06  -0.10
  40   6    -0.01  -0.04  -0.01     0.01  -0.17   0.04    -0.06   0.03  -0.08
  41   6    -0.01  -0.01  -0.03    -0.06   0.05  -0.14     0.05  -0.12   0.04
  42   6     0.00   0.00  -0.02    -0.05   0.11  -0.14     0.07  -0.13   0.06
  43   6    -0.04   0.07   0.12    -0.07   0.03   0.29    -0.12   0.26   0.26
  44   6    -0.02   0.04   0.09    -0.06   0.01   0.17    -0.05   0.14   0.17
  45   6     0.06  -0.06  -0.04    -0.09  -0.18  -0.10     0.14  -0.05  -0.08
  46   7     0.01   0.01   0.10     0.01   0.06  -0.10     0.02  -0.05  -0.20
  47   6     0.03  -0.01  -0.05     0.02   0.03  -0.03    -0.01  -0.04  -0.01
  48   7     0.01  -0.05  -0.06     0.01   0.01   0.12    -0.02  -0.06   0.19
  49   1     0.01   0.12  -0.05     0.04  -0.02  -0.01    -0.05  -0.05   0.06
  50   1    -0.04   0.01  -0.10     0.03  -0.01   0.01    -0.02   0.02   0.09
  51   1     0.00   0.09   0.01     0.04  -0.01   0.02    -0.04  -0.07  -0.01
  52   1    -0.04  -0.04   0.11     0.00  -0.02  -0.01     0.04   0.10  -0.08
  53   1    -0.01  -0.00  -0.06     0.01   0.01   0.02    -0.02  -0.03  -0.02
  54   1     0.02   0.08   0.05    -0.02  -0.02  -0.03     0.03   0.01   0.05
  55   1     0.01   0.08   0.07    -0.02  -0.03  -0.03     0.04   0.03   0.06
  56   1    -0.03  -0.02  -0.01     0.01   0.01   0.01    -0.00  -0.02  -0.02
  57   1    -0.01  -0.01  -0.04     0.01   0.01   0.01    -0.01   0.01  -0.01
  58   1     0.04   0.06   0.11    -0.01  -0.02  -0.04    -0.02   0.01  -0.00
  59   1     0.03   0.05   0.09    -0.01  -0.02  -0.04    -0.03  -0.00   0.01
  60   1    -0.02  -0.04  -0.04     0.01   0.01   0.01    -0.01  -0.01   0.01
  61   1     0.05   0.06  -0.02    -0.01  -0.01  -0.01     0.00  -0.02   0.04
  62   1     0.02  -0.01   0.02    -0.00   0.00  -0.00     0.02   0.01  -0.02
  63   1    -0.02  -0.00  -0.11    -0.01   0.02  -0.06     0.00  -0.02  -0.02
  64   1     0.00   0.00   0.01     0.02   0.00   0.02    -0.02   0.00   0.02
  65   1     0.01  -0.02  -0.02     0.05  -0.06  -0.02    -0.01  -0.02  -0.04
  66   1    -0.00   0.01  -0.01    -0.02   0.04  -0.04     0.02  -0.02  -0.02
  67   1     0.01  -0.01   0.01     0.04  -0.07   0.08     0.04   0.00  -0.02
  68   1     0.01  -0.01   0.01     0.05  -0.08   0.09     0.03   0.01  -0.00
  69   1     0.00   0.00  -0.00    -0.01   0.02  -0.03     0.01   0.01   0.01
  70   1    -0.01   0.00   0.00    -0.03   0.03  -0.01     0.01  -0.02   0.01
  71   1    -0.01  -0.01   0.00     0.02  -0.09   0.06    -0.05   0.06  -0.06
  72   1    -0.00  -0.02  -0.00     0.02  -0.10   0.04    -0.04   0.04  -0.05
  73   1    -0.00  -0.00  -0.01    -0.02   0.02  -0.05     0.02  -0.04   0.02
  74   1    -0.01   0.03   0.05    -0.03   0.02   0.11    -0.04   0.11   0.10
  75   1     0.03  -0.04   0.02    -0.02  -0.08  -0.01     0.06  -0.08   0.02
  76   1     0.04  -0.04  -0.04    -0.02  -0.12  -0.05     0.07  -0.05  -0.06
  77   1     0.00   0.01  -0.04    -0.05   0.00  -0.10     0.03   0.03  -0.09
  78   1     0.02  -0.00  -0.03     0.01   0.01  -0.02    -0.00  -0.01  -0.01
                     28                     29                     30
                        a                      a                      a 
 Frequencies --   228.3561               229.0626               231.0080
 Red. masses --    10.6854                10.5293                11.0452
 Frc consts  --     0.0000                 0.0000                 0.0000
 IR Inten    --     0.2233                 0.2905                 2.4426
 Raman Activ --     0.0000                 0.0000                 0.0000
 Depolar     --     0.0000                 0.0000                 0.0000
 Atom AN      X      Y      Z        X      Y      Z        X      Y      Z
   1   6    -0.10   0.05  -0.07     0.03   0.03  -0.04     0.31  -0.02   0.09
   2   6    -0.06  -0.01   0.01    -0.03  -0.06   0.06     0.04  -0.09   0.13
   3   6    -0.06  -0.01   0.04    -0.06  -0.10   0.09    -0.03  -0.21   0.12
   4   6    -0.04   0.02   0.00    -0.04  -0.03   0.01    -0.03  -0.10  -0.00
   5   7    -0.04   0.03   0.00    -0.02   0.01  -0.03     0.01  -0.04  -0.08
   6   6    -0.14  -0.13  -0.20    -0.04  -0.03  -0.06     0.02   0.02  -0.00
   7   6    -0.10  -0.14  -0.15    -0.03  -0.02  -0.05     0.01   0.06  -0.01
   8   6     0.11   0.08   0.14     0.03   0.04   0.03    -0.04   0.04  -0.03
   9   6     0.14   0.12   0.15     0.03   0.04   0.03    -0.05   0.02  -0.03
  10   6    -0.06  -0.09  -0.17    -0.02  -0.02  -0.06    -0.02   0.01   0.01
  11   6    -0.15  -0.15  -0.24    -0.04  -0.03  -0.07     0.02   0.02   0.01
  12  16    -0.00   0.07   0.02    -0.02   0.04  -0.02    -0.05   0.02  -0.08
  13   6     0.06   0.12   0.23     0.04   0.07   0.11     0.07   0.09   0.13
  14   6     0.05   0.04   0.16     0.04   0.02   0.08     0.07   0.05   0.08
  15   6    -0.02  -0.12  -0.16     0.01  -0.07  -0.09     0.00  -0.06  -0.14
  16   6     0.00  -0.09  -0.14     0.03  -0.04  -0.09     0.02  -0.04  -0.11
  17   6     0.08   0.10   0.14     0.06   0.06   0.06     0.08   0.08   0.09
  18   6     0.05   0.11   0.18     0.03   0.07   0.08     0.06   0.08   0.09
  19   6    -0.01   0.04  -0.04    -0.03  -0.00  -0.01    -0.07  -0.05   0.04
  20   6    -0.03  -0.01  -0.02    -0.04  -0.02   0.03    -0.04   0.01   0.11
  21   6    -0.04  -0.04   0.01    -0.02  -0.02   0.03     0.01   0.04   0.09
  22   6    -0.01  -0.03   0.04    -0.00   0.02  -0.01     0.01   0.08  -0.11
  23   6    -0.01  -0.02   0.03     0.00   0.01  -0.02     0.03   0.03  -0.30
  24   6     0.01   0.01  -0.01     0.00   0.00  -0.00    -0.02  -0.05  -0.06
  25   6     0.04  -0.00  -0.00     0.02  -0.03  -0.03    -0.05  -0.03   0.06
  26   6     0.06  -0.01  -0.01     0.02  -0.02  -0.02    -0.11  -0.01   0.07
  27   6     0.06  -0.01   0.01     0.01   0.01   0.02    -0.13   0.03   0.01
  28   6     0.06  -0.01   0.01     0.02  -0.01  -0.01    -0.10   0.07  -0.01
  29   7     0.05   0.01   0.02     0.01   0.01   0.01    -0.07   0.01  -0.06
  30   6     0.06  -0.03   0.07    -0.10   0.17  -0.17     0.01  -0.10   0.05
  31   6     0.00  -0.03   0.08    -0.11   0.14  -0.14     0.10  -0.10   0.02
  32   6    -0.09   0.02  -0.03     0.03  -0.12   0.15     0.09   0.08  -0.09
  33   6    -0.08  -0.00  -0.06     0.05  -0.15   0.17     0.06   0.14  -0.08
  34   6     0.02  -0.08   0.02    -0.09   0.10  -0.14     0.06   0.01   0.09
  35   6     0.07  -0.05   0.06    -0.11   0.19  -0.22     0.02  -0.10   0.10
  36  16     0.05   0.03  -0.02    -0.01   0.04   0.03    -0.10  -0.07  -0.03
  37   6    -0.05   0.13  -0.07     0.14  -0.20   0.18    -0.01  -0.06  -0.00
  38   6    -0.06   0.08  -0.02     0.09  -0.12   0.12     0.03  -0.03  -0.04
  39   6     0.00  -0.10   0.08    -0.10   0.16  -0.11     0.04   0.04  -0.05
  40   6    -0.00  -0.09   0.05    -0.08   0.14  -0.09     0.04   0.03  -0.01
  41   6    -0.05   0.07  -0.08     0.10  -0.14   0.13     0.02  -0.02   0.03
  42   6    -0.03   0.11  -0.07     0.11  -0.17   0.15    -0.02  -0.05   0.00
  43   6     0.06  -0.03  -0.02     0.05  -0.07  -0.09    -0.09   0.14   0.09
  44   6     0.04  -0.01  -0.01     0.04  -0.04  -0.05    -0.04   0.04   0.09
  45   6     0.04   0.02   0.03     0.01   0.03   0.05     0.13  -0.03   0.02
  46   7     0.03   0.01  -0.06    -0.01   0.00   0.04    -0.09  -0.05   0.09
  47   6     0.03  -0.01   0.01    -0.01   0.01  -0.01    -0.11   0.01  -0.10
  48   7     0.01  -0.03   0.08    -0.00   0.02  -0.05    -0.07   0.08  -0.13
  49   1    -0.03   0.04  -0.02     0.02   0.03  -0.02     0.12  -0.02  -0.01
  50   1    -0.04   0.00  -0.04     0.01  -0.01  -0.04     0.11  -0.02   0.00
  51   1    -0.03   0.02  -0.02     0.02   0.03   0.01     0.11   0.05   0.07
  52   1    -0.02  -0.00   0.02    -0.02  -0.04   0.04    -0.01  -0.09   0.04
  53   1    -0.04  -0.05  -0.05    -0.01  -0.01  -0.01     0.01   0.02  -0.00
  54   1     0.07   0.07   0.10     0.02   0.02   0.03    -0.02   0.01  -0.01
  55   1     0.09   0.09   0.11     0.02   0.03   0.03    -0.03  -0.00  -0.01
  56   1    -0.02  -0.03  -0.07    -0.01  -0.01  -0.02    -0.01  -0.00   0.01
  57   1     0.01   0.01   0.06     0.01   0.00   0.03     0.02   0.01   0.03
  58   1    -0.03  -0.08  -0.11    -0.01  -0.04  -0.06    -0.02  -0.04  -0.09
  59   1    -0.02  -0.05  -0.10     0.00  -0.03  -0.06    -0.01  -0.03  -0.07
  60   1     0.03   0.04   0.05     0.02   0.03   0.02     0.03   0.03   0.04
  61   1     0.01   0.02  -0.02    -0.01   0.01  -0.02    -0.04  -0.00  -0.01
  62   1    -0.01  -0.00  -0.01    -0.01   0.00   0.01    -0.01   0.02   0.03
  63   1    -0.01  -0.00   0.01     0.00   0.00  -0.01     0.02   0.01  -0.12
  64   1     0.02   0.00  -0.00     0.01  -0.00  -0.00    -0.03  -0.02   0.01
  65   1     0.02  -0.00   0.01    -0.00   0.01   0.02    -0.05  -0.00  -0.01
  66   1    -0.00  -0.00   0.03    -0.04   0.05  -0.05     0.04  -0.05   0.00
  67   1    -0.04   0.02  -0.02     0.04  -0.08   0.10     0.03   0.04  -0.06
  68   1    -0.04   0.01  -0.04     0.05  -0.10   0.12     0.01   0.08  -0.05
  69   1     0.01  -0.03  -0.00    -0.03   0.03  -0.06     0.01   0.02   0.05
  70   1    -0.02   0.03   0.00     0.03  -0.04   0.04     0.01  -0.02  -0.03
  71   1     0.02  -0.07   0.06    -0.07   0.11  -0.08     0.01   0.02  -0.03
  72   1     0.01  -0.06   0.03    -0.06   0.09  -0.07     0.02   0.02  -0.00
  73   1    -0.02   0.02  -0.04     0.04  -0.05   0.05     0.00  -0.00   0.03
  74   1     0.02  -0.01  -0.01     0.02  -0.03  -0.04    -0.02   0.06   0.03
  75   1     0.01   0.01   0.01    -0.00   0.03   0.00     0.05  -0.04   0.03
  76   1     0.01   0.01   0.01    -0.01   0.03   0.03     0.06  -0.01  -0.02
  77   1     0.02  -0.00   0.02     0.01  -0.01   0.04     0.04   0.01  -0.02
  78   1     0.02  -0.00   0.00    -0.00   0.00  -0.00    -0.05   0.00  -0.05
                     31                     32                     33
                        a                      a                      a 
 Frequencies --   231.7588               260.6640               268.2698
 Red. masses --    11.5126                15.4175                14.5120
 Frc consts  --     0.0000                 0.0000                 0.0000
 IR Inten    --     0.4423                 1.1741                 0.3476
 Raman Activ --     0.0000                 0.0000                 0.0000
 Depolar     --     0.0000                 0.0000                 0.0000
 Atom AN      X      Y      Z        X      Y      Z        X      Y      Z
   1   6     0.11  -0.07   0.09    -0.03  -0.03  -0.04     0.22  -0.01   0.14
   2   6     0.11   0.03  -0.03    -0.01  -0.04  -0.02     0.07   0.04   0.05
   3   6     0.14   0.07  -0.04    -0.01  -0.06   0.03     0.07   0.07  -0.06
   4   6     0.13   0.01   0.03     0.05  -0.06   0.02    -0.01   0.05  -0.03
   5   7     0.11  -0.03   0.05     0.09  -0.05  -0.01    -0.06   0.02  -0.00
   6   6     0.00  -0.11  -0.08     0.13  -0.03  -0.01    -0.11   0.01   0.02
   7   6    -0.05  -0.03  -0.12     0.06   0.10  -0.07    -0.05  -0.08   0.06
   8   6    -0.06   0.11   0.05    -0.12   0.11  -0.06     0.09  -0.10   0.06
   9   6    -0.07   0.10   0.13    -0.16   0.07   0.01     0.11  -0.07   0.00
  10   6    -0.10  -0.09   0.01    -0.05  -0.02   0.10     0.03   0.00  -0.06
  11   6    -0.02  -0.15  -0.08     0.12  -0.06   0.02    -0.10   0.03   0.00
  12  16     0.09  -0.09  -0.04     0.22  -0.21  -0.13    -0.20   0.17   0.10
  13   6     0.09   0.02   0.04     0.14  -0.03   0.04    -0.09   0.03  -0.03
  14   6     0.00   0.12  -0.01     0.04   0.11  -0.00    -0.03  -0.06  -0.01
  15   6    -0.13   0.10  -0.04    -0.12   0.08  -0.05     0.07  -0.04   0.02
  16   6    -0.16   0.04  -0.00    -0.15   0.01   0.00     0.09  -0.00  -0.00
  17   6    -0.05  -0.03   0.08    -0.02  -0.05   0.11     0.00   0.04  -0.07
  18   6     0.08  -0.02   0.07     0.11  -0.06   0.06    -0.07   0.04  -0.04
  19   6     0.13  -0.01   0.05     0.02  -0.04   0.05     0.01   0.06  -0.04
  20   6     0.14   0.00   0.00     0.01  -0.01   0.02     0.02   0.05   0.03
  21   6     0.09   0.02  -0.02    -0.02   0.03  -0.04     0.04  -0.01   0.09
  22   6     0.04  -0.01  -0.03    -0.05   0.05   0.00    -0.01  -0.11  -0.03
  23   6    -0.01   0.03   0.13    -0.03  -0.00   0.10    -0.01  -0.12  -0.02
  24   6    -0.03   0.04   0.10    -0.06  -0.04  -0.00    -0.00  -0.10   0.02
  25   6    -0.07   0.05  -0.05    -0.03  -0.03  -0.03    -0.05   0.01  -0.08
  26   6    -0.07   0.02  -0.08     0.01   0.01   0.02    -0.02   0.04  -0.02
  27   6    -0.04  -0.03  -0.06     0.02   0.03   0.05    -0.00   0.04   0.04
  28   6    -0.08  -0.06  -0.02     0.05   0.05   0.02     0.01   0.04   0.03
  29   7    -0.08  -0.05   0.02     0.09   0.05  -0.01     0.06   0.01   0.01
  30   6    -0.07   0.01  -0.02     0.11   0.05   0.04     0.08   0.04   0.04
  31   6     0.01   0.01  -0.05    -0.01   0.04   0.10    -0.00   0.04   0.08
  32   6     0.09   0.02   0.02    -0.14  -0.01   0.01    -0.10  -0.00   0.01
  33   6     0.08   0.05   0.06    -0.12  -0.07  -0.04    -0.08  -0.04  -0.02
  34   6    -0.03   0.08   0.03     0.03  -0.10  -0.03     0.02  -0.06  -0.01
  35   6    -0.08   0.03  -0.00     0.13   0.03   0.02     0.10   0.03   0.02
  36  16    -0.02  -0.09   0.07     0.22   0.23  -0.10     0.21   0.19  -0.08
  37   6    -0.06  -0.01  -0.05     0.13   0.04   0.03     0.11   0.03   0.00
  38   6     0.04   0.00  -0.08    -0.04  -0.00   0.10    -0.03  -0.01   0.07
  39   6     0.13   0.03  -0.01    -0.16  -0.05   0.00    -0.12  -0.05  -0.01
  40   6     0.10   0.06   0.04    -0.13  -0.09  -0.07    -0.09  -0.08  -0.07
  41   6    -0.01   0.07   0.03     0.06  -0.10  -0.08     0.05  -0.08  -0.07
  42   6    -0.07  -0.00  -0.02     0.14   0.01  -0.01     0.11   0.01  -0.02
  43   6    -0.08  -0.09  -0.06    -0.02   0.07   0.05    -0.07   0.05   0.05
  44   6    -0.11  -0.04  -0.07    -0.01   0.05  -0.00    -0.07   0.05  -0.04
  45   6    -0.31  -0.04  -0.12    -0.03   0.03  -0.04    -0.21   0.01  -0.13
  46   7     0.01   0.04   0.25    -0.18  -0.05  -0.03    -0.02  -0.12   0.29
  47   6     0.05   0.00   0.05    -0.20   0.00   0.03    -0.00  -0.11  -0.01
  48   7     0.07   0.00  -0.23    -0.18   0.06  -0.02     0.01  -0.11  -0.30
  49   1     0.02  -0.05   0.04    -0.02  -0.01   0.00     0.08  -0.04   0.03
  50   1     0.05   0.00   0.06    -0.00  -0.01  -0.02     0.08   0.01   0.06
  51   1     0.02  -0.03   0.01    -0.02  -0.00  -0.02     0.07   0.01   0.06
  52   1     0.04   0.03  -0.02    -0.01  -0.01   0.02     0.04   0.02  -0.03
  53   1    -0.01   0.00  -0.06     0.04   0.05  -0.04    -0.03  -0.04   0.03
  54   1    -0.01   0.07   0.03    -0.05   0.05  -0.04     0.04  -0.04   0.03
  55   1    -0.01   0.06   0.08    -0.07   0.02   0.00     0.05  -0.02  -0.00
  56   1    -0.04  -0.05   0.02    -0.03  -0.03   0.06     0.02   0.02  -0.04
  57   1     0.01   0.06  -0.02     0.03   0.06  -0.02    -0.02  -0.04   0.01
  58   1    -0.06   0.04  -0.03    -0.05   0.03  -0.04     0.03  -0.02   0.02
  59   1    -0.07   0.00  -0.01    -0.07  -0.00  -0.01     0.05   0.01   0.01
  60   1    -0.02  -0.03   0.04    -0.02  -0.04   0.05     0.01   0.03  -0.04
  61   1     0.03  -0.02   0.03    -0.01  -0.01   0.02     0.00   0.02  -0.02
  62   1     0.04  -0.01   0.00     0.01  -0.02   0.00    -0.00   0.03   0.01
  63   1    -0.01   0.01   0.05     0.00  -0.00   0.05    -0.00  -0.04  -0.01
  64   1    -0.02   0.01  -0.02     0.01   0.01   0.00     0.00   0.02  -0.01
  65   1     0.00  -0.01  -0.01    -0.00   0.01   0.01    -0.00   0.01   0.01
  66   1     0.01  -0.01  -0.03    -0.01   0.03   0.06    -0.01   0.03   0.05
  67   1     0.04  -0.00   0.01    -0.07   0.00   0.00    -0.05   0.01   0.00
  68   1     0.04   0.02   0.03    -0.05  -0.03  -0.03    -0.04  -0.02  -0.02
  69   1    -0.01   0.04   0.02     0.02  -0.06  -0.04     0.02  -0.04  -0.02
  70   1     0.02  -0.01  -0.05    -0.02   0.02   0.07    -0.02   0.01   0.05
[...]
 Frc consts  --     0.0000                 0.0000                 0.0000
 IR Inten    --    41.7838                48.8565                38.2682
 Raman Activ --     0.0000                 0.0000                 0.0000
 Depolar     --     0.0000                 0.0000                 0.0000
 Atom AN      X      Y      Z        X      Y      Z        X      Y      Z
   1   6     0.00  -0.00   0.00     0.00  -0.00   0.00    -0.00   0.00   0.00
   2   6     0.00  -0.00   0.00     0.00   0.00   0.00    -0.00   0.00  -0.00
   3   6     0.00   0.00   0.00     0.00   0.00   0.00    -0.00  -0.00  -0.00
   4   6     0.00  -0.00   0.00     0.00  -0.00  -0.00    -0.00   0.00   0.00
   5   7    -0.00   0.00   0.00    -0.00   0.00   0.00     0.00  -0.00  -0.00
   6   6    -0.00  -0.00   0.00    -0.00   0.01  -0.00     0.00  -0.00   0.00
   7   6     0.02  -0.02  -0.00    -0.16   0.11   0.01     0.03  -0.02  -0.00
   8   6     0.01   0.00  -0.00    -0.02  -0.01   0.02     0.00   0.00  -0.00
   9   6     0.00  -0.01   0.01    -0.01   0.11  -0.08     0.00  -0.02   0.02
  10   6     0.01  -0.01  -0.00    -0.09   0.06   0.00     0.02  -0.01  -0.00
  11   6     0.00   0.00  -0.00    -0.00  -0.00   0.00     0.00   0.00  -0.00
  12  16    -0.00  -0.00   0.00     0.00   0.00  -0.00    -0.00  -0.00   0.00
  13   6    -0.00  -0.00   0.00     0.00  -0.00   0.00     0.00   0.00  -0.00
  14   6     0.00  -0.00  -0.00     0.00  -0.00  -0.00    -0.00   0.00   0.00
  15   6     0.00   0.00  -0.00     0.01   0.01  -0.01    -0.00  -0.00   0.00
  16   6     0.00  -0.00   0.00     0.00  -0.00   0.00     0.00  -0.00   0.00
  17   6     0.00  -0.00  -0.00     0.01  -0.01  -0.00    -0.00   0.00   0.00
  18   6    -0.00   0.00  -0.00    -0.00  -0.00   0.00    -0.00   0.00  -0.00
  19   6     0.02  -0.11  -0.09     0.01  -0.04  -0.03    -0.00   0.01   0.01
  20   6    -0.05  -0.02  -0.04    -0.01  -0.00  -0.01     0.00   0.00   0.00
  21   6    -0.00   0.00   0.00    -0.00   0.00   0.00     0.00  -0.00  -0.00
  22   6     0.00  -0.00  -0.00     0.00  -0.00  -0.00    -0.00   0.00   0.00
  23   6    -0.00  -0.10  -0.01    -0.00  -0.01  -0.00    -0.00   0.01   0.00
  24   6    -0.00  -0.00  -0.00    -0.00  -0.00  -0.00     0.00   0.00   0.00
  25   6     0.00   0.00  -0.00    -0.00  -0.00   0.00    -0.00  -0.00   0.00
  26   6     0.06  -0.03   0.05     0.00  -0.00   0.00    -0.01   0.00  -0.01
  27   6    -0.02  -0.15   0.10     0.00   0.00  -0.00     0.00   0.02  -0.02
  28   6    -0.01  -0.00  -0.00     0.00   0.00  -0.00     0.00   0.00  -0.00
  29   7     0.00   0.00  -0.00    -0.00  -0.00   0.00    -0.00  -0.00   0.00
  30   6    -0.00   0.00   0.00     0.00   0.00   0.00     0.00   0.00  -0.00
  31   6    -0.01  -0.01   0.00     0.00   0.00  -0.00     0.03   0.01  -0.00
  32   6    -0.00  -0.00  -0.00     0.00   0.00   0.00     0.00   0.00   0.00
  33   6    -0.00   0.00   0.00     0.00  -0.00  -0.00     0.02  -0.01  -0.02
  34   6    -0.01  -0.00   0.00    -0.00  -0.00   0.00     0.01   0.01  -0.00
  35   6     0.00  -0.00  -0.00     0.00  -0.00  -0.00    -0.00   0.00   0.00
  36  16    -0.00   0.00  -0.00    -0.00  -0.00  -0.00     0.00  -0.00  -0.00
  37   6    -0.00   0.00   0.00    -0.00   0.00   0.00    -0.00   0.00   0.00
  38   6    -0.01  -0.01  -0.00    -0.02  -0.01  -0.00    -0.09  -0.06  -0.00
  39   6    -0.00  -0.01  -0.01    -0.00  -0.02  -0.02    -0.02  -0.10  -0.11
  40   6    -0.00   0.00   0.00    -0.00   0.00   0.00    -0.01   0.00   0.01
  41   6    -0.02  -0.01  -0.00    -0.03  -0.02  -0.00    -0.16  -0.10  -0.00
  42   6     0.00  -0.00  -0.00    -0.00  -0.00  -0.00    -0.00  -0.00  -0.00
  43   6    -0.00   0.00  -0.00     0.00  -0.00   0.00     0.00  -0.00   0.00
  44   6    -0.00  -0.00  -0.00     0.00  -0.00   0.00     0.00  -0.00   0.00
  45   6    -0.00  -0.00  -0.00     0.00  -0.00   0.00     0.00   0.00   0.00
  46   7     0.00   0.00   0.00     0.00   0.00   0.00    -0.00  -0.00  -0.00
  47   6     0.00   0.00   0.00    -0.00  -0.00   0.00    -0.00   0.00   0.00
  48   7    -0.00   0.00  -0.00     0.00   0.00   0.00     0.00  -0.00  -0.00
  49   1    -0.00  -0.00  -0.00    -0.00  -0.00  -0.00    -0.00   0.00  -0.00
  50   1     0.00   0.00  -0.00     0.00   0.00  -0.00     0.00  -0.00   0.00
  51   1    -0.00  -0.00   0.00    -0.00  -0.00   0.00     0.00   0.00  -0.00
  52   1    -0.01  -0.00  -0.01    -0.02  -0.01  -0.01     0.00   0.00   0.00
  53   1    -0.08   0.06   0.00     0.56  -0.40  -0.02    -0.10   0.07   0.00
  54   1    -0.02  -0.00   0.01     0.07   0.02  -0.05    -0.01  -0.00   0.01
  55   1    -0.00   0.04  -0.03     0.03  -0.39   0.28    -0.00   0.07  -0.05
  56   1    -0.03   0.02   0.00     0.30  -0.21  -0.01    -0.06   0.04   0.00
  57   1    -0.01   0.00   0.00    -0.01   0.01   0.00     0.01  -0.00  -0.00
  58   1    -0.01  -0.00   0.00    -0.04  -0.02   0.02     0.01   0.01  -0.01
  59   1    -0.00   0.01  -0.00    -0.00   0.00  -0.00    -0.00   0.00  -0.00
  60   1    -0.01   0.01   0.00    -0.05   0.03   0.00     0.02  -0.01  -0.00
  61   1    -0.06   0.37   0.30    -0.02   0.13   0.11     0.00  -0.02  -0.02
  62   1     0.15   0.05   0.13     0.04   0.01   0.03    -0.01  -0.00  -0.01
  63   1     0.00   0.36   0.02     0.00   0.02   0.00    -0.00  -0.02  -0.00
  64   1    -0.20   0.09  -0.15    -0.00   0.00  -0.00     0.02  -0.01   0.02
  65   1     0.08   0.53  -0.36    -0.00  -0.01   0.01    -0.01  -0.09   0.06
  66   1     0.04   0.02  -0.00    -0.01  -0.00   0.00    -0.10  -0.05   0.01
  67   1     0.00   0.01   0.01    -0.00  -0.00  -0.00    -0.00  -0.00  -0.00
  68   1     0.02  -0.01  -0.02    -0.00   0.00   0.00    -0.07   0.03   0.06
  69   1     0.02   0.01  -0.00     0.00   0.00  -0.00    -0.04  -0.02   0.00
  70   1     0.03   0.02   0.00     0.06   0.04   0.00     0.31   0.21   0.01
  71   1     0.01   0.03   0.03     0.01   0.06   0.07     0.06   0.34   0.37
  72   1     0.02  -0.00  -0.02     0.01  -0.00  -0.01     0.05  -0.01  -0.05
  73   1     0.07   0.05   0.00     0.11   0.07   0.00     0.57   0.37   0.02
  74   1     0.01  -0.01   0.01    -0.00   0.00  -0.00    -0.02   0.01  -0.01
  75   1     0.00  -0.00  -0.00    -0.00  -0.00   0.00    -0.00   0.00   0.00
  76   1     0.00  -0.00   0.00    -0.00   0.00  -0.00    -0.00   0.00  -0.00
  77   1    -0.00   0.00   0.00     0.00   0.00   0.00     0.00  -0.00  -0.00
  78   1    -0.00  -0.01  -0.00     0.00   0.00   0.00     0.00  -0.00  -0.00
                    223                    224                    225
                        a                      a                      a 
 Frequencies --  3102.5559              3103.0168              3106.5719
 Red. masses --     1.8557                 1.8622                 1.9060
 Frc consts  --     0.0000                 0.0000                 0.0000
 IR Inten    --    72.3246                57.3926                45.3248
 Raman Activ --     0.0000                 0.0000                 0.0000
 Depolar     --     0.0000                 0.0000                 0.0000
 Atom AN      X      Y      Z        X      Y      Z        X      Y      Z
   1   6    -0.00  -0.00  -0.00    -0.00   0.00  -0.00     0.00   0.00  -0.00
   2   6    -0.00  -0.00  -0.00    -0.00  -0.00  -0.00    -0.00  -0.00  -0.00
   3   6    -0.00  -0.00  -0.00    -0.00  -0.00  -0.00    -0.00  -0.00  -0.00
   4   6    -0.00   0.00  -0.00    -0.00   0.00  -0.00    -0.00  -0.00   0.00
   5   7     0.00  -0.00  -0.00     0.00  -0.00  -0.00     0.00   0.00  -0.00
   6   6    -0.00   0.00  -0.00    -0.00  -0.00   0.00     0.00  -0.00   0.00
   7   6    -0.00   0.00   0.00     0.01  -0.01  -0.00     0.12  -0.09  -0.00
   8   6    -0.00  -0.00   0.00     0.00   0.00  -0.00     0.10   0.02  -0.08
   9   6    -0.00   0.00  -0.00     0.00  -0.01   0.01    -0.01   0.15  -0.11
  10   6    -0.00   0.00   0.00     0.01  -0.01  -0.00    -0.08   0.05   0.00
  11   6    -0.00  -0.00   0.00    -0.00   0.00  -0.00    -0.00  -0.00   0.00
  12  16     0.00   0.00  -0.00     0.00   0.00  -0.00     0.00   0.00  -0.00
  13   6    -0.00  -0.00   0.00    -0.00  -0.00   0.00     0.00  -0.00   0.00
  14   6     0.00  -0.00  -0.00     0.11  -0.06  -0.01     0.01  -0.00  -0.00
  15   6     0.01   0.00  -0.00     0.15   0.08  -0.10     0.01   0.01  -0.01
  16   6    -0.00   0.00  -0.00    -0.00   0.03  -0.01    -0.00   0.01  -0.01
  17   6     0.01  -0.00  -0.00     0.13  -0.07  -0.01    -0.02   0.01   0.00
  18   6     0.00   0.00  -0.00     0.00   0.00  -0.00    -0.00  -0.00   0.00
  19   6    -0.00   0.00   0.00    -0.00   0.01   0.01    -0.00   0.01   0.01
  20   6     0.00   0.00   0.00     0.00   0.00   0.00     0.00   0.00   0.00
  21   6     0.00  -0.00  -0.00     0.00  -0.00  -0.00     0.00  -0.00  -0.00
  22   6    -0.00  -0.00   0.00    -0.00   0.00   0.00     0.00   0.00  -0.00
  23   6     0.00  -0.00  -0.00     0.00   0.00   0.00    -0.00   0.00   0.00
  24   6    -0.00  -0.00   0.00    -0.00   0.00   0.00     0.00  -0.00  -0.00
  25   6     0.00   0.00  -0.00     0.00   0.00  -0.00    -0.00  -0.00   0.00
  26   6     0.01  -0.00   0.00    -0.00   0.00  -0.00    -0.00   0.00  -0.00
  27   6    -0.00  -0.02   0.01    -0.00  -0.00   0.00     0.00   0.00  -0.00
  28   6    -0.00  -0.00  -0.00    -0.00   0.00  -0.00     0.00   0.00  -0.00
  29   7     0.00   0.00   0.00     0.00   0.00   0.00    -0.00  -0.00   0.00
  30   6     0.00  -0.00  -0.00    -0.00   0.00   0.00     0.00  -0.00  -0.00
  31   6     0.14   0.08  -0.01    -0.01  -0.00   0.00     0.00   0.00  -0.00
  32   6    -0.00  -0.01  -0.01     0.00   0.00   0.00     0.00   0.00   0.00
  33   6     0.12  -0.06  -0.12    -0.01   0.00   0.00    -0.00   0.00   0.00
  34   6     0.11   0.06  -0.01    -0.00  -0.00   0.00    -0.00  -0.00   0.00
  35   6    -0.00   0.00   0.00     0.00  -0.00  -0.00    -0.00  -0.00  -0.00
  36  16     0.00  -0.00  -0.00    -0.00  -0.00   0.00     0.00   0.00   0.00
  37   6     0.00  -0.00  -0.00    -0.00   0.00   0.00     0.00  -0.00  -0.00
  38   6     0.02   0.01   0.00    -0.00  -0.00  -0.00     0.00   0.00   0.00
  39   6     0.00   0.01   0.02    -0.00  -0.00  -0.00     0.00   0.01   0.01
  40   6     0.00  -0.00  -0.00    -0.00   0.00   0.00    -0.00   0.00   0.00
  41   6     0.02   0.01   0.00    -0.00  -0.00  -0.00    -0.01  -0.00  -0.00
  42   6     0.00   0.00   0.00    -0.00  -0.00  -0.00    -0.00  -0.00  -0.00
  43   6    -0.00   0.00  -0.00    -0.00   0.00  -0.00     0.00  -0.00   0.00
  44   6    -0.00   0.00  -0.00    -0.00   0.00  -0.00     0.00  -0.00   0.00
  45   6    -0.00  -0.00  -0.00    -0.00   0.00  -0.00     0.00   0.00   0.00
  46   7     0.00   0.00  -0.00     0.00  -0.00  -0.00    -0.00   0.00   0.00
  47   6    -0.00  -0.00  -0.00    -0.00   0.00   0.00     0.00  -0.00  -0.00
  48   7     0.00   0.00   0.00     0.00  -0.00  -0.00    -0.00  -0.00   0.00
  49   1     0.00   0.00   0.00     0.00   0.00   0.00     0.00   0.00   0.00
  50   1    -0.00   0.00  -0.00    -0.00  -0.00   0.00     0.00  -0.00   0.00
  51   1     0.00   0.00  -0.00     0.00   0.00  -0.00    -0.00  -0.00   0.00
  52   1     0.00   0.00   0.00     0.01   0.01   0.01     0.01   0.00   0.00
  53   1     0.01  -0.01  -0.00    -0.04   0.03   0.00    -0.43   0.31   0.02
  54   1     0.00   0.00  -0.00    -0.00  -0.00   0.00    -0.31  -0.08   0.24
  55   1     0.00  -0.01   0.01    -0.00   0.03  -0.02     0.03  -0.49   0.36
  56   1     0.01  -0.00  -0.00    -0.03   0.02   0.00     0.25  -0.17  -0.01
  57   1    -0.02   0.01   0.00    -0.36   0.21   0.04    -0.03   0.01   0.00
  58   1    -0.02  -0.01   0.02    -0.50  -0.29   0.34    -0.04  -0.02   0.03
  59   1     0.00  -0.00   0.00     0.01  -0.08   0.04     0.01  -0.04   0.02
  60   1    -0.02   0.01   0.00    -0.46   0.25   0.04     0.08  -0.04  -0.01
  61   1     0.00  -0.00  -0.00     0.01  -0.04  -0.03     0.00  -0.02  -0.02
  62   1    -0.00  -0.00  -0.00    -0.01  -0.00  -0.01    -0.01  -0.00  -0.01
  63   1    -0.00   0.01   0.00    -0.00  -0.01  -0.00     0.00  -0.00  -0.00
  64   1    -0.02   0.01  -0.01     0.00  -0.00   0.00     0.00  -0.00   0.00
  65   1     0.01   0.07  -0.05     0.00   0.00  -0.00    -0.00  -0.01   0.00
  66   1    -0.51  -0.28   0.04     0.02   0.01  -0.00    -0.00  -0.00   0.00
  67   1     0.01   0.03   0.02    -0.00  -0.00  -0.00    -0.00  -0.00  -0.00
  68   1    -0.43   0.20   0.40     0.02  -0.01  -0.02     0.00  -0.00  -0.00
  69   1    -0.36  -0.20   0.03     0.02   0.01  -0.00     0.00   0.00  -0.00
  70   1    -0.06  -0.04  -0.00     0.01   0.01   0.00    -0.01  -0.01  -0.00
  71   1    -0.01  -0.05  -0.06     0.00   0.01   0.01    -0.00  -0.02  -0.02
  72   1    -0.00   0.00   0.00     0.00  -0.00  -0.00     0.01  -0.00  -0.01
  73   1    -0.08  -0.05  -0.00     0.01   0.01   0.00     0.02   0.01   0.00
  74   1     0.02  -0.01   0.01     0.00  -0.00   0.00    -0.00   0.00  -0.00
  75   1     0.00  -0.00  -0.00     0.00   0.00  -0.00    -0.00   0.00   0.00
  76   1     0.00  -0.00   0.00     0.00  -0.00   0.00    -0.00   0.00  -0.00
  77   1    -0.00   0.00   0.00    -0.00  -0.00  -0.00     0.00  -0.00  -0.00
  78   1     0.00   0.00   0.00     0.00  -0.00  -0.00    -0.00   0.00   0.00
                    226                    227                    228
                        a                      a                      a 
 Frequencies --  3106.6295              3107.7383              3108.4646
 Red. masses --     1.9043                 1.8945                 1.8861
 Frc consts  --     0.0000                 0.0000                 0.0000
 IR Inten    --    55.1581                22.7929                25.8525
 Raman Activ --     0.0000                 0.0000                 0.0000
 Depolar     --     0.0000                 0.0000                 0.0000
 Atom AN      X      Y      Z        X      Y      Z        X      Y      Z
   1   6    -0.00   0.00   0.00     0.00  -0.00   0.00     0.00  -0.00   0.00
   2   6    -0.00   0.00   0.00     0.00   0.00   0.00     0.00   0.00   0.00
   3   6     0.00   0.00   0.00     0.00   0.00   0.00     0.00   0.00   0.00
   4   6    -0.00   0.00  -0.00    -0.00  -0.00   0.00     0.00  -0.00   0.00
   5   7    -0.00  -0.00   0.00    -0.00   0.00  -0.00    -0.00   0.00  -0.00
   6   6    -0.00   0.00  -0.00     0.00  -0.00   0.00    -0.00   0.00  -0.00
   7   6    -0.01   0.00   0.00     0.00  -0.00  -0.00    -0.02   0.01   0.00
   8   6    -0.00  -0.00   0.00     0.00   0.00  -0.00    -0.01  -0.00   0.01
   9   6     0.00  -0.01   0.01    -0.00   0.00  -0.00     0.00  -0.02   0.01
  10   6     0.00  -0.00  -0.00    -0.00   0.00   0.00     0.01  -0.00  -0.00
  11   6     0.00   0.00  -0.00    -0.00  -0.00   0.00    -0.00   0.00   0.00
  12  16    -0.00  -0.00   0.00     0.00   0.00  -0.00     0.00   0.00  -0.00
  13   6    -0.00   0.00  -0.00     0.00  -0.00   0.00     0.00  -0.00   0.00
  14   6    -0.00   0.00   0.00     0.00  -0.00  -0.00     0.05  -0.03  -0.00
  15   6    -0.00  -0.00   0.00     0.00   0.00  -0.00     0.09   0.05  -0.06
  16   6     0.00  -0.00   0.00    -0.00   0.00  -0.00    -0.02   0.11  -0.05
  17   6     0.00  -0.00  -0.00    -0.00   0.00   0.00    -0.18   0.10   0.02
  18   6     0.00   0.00  -0.00    -0.00  -0.00   0.00    -0.01  -0.00   0.00
  19   6    -0.00   0.00   0.00    -0.00   0.00   0.00     0.00  -0.01  -0.01
  20   6     0.00   0.00   0.00     0.00   0.00   0.00    -0.00  -0.00  -0.00
  21   6     0.00  -0.00  -0.00    -0.00  -0.00  -0.00    -0.00   0.00  -0.00
  22   6    -0.00  -0.00   0.00     0.00   0.00   0.00    -0.00   0.00  -0.00
  23   6     0.00   0.00   0.00    -0.00   0.00   0.00     0.00   0.00   0.00
  24   6    -0.00   0.00   0.00     0.00   0.00   0.00    -0.00   0.00  -0.00
  25   6    -0.00  -0.00  -0.00     0.00   0.00   0.00    -0.00  -0.00  -0.00
  26   6    -0.00   0.00  -0.00     0.00  -0.00   0.00    -0.00   0.00  -0.00
  27   6     0.00   0.00  -0.00    -0.00  -0.01   0.01     0.00   0.00  -0.00
  28   6     0.00  -0.00  -0.00    -0.00  -0.00  -0.00     0.00   0.00  -0.00
  29   7    -0.00   0.00   0.00     0.00   0.00   0.00    -0.00  -0.00  -0.00
  30   6     0.00  -0.00  -0.00     0.01  -0.00  -0.00    -0.00   0.00   0.00
  31   6     0.04   0.02  -0.00     0.17   0.09  -0.01    -0.00  -0.00   0.00
  32   6     0.01   0.02   0.02     0.03   0.10   0.07    -0.00  -0.00  -0.00
  33   6    -0.02   0.01   0.02    -0.10   0.04   0.09     0.00  -0.00  -0.00
  34   6    -0.01  -0.01   0.00    -0.06  -0.03   0.00     0.00   0.00  -0.00
  35   6    -0.00  -0.00  -0.00    -0.00  -0.00  -0.00     0.00   0.00   0.00
  36  16    -0.00   0.00   0.00    -0.00   0.00   0.00     0.00  -0.00  -0.00
  37   6     0.00  -0.00  -0.00    -0.00   0.00   0.00     0.00  -0.00  -0.00
  38   6     0.07   0.05   0.00    -0.01  -0.01  -0.00     0.00   0.00   0.00
  39   6     0.02   0.12   0.13    -0.01  -0.02  -0.03     0.00   0.00   0.00
  40   6    -0.09   0.01   0.08     0.02  -0.00  -0.02    -0.00   0.00   0.00
  41   6    -0.13  -0.09  -0.00     0.03   0.02   0.00    -0.00  -0.00  -0.00
  42   6    -0.00  -0.00  -0.00     0.00   0.00   0.00    -0.00  -0.00  -0.00
  43   6     0.00  -0.00   0.00    -0.00   0.00  -0.00     0.00  -0.00   0.00
  44   6     0.00  -0.00   0.00    -0.00   0.00  -0.00     0.00   0.00   0.00
  45   6    -0.00   0.00   0.00    -0.00   0.00  -0.00    -0.00  -0.00  -0.00
  46   7     0.00  -0.00  -0.00    -0.00  -0.00  -0.00     0.00  -0.00   0.00
  47   6    -0.00  -0.00   0.00     0.00   0.00   0.00    -0.00   0.00  -0.00
  48   7     0.00   0.00  -0.00    -0.00  -0.00  -0.00     0.00  -0.00   0.00
  49   1     0.00  -0.00   0.00    -0.00   0.00  -0.00    -0.00  -0.00  -0.00
  50   1    -0.00  -0.00   0.00     0.00   0.00  -0.00     0.00   0.00  -0.00
  51   1     0.00   0.00  -0.00    -0.00  -0.00   0.00    -0.00  -0.00   0.00
  52   1    -0.00  -0.00  -0.00    -0.00  -0.00  -0.00    -0.01  -0.00  -0.01
  53   1     0.02  -0.01  -0.00    -0.00   0.00   0.00     0.06  -0.05  -0.00
  54   1     0.02   0.00  -0.01    -0.00  -0.00   0.00     0.04   0.01  -0.03
  55   1    -0.00   0.02  -0.02     0.00  -0.00   0.00    -0.00   0.06  -0.04
  56   1    -0.01   0.01   0.00     0.00  -0.00  -0.00    -0.02   0.01   0.00
  57   1     0.00  -0.00  -0.00    -0.00   0.00   0.00    -0.15   0.09   0.02
  58   1     0.00   0.00  -0.00    -0.01  -0.00   0.01    -0.31  -0.18   0.21
  59   1    -0.00   0.00  -0.00     0.00  -0.01   0.00     0.06  -0.35   0.16
  60   1    -0.01   0.00   0.00     0.02  -0.01  -0.00     0.65  -0.35  -0.06
  61   1     0.00  -0.00  -0.00     0.00  -0.00  -0.00    -0.00   0.02   0.02
  62   1    -0.00  -0.00  -0.00    -0.00  -0.00  -0.00     0.01   0.00   0.00
  63   1    -0.00  -0.00   0.00     0.00  -0.00  -0.00    -0.00  -0.00  -0.00
  64   1     0.00  -0.00   0.00    -0.01   0.00  -0.01     0.00  -0.00   0.00
  65   1    -0.00  -0.02   0.01     0.00   0.03  -0.02    -0.00  -0.00   0.00
  66   1    -0.13  -0.07   0.01    -0.58  -0.32   0.05     0.01   0.01  -0.00
  67   1    -0.02  -0.07  -0.05    -0.09  -0.33  -0.23     0.00   0.01   0.01
  68   1     0.08  -0.04  -0.07     0.33  -0.15  -0.30    -0.01   0.00   0.01
  69   1     0.05   0.03  -0.00     0.18   0.10  -0.02    -0.00  -0.00   0.00
  70   1    -0.24  -0.16  -0.01     0.04   0.03   0.00    -0.00  -0.00  -0.00
  71   1    -0.08  -0.39  -0.43     0.02   0.08   0.09    -0.00  -0.00  -0.00
  72   1     0.29  -0.04  -0.27    -0.07   0.01   0.06     0.00  -0.00  -0.00
  73   1     0.45   0.30   0.02    -0.11  -0.07  -0.00     0.01   0.00   0.00
  74   1    -0.01   0.00  -0.00     0.01  -0.01   0.01    -0.00   0.00  -0.00
  75   1     0.00  -0.00  -0.00     0.00  -0.00  -0.00     0.00  -0.00  -0.00
  76   1    -0.00   0.00  -0.00     0.00  -0.00   0.00     0.00  -0.00   0.00
  77   1    -0.00  -0.00  -0.00    -0.00   0.00   0.00    -0.00   0.00   0.00
  78   1     0.00   0.00   0.00    -0.00  -0.00  -0.00     0.00  -0.00  -0.00
