107
 energy: -152.505366380141 gnorm: 0.000031753075 xtb: 6.7.1 (edcfbbe)
C            2.23106750445262       -4.98486291994405       -1.69407323691648
C            0.95513912332145       -4.97242995947558       -2.54840850133211
C           -0.23032679318207       -5.49225174791518       -1.72221179399335
C            1.16529515139039       -5.92187370035585       -3.73079010455830
C            0.66402677961992       -3.54421798377793       -2.98190006061596
C            0.57752436349274       -3.16098788682127       -4.31649695213867
C            0.31207657254990       -1.85184038326303       -4.68837675088721
C            0.12705190684498       -0.89755576490495       -3.70531787965506
C            0.20574563065512       -1.27168940175192       -2.35740665051358
C            0.47264406966848       -2.57103238936489       -1.99831234063939
C           -0.00837267228650       -0.07210870266024       -1.45232143151445
C            1.24630946943867        0.10477862890670       -0.62524927663922
C            2.29127716303578        0.90431991435313       -1.07043000630780
C            3.46696664341786        0.99755897226592       -0.35068078232360
C            3.61955084936477        0.28701769883863        0.83511007126749
N            4.81105939743253        0.37488347940308        1.56814097596654
C            5.55891370643889       -0.69357185473703        2.01972900293682
C            5.36362416410604       -2.05345802752700        1.82474078285247
C            6.28924831740435       -2.92221460942036        2.36970554394354
C            7.39011394252261       -2.45715908989702        3.08598148991897
C            7.60247982230268       -1.10467601880158        3.26270434794199
C            6.68611060882268       -0.21113423727041        2.72388620469539
C            6.60267220747459        1.22211166007459        2.69365784706691
C            7.39306917243029        2.23708773474196        3.21657761273877
C            7.00594927104813        3.54691938875963        3.01644277895052
C            5.83999125908037        3.85057659693379        2.31685451217362
C            5.03723720701396        2.85878002838274        1.78717902339785
C            5.43266172005833        1.54088273698934        1.96632037610530
C            2.57684346072592       -0.51641235072076        1.28660401425840
C            1.40795117322911       -0.60838902030098        0.55805583861537
C           -1.25963465640852       -0.16589025199730       -0.60663039216090
C           -1.41294967823661        0.65323305040834        0.50704183296211
C           -2.57850709074315        0.63267843754571        1.24648227893745
C           -3.62684543784198       -0.20353128250166        0.87451189511523
N           -4.81495645312397       -0.21970706155569        1.61789831505605
C           -5.44267277094982       -1.34319381974388        2.11645711147448
C           -5.05683769281918       -2.67436564765664        2.04950613733060
C           -5.86449822779296       -3.61167134651414        2.66415448322564
C           -7.02587057302157       -3.24127827659576        3.33873871339172
C           -7.40303687441489       -1.91638959833502        3.42793292968705
C           -6.60755840740327       -0.95539256433293        2.81799203904843
C           -6.68121753294042        0.47575316811882        2.72637400395654
C           -7.58923809485865        1.41811951880332        3.19101109614431
C           -7.36886581035497        2.74919761900506        2.89916965080718
C           -6.26848505220881        3.14392732654666        2.14119379680698
C           -5.35114227609736        2.22559186451283        1.66824404827538
C           -5.55399767281750        0.88858479614653        1.97931080498189
C           -3.48307674804994       -1.01901742368682       -0.24300098322539
C           -2.31020753323260       -0.99755884208769       -0.97286587827196
C           -0.22700211647638        1.03146488556370       -2.47117244256350
C           -0.49164297525131        2.36029234779334       -2.24160949956369
C           -0.68628555236114        3.23127439688189       -3.31617981115022
C           -0.97224884040267        4.69627480244564       -3.02561830679589
C            0.21733934168342        5.29200718403074       -2.25870273206569
C           -1.18363546414770        5.52449393873666       -4.29566026567142
C           -2.24524397003030        4.79703878240710       -2.17281895804972
C           -0.60719538572667        2.71702297231397       -4.60646085362247
C           -0.34491530718861        1.37700988256423       -4.84767664028854
C           -0.15506552845286        0.52508759526447       -3.77554199443460
H            2.46840582455755       -6.00235106388205       -1.39050081338897
H            3.06920471524465       -4.59008300766946       -2.26481564682915
H            2.11654043827351       -4.38097972076387       -0.79810114851648
H           -0.38978233917399       -4.88838948451122       -0.83301095064064
H           -0.04791998108596       -6.51813404441990       -1.40920765827451
H           -1.14133619183932       -5.47003521302858       -2.31704762491698
H            0.27511829077366       -5.97673986765821       -4.35320382330267
H            1.37551316964776       -6.92255238108198       -3.35840760876297
H            2.00908955357040       -5.60679184592404       -4.34031324688868
H            0.71973692390026       -3.88831227968610       -5.09897353358222
H            0.25346381011707       -1.58651895630069       -5.73369175110264
H            0.53023517285719       -2.83036795246200       -0.95226641336485
H            2.18901804156238        1.45409751542554       -1.99420039672208
H            4.27970078354646        1.60844187124390       -0.71417300061876
H            4.52361890842350       -2.42194475846885        1.25513595820042
H            6.15858502678939       -3.98582938956329        2.23402663981835
H            8.08962973745710       -3.16882281754796        3.49876801405444
H            8.46423918618982       -0.74387618549474        3.80378082003637
H            8.28883943096570        2.00132491873686        3.77118186331688
H            7.60764548620946        4.35119027520680        3.41303070665825
H            5.55555166365659        4.88470355455220        2.18849101283347
H            4.12718537655489        3.10302517744654        1.25997567809153
H            2.68457080287455       -1.05724461021979        2.21510637142242
H            0.60266103264163       -1.22862128230305        0.92438818318294
H           -0.60381955749382        1.30143129079890        0.81127021345502
H           -2.67900809250952        1.25569283450063        2.12280303243929
H           -4.15023426527587       -2.96935955826569        1.54274928003664
H           -5.58758386691215       -4.65496395924852        2.62348940885134
H           -7.63183001775892       -4.00454874708609        3.80392020734583
H           -8.29505538644255       -1.62773421466054        3.96323581163713
H           -8.45078493591486        1.11048867400048        3.76430545806330
H           -8.06163415363159        3.49822814266137        3.25300622548643
H           -6.13152431589081        4.19120388806610        1.91489326669956
H           -4.51179268174786        2.53873230972657        1.06556025253633
H           -4.30040906383563       -1.65582918607785       -0.54670923834392
H           -2.21445435177242       -1.62962014298012       -1.84316610379015
H           -0.54442118972899        2.72195577689055       -1.22607502733070
H            1.12588279199880        5.21010232743931       -2.85208587765552
H            0.03775836983265        6.34389748473705       -2.04668745679786
H            0.37952303156415        4.77759650934517       -1.31540397656105
H           -0.29599196410037        5.51305184189059       -4.92398739236332
H           -2.03146537293506        5.15441139480118       -4.86750419586279
H           -1.38787613033635        6.55820098437848       -4.02371259164124
H           -3.08630503234506        4.35004181878002       -2.69901168526485
H           -2.12915344387341        4.28452837682454       -1.22181546412908
H           -2.47896788218327        5.84027678380509       -1.97084715926731
H           -0.75282831596588        3.36312192618358       -5.45666203058043
H           -0.29210591217244        1.00894644646356       -5.86170599629940
