$hessian                                                                        
        0.5211593976   0.0045377323  -0.0114668177  -0.0685164455   0.0083858903
       -0.0223280536  -0.0113307401   0.0111583711  -0.0265409352  -0.0055119327
        0.0005452436  -0.0010299038  -0.0001106839   0.0001476290   0.0001424225
        0.0000476223  -0.0000510626   0.0000170160   0.0001804998  -0.0000081274
       -0.0000042900  -0.0002856428   0.0000844980   0.0000016821   0.0000930081
        0.0000279322  -0.0000464501  -0.0000801576   0.0000068156  -0.0000033713
        0.0001147429  -0.0000562354   0.0000171478  -0.0000514738   0.0000605722
       -0.0000379175  -0.0000022317  -0.0000415042   0.0000047071  -0.0000003080
       -0.0000260914   0.0000007406  -0.0000095292  -0.0000009321   0.0000054444
        0.0000030193  -0.0000034150  -0.0000016512  -0.0000092045  -0.0000007758
        0.0000020825   0.0000076845   0.0000028403  -0.0000004911  -0.0000107144
        0.0000016826   0.0000034764   0.0000015613   0.0000015781   0.0000021334
        0.0000011987  -0.0000000539  -0.0000003734  -0.0000067679   0.0000046516
        0.0000013482  -0.0000089579   0.0000019915   0.0000013040   0.0000038007
        0.0000002731   0.0000024990  -0.0000017064   0.0000079064  -0.0000004741
        0.0000029849  -0.0000030041   0.0000000267  -0.0000048974   0.0000076391
        0.0000010647  -0.0000029446  -0.0000074539  -0.0000010333  -0.0000042555
       -0.0000028577   0.0000016804  -0.0000036069  -0.0000046873  -0.0000008452
        0.0000039815   0.0000019924   0.0000011203  -0.0000094474  -0.0000095662
       -0.0000018344   0.0000107258  -0.0000058395  -0.0000014283  -0.0000036241
        0.0000004055  -0.0000030205   0.0000081982  -0.0000009256   0.0000029676
       -0.0000016255  -0.0000043094   0.0000018747   0.0000030204  -0.0000004093
        0.0000008914   0.0000004270   0.0000022544  -0.0000003107   0.0000002520
       -0.0000035310  -0.0000001437   0.0000006324  -0.0000028523   0.0000007548
        0.0000077728   0.0000010633   0.0000017981   0.0000098932  -0.0000016279
       -0.0000018413  -0.0000004036  -0.0000002573   0.0000001352   0.0000021972
       -0.0000189526  -0.0000075437   0.0000109489   0.0000053114   0.0000050475
       -0.0000940146   0.0001082546   0.0000109498   0.0001386253  -0.0000041527
       -0.0000360379  -0.0002047992  -0.0002055825  -0.0000421406  -0.0000743854
        0.0000408505   0.0000111220   0.0000829791   0.0000171375   0.0000000845
        0.0000206006  -0.0000110910   0.0000113650   0.0000182250   0.0000004600
       -0.0000056363   0.0000130835  -0.0000141139   0.0000021401   0.0000382979
       -0.0000146525   0.0000841347  -0.0912689726  -0.0937282451   0.0121601249
       -0.2768119737   0.0244086016  -0.0256694309  -0.0734593280   0.0514751503
        0.0577002946   0.0025640125  -0.0049796364   0.0108882159   0.0023007785
       -0.0030236532   0.0093898981   0.0005265816   0.0005526861  -0.0004753527
        0.0009148789  -0.0001499140  -0.0013105239  -0.0000914470  -0.0000346633
        0.0000407053  -0.0006374528   0.0008658197  -0.0013425842   0.0000318703
       -0.0000223632  -0.0000854009   0.0000862234  -0.0000650728  -0.0000975554
       -0.0000007414  -0.0000074612  -0.0000142188   0.0000789976   0.0000475986
        0.0000211292   0.0000008453  -0.0000088583  -0.0000039667   0.0000117060
        0.0000060097   0.0000034585   0.0000298883   0.0000008637  -0.0000074277
        0.0000041912   0.0000005511   0.0000066624   0.0000192269   0.0000217079
        0.0000152432   0.0000138232  -0.0000108187  -0.0000068151   0.0000028297
        0.0000009469  -0.0000000063   0.0000028210   0.0000016025  -0.0000012697
        0.0000041396  -0.0000007702  -0.0000007338   0.0000055615  -0.0000000077
       -0.0000027557   0.0000059869  -0.0000007176  -0.0000009433  -0.0000002349
       -0.0000007006  -0.0000017469   0.0000045911  -0.0000017971  -0.0000015944
        0.0000044662   0.0000047799   0.0000029140   0.0000017044   0.0000069211
        0.0000021416  -0.0000011859   0.0000066325   0.0000027771  -0.0000049561
        0.0000062810   0.0000032825  -0.0000004678   0.0000035002  -0.0000002909
       -0.0000049231   0.0000016555  -0.0000017339  -0.0000049374  -0.0000007933
       -0.0000008906  -0.0000043547  -0.0000023818  -0.0000003216  -0.0000024715
       -0.0000037785   0.0000013132   0.0000002572  -0.0000019735   0.0000014719
        0.0000007540   0.0000012692   0.0000008812  -0.0000112356   0.0000203371
        0.0000106592   0.0000593470  -0.0000523737  -0.0000049947  -0.0000168882
       -0.0000050999   0.0000032874  -0.0000052922   0.0000020287  -0.0000002907
       -0.0000020839   0.0000021293  -0.0000048328   0.0000085842   0.0000070951
        0.0000046053
        0.0045377323   0.5135953597   0.0208006095   0.0077742191  -0.0855634421
        0.0441845979   0.0036204480  -0.0017736578   0.0044519655   0.0009702940
        0.0000278597   0.0000847784  -0.0001247422  -0.0000118620  -0.0001461667
       -0.0000325690  -0.0001145534   0.0001027785   0.0000079834   0.0001057260
        0.0000329636   0.0000880419  -0.0000753585   0.0000421339  -0.0000100325
       -0.0000651935   0.0000636260  -0.0000157065  -0.0000300845   0.0000238448
       -0.0001317179  -0.0000006316   0.0000837740   0.0000078365   0.0000205923
       -0.0000195626  -0.0000200199  -0.0000058706   0.0000683680  -0.0000003676
        0.0000219880   0.0000130243  -0.0000197200   0.0000223858   0.0000111044
       -0.0000111487   0.0000239530   0.0000067066   0.0000258128   0.0000132757
       -0.0000050152  -0.0000204143  -0.0000151134   0.0000069238   0.0000288496
       -0.0000066646   0.0000035804  -0.0000151527   0.0000167559  -0.0000042158
        0.0000051404  -0.0000022186  -0.0000004872  -0.0000088880  -0.0000106717
        0.0000105880   0.0000178344   0.0000105546  -0.0000084385  -0.0000136311
        0.0000079855  -0.0000029197   0.0000209517  -0.0000059694   0.0000197940
       -0.0000094309   0.0000009298  -0.0000005191   0.0000082085  -0.0000084525
       -0.0000021908  -0.0000117130  -0.0000126094  -0.0000026095   0.0000291739
        0.0000028362   0.0000012455  -0.0000198684  -0.0000214776  -0.0000039709
        0.0000113604   0.0000005444   0.0000001964  -0.0000077435  -0.0000173016
       -0.0000008123   0.0000016454   0.0000130582   0.0000029119  -0.0000255279
       -0.0000112745  -0.0000131052   0.0000296973   0.0000050903   0.0000126405
       -0.0000174427  -0.0000265638   0.0000020717   0.0000052523   0.0000173883
       -0.0000059506  -0.0000027711   0.0000007839  -0.0000010065   0.0000048260
       -0.0000082055   0.0000079812  -0.0000197159  -0.0000061121  -0.0000088573
        0.0000100922   0.0000083517   0.0000014631   0.0000005547  -0.0000170109
        0.0000118163   0.0000018586   0.0000104290  -0.0000017572  -0.0000145823
        0.0000085785   0.0000035974  -0.0000198712   0.0000207305   0.0000099759
       -0.0000904247  -0.0000711491  -0.0000233989   0.0001677052  -0.0000129192
       -0.0001130687  -0.0003791676  -0.0002573001  -0.0004190053   0.0000925144
        0.0000399566   0.0001316643   0.0000206681   0.0000162642  -0.0000082654
        0.0000163972  -0.0000200854   0.0000392334   0.0000016261   0.0000021407
        0.0000017222  -0.0000001318  -0.0000201903   0.0000148840   0.0000156814
       -0.0000116338  -0.0000017363  -0.0936273749  -0.2340602750   0.0216405350
        0.0246023465  -0.0469740674   0.0015956957   0.0513868509  -0.1387510289
       -0.1039938572   0.0037433527  -0.0133743457   0.0276445654  -0.0023561226
        0.0061785519  -0.0165574036  -0.0004261119   0.0005578089  -0.0005945577
       -0.0000982170   0.0002422133   0.0007646073   0.0000352255   0.0002728777
       -0.0001074759   0.0001728980   0.0000172214   0.0002534418   0.0001101203
       -0.0000981429   0.0001940240  -0.0000419669   0.0000632882  -0.0000223070
        0.0000089387   0.0000500455  -0.0000179876  -0.0000200173   0.0000110670
       -0.0000141454   0.0000094161   0.0000117106  -0.0000292332  -0.0000033713
        0.0000035532  -0.0000394395  -0.0000238354   0.0000155695   0.0000107042
        0.0000176123   0.0000016755  -0.0000127264   0.0000185626   0.0000056368
       -0.0000314044   0.0000147847  -0.0000083546  -0.0000116899   0.0000021383
       -0.0000051477  -0.0000029503  -0.0000043096  -0.0000040342  -0.0000005693
       -0.0000041076  -0.0000048226  -0.0000007575  -0.0000015649  -0.0000020925
       -0.0000046037  -0.0000038833   0.0000019401  -0.0000046596  -0.0000018130
        0.0000076609  -0.0000012548  -0.0000057815  -0.0000017243  -0.0000012987
        0.0000027727  -0.0000117706  -0.0000009674   0.0000074015  -0.0000090144
       -0.0000064468   0.0000094668  -0.0000085883  -0.0000047726   0.0000068403
       -0.0000059743  -0.0000039805   0.0000030746  -0.0000002276   0.0000004289
        0.0000038002   0.0000019892   0.0000015850   0.0000024437   0.0000037752
       -0.0000007603   0.0000024364   0.0000032769  -0.0000012136   0.0000038571
        0.0000077950  -0.0000051764  -0.0000042605   0.0000045757  -0.0000065419
        0.0000040980   0.0000057504   0.0000003478   0.0000027740  -0.0000025656
       -0.0000046953   0.0000360338   0.0000385098  -0.0000621223  -0.0000321008
       -0.0000015613  -0.0000010065  -0.0000134602   0.0000035547  -0.0000091056
       -0.0000104672  -0.0000017008  -0.0000044754  -0.0000083839   0.0000054504
       -0.0000058551
       -0.0114668177   0.0208006095   0.4690962596  -0.0213492854   0.0444637100
       -0.1808241051  -0.0070826938   0.0039329054  -0.0086373095  -0.0009519869
        0.0000505977   0.0001890606   0.0001356418   0.0000578851  -0.0000259322
       -0.0000273312   0.0000944608  -0.0000583145   0.0001506142  -0.0001178882
        0.0000328042  -0.0002322354   0.0001252612   0.0000673909   0.0001721090
        0.0000481461  -0.0000932474  -0.0001104794   0.0000714755   0.0000267656
        0.0000919234   0.0000279841  -0.0000675644  -0.0000595595   0.0001097889
       -0.0000657531   0.0000030555  -0.0000477162   0.0000167799   0.0000042567
       -0.0000001508   0.0000217325  -0.0000093566   0.0000077445  -0.0000046776
       -0.0000158447   0.0000044786   0.0000034885   0.0000017341   0.0000131420
       -0.0000042038  -0.0000067667  -0.0000065127   0.0000025116   0.0000130488
       -0.0000051658   0.0000044367   0.0000053286   0.0000094583  -0.0000078337
        0.0000034404   0.0000026692  -0.0000018378  -0.0000054756   0.0000043956
       -0.0000013884   0.0000251054   0.0000113572  -0.0000108656  -0.0000026168
        0.0000182847  -0.0000111758   0.0000031512   0.0000001560  -0.0000016409
        0.0000014408   0.0000167457  -0.0000098991   0.0000196370  -0.0000067237
       -0.0000015629  -0.0000081193  -0.0000130380  -0.0000042590   0.0000261481
       -0.0000092515  -0.0000018467  -0.0000228690  -0.0000183701  -0.0000036511
        0.0000173694  -0.0000001230  -0.0000028101  -0.0000080690  -0.0000124620
       -0.0000010307   0.0000185508   0.0000071936   0.0000003677  -0.0000150871
       -0.0000023668  -0.0000083447   0.0000186586  -0.0000010034   0.0000111443
       -0.0000094210  -0.0000172278   0.0000030112  -0.0000013392   0.0000104430
       -0.0000054000   0.0000014141  -0.0000017381  -0.0000003267   0.0000065974
        0.0000013061   0.0000045634  -0.0000200486  -0.0000005175  -0.0000122518
       -0.0000031404   0.0000206891  -0.0000087773  -0.0000092761  -0.0000120535
        0.0000037215  -0.0000037272   0.0000103791  -0.0000049166  -0.0000154951
       -0.0000048543  -0.0000015875   0.0000173193   0.0000070889   0.0000091550
       -0.0002789173   0.0000156585  -0.0000211422   0.0002547721  -0.0001027543
       -0.0000750232   0.0000590018  -0.0002368857   0.0002893635  -0.0001356809
       -0.0000836339  -0.0000918554  -0.0000248084   0.0000006367  -0.0000167942
       -0.0000416968   0.0000041973  -0.0000058280  -0.0000031523   0.0000185566
       -0.0000309057  -0.0000375550   0.0000170061  -0.0000052139   0.0001136620
        0.0001211374  -0.0000561664   0.0121278171   0.0218560523  -0.0458028809
       -0.0257143642   0.0016620608  -0.0450472556   0.0573272300  -0.1041297114
       -0.1562547545  -0.0006530077   0.0055902301  -0.0073301280  -0.0034910712
        0.0064599782  -0.0270949822   0.0005562244  -0.0001831098   0.0003570591
        0.0010985741  -0.0002142777   0.0011968445  -0.0001385349  -0.0002812446
        0.0000249027  -0.0000061872   0.0001125342  -0.0002302115  -0.0000730813
        0.0000551829   0.0001912958  -0.0001175390  -0.0000373167   0.0001282783
       -0.0000311119  -0.0000218655   0.0000599511  -0.0000151578  -0.0000466936
       -0.0000262659   0.0000052233  -0.0000500121   0.0000496084   0.0000077848
        0.0000033335   0.0000181811  -0.0000845720  -0.0000273495   0.0000051954
       -0.0000050495  -0.0000233899   0.0000156022   0.0000019604   0.0000036935
        0.0000155118  -0.0000019201  -0.0000034599  -0.0000012095   0.0000027432
       -0.0000083126   0.0000041506  -0.0000006927  -0.0000064039   0.0000024334
       -0.0000015131  -0.0000064569   0.0000021426  -0.0000056330  -0.0000077319
        0.0000075363  -0.0000003342  -0.0000080864   0.0000042055  -0.0000066068
       -0.0000196153   0.0000116632  -0.0000083254  -0.0000077257   0.0000052732
        0.0000018255  -0.0000001089  -0.0000005263   0.0000019302  -0.0000012576
       -0.0000032273   0.0000015847   0.0000002210  -0.0000004486   0.0000004663
       -0.0000014908  -0.0000002415   0.0000037668  -0.0000050969   0.0000024998
        0.0000026148  -0.0000030566   0.0000035201   0.0000036612  -0.0000019524
        0.0000028984   0.0000052143  -0.0000004108   0.0000042978   0.0000031209
       -0.0000019128   0.0000044780   0.0000078947  -0.0000039629   0.0000094392
        0.0000088729  -0.0000006956   0.0000034013   0.0000001443   0.0000020779
       -0.0000026621  -0.0000061278  -0.0000101018   0.0000263012   0.0000022612
       -0.0000073720   0.0000030338  -0.0000091718  -0.0000081015   0.0000105725
       -0.0000104035  -0.0000123183   0.0000082289   0.0000043618  -0.0000098732
        0.0000191743
       -0.0685164455   0.0077742191  -0.0213492854   0.4727113713   0.0069191527
       -0.0215150493  -0.1913456424   0.0095714669  -0.0117402116  -0.0105513870
        0.0040035664  -0.0073623805   0.0000385550  -0.0001284124  -0.0000279406
       -0.0002201877  -0.0000080255  -0.0000365188   0.0004321682   0.0001005267
        0.0000684259  -0.0000974318   0.0001559212  -0.0000924440   0.0000713906
       -0.0001848124   0.0000585755  -0.0002602796  -0.0000092428  -0.0000248726
        0.0000383268   0.0000299577  -0.0000067088   0.0000091022   0.0000767162
       -0.0000374912   0.0000076741  -0.0000575845   0.0000344300  -0.0000043301
       -0.0000361205  -0.0000006049  -0.0000029584  -0.0000150436   0.0000054471
       -0.0000012381  -0.0000112937  -0.0000035047  -0.0000171718  -0.0000061510
        0.0000043037   0.0000126120   0.0000064216  -0.0000026195  -0.0000233045
        0.0000041859   0.0000010764   0.0000107569  -0.0000020411   0.0000036473
       -0.0000101468   0.0000010867  -0.0000003940  -0.0000057536   0.0000100812
       -0.0000023194  -0.0000250148   0.0000053833   0.0000085887  -0.0000030950
        0.0000078751  -0.0000038716  -0.0000096269   0.0000104981  -0.0000125916
        0.0000073061  -0.0000025326   0.0000017943   0.0000040965   0.0000108981
        0.0000007598  -0.0000055174  -0.0000083704  -0.0000018361  -0.0000060489
       -0.0000036966  -0.0000006670  -0.0000022180  -0.0000048859  -0.0000021242
        0.0000050646   0.0000045879   0.0000032805  -0.0000095580  -0.0000048137
        0.0000003099   0.0000196346  -0.0000049069  -0.0000035432  -0.0000072004
       -0.0000023702  -0.0000021374   0.0000099433  -0.0000014643   0.0000053749
       -0.0000024279  -0.0000054401   0.0000020266   0.0000045100   0.0000001461
        0.0000026721   0.0000037232   0.0000028640   0.0000002549   0.0000014804
       -0.0000055770   0.0000036179   0.0000058057   0.0000016803   0.0000015881
        0.0000098526   0.0000031336  -0.0000007197   0.0000089363  -0.0000038449
        0.0000007602   0.0000015124  -0.0000025543   0.0000030854   0.0000001700
       -0.0000315941  -0.0000044393   0.0000290692  -0.0000014735  -0.0000037283
       -0.0002694327   0.0000105548  -0.0000885033   0.0001965291  -0.0002283624
       -0.0002560829   0.0002209323   0.0001698561   0.0003048696  -0.0002752521
       -0.0000229761  -0.0001819393  -0.0000723981  -0.0000559507   0.0000132785
        0.0000276896   0.0000110245   0.0000039892   0.0000203646   0.0000156684
       -0.0000353647  -0.0000089516   0.0000316074  -0.0000231448  -0.0002216795
       -0.0000855936   0.0000881121   0.0024032590  -0.0050115771   0.0114341201
       -0.0087149105   0.0114895490  -0.0285030974   0.0017821585  -0.0031652509
        0.0089984391  -0.0859174853  -0.0867046880   0.0108509718  -0.0753789840
        0.0537909689   0.0593893872  -0.0194749065  -0.0024766920  -0.0020886101
       -0.0186157219   0.0046373822   0.0014250145   0.0011539134  -0.0007238087
        0.0010721204   0.0004791144   0.0001383267  -0.0010761143   0.0001066411
       -0.0000668514   0.0002468676   0.0000456733   0.0000513341   0.0002866510
        0.0000486917   0.0000540351   0.0000760235   0.0000009406  -0.0000360951
        0.0000250192   0.0000359210   0.0000017680  -0.0000071851   0.0000250580
       -0.0000180635  -0.0000198554  -0.0000205171   0.0000410244   0.0000160660
       -0.0000114858  -0.0000074415  -0.0000043646   0.0000003918   0.0000092979
        0.0000190678   0.0000134088   0.0000015537  -0.0000043181   0.0000031872
        0.0000013534   0.0000019563   0.0000052376   0.0000006447   0.0000004580
        0.0000061154  -0.0000009060   0.0000005544   0.0000100766  -0.0000035542
       -0.0000002930   0.0000161602  -0.0000126345   0.0000034658   0.0000141069
       -0.0000086630   0.0000063932   0.0000080070   0.0000050059  -0.0000024424
        0.0000041182   0.0000086716   0.0000039382  -0.0000006805   0.0000089794
        0.0000037820  -0.0000039319   0.0000114805   0.0000036096  -0.0000068136
        0.0000093554   0.0000036358  -0.0000012944   0.0000048652  -0.0000029215
       -0.0000054642   0.0000020669  -0.0000043211  -0.0000060990  -0.0000009118
       -0.0000029352  -0.0000063845  -0.0000019186  -0.0000029209  -0.0000055949
       -0.0000038925  -0.0000006254  -0.0000039520  -0.0000007610  -0.0000023085
       -0.0000047825   0.0000012261  -0.0000033794  -0.0000060596   0.0000145185
        0.0000032600   0.0000325567   0.0000034828   0.0000321303   0.0000094954
       -0.0000051719  -0.0000149174   0.0000112207  -0.0000040810   0.0000066425
        0.0000172055  -0.0000053591   0.0000053839   0.0000185301  -0.0000325140
        0.0000284218
        0.0083858903  -0.0855634421   0.0444637100   0.0069191527   0.5320439957
        0.0213889260   0.0092917024  -0.0693198555  -0.0017307021   0.0125284146
       -0.0027257825   0.0038642205   0.0000363822   0.0001259769   0.0000346283
       -0.0000827788  -0.0001831984   0.0000149877  -0.0003548660   0.0002042291
        0.0000363470   0.0002406959  -0.0005654201  -0.0004065804  -0.0003115109
        0.0002177079  -0.0000524315   0.0003128270  -0.0000563192   0.0000547689
       -0.0000219458  -0.0000716792   0.0000451331  -0.0000299217  -0.0001853100
        0.0001009889  -0.0000165380   0.0001565148  -0.0001076196   0.0000287077
       -0.0000126887  -0.0000442131  -0.0000013337   0.0000023423   0.0000039917
        0.0000526636  -0.0000075803   0.0000002997  -0.0000414991  -0.0000400543
        0.0000171172   0.0000418188   0.0000618842  -0.0000238012  -0.0000491872
        0.0000222451  -0.0000101385   0.0000356339  -0.0000132543   0.0000079603
       -0.0000054981  -0.0000038153   0.0000004266   0.0000124815   0.0000211771
       -0.0000122127  -0.0000394406  -0.0000248602   0.0000188517   0.0000448429
       -0.0000121393   0.0000109539  -0.0000005144   0.0000299176  -0.0000038221
        0.0000096997  -0.0000262425   0.0000072228  -0.0000596146   0.0000273499
        0.0000071523   0.0000306557   0.0000420516   0.0000224703  -0.0000717102
        0.0000180413   0.0000110739   0.0000545534   0.0000266968   0.0000031269
       -0.0000600201   0.0000050679   0.0000036945   0.0000182784   0.0000340231
        0.0000033441  -0.0000452348  -0.0000092889   0.0000020870   0.0000421260
        0.0000012134   0.0000218628  -0.0000532625   0.0000080518  -0.0000300642
        0.0000151974   0.0000331501  -0.0000051920  -0.0000078938  -0.0000252912
        0.0000074996   0.0000009618  -0.0000030559   0.0000018589  -0.0000130617
        0.0000024529  -0.0000099477   0.0000267207  -0.0000010537   0.0000125578
       -0.0000161356  -0.0000404633   0.0000092891  -0.0000009900   0.0000209607
       -0.0000072757   0.0000056752  -0.0000197476   0.0000043546   0.0000359443
        0.0000059401  -0.0000022918  -0.0000582140  -0.0000343908  -0.0000043408
        0.0006415382  -0.0001003110   0.0001295119  -0.0006958478  -0.0000232336
        0.0001679010  -0.0001702353  -0.0001015867  -0.0002553629   0.0001571750
        0.0001261195   0.0000295880   0.0000345647   0.0000344273   0.0000053838
        0.0000691216  -0.0000107751   0.0000112390   0.0000113966  -0.0000079983
        0.0000172047   0.0000909560  -0.0000256998   0.0000107431  -0.0002262474
       -0.0000933877   0.0000306246   0.0037336649  -0.0136630900   0.0272185203
        0.0018482568  -0.0014202953   0.0042773612  -0.0031238759   0.0066360497
       -0.0167907239  -0.0869545515  -0.2247561193   0.0163958176   0.0531008274
       -0.1386736902  -0.0984661235  -0.0277556154   0.0004054848  -0.0027259107
        0.0193573264  -0.0023046923  -0.0001093614   0.0014658081   0.0005127155
        0.0003312399   0.0013541111  -0.0008819628   0.0027679812  -0.0000956063
        0.0002569097  -0.0006723316   0.0000730791  -0.0000300486   0.0000039502
        0.0000276604   0.0000499256  -0.0000016234   0.0001039530  -0.0000277509
       -0.0000013854   0.0000047432  -0.0000246211   0.0000130213   0.0000108785
        0.0000257428   0.0000427318   0.0001238746  -0.0000303049  -0.0000750186
        0.0000342319   0.0000302825   0.0000000382   0.0000043121  -0.0000216446
       -0.0000092971  -0.0000099147  -0.0000129552  -0.0000036525  -0.0000025743
       -0.0000014553   0.0000006798  -0.0000009721  -0.0000006457  -0.0000014325
       -0.0000025100  -0.0000025888  -0.0000000140  -0.0000001046  -0.0000010776
       -0.0000042721  -0.0000022256  -0.0000013339  -0.0000006923  -0.0000118880
       -0.0000006034  -0.0000051420  -0.0000050140  -0.0000114715  -0.0000010908
       -0.0000000604  -0.0000071005  -0.0000071278   0.0000018561  -0.0000078783
       -0.0000000762   0.0000070470  -0.0000058003  -0.0000029682   0.0000065284
       -0.0000007706  -0.0000018583   0.0000029547   0.0000004764   0.0000029596
        0.0000032551  -0.0000009882  -0.0000012779   0.0000015224   0.0000016375
       -0.0000002838   0.0000004946   0.0000022297  -0.0000015140  -0.0000004921
        0.0000047234  -0.0000007997   0.0000039884   0.0000115483  -0.0000036501
        0.0000042654   0.0000000546  -0.0000017987   0.0000191481   0.0000021696
        0.0000041317  -0.0000391115  -0.0000129283  -0.0000590734  -0.0000164411
       -0.0000044207   0.0000120743  -0.0000016625  -0.0000008568  -0.0000047210
       -0.0000027190   0.0000056446   0.0000024760  -0.0000107247  -0.0000021109
        0.0000031325
       -0.0223280536   0.0441845979  -0.1808241051  -0.0215150493   0.0213889260
        0.4860200042  -0.0130976393  -0.0016228198  -0.0653795682  -0.0249044549
        0.0049484907  -0.0064392543   0.0002601837  -0.0000529857   0.0005674180
        0.0000111028   0.0001563014  -0.0001916957  -0.0000225168  -0.0001242504
        0.0002536157  -0.0003717732  -0.0000917722  -0.0002224676   0.0001576574
        0.0003546168  -0.0001081969  -0.0000158743   0.0001264892   0.0000074749
        0.0002589248  -0.0000993011  -0.0001076351  -0.0001240543   0.0000868654
       -0.0000326026   0.0000022401  -0.0000360373  -0.0000396840   0.0000205397
        0.0000207413   0.0000221239   0.0000038424   0.0000064853  -0.0000189457
       -0.0000111501   0.0000007487   0.0000021350   0.0000021035   0.0000048003
       -0.0000008293  -0.0000044320  -0.0000046549  -0.0000002912   0.0000100606
       -0.0000042654   0.0000013948   0.0000020572   0.0000050612  -0.0000064256
        0.0000011220  -0.0000040023   0.0000006026   0.0000000487   0.0000077785
       -0.0000088978   0.0000153314   0.0000157136  -0.0000123623   0.0000019197
        0.0000200200   0.0000010917  -0.0000008837   0.0000065696  -0.0000047765
        0.0000073947   0.0000078331  -0.0000052178   0.0000013538  -0.0000031081
        0.0000032603  -0.0000017041   0.0000038094  -0.0000049643   0.0000119704
       -0.0000030683   0.0000008318  -0.0000172960  -0.0000073026  -0.0000000961
        0.0000002927   0.0000085225  -0.0000008741  -0.0000003948   0.0000009487
        0.0000010931   0.0000090845   0.0000086726   0.0000016609  -0.0000086042
        0.0000014900  -0.0000017477   0.0000018325  -0.0000009463  -0.0000000887
       -0.0000043646  -0.0000052882   0.0000000208  -0.0000059132   0.0000018054
       -0.0000041996   0.0000007515  -0.0000026758  -0.0000001059   0.0000002899
        0.0000033419  -0.0000013848  -0.0000121695   0.0000023637  -0.0000102398
       -0.0000077681   0.0000123903  -0.0000070623  -0.0000097611   0.0000006817
       -0.0000008242  -0.0000021128   0.0000014030  -0.0000010921  -0.0000107872
        0.0000052946  -0.0000099049  -0.0000121562   0.0000072759   0.0000102331
       -0.0000472090   0.0000103303   0.0001392811   0.0000503110  -0.0000962132
        0.0000662764  -0.0001906945  -0.0002173822   0.0003654485  -0.0000206729
       -0.0000240828  -0.0000328105   0.0001082468   0.0000467023  -0.0000396797
       -0.0000256253  -0.0000008982  -0.0000188690   0.0000242048   0.0000191990
       -0.0000153328   0.0000156059  -0.0000158719  -0.0000020025   0.0001412937
        0.0000816138  -0.0001531483   0.0002555590   0.0061851722  -0.0066854849
       -0.0036178941   0.0028851578  -0.0068119777  -0.0025885728   0.0058090888
       -0.0267029460   0.0109995356   0.0166307977  -0.0452358357   0.0596051667
       -0.0994491514  -0.1452023333  -0.0008650672  -0.0000539732   0.0004193718
        0.0220002323  -0.0029358325   0.0007797486  -0.0005491839  -0.0008863985
        0.0005792932  -0.0024311397   0.0026985976  -0.0040006212  -0.0008760192
        0.0002837087  -0.0010727942  -0.0001741319   0.0000215408   0.0000492448
       -0.0000849347  -0.0000457169   0.0000032333   0.0000142864  -0.0000239938
       -0.0000456370  -0.0000259803  -0.0000808780   0.0000349559   0.0000151901
        0.0000376524   0.0000585597   0.0000240924  -0.0000502984  -0.0000893326
        0.0000125632  -0.0000135496   0.0000086897   0.0000046976  -0.0000031656
        0.0000253030  -0.0000061683  -0.0000159935   0.0000051746  -0.0000034787
       -0.0000035820   0.0000048276   0.0000007531  -0.0000017219   0.0000023623
       -0.0000006241  -0.0000036684   0.0000020629  -0.0000080133  -0.0000048834
        0.0000076118  -0.0000075321  -0.0000077080   0.0000063745  -0.0000208584
       -0.0000257741   0.0000018619  -0.0000009215  -0.0000189060   0.0000076813
        0.0000000029  -0.0000051604  -0.0000042135  -0.0000021474  -0.0000061394
       -0.0000009504   0.0000003037  -0.0000035781  -0.0000010896   0.0000062068
        0.0000002407   0.0000014130   0.0000016578  -0.0000036619   0.0000039928
        0.0000027250  -0.0000030834   0.0000037727   0.0000048535  -0.0000007546
        0.0000044289   0.0000061700   0.0000017010   0.0000060176   0.0000024998
        0.0000010572   0.0000058595   0.0000140071   0.0000007250   0.0000084626
        0.0000054426  -0.0000086038   0.0000062340   0.0000101045   0.0000002276
        0.0000097552  -0.0000315708  -0.0000143273  -0.0000066268  -0.0000109693
       -0.0000174890   0.0000295339  -0.0000122046  -0.0000060621   0.0000102591
       -0.0000099555  -0.0000041095   0.0000062460  -0.0000053337   0.0000015399
        0.0000109271
       -0.0113307401   0.0036204480  -0.0070826938  -0.1913456424   0.0092917024
       -0.0130976393   0.4724639078   0.0146638553  -0.0158260274  -0.0711806686
        0.0121003816  -0.0215989022   0.0019746713  -0.0034445945   0.0050354866
       -0.0000689589  -0.0000441273  -0.0001585567   0.0006496803   0.0000939949
        0.0002508444  -0.0004158613   0.0001870766  -0.0001445027   0.0002203949
       -0.0000341090  -0.0000207021  -0.0002464185   0.0000148472  -0.0000146302
        0.0002413074  -0.0000473736  -0.0000847684  -0.0001151233   0.0001378870
       -0.0000336651   0.0000066317  -0.0000843235   0.0000185753   0.0000158900
       -0.0000036672   0.0000125487   0.0000085034  -0.0000227672  -0.0000017940
       -0.0000116584  -0.0000111575  -0.0000041098  -0.0000062321  -0.0000030017
        0.0000012914   0.0000031838   0.0000002578  -0.0000003717  -0.0000130974
        0.0000057761  -0.0000002737   0.0000056221   0.0000031462   0.0000016425
       -0.0000118004  -0.0000003430  -0.0000006396  -0.0000049093   0.0000054632
       -0.0000008368  -0.0000221643   0.0000081612   0.0000041163  -0.0000088873
        0.0000183967  -0.0000046065  -0.0000033454   0.0000064541  -0.0000096731
        0.0000070151  -0.0000077742   0.0000029691   0.0000063911   0.0000102281
        0.0000013519  -0.0000057060  -0.0000024415  -0.0000039912   0.0000014492
       -0.0000008485   0.0000006167  -0.0000193818  -0.0000039270  -0.0000021168
        0.0000064008   0.0000065260   0.0000026003  -0.0000092590  -0.0000058358