$hessian                                                                        
        0.5166506369   0.0147691795  -0.0100732084  -0.0720497104   0.0249498442
       -0.0165723127  -0.0112742805   0.0243055186  -0.0143033338   0.0004652102
       -0.0003012942   0.0003587234  -0.0000300914   0.0000880822   0.0002840919
        0.0000692097   0.0001001096  -0.0000471128   0.0000171574   0.0000637709
        0.0001105054  -0.0000734633  -0.0000874320  -0.0000621379  -0.0002276237
        0.0001516675  -0.0001331627   0.0001045844  -0.0000413000  -0.0000318587
        0.0001552513  -0.0001132517   0.0000020381  -0.0000801633  -0.0000881415
        0.0000568886  -0.0000035156   0.0000634953  -0.0000764513  -0.0000284566
        0.0000018235   0.0000079527   0.0000119077  -0.0000304002  -0.0000047943
        0.0000087884  -0.0000045209  -0.0000046108   0.0000043274  -0.0000002796
        0.0000034977  -0.0000090269   0.0000021551  -0.0000059089   0.0000027878
        0.0000064318  -0.0000021357   0.0000008251  -0.0000112028   0.0000044913
        0.0000028996   0.0000034421  -0.0000004683  -0.0000056365  -0.0000047304
       -0.0000028470   0.0000119553  -0.0000036603   0.0000067246   0.0000051123
       -0.0000105836  -0.0000001691   0.0000136844   0.0000043753  -0.0000063847
       -0.0000004306  -0.0000073064   0.0000027617  -0.0000007153   0.0000035900
       -0.0000009715  -0.0000179085   0.0000081881   0.0000030033   0.0000106513
       -0.0000005922  -0.0000043235  -0.0000257762   0.0000172476   0.0000066298
        0.0000073124   0.0000081821   0.0000060351  -0.0000230725   0.0000162917
        0.0000034868   0.0000204867  -0.0000068334   0.0000022668  -0.0000280008
       -0.0000149734   0.0000098310   0.0000261712   0.0000229687  -0.0000116923
       -0.0000298521   0.0000114681  -0.0000035545   0.0000177268  -0.0000046096
        0.0000030815  -0.0000044429  -0.0000015145   0.0000001937   0.0000052073
        0.0000137984  -0.0000080013  -0.0000270171  -0.0000058330   0.0000122684
        0.0000179509  -0.0000007489   0.0000088273  -0.0000043206   0.0000152608
       -0.0000067100   0.0000097900  -0.0000090386   0.0000045907  -0.0000038384
        0.0000065696   0.0000047627   0.0000028906  -0.0000157189  -0.0000276198
        0.0001827458   0.0000228711   0.0001225066  -0.0003940737   0.0000174850
        0.0002623107   0.0000554507  -0.0000759473  -0.0002025020   0.0000613712
        0.0000963157   0.0000360364   0.0000291221   0.0000202861   0.0000056892
        0.0000300846  -0.0000141638   0.0000028152   0.0000105665   0.0000006747
        0.0000032830   0.0000272897  -0.0000186894  -0.0000095674  -0.0000782557
       -0.0000661644   0.0000224388  -0.0657629945   0.0065822919   0.0669273983
       -0.2787418135   0.0267992050   0.0057395988  -0.0886380088  -0.0845549398
       -0.0404299770   0.0019597157  -0.0046685093   0.0031195686   0.0031427476
       -0.0118185988   0.0069969936  -0.0057683804   0.0027581705  -0.0001976822
        0.0007361555  -0.0000445357  -0.0009221530  -0.0009400413   0.0007361799
       -0.0005215850   0.0001448514   0.0003785771  -0.0001823915   0.0000259820
       -0.0000248062  -0.0000978217  -0.0000450895  -0.0000075990  -0.0001507611
        0.0000555080   0.0000009324  -0.0000187007  -0.0000545933  -0.0000281901
       -0.0000296403   0.0000323412  -0.0000238978   0.0000141532   0.0001563369
        0.0000485597  -0.0000204978   0.0000413077   0.0000057448   0.0000352142
        0.0000286600   0.0000253226  -0.0000017240   0.0000164399   0.0000061851
        0.0000117753  -0.0000036182   0.0000372023   0.0000099814  -0.0000016844
        0.0000050589  -0.0000010414  -0.0000018816   0.0000012793  -0.0000035450
       -0.0000031092   0.0000008675  -0.0000024051  -0.0000032878   0.0000002939
       -0.0000009056  -0.0000054386  -0.0000011949   0.0000002154  -0.0000018684
        0.0000023853   0.0000012720  -0.0000023895   0.0000029525  -0.0000010476
        0.0000014591   0.0000061780   0.0000011791   0.0000020048   0.0000034317
       -0.0000000910   0.0000038936   0.0000014316   0.0000010363   0.0000058273
       -0.0000016191  -0.0000032842   0.0000010737  -0.0000004110   0.0000023523
        0.0000039805  -0.0000007479   0.0000008371   0.0000016808  -0.0000023519
        0.0000011909   0.0000030481  -0.0000029527  -0.0000015420   0.0000039417
       -0.0000043586  -0.0000000649  -0.0000031183  -0.0000044504  -0.0000034301
        0.0000034171  -0.0000082886  -0.0000007441   0.0000014647  -0.0000145828
       -0.0000042189   0.0000172808  -0.0000406391  -0.0000280983  -0.0000112839
       -0.0000035951   0.0000041854  -0.0000091541  -0.0000037018  -0.0000006845
       -0.0000062568   0.0000041713  -0.0000010512  -0.0000045886   0.0000013873
        0.0000022430
        0.0147691795   0.4851461040   0.0283744215   0.0233064201  -0.1573338908
        0.0573352060   0.0080066618  -0.0081369453   0.0046419747   0.0001440228
       -0.0000036898  -0.0000587726  -0.0000267166  -0.0002678541   0.0000451565
       -0.0000830691  -0.0001960738   0.0000340686  -0.0002398637   0.0002003396
        0.0002198685   0.0002208773  -0.0001596492  -0.0002303983  -0.0000194879
        0.0001077706   0.0000398482   0.0001059949   0.0000516776   0.0000904276
       -0.0000182361  -0.0000447020   0.0000452266  -0.0000851228   0.0000242798
       -0.0000380943  -0.0000171437   0.0000108105   0.0000379643  -0.0000430050
        0.0000299092   0.0000159249  -0.0000172661   0.0000419836   0.0000016213
       -0.0000022543   0.0000213146   0.0000006267  -0.0000418556  -0.0000150805
       -0.0000164813   0.0000380964   0.0000069741   0.0000131590  -0.0000273418
       -0.0000346599   0.0000040320   0.0000028338   0.0000190909  -0.0000124680
       -0.0000029032  -0.0000015346  -0.0000003864   0.0000045705  -0.0000113272
        0.0000112429  -0.0000314356  -0.0000111589  -0.0000137742   0.0000105633
        0.0000147204  -0.0000053351  -0.0000096468  -0.0000239490   0.0000150046
        0.0000022868   0.0000160728  -0.0000037566  -0.0000048584  -0.0000195045
        0.0000004568   0.0000156319   0.0000044666  -0.0000006310  -0.0000340040
       -0.0000299605  -0.0000044712   0.0000489223  -0.0000001300   0.0000005467
       -0.0000183967  -0.0000123295  -0.0000080073   0.0000135146  -0.0000158163
       -0.0000000949  -0.0000234361   0.0000277053   0.0000062319   0.0000410475
        0.0000227606  -0.0000104915  -0.0000357133  -0.0000247922   0.0000066750
        0.0000458739  -0.0000129526   0.0000027444  -0.0000165670   0.0000226360
       -0.0000155434   0.0000078657  -0.0000007857   0.0000006195  -0.0000038040
       -0.0000075090   0.0000059147   0.0000402027   0.0000199151  -0.0000208373
       -0.0000204892   0.0000168280  -0.0000039321   0.0000245316  -0.0000076974
        0.0000186044  -0.0000080492   0.0000146032  -0.0000067987  -0.0000196496
        0.0000312370  -0.0000053640   0.0000131058   0.0000545221   0.0000216220
       -0.0000032958  -0.0000362992   0.0001452721  -0.0000034682  -0.0002242197
        0.0000357993  -0.0002435015  -0.0001128399  -0.0000357593   0.0002143544
        0.0000432321   0.0000928364   0.0000459337   0.0000403488  -0.0000262942
        0.0000010396  -0.0000080023   0.0000195451  -0.0000142840  -0.0000015904
        0.0000152891   0.0000577972  -0.0000120731   0.0000113264  -0.0000470644
       -0.0000084179  -0.0001616286   0.0066370356  -0.0465368151  -0.0251689629
        0.0271056939  -0.0454376138  -0.0020222257  -0.0843600160  -0.2013404733
       -0.0787502779   0.0000015125   0.0003371738   0.0020521300   0.0043852680
       -0.0275675922   0.0135850505   0.0014751098   0.0004401383  -0.0000629809
       -0.0005991503   0.0003995175   0.0001941623  -0.0004197981   0.0003136720
        0.0001116798  -0.0001306016  -0.0000249904  -0.0000436756   0.0000406981
        0.0000036989  -0.0000390006  -0.0000280866   0.0002180873  -0.0001546915
       -0.0000074874   0.0000231167  -0.0000346895  -0.0000067383   0.0000602358
       -0.0000204187  -0.0000168981  -0.0000223842  -0.0000333207  -0.0000373661
       -0.0000800782  -0.0000458982  -0.0000105643   0.0000505743  -0.0000141801
        0.0000346531  -0.0000050064  -0.0000002387   0.0000141207   0.0000091786
       -0.0000444054   0.0000006341  -0.0000147013  -0.0000023881   0.0000040784
       -0.0000027103   0.0000015850   0.0000090572   0.0000004911   0.0000059771
        0.0000095710   0.0000055089   0.0000022276   0.0000102778   0.0000086363
        0.0000025957   0.0000073146   0.0000159555  -0.0000051882   0.0000010627
        0.0000083508  -0.0000019619   0.0000102958   0.0000078758   0.0000068856
        0.0000170188  -0.0000116934  -0.0000059474   0.0000111484  -0.0000174850
       -0.0000089068   0.0000066231  -0.0000183565  -0.0000100619  -0.0000001287
       -0.0000207283  -0.0000080261  -0.0000004918  -0.0000088521  -0.0000002326
       -0.0000065811  -0.0000080378   0.0000025388  -0.0000101682  -0.0000063264
        0.0000003539  -0.0000134348  -0.0000028520  -0.0000002905  -0.0000143968
        0.0000034178  -0.0000011711  -0.0000138524  -0.0000067888  -0.0000002529
       -0.0000100910  -0.0000085217   0.0000059127   0.0000079623  -0.0000046453
       -0.0000061952  -0.0000258116   0.0000277810  -0.0000982490  -0.0000238256
       -0.0000033672   0.0000112545  -0.0000251021  -0.0000040935  -0.0000068813
       -0.0000236207  -0.0000001182  -0.0000041652  -0.0000243228   0.0000069534
       -0.0000174068
       -0.0100732084   0.0283744215   0.5034634142  -0.0153861957   0.0573543430
       -0.1056199754  -0.0033571447   0.0010803094  -0.0000674364   0.0002743615
        0.0000209886   0.0000156824   0.0003628773  -0.0000054661  -0.0001476138
       -0.0000024016   0.0000872173  -0.0000047440   0.0000918368  -0.0001799057
        0.0000410788  -0.0002303089   0.0001407613   0.0000248287   0.0003033823
        0.0000777704  -0.0000695494  -0.0001225784   0.0001135918   0.0000724131
        0.0001557239   0.0000768337  -0.0001695106  -0.0000740566   0.0001028477
       -0.0000751493   0.0000054922  -0.0000332763  -0.0000036781   0.0000173241
       -0.0000115298   0.0000065844  -0.0000018405   0.0000036214   0.0000005059
        0.0000037836  -0.0000035714   0.0000015241   0.0000057424   0.0000050671
        0.0000054320  -0.0000094645  -0.0000027199  -0.0000061368   0.0000039631
        0.0000020202  -0.0000015483  -0.0000065212  -0.0000035533   0.0000003293
        0.0000012821  -0.0000033463   0.0000011883  -0.0000007610   0.0000071732
       -0.0000033387  -0.0000055210  -0.0000004058  -0.0000053183  -0.0000145501
        0.0000053969  -0.0000138512  -0.0000115654   0.0000043996  -0.0000053722
       -0.0000011283   0.0000016515  -0.0000051406  -0.0000005407   0.0000031863
        0.0000000824  -0.0000019363   0.0000040576  -0.0000053384   0.0000023603
        0.0000047367   0.0000001875  -0.0000061292  -0.0000097391  -0.0000019702
        0.0000037015   0.0000014528  -0.0000026777   0.0000001868   0.0000034984
       -0.0000005886   0.0000020207   0.0000001182   0.0000012217  -0.0000059319
       -0.0000058164   0.0000008116   0.0000100109   0.0000033034   0.0000013438
       -0.0000050282  -0.0000044828   0.0000033809   0.0000035945   0.0000002222
        0.0000031480  -0.0000034296  -0.0000096421  -0.0000024150  -0.0000026224
        0.0000048965  -0.0000119585   0.0000149722   0.0000122127   0.0000038866
        0.0000070821   0.0000194197  -0.0000013058  -0.0000011978   0.0000083905
       -0.0000097288   0.0000043547   0.0000055354  -0.0000076278  -0.0000025734
        0.0000008930  -0.0000062493   0.0000074697  -0.0000231711   0.0000165812
       -0.0001061803   0.0001010258  -0.0000057007   0.0002478926  -0.0001368684
       -0.0003524667  -0.0002326290   0.0000601622   0.0004560909  -0.0001657679
       -0.0000784699  -0.0000586907   0.0000862683   0.0000089937  -0.0000077401
       -0.0000238912   0.0000065060  -0.0000265145   0.0000172335   0.0000133048
       -0.0000231067  -0.0000277196   0.0000008208   0.0000117609   0.0001373365
        0.0000842329  -0.0000006100   0.0669017064  -0.0250137196  -0.2574153706
        0.0058506257  -0.0020619119  -0.0442684975  -0.0403038533  -0.0783356617
       -0.0826038279  -0.0060906227   0.0260488581  -0.0206566439   0.0013780920
       -0.0063254359   0.0051713878   0.0004840770  -0.0003487291   0.0007906862
        0.0006308802  -0.0008842536   0.0010039475  -0.0004365137   0.0001010815
        0.0001752458   0.0000891312  -0.0000271378   0.0001261936   0.0000239788
       -0.0000724067   0.0000884145  -0.0002164484   0.0000647801  -0.0001641984
       -0.0000506220  -0.0000411012  -0.0000125580  -0.0000053875   0.0000003195
        0.0000544483  -0.0000183048  -0.0000537161   0.0000300615  -0.0001233245
       -0.0001351382  -0.0000080862  -0.0000026531  -0.0000016674   0.0000268731
       -0.0000192202  -0.0000161841   0.0000315082   0.0000083928  -0.0000147976
        0.0000255950   0.0000045593   0.0000025338  -0.0000025730   0.0000003886
       -0.0000024955   0.0000045785   0.0000026434  -0.0000033113   0.0000009352
        0.0000048704  -0.0000015383   0.0000035371   0.0000071974  -0.0000012109
        0.0000051290   0.0000010460  -0.0000028646   0.0000055657   0.0000114580
       -0.0000019662   0.0000144683   0.0000037981  -0.0000003182   0.0000032371
       -0.0000000536  -0.0000006742   0.0000020996  -0.0000006175   0.0000016375
        0.0000025263  -0.0000040982  -0.0000013824   0.0000029295   0.0000001733
       -0.0000017756   0.0000011459  -0.0000038127  -0.0000011451   0.0000042564
        0.0000015486   0.0000021108   0.0000013930  -0.0000001571  -0.0000012474
        0.0000025941  -0.0000062066  -0.0000073345   0.0000084203  -0.0000052234
       -0.0000073572   0.0000018879  -0.0000085547  -0.0000139087   0.0000067459
       -0.0000012675  -0.0000116972   0.0000052271   0.0000005555  -0.0000143859
       -0.0000021302  -0.0000116507  -0.0000784183   0.0000618662  -0.0000020637
       -0.0000113271   0.0000232622   0.0000085175   0.0000001154   0.0000132809
        0.0000046672  -0.0000058432   0.0000096122   0.0000049186  -0.0000127940
        0.0000164015
       -0.0720497104   0.0233064201  -0.0153861957   0.4658375495   0.0179137366
       -0.0051448773  -0.1809114642   0.0308266382   0.0122347975  -0.0235911710
       -0.0015921441  -0.0014004100   0.0002951305   0.0000050391   0.0000167153
       -0.0001563635   0.0001178252   0.0001534036   0.0002223006  -0.0000314234
        0.0000214080  -0.0002647421   0.0001295896  -0.0000231182   0.0001133445
        0.0000064572  -0.0000099868  -0.0001513258   0.0000047392  -0.0000302831
        0.0000897387  -0.0000312221  -0.0000109800  -0.0000279315   0.0000813108
       -0.0000398083   0.0000024448  -0.0000526979   0.0000322227   0.0000183549
       -0.0000012147  -0.0000009576  -0.0000022570  -0.0000304165  -0.0000048819
        0.0000147619  -0.0000019868  -0.0000033640  -0.0000059584  -0.0000020735
       -0.0000003286   0.0000044167   0.0000000338   0.0000035878  -0.0000020035
       -0.0000023861   0.0000018575   0.0000046046   0.0000005577   0.0000021544
        0.0000029464   0.0000027131  -0.0000003632   0.0000005772  -0.0000035092
        0.0000031589   0.0000057908   0.0000020680   0.0000011820   0.0000068739
        0.0000007505  -0.0000003343   0.0000061548  -0.0000012107   0.0000014459
        0.0000023204  -0.0000023369   0.0000039235  -0.0000065404   0.0000015131
        0.0000009907  -0.0000002632   0.0000058121   0.0000025494   0.0000018131
       -0.0000019602  -0.0000023272  -0.0000087829  -0.0000025429   0.0000004180
       -0.0000012897  -0.0000041358  -0.0000014495   0.0000013935   0.0000080708
        0.0000006840   0.0000037885  -0.0000075251  -0.0000022727  -0.0000153335
       -0.0000059025   0.0000046746   0.0000126421   0.0000065815  -0.0000035742
       -0.0000189705   0.0000036450   0.0000003425   0.0000075554  -0.0000038661
        0.0000026568  -0.0000061698   0.0000010599  -0.0000003055  -0.0000009096
        0.0000073213  -0.0000039393  -0.0000177367   0.0000032582   0.0000047744
        0.0000021399   0.0000052492   0.0000003934  -0.0000113361   0.0000086306
       -0.0000105658   0.0000056520  -0.0000030496   0.0000021578  -0.0000072464
       -0.0000074689   0.0000046200   0.0000018955  -0.0000262966   0.0000028274
       -0.0001646864   0.0000348964  -0.0000195250   0.0001372049  -0.0000991022
       -0.0000503419   0.0001115033   0.0000513742   0.0001858401  -0.0001434574
       -0.0000103946  -0.0000984545  -0.0000079978  -0.0000170820   0.0000060589
       -0.0000000378   0.0000017997  -0.0000040253   0.0000154204   0.0000089639
       -0.0000247296  -0.0000047256   0.0000212944  -0.0000193491  -0.0000134691
        0.0000016805   0.0000353925   0.0021662101  -0.0062818505   0.0039030543
       -0.0106672857   0.0259517114  -0.0163792138   0.0035258450  -0.0105178206
        0.0066639957  -0.0562187648   0.0060970312   0.0538084169  -0.1034036638
       -0.0923825815  -0.0417740662  -0.0104470076   0.0049145539  -0.0003466014
       -0.0126660311   0.0035595280   0.0049654826   0.0006618282   0.0006359676
        0.0000423210  -0.0019567670  -0.0025443319  -0.0012294092  -0.0000789518
       -0.0000617430   0.0000454986  -0.0003490581  -0.0000139714  -0.0002442645
       -0.0000154246  -0.0000664344   0.0000071879   0.0000709127   0.0000336851
        0.0000641451   0.0000198433  -0.0000114727   0.0000063223  -0.0000139221
        0.0000512789  -0.0000008627   0.0000078285  -0.0000100896  -0.0000052466
       -0.0000079204  -0.0000052221  -0.0000081213  -0.0000004259   0.0000016966
        0.0000173559   0.0000027728   0.0000095886   0.0000015661  -0.0000018582
        0.0000060372  -0.0000028422  -0.0000051942   0.0000033121  -0.0000047875
       -0.0000061717  -0.0000000293  -0.0000030856  -0.0000071571  -0.0000004759
       -0.0000030431  -0.0000055133  -0.0000012780  -0.0000014166  -0.0000037967
        0.0000014772  -0.0000047041  -0.0000039433   0.0000004490  -0.0000041271
       -0.0000057520   0.0000082321   0.0000024182  -0.0000019830   0.0000103285
        0.0000027627  -0.0000000255   0.0000067790   0.0000026581   0.0000037713
        0.0000065146   0.0000024754   0.0000020695   0.0000009807   0.0000021507
        0.0000042922   0.0000000867   0.0000004606   0.0000031382   0.0000000287
        0.0000005958   0.0000044834  -0.0000024781  -0.0000004099   0.0000089063
       -0.0000054759   0.0000026123   0.0000052676  -0.0000048551   0.0000027128
        0.0000077215   0.0000018311  -0.0000017319   0.0000065791  -0.0000007340
       -0.0000021749   0.0000075590   0.0000029147   0.0000078135   0.0000026894
       -0.0000038778   0.0000019003   0.0000016127  -0.0000026916   0.0000073038
        0.0000059403  -0.0000025840   0.0000030775   0.0000109082  -0.0000110968
        0.0000183318
        0.0249498442  -0.1573338908   0.0573543430   0.0179137366   0.4946079815
        0.0244948257   0.0264511823  -0.0728677800  -0.0036761862  -0.0187215648
        0.0053469282   0.0014294380   0.0001002543   0.0000826782   0.0001049714
       -0.0001951057  -0.0001164592   0.0000408767  -0.0001354719   0.0000961441
        0.0000651680   0.0000992859  -0.0000987328  -0.0000802719  -0.0000093337
        0.0000519862   0.0000154075   0.0000630508   0.0000406511   0.0000578467
       -0.0000444646  -0.0000144670   0.0000582684  -0.0000038137   0.0000162233
       -0.0000207009  -0.0000157354   0.0000263056   0.0000243063  -0.0000240466
        0.0000006563  -0.0000007973  -0.0000020683   0.0000386910   0.0000036549
       -0.0000160336   0.0000064503   0.0000007865  -0.0000085715  -0.0000038854
        0.0000003190   0.0000017951   0.0000026968  -0.0000016522  -0.0000086537
       -0.0000091420   0.0000004565  -0.0000014003   0.0000025029  -0.0000038813
       -0.0000021345  -0.0000043966  -0.0000008866  -0.0000014020  -0.0000052559
        0.0000008286  -0.0000094222  -0.0000057171  -0.0000069625   0.0000002388
       -0.0000030305   0.0000025849  -0.0000131198  -0.0000046014   0.0000048344
        0.0000050574   0.0000029287  -0.0000000558   0.0000065567   0.0000005304
        0.0000019794  -0.0000039575   0.0000021163   0.0000016083   0.0000054788
       -0.0000046226   0.0000011064   0.0000040991  -0.0000036237   0.0000008228
        0.0000010280  -0.0000002746  -0.0000012687  -0.0000008989  -0.0000091383
        0.0000016991   0.0000075117   0.0000174384   0.0000032580   0.0000120762
        0.0000018977   0.0000006640  -0.0000057319  -0.0000040585   0.0000008176
        0.0000125808  -0.0000066783   0.0000025310  -0.0000056843   0.0000045977
       -0.0000032104   0.0000059129  -0.0000022313   0.0000024552   0.0000051711
       -0.0000007956  -0.0000007010   0.0000209626   0.0000064828  -0.0000059113
        0.0000016101   0.0000027336   0.0000052267   0.0000085555   0.0000037883
        0.0000055479  -0.0000027982   0.0000082659  -0.0000023687  -0.0000189923
        0.0000235731   0.0000033916   0.0000106893   0.0000172139   0.0000078511
        0.0000605692   0.0000086315   0.0000741360   0.0000494426  -0.0000060334
        0.0000396489  -0.0000514344   0.0000108385  -0.0000668329   0.0000695438
        0.0000155165   0.0000489265   0.0000078687   0.0000148328  -0.0000099628
        0.0000050727  -0.0000053219   0.0000130926  -0.0000056740  -0.0000041981
        0.0000081481   0.0000257401  -0.0000215532   0.0000073083   0.0000139197
        0.0000440545  -0.0000638341  -0.0005594825   0.0007925523   0.0026485126
        0.0038683540  -0.0064151181   0.0038269598   0.0043591577  -0.0263098879
        0.0130289947   0.0063884866  -0.0480335766  -0.0319592287  -0.0926532212
       -0.1772525785  -0.0637954454   0.0253872885  -0.0091434401  -0.0004707480
        0.0073928223  -0.0013575528  -0.0017169750  -0.0000902520   0.0005304944
        0.0003170763  -0.0039618902  -0.0026465803  -0.0011354457  -0.0000367856
       -0.0000123698  -0.0000584893  -0.0006122502  -0.0000944789  -0.0003883319
       -0.0000336175  -0.0000128435  -0.0000213630   0.0000247511   0.0000411997
       -0.0000060969  -0.0000233150  -0.0000040533  -0.0000274400   0.0000001045
       -0.0000285585  -0.0000309955  -0.0000134200   0.0000188504  -0.0000085152
        0.0000138778  -0.0000162342  -0.0000003666   0.0000000098  -0.0000052475
       -0.0000365649   0.0000096968  -0.0000208903  -0.0000013375   0.0000032579
        0.0000003891   0.0000018060   0.0000074721  -0.0000001836   0.0000019402
        0.0000078371   0.0000024166   0.0000015787   0.0000075265   0.0000053839
        0.0000002359   0.0000063546   0.0000096826  -0.0000026727   0.0000075634
        0.0000064503  -0.0000039037   0.0000066047   0.0000002701   0.0000041094
        0.0000114397  -0.0000110406  -0.0000025131   0.0000062257  -0.0000108249
       -0.0000044893   0.0000000482  -0.0000143186  -0.0000031433  -0.0000001691
       -0.0000149442  -0.0000064770  -0.0000044246  -0.0000025247   0.0000030848
       -0.0000046339  -0.0000026770   0.0000042279  -0.0000086152  -0.0000018537
        0.0000018578  -0.0000126950  -0.0000010014   0.0000001560  -0.0000130287
        0.0000049560  -0.0000028851  -0.0000118710  -0.0000009095  -0.0000019777
       -0.0000071009  -0.0000062852   0.0000058706   0.0000050360  -0.0000016322
       -0.0000038679  -0.0000372315   0.0000231538  -0.0000794270  -0.0000069077
        0.0000013223  -0.0000010374  -0.0000149519   0.0000012879  -0.0000049612
       -0.0000089603   0.0000041329  -0.0000070491  -0.0000104127   0.0000096157
       -0.0000083139
       -0.0165723127   0.0573352060  -0.1056199754  -0.0051448773   0.0244948257
        0.5231195050   0.0112486134  -0.0030630088  -0.0689109394  -0.0085606480
        0.0018342339   0.0009955702   0.0004626921   0.0002854835   0.0002680590
        0.0000162586   0.0003063866  -0.0000635296  -0.0001367384  -0.0001682440
        0.0000069246  -0.0000887458  -0.0000875065   0.0001694401  -0.0000684987
        0.0001156727   0.0000144642   0.0000886190   0.0000553799  -0.0000454293
       -0.0000004288   0.0000169955   0.0000065940  -0.0000381065   0.0000120929
        0.0000033785   0.0000075435  -0.0000131003  -0.0000458685   0.0000071197
        0.0000147183   0.0000054798  -0.0000139584  -0.0000077255  -0.0000086973
        0.0000290723   0.0000040628   0.0000025268  -0.0000149380   0.0000028641
       -0.0000076460   0.0000135744  -0.0000036487   0.0000030237  -0.0000051604
       -0.0000107608  -0.0000028743  -0.0000029285   0.0000066042  -0.0000068984
       -0.0000007568   0.0000001645  -0.0000016096   0.0000003925   0.0000034843
       -0.0000037697  -0.0000156088   0.0000002676  -0.0000118697   0.0000050897
        0.0000137945  -0.0000017739  -0.0000032205   0.0000021193  -0.0000028204
       -0.0000036726   0.0000039634  -0.0000048725  -0.0000080291  -0.0000090184
       -0.0000011733   0.0000190559   0.0000050681  -0.0000080338  -0.0000276843
       -0.0000103302  -0.0000025442   0.0000301127   0.0000019489  -0.0000033131
       -0.0000124438  -0.0000092626  -0.0000082184   0.0000235414  -0.0000075999
       -0.0000038460  -0.0000231551   0.0000000257   0.0000033305   0.0000132604
        0.0000117244  -0.0000094660  -0.0000117165  -0.0000180398   0.0000099658
        0.0000167147  -0.0000104971   0.0000051262  -0.0000090471   0.0000100884
       -0.0000035953  -0.0000043812  -0.0000061504  -0.0000047061   0.0000005614
       -0.0000033943  -0.0000101609   0.0000245302   0.0000153414  -0.0000045754
       -0.0000179669   0.0000062010   0.0000069844  -0.0000043467  -0.0000049763
       -0.0000051615   0.0000038263   0.0000118761  -0.0000071696   0.0000129985
       -0.0000012690  -0.0000148256  -0.0000097587   0.0000224648   0.0000120360
       -0.0001522586   0.0000801098  -0.0000539467   0.0000165312  -0.0000649516
        0.0000241921   0.0001219332  -0.0000342895  -0.0000975245  -0.0000040238
       -0.0000047729  -0.0000042181   0.0000447785   0.0000163929  -0.0000029134
       -0.0000373752  -0.0000103397  -0.0000204317   0.0000106032   0.0000129177
       -0.0000132784  -0.0000038062  -0.0000059188  -0.0000020240   0.0001918828
        0.0001051439  -0.0000501481  -0.0062542560   0.0253148562  -0.0210223456
       -0.0011732281   0.0013169003  -0.0002388167   0.0031599176  -0.0073440745
        0.0060120690   0.0535875970  -0.0321668660  -0.2540174816  -0.0414366531
       -0.0637365515  -0.0751033900  -0.0158675855   0.0061328358   0.0009276252
        0.0292906436  -0.0086176935  -0.0059435381   0.0003532337   0.0003889746
        0.0000846160  -0.0016820525  -0.0012577653   0.0001483679  -0.0001672538
        0.0000357686  -0.0000555818  -0.0012554955  -0.0009652700  -0.0004958541
        0.0000055460  -0.0000630575  -0.0000334870  -0.0000331026  -0.0000772130
       -0.0000401010  -0.0000262232  -0.0000206305   0.0000039848   0.0000742268
       -0.0001112874   0.0000244167   0.0000067159  -0.0000184897   0.0000219355
        0.0000218374  -0.0000171949   0.0000004983  -0.0000028955   0.0000107714
        0.0000180863  -0.0000018463   0.0000072859   0.0000063962  -0.0000030253
       -0.0000015456   0.0000016983   0.0000002608  -0.0000019157   0.0000003965
        0.0000024647  -0.0000002685   0.0000024663   0.0000024053  -0.0000009041
        0.0000037984   0.0000032532  -0.0000015378   0.0000057297   0.0000121696
       -0.0000043628   0.0000059038  -0.0000013265  -0.0000105941   0.0000065353
        0.0000015166  -0.0000001596   0.0000018219  -0.0000022198  -0.0000013278
        0.0000023385  -0.0000009983  -0.0000024754   0.0000010673  -0.0000018605
       -0.0000037554   0.0000020672  -0.0000015668   0.0000001652   0.0000024670
        0.0000015372   0.0000014419   0.0000017884  -0.0000004480   0.0000013076
        0.0000019738  -0.0000032386  -0.0000024116   0.0000083663  -0.0000058287
       -0.0000020603   0.0000036262  -0.0000080572  -0.0000077273   0.0000022635
        0.0000057407  -0.0000117843   0.0000057122  -0.0000021440   0.0000031194
        0.0000061165   0.0000096016  -0.0000148567   0.0000249884  -0.0000002996
       -0.0000008369   0.0000085616  -0.0000009689  -0.0000006396   0.0000040810
       -0.0000044844  -0.0000024528   0.0000052260  -0.0000143213   0.0000014659
        0.0000068529
       -0.0112742805   0.0080066618  -0.0033571447  -0.1809114642   0.0264511823
        0.0112486134   0.4569730687  -0.0051705621  -0.0074754571  -0.1128216469
       -0.0543629055  -0.0211125941   0.0015087254  -0.0002053180  -0.0034877449
        0.0002723403   0.0006194539   0.0005296183   0.0003696210  -0.0001256550
        0.0001880998  -0.0004152691   0.0002203182  -0.0001032999   0.0001337364
        0.0000054141   0.0000262212  -0.0002132273   0.0000044327  -0.0000399478
        0.0001745169  -0.0000541015  -0.0000438687  -0.0000756107   0.0001411252
       -0.0000586214  -0.0000001571  -0.0000867051   0.0000541733   0.0000160190
        0.0000150191   0.0000075314  -0.0000163729  -0.0000394887  -0.0000077173
        0.0000321619   0.0000051488  -0.0000035367  -0.0000293515  -0.0000098154
       -0.0000108220   0.0000288691   0.0000013006   0.0000146605  -0.0000136964
       -0.0000213198   0.0000049491   0.0000097623   0.0000103432  -0.0000019894
        0.0000029115   0.0000017702  -0.0000000643   0.0000064381  -0.0000095492
        0.0000104557  -0.0000072329  -0.0000010629  -0.0000045823   0.0000159064
        0.0000099365  -0.0000014478   0.0000109537  -0.0000118406   0.0000109044
        0.0000016842   0.0000018394   0.0000039586  -0.0000114698  -0.0000111943
        0.0000024899   0.0000127055   0.0000079467   0.0000026632  -0.0000240924
       -0.0000168547  -0.0000047236   0.0000143104  -0.0000018928   0.0000002064
       -0.0000110715  -0.0000125811  -0.0000068623   0.0000136727   0.0000046996