$hessian                                                                        
        0.3826184331  -0.5373764405  -0.1167823527  -0.3694635742   0.5021624070
        0.1072521024  -0.0038351020   0.0472433460   0.0087725746   0.0026687612
       -0.0070726413  -0.0002145391   0.0018867810   0.0025685796  -0.0007479593
        0.0002684405  -0.0028493937   0.0020715805   0.0010809289   0.0007084999
        0.0000337390  -0.0003981647  -0.0004936201  -0.0000704300  -0.0002202157
       -0.0003107039  -0.0000210084  -0.0002547839   0.0002130833   0.0002204533
        0.0001636408   0.0000653194  -0.0000842714  -0.0000557226  -0.0000409374
        0.0000290298   0.0001137676  -0.0000045336  -0.0001207480  -0.0001045834
       -0.0000019108   0.0001278340   0.0001436196  -0.0000497013  -0.0001795513
       -0.0001805085  -0.0002684775  -0.0000753470  -0.0001005636   0.0002340881
        0.0002356090   0.0000219858  -0.0001190123  -0.0001145376  -0.0000206636
        0.0000816367   0.0001114171  -0.0000016990  -0.0000248153   0.0000047479
        0.0000401752   0.0001572063   0.0000893648   0.0000983359  -0.0002416340
       -0.0001564455   0.0002036763   0.0014627746  -0.0002220864  -0.0018060561
       -0.0005399994  -0.0003370885   0.0016493987   0.0067286978  -0.0004669274
       -0.0036226851  -0.0033931471   0.0000161513   0.0004613322  -0.0009989749
       -0.0002249923  -0.0008031521   0.0004089169   0.0000361778   0.0000415551
       -0.0009961850   0.0001560468  -0.0002357098   0.0005761939  -0.0000743750
       -0.0001499405   0.0001964642  -0.0000151990   0.0004513476   0.0000485090
        0.0004483543  -0.0000788046  -0.0001811965  -0.0001988536   0.0001732023
       -0.0000957277   0.0001077153  -0.0000510914   0.0001171180   0.0000410900
       -0.0000610454   0.0000118067  -0.0000435465  -0.0000679274   0.0003018768
        0.0001666385   0.0001667219  -0.0002396264  -0.0000135798  -0.0002409039
        0.0001317296  -0.0001702493   0.0000049633   0.0000638833   0.0000433515
       -0.0001083587   0.0000847675  -0.0000591583   0.0000533940  -0.0001883413
       -0.0000903048   0.0001811155   0.0000279300   0.0002022267  -0.0001526768
       -0.0004042323  -0.0003927575   0.0007202840  -0.0002621706  -0.0000690316
       -0.0000059657   0.0008671613  -0.0001551421   0.0020223009   0.0120006139
        0.0014662315  -0.0059479479  -0.0063452163  -0.0012591099   0.0034658073
        0.0039985017   0.0007753753  -0.0058741753  -0.0157092262  -0.0006120668
       -0.0005158259  -0.0004860173  -0.0009222686  -0.0004606572  -0.0005041623
       -0.0008720936   0.0006906931  -0.0000376114  -0.0002210155   0.0005354380
       -0.0001483126   0.0005457135  -0.0008700301  -0.0005718848  -0.0000611248
        0.0008297375   0.0012370272   0.0003041610   0.0001146450  -0.0006224996
       -0.0001587401   0.0005058798   0.0002202008   0.0000642051  -0.0004394949
        0.0001869063   0.0000621794  -0.0001671105  -0.0003727524  -0.0000902166
       -0.0008156225   0.0008828501   0.0002051858   0.0006199203  -0.0006162228
       -0.0001338007  -0.0003407958  -0.0003479463  -0.0001089977  -0.0001952426
        0.0004104474   0.0001007461  -0.0005898479  -0.0002770945  -0.0000979242
        0.0007153524  -0.0003036647  -0.0000584324   0.0005897684   0.0005354298
        0.0001847824   0.0001767447  -0.0003106193  -0.0000723749  -0.0004535451
        0.0000028414  -0.0002962785   0.0004694939   0.0001947000  -0.0003559881
       -0.0046458595  -0.0011812962   0.0015570156  -0.0000100695   0.0000235405
        0.0000424854  -0.0000581149   0.0000530155   0.0001057193  -0.0000006607
       -0.0000097718  -0.0000218385  -0.0000141728  -0.0000308132  -0.0000152149
       -0.0000053709   0.0000004472  -0.0000116492  -0.0000049165  -0.0000066681
        0.0000108835  -0.0000223309  -0.0000106498   0.0000132611  -0.0000023152
       -0.0000010056  -0.0000004657   0.0000255794  -0.0000542041  -0.0000779239
       -0.0000658491   0.0000055297  -0.0000069054  -0.0000835239  -0.0000432930
       -0.0000255770  -0.0000231396  -0.0000623614   0.0000317294  -0.0000435540
        0.0000051413   0.0000382862   0.0000085437   0.0000174132   0.0000280883
       -0.0000039957  -0.0000032514  -0.0000030634  -0.0000116091   0.0000046717
       -0.0000084930  -0.0000111412   0.0000116938  -0.0000081578  -0.0000124205
        0.0000159278   0.0000046425  -0.0000043969   0.0000143234   0.0000057169
       -0.0000013453  -0.0000002737  -0.0000035299  -0.0000112908  -0.0000020825
       -0.0000272546   0.0000031428   0.0000432995  -0.0000350823   0.0000306317
       -0.0000546198   0.0000819366  -0.0003004614  -0.0001897004   0.0005581860
        0.0001082961   0.0000296749   0.0000920357   0.0000120922   0.0000919823
        0.0000213420  -0.0000065274  -0.0000157550  -0.0000100470  -0.0000212719
       -0.0000080869  -0.0000045475   0.0000044713  -0.0000104074  -0.0000036806
       -0.0000424100  -0.0000082883  -0.0000013915  -0.0000747681   0.0000126127
        0.0000023670   0.0000582548  -0.0001616566  -0.0000478170   0.0000474455
        0.0001381609  -0.0000408741   0.0000027407   0.0000008651   0.0000957560
       -0.0000771297   0.0000610243   0.0002101917
       -0.5373764405   0.8138050606   0.1713810452   0.5005336319  -0.7705466156
       -0.1588816408   0.0350383583  -0.0570327742  -0.0138891681  -0.0064753716
        0.0077175687  -0.0000423781  -0.0034590462  -0.0047835779   0.0010497964
       -0.0000295854   0.0029260360   0.0005359058  -0.0021520142  -0.0006528971
       -0.0003424177   0.0003165598   0.0009664607  -0.0002867339  -0.0001475858
        0.0005096170   0.0001162658   0.0003714853  -0.0003430573  -0.0001631413
        0.0000522366   0.0001156422  -0.0001531972   0.0001887520   0.0003644781
        0.0000378518  -0.0003679537  -0.0001363793   0.0002621378   0.0001043986
       -0.0001684721  -0.0003096779  -0.0002614027   0.0000886699   0.0004060769
        0.0001744600   0.0005261407   0.0002570416   0.0001522124  -0.0006659325
       -0.0005559872  -0.0001767385   0.0001217847   0.0002690589  -0.0000768855
       -0.0002919551  -0.0001965579   0.0002018081   0.0001592507  -0.0001057761
       -0.0000885040   0.0000369695   0.0000788234   0.0001587331   0.0002789015
       -0.0001794962  -0.0006196163  -0.0026441254   0.0006026107   0.0032029330
        0.0012022777   0.0002518300  -0.0001841863  -0.0125836376   0.0008031734
        0.0053796590   0.0058924074  -0.0000377736  -0.0002047152   0.0007377645
        0.0002717865   0.0007402154  -0.0005276112  -0.0000579816  -0.0000205162
        0.0010423043  -0.0002951296   0.0001793394  -0.0005501788   0.0000768177
        0.0001462190  -0.0001296621   0.0000158679  -0.0003005291  -0.0001145074
       -0.0002494514   0.0000223283   0.0001183787   0.0000956353  -0.0000360267
        0.0000034828  -0.0000423226   0.0000231474   0.0000533133   0.0000430501
       -0.0000116429  -0.0000497965  -0.0000641867   0.0000715648  -0.0000623027
       -0.0000161677  -0.0000009172   0.0000393448   0.0000408532  -0.0000044701
       -0.0000623543  -0.0000061032   0.0000484809  -0.0000035754   0.0000591298
       -0.0000188091  -0.0000248349  -0.0000279384  -0.0000050802   0.0000472340
        0.0000308233  -0.0001046880   0.0000327686  -0.0000978117   0.0001666604
        0.0001737367   0.0001781383  -0.0006835086   0.0003248457   0.0002048861
       -0.0001038887  -0.0008282608   0.0002081621  -0.0015281887  -0.0155033156
       -0.0018185707   0.0078193947   0.0090940998   0.0014275579  -0.0044748374
       -0.0054695771  -0.0009477089   0.0040348546   0.0270485857   0.0015468990
       -0.0004179997  -0.0004145266   0.0009602521  -0.0005528998  -0.0010825071
        0.0000725435  -0.0001368541  -0.0001778900   0.0000966760  -0.0001428952
        0.0000541663  -0.0002222746   0.0005255260   0.0005039530   0.0000628830
       -0.0006283178  -0.0008374104  -0.0002385185  -0.0000172633   0.0004631062
        0.0001223237  -0.0004221836  -0.0001473734  -0.0000513412   0.0003657200
       -0.0001603301  -0.0000640235   0.0001173005   0.0003582705   0.0000961140
        0.0006885933  -0.0007873943  -0.0002030823  -0.0005966314   0.0005217668
        0.0001097511   0.0003145861   0.0002940951   0.0001100585   0.0001262933
       -0.0003781198  -0.0001027898   0.0005024261   0.0002542325   0.0000981683
       -0.0006311894   0.0001216348   0.0000134151  -0.0002042770  -0.0003989483
       -0.0001459828  -0.0001352615   0.0001306665   0.0000620873   0.0002051159
        0.0000758541   0.0000819379  -0.0001082820   0.0002165565  -0.0000238748
        0.0007597617   0.0012164058  -0.0013329958   0.0000296601   0.0002683028
       -0.0001374646   0.0001568064  -0.0001292910  -0.0000394823  -0.0000242801
        0.0000586609   0.0001200027  -0.0000149665   0.0000046894   0.0000357182
        0.0000081119  -0.0000085279   0.0000214794   0.0000085445   0.0000235832
       -0.0000032004   0.0000198435  -0.0000108118  -0.0000199568   0.0000178822
       -0.0000133871  -0.0000104515   0.0000004381   0.0000241658   0.0000585616
       -0.0000035020   0.0000239125  -0.0000111046  -0.0000075996   0.0000399985
       -0.0000559184   0.0000966734   0.0000910584  -0.0000428147   0.0000501883
       -0.0000007450  -0.0000240723  -0.0000074223  -0.0000322915  -0.0000312438
        0.0000114388   0.0000035059   0.0000069590   0.0000107401  -0.0000046416
        0.0000073789   0.0000094090  -0.0000104783   0.0000099299   0.0000130821
       -0.0000149434  -0.0000043694   0.0000053699  -0.0000119844  -0.0000010615
        0.0000019756  -0.0000019149   0.0000115419   0.0000100248  -0.0000133907
        0.0000304123   0.0000006030  -0.0000373788   0.0000144635  -0.0000366317
        0.0001188582  -0.0001597813  -0.0000316140  -0.0003518421  -0.0004915830
       -0.0001057007   0.0000044597  -0.0000316546  -0.0000146807  -0.0000443218
       -0.0000034602   0.0000112013   0.0000164022   0.0000097723  -0.0000062273
       -0.0000099478  -0.0000002861  -0.0000131748  -0.0000014246   0.0000009272
        0.0000252241   0.0000124896   0.0000035743   0.0000020761   0.0000146043
        0.0000048575  -0.0000592046   0.0001380871   0.0000491416  -0.0000030755
       -0.0001837122   0.0000032626  -0.0000250758  -0.0000306114  -0.0000763978
        0.0000383103  -0.0000090642  -0.0002289131
       -0.1167823527   0.1713810452   0.0540373412   0.1081949564  -0.1606232249
       -0.0643151437   0.0061444416  -0.0122173123   0.0084798176  -0.0012647238
        0.0010545113   0.0012651328  -0.0000301522  -0.0005226274   0.0003838351
       -0.0007051597   0.0009882565  -0.0006380688   0.0001033906  -0.0001586881
        0.0000662693  -0.0000039049   0.0000165151   0.0000171678   0.0002043935
        0.0002612206   0.0001354667   0.0000752737  -0.0002695060  -0.0002297018
        0.0000055826   0.0000485634   0.0000375038   0.0000582786   0.0000333010
       -0.0000312537  -0.0000557804  -0.0000110820   0.0000519839   0.0000240311
       -0.0000276961  -0.0000439415   0.0000436230   0.0000583800  -0.0000066060
       -0.0000483613   0.0000977825   0.0001386881   0.0000306441  -0.0001065577
       -0.0001191711  -0.0000099520   0.0000246038   0.0000407970   0.0000077378
       -0.0000127212  -0.0000151637  -0.0000127157  -0.0000007005   0.0000174233
       -0.0000084402  -0.0000451623  -0.0000085650  -0.0000333607   0.0000793229
        0.0000091158   0.0000236012  -0.0001817767   0.0000667387   0.0003422796
        0.0000604505   0.0002227462  -0.0000008631  -0.0021375386  -0.0001494194
        0.0010161015   0.0007678028   0.0003865619  -0.0000415373   0.0002897853
        0.0000246768   0.0001359663  -0.0000912376  -0.0000941504   0.0000217725
        0.0001582139  -0.0000539758  -0.0000792350  -0.0000209359   0.0000116818
        0.0001962724  -0.0001815932   0.0000227376  -0.0001934931  -0.0000115697
       -0.0001617986   0.0000254961   0.0000452782   0.0000675676  -0.0000485307
        0.0000141953  -0.0000340185   0.0000152290  -0.0000222135  -0.0000032122
        0.0000111307  -0.0000039461   0.0000043695   0.0000344271  -0.0000948436
       -0.0000408165  -0.0000306049   0.0000718028   0.0000261658   0.0000568894
       -0.0000529170   0.0000211423   0.0000003972  -0.0000144540  -0.0000012666
        0.0000263837  -0.0000269681   0.0000155577  -0.0000171875   0.0000543863
        0.0000266066  -0.0000602352  -0.0000060294  -0.0000566528   0.0000530224
        0.0001523270   0.0001140187  -0.0001125520   0.0000909004   0.0000612692
       -0.0000719104  -0.0002439895   0.0001008384  -0.0005397608  -0.0025311229
       -0.0013120158   0.0014401572   0.0014483020  -0.0006104858  -0.0008159628
       -0.0008982106   0.0001388484   0.0010642619   0.0040754512   0.0020132365
       -0.0002654713  -0.0001819481   0.0008009687  -0.0000456571  -0.0003410632
       -0.0008162732   0.0000241098  -0.0001423451   0.0000429243   0.0000193790
        0.0000146261  -0.0000013384  -0.0000483605   0.0001084529   0.0001362668
       -0.0001057269  -0.0000982803  -0.0000677965   0.0000132260   0.0000573957
        0.0000320019  -0.0000524580  -0.0000194950   0.0000018389   0.0000513720
       -0.0000292585  -0.0000042418   0.0000156660   0.0000619459   0.0000257319
        0.0001249233  -0.0001637244  -0.0000589768  -0.0000951255   0.0001400831
        0.0000567920   0.0000183746   0.0000468943  -0.0000170248   0.0000220119
       -0.0000703337  -0.0000029003   0.0000891758   0.0000538326   0.0000249102
       -0.0001092163   0.0000056919   0.0000326930  -0.0000746880  -0.0000674406
        0.0000781673   0.0000351434  -0.0000973031  -0.0000586285  -0.0001367628
       -0.0000315358   0.0000707046  -0.0001432369   0.0001495270   0.0000916844
        0.0020875255   0.0003323346  -0.0004327825  -0.0000244888  -0.0000636167
       -0.0000256431   0.0000473290  -0.0000259701  -0.0000681260  -0.0000133134
        0.0000364857   0.0000429028  -0.0000043527   0.0000034608   0.0000051440
       -0.0000087397  -0.0000002776   0.0000079301   0.0000024731   0.0000069926
       -0.0000033941   0.0000037802   0.0000051246  -0.0000020180  -0.0000057832
        0.0000039877   0.0000040408  -0.0000091856   0.0000201672   0.0000070443
        0.0000559162  -0.0000228836  -0.0000182517   0.0001217014   0.0000195367
       -0.0000010675   0.0000518680  -0.0000399729  -0.0000102764   0.0000270528
        0.0000122460   0.0000000443  -0.0000047493  -0.0000049525  -0.0000187101
        0.0000069176   0.0000041414   0.0000054918   0.0000054999  -0.0000005149
        0.0000030707   0.0000042199  -0.0000023207   0.0000028353   0.0000055749
       -0.0000052938  -0.0000019772   0.0000016786  -0.0000027495  -0.0000016840
        0.0000017060   0.0000030934   0.0000027861   0.0000044236   0.0000017025
        0.0000060702  -0.0000075761  -0.0000128676   0.0000009493  -0.0000163541
        0.0000170576  -0.0000534745  -0.0001110628  -0.0002527216   0.0002023614
        0.0000931730  -0.0000328687   0.0000517087  -0.0000058727   0.0000005704
       -0.0000133587   0.0000029876   0.0000057242  -0.0000016023  -0.0000038216
       -0.0000025381  -0.0000030632  -0.0000041486   0.0000012222  -0.0000040443
        0.0000075573   0.0000066154  -0.0000049075   0.0000041635   0.0000062958
       -0.0000073482  -0.0000177598   0.0000509922  -0.0000252520  -0.0000091785
       -0.0000263356  -0.0001434733  -0.0000271141  -0.0000650316   0.0000080230
        0.0000123098  -0.0001303304   0.0000426696
       -0.3694635742   0.5005336319   0.1081949564   0.5057082524  -0.6173888364
       -0.1291826598  -0.1215461161   0.0824456553   0.0150550575  -0.0250890895
        0.0351780412   0.0036020274  -0.0024972572  -0.0037701039   0.0012180507
       -0.0022311252   0.0033709021  -0.0003366791  -0.0028020390  -0.0010990667
       -0.0001572819   0.0008271401   0.0009382517  -0.0001025176   0.0004377483
        0.0007941154   0.0000438998   0.0003782297  -0.0007628179  -0.0007456267
       -0.0003203926   0.0000702608   0.0002613634   0.0000233955  -0.0000994592
       -0.0001665655  -0.0000193800   0.0000869187   0.0000468517   0.0000857479
        0.0000495732  -0.0000817283   0.0001513793   0.0001998003  -0.0000341203
       -0.0001011363   0.0001947580   0.0001159390   0.0002020434  -0.0000753365
       -0.0000958879   0.0000316058   0.0001123470   0.0000565096   0.0000930456
        0.0000543751  -0.0000249761  -0.0001861588  -0.0000581101   0.0001427150
        0.0000390667  -0.0003234424  -0.0002869286  -0.0004882005   0.0002753568
        0.0005830806  -0.0001667745  -0.0025692474   0.0003283678   0.0030526861
        0.0011093899   0.0002816869  -0.0054237670  -0.0112877407   0.0010427223
        0.0022993464   0.0071822047  -0.0000293603   0.0003023044   0.0006833409
        0.0004333586   0.0009145001  -0.0005381460  -0.0001071137   0.0001286736
        0.0014592465  -0.0001791414   0.0004207174  -0.0009100945   0.0001140891
        0.0002799147  -0.0003674178   0.0000141524  -0.0008230466  -0.0000246678
       -0.0008658772   0.0001798179   0.0003531624   0.0004096108  -0.0003865249
        0.0002094627  -0.0002329898   0.0000907454  -0.0003521215  -0.0001464255
        0.0001711253   0.0000182406   0.0001727413   0.0000865440  -0.0007011339
       -0.0004084417  -0.0003742455   0.0005528218   0.0000118686   0.0005782817
       -0.0002508209   0.0004225584  -0.0000594233  -0.0001669030  -0.0001763571
        0.0003213592  -0.0001748899   0.0001804864  -0.0001191440   0.0005223942
        0.0001925176  -0.0003649341  -0.0000834259  -0.0004236769   0.0002033544
        0.0007671949   0.0007668554  -0.0011118793   0.0002789953   0.0000249011
        0.0000149238  -0.0010406601   0.0002425059  -0.0006670094  -0.0237006253
       -0.0024863005   0.0096583733   0.0106162885   0.0020537197  -0.0058955346
       -0.0069172727  -0.0013513962   0.0143642705   0.0271261775   0.0009013110
       -0.0000604383  -0.0016911249   0.0017477636  -0.0003368398  -0.0006894340
        0.0001444090  -0.0008858514   0.0001383830   0.0002533775  -0.0002607284
        0.0002540736  -0.0005822871   0.0004531163   0.0005291193   0.0000294423
       -0.0006384409  -0.0009100490  -0.0002194138  -0.0000549017   0.0003882842
        0.0000866423  -0.0002672942  -0.0001604851  -0.0000320850   0.0002528256
       -0.0001268639  -0.0000233121   0.0001159701   0.0002262175   0.0000492938
        0.0006246545  -0.0007083776  -0.0001198951  -0.0003995496   0.0006014045
        0.0001291816   0.0001644659   0.0001989448   0.0000316152   0.0001477337
       -0.0002530892  -0.0000569009   0.0004045311   0.0002262149   0.0000588238
       -0.0004663670   0.0002247063   0.0000267741  -0.0004553188  -0.0002963519
       -0.0000987940  -0.0000043163   0.0000171480  -0.0000038569   0.0003028477
        0.0000238344   0.0004058260  -0.0005123904  -0.0000509219   0.0001204560
        0.0003694361  -0.0005393353   0.0005571383   0.0000717207   0.0001297529
       -0.0000907518   0.0001164124  -0.0001222062  -0.0001389685  -0.0000002084
        0.0000153717   0.0000515579   0.0000238046   0.0000138656   0.0000063287
        0.0000017309   0.0000068856   0.0000302613   0.0000197765   0.0000089236
       -0.0000166374   0.0000171000   0.0000219928   0.0000078863  -0.0000079799
        0.0000035925   0.0000147477  -0.0000336521   0.0000633458   0.0001232331
        0.0001064230   0.0000496707   0.0000392918   0.0000665839   0.0001692560
        0.0000071696  -0.0000486145   0.0000350715  -0.0000214270   0.0000750634
       -0.0000295832  -0.0000614717  -0.0000293812  -0.0000097135  -0.0000471715
       -0.0000060341   0.0000069648   0.0000019568   0.0000212491  -0.0000121023
        0.0000157238   0.0000137746  -0.0000195585   0.0000085242   0.0000167770
       -0.0000217641  -0.0000076411   0.0000058250  -0.0000249818  -0.0000144792
       -0.0000001569   0.0000156125   0.0000069793   0.0000041250   0.0000202013
        0.0000398183  -0.0000019115  -0.0000548053   0.0000516143  -0.0000680105
        0.0001277007  -0.0001268710   0.0001194149  -0.0002615668  -0.0012945633
       -0.0000820766  -0.0000032604  -0.0000915288   0.0000227403  -0.0000932364
       -0.0000171580   0.0000257479   0.0000217853   0.0000103481  -0.0000028263
       -0.0000135825  -0.0000011520  -0.0000118484   0.0000167342   0.0000037698
        0.0000316091   0.0000061136   0.0000014278   0.0000400366   0.0000198191
        0.0000048774  -0.0000316372   0.0001449286   0.0000405524   0.0000180075
       -0.0000915228   0.0000211604  -0.0000182198   0.0000114407  -0.0000610825
        0.0001236507  -0.0000740107  -0.0002923758
        0.5021624070  -0.7705466156  -0.1606232249  -0.6173888364   1.0523862598
        0.1962843084   0.1050768615  -0.2002596168  -0.0258194179   0.0254632570
       -0.0209952357  -0.0019751019   0.0030287566   0.0062719137  -0.0014969144
       -0.0023886362  -0.0042661295  -0.0003582574   0.0031255496   0.0008195197
        0.0004782622  -0.0006952559  -0.0016472566   0.0003730691   0.0000011034
       -0.0008947218  -0.0001427677  -0.0005661632   0.0007454561   0.0004594513
        0.0000260227  -0.0001954828   0.0000645721  -0.0002111187  -0.0003265245
        0.0000277228   0.0003611886   0.0001321324  -0.0002602517  -0.0001175572
        0.0001785891   0.0003622854   0.0001334348  -0.0002008040  -0.0003221649
       -0.0000263765  -0.0005222762  -0.0003257952  -0.0002351299   0.0006273064
        0.0005326094   0.0001818526  -0.0001452653  -0.0003142830   0.0000669879
        0.0002651900   0.0001916218  -0.0001328092  -0.0001537796   0.0000429808
        0.0000604452   0.0000661396   0.0000231995   0.0001522477  -0.0004051403
       -0.0000301809   0.0007325332   0.0039787600  -0.0009472652  -0.0045212772
       -0.0019279049  -0.0001053434   0.0012875357   0.0208405246  -0.0013115711
       -0.0065773252  -0.0096547345   0.0001303831  -0.0001592222  -0.0006814004
       -0.0005028793  -0.0011042466   0.0008180117   0.0001162492  -0.0000308034
       -0.0016915017   0.0004966110  -0.0003046694   0.0009094164  -0.0001265118
       -0.0002581230   0.0002978074  -0.0000321108   0.0005816965   0.0001771533
        0.0004677908  -0.0000656192  -0.0002182750  -0.0002015111   0.0001148900
       -0.0000261841   0.0001023473  -0.0000391266   0.0000581678  -0.0000484838
       -0.0000209850   0.0000678779   0.0000624433  -0.0001157756   0.0001857183
        0.0000683621   0.0000274180  -0.0001051237  -0.0000642906  -0.0000657010
        0.0001124996  -0.0000362750  -0.0000519240   0.0000451574  -0.0000518733
       -0.0000974525   0.0000523100   0.0000238941   0.0000186090  -0.0002366071
       -0.0000868977   0.0002075317  -0.0000137501   0.0002082094  -0.0002751022
       -0.0003928744  -0.0003468475   0.0011644718  -0.0004654677  -0.0003364286
        0.0000943627   0.0012265004  -0.0003151836  -0.0032203634   0.0234087786
        0.0024941629  -0.0120341155  -0.0160418695  -0.0023104384   0.0071703422
        0.0090844443   0.0015302111   0.0005252928  -0.0883369786  -0.0072132474
        0.0012710381  -0.0008608032  -0.0018297987  -0.0006422668   0.0001987724
       -0.0011907289   0.0008046868   0.0001388384  -0.0003896246   0.0003461246
       -0.0002283503   0.0007137356  -0.0008413774  -0.0007751090  -0.0001105529
        0.0011011934   0.0014977139   0.0003979617   0.0000667941  -0.0007329122
       -0.0001879150   0.0006367390   0.0002482835   0.0000739440  -0.0005577464
        0.0002738405   0.0000896337  -0.0001842925  -0.0005187287  -0.0001336923
       -0.0011501820   0.0012988052   0.0002900528   0.0009162809  -0.0008826682
       -0.0001847244  -0.0005113919  -0.0005212835  -0.0001573337  -0.0002243540
        0.0005588835   0.0001458435  -0.0007677698  -0.0004085615  -0.0001409684
        0.0009544435  -0.0003072692  -0.0000491107   0.0005576811   0.0006041126
        0.0002072525   0.0002030111  -0.0002337740  -0.0000864330  -0.0004822878
       -0.0000371733  -0.0004136513   0.0004512893  -0.0002615463   0.0000818223
       -0.0024278309  -0.0013596000   0.0030420624  -0.0000204078  -0.0003468677
        0.0002132899  -0.0001874587   0.0001813765   0.0000806931   0.0000402120
       -0.0000697154  -0.0001457088   0.0000130049  -0.0000130879  -0.0000444087
       -0.0000123912   0.0000029074  -0.0000327953  -0.0000169658  -0.0000305334
        0.0000124061  -0.0000317233   0.0000061918   0.0000263167  -0.0000150826
        0.0000253607   0.0000106944   0.0000194202  -0.0000261445  -0.0000971429
        0.0000062360  -0.0000644495  -0.0000263808   0.0000177241  -0.0000384277
        0.0001082218  -0.0001359908  -0.0001577628   0.0000584266  -0.0000802010
        0.0000118590   0.0000366390   0.0000144613   0.0000404719   0.0000501988
       -0.0000136090  -0.0000091741  -0.0000102676  -0.0000179805   0.0000096627
       -0.0000125232  -0.0000106037   0.0000179107  -0.0000135642  -0.0000194850
        0.0000204944   0.0000062736  -0.0000075757   0.0000225180   0.0000042408
        0.0000021008   0.0000008552  -0.0000133691  -0.0000168376   0.0000152513
       -0.0000458741  -0.0000029399   0.0000689362  -0.0000259889   0.0000920110
       -0.0001337165   0.0002060846  -0.0005807265   0.0001080477   0.0002167200
        0.0002366031   0.0000243997   0.0000775539   0.0000133957   0.0000769071
        0.0000118251  -0.0000172091  -0.0000212005  -0.0000145746   0.0000077804
        0.0000143426  -0.0000013455   0.0000175394  -0.0000061086  -0.0000033822
       -0.0000438652  -0.0000183779  -0.0000045891  -0.0000368452  -0.0000194460
       -0.0000052482   0.0000831000  -0.0002190248  -0.0000636867   0.0000198149
        0.0002813212   0.0000043944   0.0001034463   0.0000360955   0.0001100758
        0.0000001833   0.0001135427   0.0003237919
        0.1072521024  -0.1588816408  -0.0643151437  -0.1291826598   0.1962843084
        0.1067600480   0.0193835465  -0.0286606446  -0.0430484199   0.0039443149
       -0.0043028148  -0.0008554237   0.0000309963   0.0010787225  -0.0011511668
        0.0020500146  -0.0008308366   0.0002325739   0.0004035551   0.0003471839
        0.0000643821   0.0001879536   0.0002587542  -0.0000549684  -0.0006199394
       -0.0006719360  -0.0001219180  -0.0000991426   0.0005297471   0.0004398824
        0.0001017862  -0.0000773746  -0.0001409268   0.0000017974   0.0000857091
        0.0000760662  -0.0000227710  -0.0000513872  -0.0000064261  -0.0000190491
       -0.0000199209   0.0000102119  -0.0001817245  -0.0001455948   0.0000816997
        0.0001374042  -0.0000198775  -0.0001027904  -0.0000945519  -0.0000374358
        0.0000275834  -0.0000306031  -0.0000242812   0.0000026622  -0.0000592776
       -0.0000738984  -0.0000160343   0.0001236406   0.0000536535  -0.0000838060
       -0.0000266506   0.0001311072   0.0001286168   0.0003002589  -0.0000658328
       -0.0002495596  -0.0001686567   0.0001159802  -0.0000368908  -0.0004350186
       -0.0002146709  -0.0005292769   0.0004355723   0.0036692601   0.0027777852
       -0.0007294269  -0.0011629903  -0.0016991020  -0.0002643418  -0.0003600158
       -0.0003297114   0.0000438521   0.0000823487   0.0003807657  -0.0001547093
       -0.0000474040   0.0000717811   0.0003474347  -0.0001937424  -0.0000011069
       -0.0005545113   0.0005398059   0.0000130028   0.0004044171   0.0000116030
        0.0003372401  -0.0000603486  -0.0001274555  -0.0001711729   0.0001457478
       -0.0000726887   0.0000827963  -0.0000541291   0.0001233458   0.0000277622
       -0.0000608437   0.0000060123  -0.0000483374  -0.0000722822   0.0002218644
        0.0000901769   0.0000955563  -0.0001468542  -0.0000116151  -0.0001867922
        0.0001368767  -0.0000884856   0.0000068349   0.0000622176   0.0000375343
       -0.0001042223   0.0000826244  -0.0000435955   0.0000503019  -0.0001875148
       -0.0000645945   0.0001615206   0.0000180989   0.0001599965  -0.0000919345
       -0.0004001626  -0.0003076836   0.0001267455  -0.0001450016  -0.0001076847
        0.0002479341   0.0003893169  -0.0002271501  -0.0002384958   0.0037889906
        0.0060899488  -0.0021796263  -0.0021657048   0.0023223324   0.0013252141
        0.0013329851  -0.0006069279  -0.0005738871  -0.0106869838  -0.0018368341
       -0.0001977102  -0.0000695214  -0.0032467010  -0.0006576580  -0.0002214675
        0.0003956940  -0.0000196022   0.0002734796  -0.0001755763  -0.0000822412
        0.0000156134   0.0000883254   0.0002835893  -0.0001640880  -0.0000967968
        0.0000002964  -0.0000774930   0.0000159298  -0.0000444066   0.0000579154
        0.0000068436  -0.0000643449  -0.0000191974  -0.0000157922   0.0000421969
       -0.0000086263  -0.0000131322   0.0000091758   0.0000090835  -0.0000040167
       -0.0000147095   0.0000741163   0.0000197995  -0.0000464711  -0.0001542103
       -0.0000520480   0.0001063074   0.0000511084   0.0000437619   0.0000002966
       -0.0000080322  -0.0000110728   0.0000027190  -0.0000243028  -0.0000042672
       -0.0000016315   0.0000204107  -0.0000000772   0.0000592758  -0.0000708666
       -0.0000519895  -0.0001399535   0.0003109919   0.0000815011   0.0000033953
        0.0002020271  -0.0000926984   0.0008169323  -0.0000048745  -0.0001265304
        0.0000179879   0.0004258732  -0.0001038353   0.0000168831   0.0000298158
        0.0000228509  -0.0000420016   0.0000280262   0.0000621651   0.0000093874
       -0.0000199858  -0.0000296869  -0.0000023390  -0.0000000280  -0.0000005513
        0.0000045214  -0.0000028184  -0.0000112944  -0.0000081324  -0.0000061915
        0.0000049265  -0.0000043904  -0.0000094817  -0.0000058093   0.0000095680
       -0.0000040758  -0.0000097248   0.0000087845  -0.0000213900  -0.0000275160
       -0.0001145231   0.0000504903   0.0000545729  -0.0002609191  -0.0002094520
        0.0000098800  -0.0001651388   0.0001787315  -0.0000120934  -0.0000829602
       -0.0000424493  -0.0000274521   0.0000089557   0.0000095032   0.0000329067