 Entering Gaussian System
 *********************************************
 Gaussian 98:
 frequency output generated by the xtb code
 *********************************************
                         Standard orientation:
 --------------------------------------------------------------------
  Center     Atomic     Atomic              Coordinates (Angstroms)
  Number     Number      Type              X           Y           Z
 --------------------------------------------------------------------
    1          6             0       -7.878398   -4.036240   -0.036293
    2          6             0       -6.581376   -3.784918    0.362315
    3          6             0       -6.076181   -2.493938    0.332971
    4          6             0       -6.857087   -1.432948   -0.108133
    5          6             0       -8.184393   -1.693681   -0.473862
    6          6             0       -8.682696   -2.983115   -0.445164
    7          8             0       -9.052490   -0.702051   -0.854965
    8          6             0       -8.576643    0.584948   -0.870488
    9          6             0       -9.462724    1.573464   -1.257049
   10          6             0       -9.048281    2.894558   -1.334447
   11          6             0       -7.737841    3.213320   -1.041935
   12          6             0       -6.846018    2.226109   -0.651092
   13          6             0       -7.254185    0.903338   -0.534235
   14          7             0       -6.380408   -0.118619   -0.147837
   15          6             0       -5.048618    0.170774    0.201997
   16          6             0       -4.771356    1.012723    1.279872
   17          6             0       -3.467760    1.296250    1.622519
   18          6             0       -2.416182    0.738690    0.892299
   19          6             0       -1.057896    1.041295    1.266505
   20          7             0       -0.668887    1.817796    2.237610
   21          7             0        0.667439    1.817403    2.238948
   22          6             0        1.058009    1.041128    1.268369
   23          6             0        2.416752    0.738798    0.895726
   24          6             0        2.693241   -0.094861   -0.188212
   25          6             0        3.999323   -0.373840   -0.529943
   26          6             0        5.049786    0.171949    0.206501
   27          7             0        6.381582   -0.117210   -0.143125
   28          6             0        7.258496    0.905661   -0.520056
   29          6             0        6.855762    2.231464   -0.620483
   30          6             0        7.750853    3.219405   -1.001867
   31          6             0        9.059268    2.898661   -1.301209
   32          6             0        9.468190    1.575010   -1.240413
   33          6             0        8.578785    0.585795   -0.863350
   34          8             0        9.049333   -0.703280   -0.864594
   35          6             0        8.177672   -1.695955   -0.494771
   36          6             0        8.670004   -2.987987   -0.485097
   37          6             0        7.862041   -4.042798   -0.088035
   38          6             0        6.567570   -3.790785    0.318385
   39          6             0        6.068346   -2.497212    0.307963
   40          6             0        6.852611   -1.434059   -0.121901
   41          6             0        4.771585    1.004684    1.291311
   42          6             0        3.467702    1.287914    1.633226
   43          8             0        0.000567    0.512318    0.605348
   44          6             0       -2.691737   -0.103795   -0.185040
   45          6             0       -3.997617   -0.383581   -0.527164
   46          1             0       -8.274756   -5.039096   -0.020250
   47          1             0       -5.949381   -4.589694    0.704970
   48          1             0       -5.067027   -2.310645    0.666856
   49          1             0       -9.707410   -3.140189   -0.741595
   50          1             0      -10.473116    1.285663   -1.499693
   51          1             0       -9.747318    3.659306   -1.633739
   52          1             0       -7.393292    4.233041   -1.118076
   53          1             0       -5.820589    2.488748   -0.443968
   54          1             0       -5.588708    1.431455    1.847660
   55          1             0       -3.234800    1.938576    2.456394
   56          1             0        1.880114   -0.512372   -0.762580
   57          1             0        4.218285   -1.010155   -1.374612
   58          1             0        5.831976    2.496137   -0.407971
   59          1             0        7.410444    4.241384   -1.065304
   60          1             0        9.760802    3.663947   -1.593145
   61          1             0       10.476674    1.285614   -1.488993
   62          1             0        9.693018   -3.145722   -0.786963
   63          1             0        8.253620   -5.047653   -0.087087
   64          1             0        5.932917   -4.597120    0.652346
   65          1             0        5.061178   -2.313779    0.647715
   66          1             0        5.588344    1.416182    1.865210
   67          1             0        3.234035    1.923343    2.472188
   68          1             0       -1.878064   -0.527936   -0.753778
   69          1             0       -4.215949   -1.027234   -1.366429
 --------------------------------------------------------------------
     1 basis functions        1 primitive gaussians
     1 alpha electrons        1 beta electrons
 
 Harmonic frequencies (cm**-1), IR intensities (km*mol⁻¹),
 Raman scattering activities (A**4/amu), Raman depolarization ratios,
 reduced masses (AMU), force constants (mDyne/A) and normal coordinates:
                      1                      2                      3
                        a                      a                      a 
 Frequencies --     8.2449                 8.8725                14.4187
 Red. masses --    10.8834                11.5941                12.0204
 Frc consts  --     0.0000                 0.0000                 0.0000
 IR Inten    --     0.0681                 0.0009                 0.0095
 Raman Activ --     0.0000                 0.0000                 0.0000
 Depolar     --     0.0000                 0.0000                 0.0000
 Atom AN      X      Y      Z        X      Y      Z        X      Y      Z
   1   6     0.06  -0.02  -0.27    -0.17   0.07   0.03    -0.16   0.04   0.10
   2   6     0.06  -0.03  -0.26    -0.17   0.02   0.06    -0.12   0.00  -0.00
   3   6     0.04  -0.02  -0.17    -0.12   0.00   0.05    -0.08  -0.01  -0.05
   4   6     0.02  -0.00  -0.09    -0.06   0.03   0.01    -0.08   0.01   0.00
   5   6     0.02   0.00  -0.10    -0.06   0.07  -0.03    -0.12   0.05   0.11
   6   6     0.04  -0.01  -0.18    -0.11   0.10  -0.02    -0.15   0.06   0.15
   7   8     0.00   0.02  -0.02    -0.01   0.12  -0.09    -0.13   0.08   0.19
   8   6    -0.02   0.02   0.07     0.05   0.08  -0.09    -0.08   0.06   0.12
   9   6    -0.04   0.04   0.15     0.10   0.11  -0.14    -0.08   0.08   0.19
  10   6    -0.06   0.05   0.24     0.16   0.09  -0.15    -0.04   0.07   0.15
  11   6    -0.06   0.05   0.24     0.17   0.04  -0.12    -0.01   0.03   0.04
  12   6    -0.04   0.04   0.16     0.11   0.01  -0.06    -0.01   0.00  -0.02
  13   6    -0.02   0.02   0.08     0.05   0.03  -0.05    -0.04   0.02   0.02
  14   7     0.00   0.01  -0.01    -0.01   0.01   0.00    -0.05  -0.01  -0.04
  15   6    -0.00   0.00  -0.00    -0.00  -0.04   0.03    -0.03  -0.03  -0.07
  16   6     0.00  -0.05   0.04    -0.00  -0.04   0.03     0.00  -0.03  -0.08
  17   6     0.00  -0.05   0.04     0.00  -0.07   0.05     0.01  -0.05  -0.10
  18   6     0.00  -0.00   0.00    -0.00  -0.11   0.08    -0.01  -0.06  -0.13
  19   6     0.00  -0.00   0.00     0.00  -0.13   0.09    -0.00  -0.07  -0.14
  20   7     0.00  -0.00   0.00     0.00  -0.14   0.10     0.00  -0.08  -0.15
  21   7     0.00   0.00  -0.00     0.00  -0.14   0.10    -0.00  -0.08  -0.15
  22   6     0.00   0.00  -0.00     0.00  -0.13   0.09    -0.00  -0.07  -0.14
  23   6     0.00   0.00  -0.00     0.00  -0.11   0.08     0.01  -0.07  -0.13
  24   6    -0.00  -0.05   0.04     0.00  -0.12   0.09     0.04  -0.06  -0.12
  25   6    -0.00  -0.05   0.04     0.00  -0.09   0.07     0.05  -0.04  -0.09
  26   6    -0.00  -0.00   0.00     0.00  -0.04   0.03     0.03  -0.03  -0.07
  27   7     0.00  -0.01   0.01     0.01   0.01   0.00     0.05  -0.01  -0.04
  28   6    -0.02  -0.02  -0.08    -0.05   0.03  -0.05     0.04   0.02   0.02
  29   6    -0.04  -0.03  -0.16    -0.11   0.02  -0.06     0.01   0.00  -0.02
  30   6    -0.06  -0.05  -0.24    -0.17   0.04  -0.12     0.00   0.03   0.04
  31   6    -0.06  -0.05  -0.24    -0.16   0.09  -0.16     0.04   0.07   0.15
  32   6    -0.04  -0.04  -0.15    -0.10   0.11  -0.14     0.07   0.08   0.19
  33   6    -0.02  -0.02  -0.07    -0.05   0.08  -0.09     0.08   0.06   0.12
  34   8     0.00  -0.02   0.02     0.01   0.12  -0.09     0.13   0.08   0.19
  35   6     0.02  -0.00   0.10     0.06   0.07  -0.03     0.12   0.05   0.11
  36   6     0.04   0.00   0.18     0.11   0.09  -0.02     0.16   0.06   0.15
  37   6     0.06   0.02   0.27     0.17   0.07   0.03     0.16   0.04   0.10
  38   6     0.06   0.03   0.26     0.17   0.02   0.06     0.12   0.00  -0.00
  39   6     0.04   0.02   0.17     0.12   0.00   0.06     0.08  -0.01  -0.05
  40   6     0.02   0.00   0.09     0.06   0.03   0.01     0.08   0.01   0.00
  41   6     0.00   0.05  -0.04     0.00  -0.03   0.03    -0.01  -0.03  -0.08
  42   6     0.00   0.05  -0.04    -0.00  -0.07   0.05    -0.02  -0.05  -0.10
  43   8     0.00   0.00  -0.00     0.00  -0.15   0.11    -0.00  -0.09  -0.16
  44   6    -0.00   0.05  -0.04    -0.00  -0.12   0.09    -0.04  -0.06  -0.12
  45   6    -0.00   0.05  -0.04    -0.00  -0.09   0.07    -0.05  -0.04  -0.09
  46   1     0.02  -0.01  -0.10    -0.06   0.03   0.01    -0.05   0.02   0.04
  47   1     0.02  -0.01  -0.09    -0.06   0.00   0.03    -0.03  -0.00  -0.01
  48   1     0.01  -0.01  -0.05    -0.03  -0.01   0.02    -0.01  -0.01  -0.04
  49   1     0.01  -0.00  -0.05    -0.03   0.04  -0.01    -0.05   0.03   0.07
  50   1    -0.01   0.01   0.04     0.03   0.04  -0.05    -0.03   0.03   0.08
  51   1    -0.02   0.02   0.09     0.06   0.03  -0.06    -0.01   0.03   0.06
  52   1    -0.02   0.02   0.09     0.06   0.01  -0.04     0.01   0.01   0.00
  53   1    -0.01   0.01   0.05     0.03  -0.01  -0.01     0.00  -0.01  -0.03
  54   1     0.00  -0.03   0.02    -0.00  -0.00   0.00     0.01  -0.01  -0.02
  55   1     0.00  -0.03   0.02     0.00  -0.02   0.01     0.01  -0.02  -0.03
  56   1    -0.00  -0.03   0.02     0.00  -0.05   0.03     0.02  -0.02  -0.04
  57   1    -0.00  -0.03   0.02     0.00  -0.03   0.02     0.02  -0.01  -0.03
  58   1    -0.01  -0.01  -0.05    -0.03  -0.01  -0.01    -0.01  -0.01  -0.03
  59   1    -0.02  -0.02  -0.09    -0.06   0.01  -0.04    -0.01   0.01   0.00
  60   1    -0.02  -0.02  -0.09    -0.06   0.03  -0.06     0.01   0.03   0.06
  61   1    -0.01  -0.01  -0.04    -0.03   0.04  -0.05     0.03   0.03   0.08
  62   1     0.01  -0.00   0.05     0.03   0.04  -0.01     0.05   0.03   0.07
  63   1     0.02   0.01   0.10     0.06   0.02   0.01     0.06   0.01   0.04
  64   1     0.02   0.01   0.09     0.06   0.00   0.03     0.03  -0.00  -0.01
  65   1     0.01   0.01   0.05     0.03  -0.01   0.02     0.01  -0.01  -0.04
  66   1     0.00   0.03  -0.02     0.00   0.00   0.00    -0.01  -0.01  -0.02
  67   1     0.00   0.03  -0.02    -0.00  -0.02   0.01    -0.01  -0.02  -0.03
  68   1    -0.00   0.03  -0.02    -0.00  -0.04   0.03    -0.02  -0.02  -0.04
  69   1    -0.00   0.03  -0.02    -0.00  -0.03   0.02    -0.02  -0.01  -0.03
                      4                      5                      6
                        a                      a                      a 
 Frequencies --    24.2838                26.5857                35.9510
 Red. masses --    11.2156                11.3869                11.6370
 Frc consts  --     0.0000                 0.0000                 0.0000
 IR Inten    --     0.0100                 0.0597                 0.7378
 Raman Activ --     0.0000                 0.0000                 0.0000
 Depolar     --     0.0000                 0.0000                 0.0000
 Atom AN      X      Y      Z        X      Y      Z        X      Y      Z
   1   6    -0.14  -0.02  -0.09    -0.13  -0.01   0.02    -0.03   0.02   0.03
   2   6    -0.16  -0.07  -0.00    -0.07  -0.07  -0.14    -0.09   0.05   0.19
   3   6    -0.12  -0.08   0.06    -0.01  -0.10  -0.19    -0.10   0.06   0.20
   4   6    -0.06  -0.05   0.04    -0.02  -0.05  -0.07    -0.06   0.03   0.06
   5   6    -0.04   0.00  -0.06    -0.07   0.01   0.09    -0.01  -0.01  -0.10
   6   6    -0.09   0.01  -0.12    -0.13   0.04   0.13     0.00  -0.01  -0.11
   7   8     0.02   0.04  -0.10    -0.09   0.06   0.24     0.03  -0.03  -0.28
   8   6     0.06   0.02  -0.04    -0.01   0.03   0.10    -0.03  -0.01  -0.09
   9   6     0.12   0.06  -0.09     0.01   0.07   0.17    -0.03  -0.02  -0.10
  10   6     0.17   0.04  -0.04     0.08   0.04   0.07    -0.09   0.01   0.04
  11   6     0.16  -0.01   0.06     0.13  -0.03  -0.09    -0.13   0.04   0.19
  12   6     0.10  -0.04   0.10     0.12  -0.07  -0.15    -0.12   0.05   0.20
  13   6     0.05  -0.03   0.06     0.05  -0.04  -0.06    -0.07   0.02   0.06
  14   7    -0.02  -0.07   0.11     0.04  -0.08  -0.13    -0.07   0.03   0.07
  15   6    -0.01  -0.12   0.13     0.03  -0.09  -0.10    -0.05   0.01   0.03
  16   6    -0.00  -0.13   0.13     0.01  -0.08  -0.09     0.00   0.01   0.02
  17   6     0.00  -0.12   0.12    -0.01  -0.07  -0.06     0.02  -0.02  -0.03
  18   6    -0.01  -0.11   0.10     0.01  -0.06  -0.05    -0.01  -0.04  -0.07
  19   6    -0.00  -0.06   0.05     0.00  -0.03  -0.02    -0.00  -0.05  -0.10
  20   7     0.00  -0.04   0.03    -0.04  -0.02  -0.01     0.00  -0.02  -0.14
  21   7     0.00   0.04  -0.03    -0.04   0.02   0.01    -0.00  -0.02  -0.14
  22   6    -0.00   0.06  -0.05     0.00   0.03   0.02     0.00  -0.05  -0.11
  23   6    -0.01   0.11  -0.10     0.01   0.06   0.04     0.01  -0.04  -0.07
  24   6    -0.01   0.12  -0.11     0.04   0.06   0.05     0.07  -0.05  -0.04
  25   6    -0.02   0.13  -0.13     0.05   0.07   0.08     0.09  -0.03   0.01
  26   6    -0.01   0.12  -0.13     0.03   0.08   0.10     0.05   0.01   0.03
  27   7    -0.02   0.07  -0.11     0.04   0.08   0.13     0.07   0.03   0.07
  28   6     0.05   0.03  -0.06     0.05   0.04   0.06     0.07   0.02   0.06
  29   6     0.10   0.04  -0.11     0.12   0.07   0.15     0.12   0.05   0.20
  30   6     0.16   0.00  -0.06     0.13   0.03   0.09     0.13   0.04   0.19
  31   6     0.17  -0.04   0.04     0.08  -0.04  -0.07     0.09   0.01   0.04
  32   6     0.12  -0.06   0.09     0.01  -0.06  -0.17     0.04  -0.02  -0.10
  33   6     0.06  -0.02   0.04    -0.01  -0.03  -0.10     0.03  -0.01  -0.09
  34   8     0.02  -0.04   0.11    -0.09  -0.06  -0.23    -0.03  -0.03  -0.28
  35   6    -0.04  -0.00   0.06    -0.07  -0.01  -0.08     0.01  -0.00  -0.09
  36   6    -0.08  -0.02   0.12    -0.13  -0.03  -0.13    -0.00  -0.01  -0.11
  37   6    -0.14   0.02   0.09    -0.13   0.01  -0.02     0.03   0.02   0.04
  38   6    -0.16   0.07   0.00    -0.07   0.07   0.14     0.09   0.05   0.19
  39   6    -0.12   0.08  -0.06    -0.01   0.09   0.19     0.10   0.05   0.20
  40   6    -0.06   0.05  -0.04    -0.02   0.05   0.07     0.06   0.03   0.06
  41   6    -0.00   0.13  -0.14     0.01   0.08   0.09    -0.00   0.01   0.02
  42   6     0.00   0.12  -0.12    -0.01   0.07   0.06    -0.02  -0.02  -0.04
  43   8    -0.01   0.00   0.00     0.03  -0.00  -0.00     0.00  -0.08  -0.10
  44   6    -0.01  -0.12   0.11     0.04  -0.06  -0.05    -0.07  -0.06  -0.04
  45   6    -0.02  -0.13   0.13     0.05  -0.07  -0.08    -0.09  -0.03   0.01
  46   1    -0.05  -0.00  -0.04    -0.05   0.00   0.02    -0.01   0.00   0.01
  47   1    -0.06  -0.03   0.01    -0.02  -0.03  -0.07    -0.03   0.02   0.09
  48   1    -0.04  -0.04   0.04     0.01  -0.04  -0.09    -0.04   0.02   0.09
  49   1    -0.02   0.02  -0.06    -0.05   0.03   0.08     0.01  -0.01  -0.07
  50   1     0.04   0.03  -0.05    -0.01   0.03   0.09     0.00  -0.01  -0.06
  51   1     0.06   0.02  -0.02     0.03   0.02   0.04    -0.03  -0.00   0.01
  52   1     0.06  -0.00   0.03     0.05  -0.02  -0.05    -0.05   0.02   0.09
  53   1     0.03  -0.02   0.05     0.04  -0.04  -0.08    -0.04   0.03   0.09
  54   1     0.00  -0.04   0.04    -0.00  -0.03  -0.03     0.01   0.01   0.02
  55   1     0.00  -0.04   0.03    -0.01  -0.02  -0.02     0.02  -0.00  -0.01
  56   1    -0.01   0.03  -0.03     0.02   0.01   0.01     0.03  -0.02  -0.02
  57   1    -0.01   0.04  -0.04     0.02   0.02   0.03     0.04  -0.01   0.01
  58   1     0.03   0.02  -0.05     0.04   0.03   0.08     0.04   0.02   0.09
  59   1     0.06   0.00  -0.03     0.05   0.01   0.05     0.05   0.02   0.09
  60   1     0.06  -0.02   0.02     0.03  -0.02  -0.04     0.03  -0.00   0.01
  61   1     0.04  -0.03   0.05    -0.01  -0.03  -0.08    -0.00  -0.01  -0.06
  62   1    -0.02  -0.02   0.06    -0.05  -0.02  -0.08    -0.01  -0.01  -0.07
  63   1    -0.05   0.00   0.04    -0.05  -0.00  -0.02     0.01   0.00   0.01
  64   1    -0.06   0.03  -0.01    -0.02   0.03   0.07     0.03   0.02   0.09
  65   1    -0.04   0.04  -0.04     0.01   0.04   0.09     0.04   0.02   0.09
  66   1     0.00   0.04  -0.04    -0.00   0.02   0.03    -0.01   0.01   0.02
  67   1     0.00   0.04  -0.03    -0.01   0.02   0.02    -0.02  -0.00  -0.01
  68   1    -0.01  -0.03   0.03     0.02  -0.01  -0.01    -0.03  -0.02  -0.02
  69   1    -0.01  -0.04   0.04     0.02  -0.02  -0.03    -0.04  -0.01   0.01
                      7                      8                      9
                        a                      a                      a 
 Frequencies --    41.8468                50.2709                59.8822
 Red. masses --    12.3820                11.9199                11.9023
 Frc consts  --     0.0000                 0.0000                 0.0000
 IR Inten    --     2.0583                 0.0128                 1.1943
 Raman Activ --     0.0000                 0.0000                 0.0000
 Depolar     --     0.0000                 0.0000                 0.0000
 Atom AN      X      Y      Z        X      Y      Z        X      Y      Z
   1   6     0.07   0.04   0.16     0.09  -0.03  -0.19     0.04  -0.02  -0.15
   2   6     0.08   0.08   0.10     0.09  -0.03  -0.20     0.02  -0.01  -0.12
   3   6     0.06   0.09   0.01     0.05  -0.01  -0.07    -0.03   0.01   0.01
   4   6     0.03   0.05  -0.03    -0.00   0.01   0.07    -0.06   0.02   0.11
   5   6     0.03   0.01   0.02    -0.01   0.01   0.09    -0.05   0.01   0.08
   6   6     0.04   0.01   0.12     0.04  -0.01  -0.04    -0.00  -0.01  -0.05
   7   8     0.01  -0.03  -0.05    -0.07   0.02   0.28    -0.10   0.01   0.20
   8   6    -0.03  -0.01  -0.05    -0.03   0.00   0.09    -0.06   0.00   0.05
   9   6    -0.06  -0.03  -0.03     0.00  -0.02  -0.05    -0.02  -0.03  -0.13
  10   6    -0.10  -0.02  -0.02     0.04  -0.04  -0.21     0.00  -0.04  -0.23
  11   6    -0.11   0.02  -0.03     0.04  -0.04  -0.22    -0.02  -0.02  -0.15
  12   6    -0.07   0.05  -0.05     0.01  -0.01  -0.08    -0.06   0.01   0.02
  13   6    -0.03   0.03  -0.07    -0.03   0.01   0.06    -0.08   0.02   0.10
  14   7     0.01   0.06  -0.12    -0.05   0.04   0.20    -0.12   0.05   0.25
  15   6     0.00   0.07  -0.10    -0.04   0.05   0.13    -0.08   0.04   0.12
  16   6    -0.00  -0.01  -0.03    -0.02   0.07   0.11     0.00   0.00   0.13
  17   6    -0.00  -0.07   0.02    -0.01   0.07   0.08     0.03  -0.02   0.05
  18   6    -0.00  -0.04   0.00    -0.03   0.06   0.06    -0.02   0.00  -0.05
  19   6    -0.00  -0.13   0.08    -0.01   0.03   0.03    -0.00  -0.04  -0.08
  20   7    -0.00  -0.38   0.28     0.04   0.02   0.02     0.00  -0.14  -0.00
  21   7    -0.00  -0.38   0.28     0.04  -0.03  -0.02    -0.00  -0.14  -0.00
  22   6    -0.00  -0.13   0.08    -0.01  -0.03  -0.03     0.00  -0.03  -0.08
  23   6     0.00  -0.04   0.00    -0.03  -0.06  -0.06     0.02   0.00  -0.04
  24   6    -0.00   0.07  -0.08    -0.05  -0.06  -0.07     0.10   0.07  -0.07
  25   6    -0.01   0.12  -0.13    -0.06  -0.06  -0.10     0.13   0.09   0.01
  26   6    -0.00   0.07  -0.09    -0.04  -0.05  -0.13     0.08   0.04   0.12
  27   7    -0.01   0.06  -0.11    -0.05  -0.03  -0.20     0.12   0.04   0.25
  28   6     0.03   0.03  -0.07    -0.02  -0.01  -0.06     0.08   0.02   0.10
  29   6     0.07   0.04  -0.05     0.01   0.01   0.08     0.06   0.01   0.02
  30   6     0.11   0.02  -0.04     0.05   0.03   0.21     0.02  -0.02  -0.15
  31   6     0.10  -0.02  -0.03     0.04   0.04   0.20    -0.00  -0.04  -0.24
  32   6     0.06  -0.03  -0.03     0.01   0.02   0.05     0.02  -0.03  -0.13
  33   6     0.03  -0.01  -0.05    -0.03  -0.00  -0.09     0.07   0.00   0.05
  34   8    -0.01  -0.02  -0.04    -0.07  -0.02  -0.28     0.10   0.01   0.20
  35   6    -0.03   0.01   0.02    -0.01  -0.01  -0.09     0.05   0.01   0.08
  36   6    -0.04   0.01   0.12     0.04   0.01   0.04     0.00  -0.01  -0.05
  37   6    -0.07   0.04   0.16     0.09   0.03   0.19    -0.04  -0.02  -0.15
  38   6    -0.08   0.08   0.10     0.09   0.03   0.20    -0.03  -0.01  -0.12
  39   6    -0.06   0.09   0.01     0.05   0.01   0.07     0.03   0.01   0.01
  40   6    -0.03   0.05  -0.03    -0.00  -0.01  -0.07     0.06   0.02   0.11
  41   6     0.00  -0.01  -0.03    -0.02  -0.07  -0.11    -0.00  -0.00   0.14
  42   6     0.00  -0.07   0.02    -0.01  -0.07  -0.08    -0.03  -0.03   0.05
  43   8     0.00   0.01  -0.04    -0.05   0.00  -0.00     0.00   0.03  -0.15
  44   6     0.01   0.07  -0.09    -0.05   0.06   0.07    -0.10   0.07  -0.07
  45   6     0.01   0.12  -0.13    -0.06   0.06   0.10    -0.13   0.09   0.01
  46   1     0.02   0.01   0.07     0.04  -0.01  -0.09     0.02  -0.01  -0.07
  47   1     0.03   0.03   0.04     0.04  -0.01  -0.09     0.01  -0.01  -0.05
  48   1     0.02   0.03  -0.01     0.01  -0.00  -0.02    -0.01   0.01   0.01
  49   1     0.01  -0.01   0.04     0.01  -0.00  -0.01     0.00  -0.01  -0.02
  50   1    -0.02  -0.02  -0.00    -0.00  -0.01  -0.01    -0.00  -0.01  -0.05
  51   1    -0.04  -0.01  -0.00     0.02  -0.02  -0.09     0.01  -0.02  -0.11
  52   1    -0.04   0.01  -0.01     0.02  -0.02  -0.09    -0.00  -0.01  -0.06
  53   1    -0.02   0.02  -0.02     0.00  -0.00  -0.02    -0.02   0.00   0.03
  54   1    -0.00  -0.01  -0.00    -0.00   0.02   0.03     0.01  -0.00   0.06
  55   1    -0.00  -0.04   0.03     0.00   0.02   0.02     0.03  -0.02   0.02
  56   1    -0.00   0.03  -0.03    -0.02  -0.02  -0.01     0.04   0.03  -0.05
  57   1    -0.00   0.05  -0.05    -0.02  -0.02  -0.03     0.06   0.04  -0.00
  58   1     0.02   0.02  -0.02     0.00   0.00   0.02     0.02   0.00   0.03
  59   1     0.04   0.01  -0.01     0.02   0.01   0.09     0.00  -0.01  -0.06
  60   1     0.04  -0.01  -0.00     0.02   0.02   0.09    -0.01  -0.02  -0.11
  61   1     0.02  -0.02  -0.00     0.00   0.01   0.01     0.00  -0.01  -0.05
  62   1    -0.01  -0.01   0.04     0.01   0.00   0.01    -0.00  -0.01  -0.02
  63   1    -0.02   0.01   0.07     0.04   0.01   0.09    -0.02  -0.01  -0.07
  64   1    -0.03   0.03   0.04     0.04   0.01   0.09    -0.02  -0.00  -0.06
  65   1    -0.02   0.03  -0.01     0.01   0.00   0.02     0.01   0.01   0.01
  66   1     0.00  -0.01  -0.00    -0.00  -0.02  -0.03    -0.01  -0.01   0.06
  67   1     0.00  -0.04   0.02     0.00  -0.02  -0.02    -0.03  -0.02   0.02
  68   1     0.00   0.03  -0.03    -0.02   0.02   0.01    -0.04   0.03  -0.05
  69   1     0.00   0.05  -0.05    -0.02   0.02   0.03    -0.06   0.04  -0.00
                     10                     11                     12
                        a                      a                      a 
 Frequencies --    65.3546                68.9201                92.3668
 Red. masses --    10.8735                 9.8269                12.8117
 Frc consts  --     0.0000                 0.0000                 0.0000
 IR Inten    --     0.4012                10.1209                 2.9798
 Raman Activ --     0.0000                 0.0000                 0.0000
 Depolar     --     0.0000                 0.0000                 0.0000
 Atom AN      X      Y      Z        X      Y      Z        X      Y      Z
   1   6     0.07   0.00  -0.12    -0.00   0.02   0.11    -0.04  -0.03  -0.07
   2   6     0.04   0.04  -0.06     0.03   0.02   0.00    -0.07  -0.04   0.05
   3   6    -0.00   0.06   0.00     0.04   0.01  -0.06    -0.06  -0.05   0.10
   4   6    -0.01   0.05  -0.00     0.00   0.01  -0.01    -0.01  -0.04   0.04
   5   6    -0.00   0.02  -0.01    -0.01   0.00   0.04     0.00  -0.02  -0.03
   6   6     0.04  -0.00  -0.08    -0.02   0.01   0.12    -0.00  -0.02  -0.10
   7   8    -0.05   0.00   0.06    -0.01  -0.00   0.00     0.02  -0.01  -0.02
   8   6    -0.07   0.01   0.04     0.00  -0.00  -0.04     0.03  -0.01   0.03
   9   6    -0.12  -0.02   0.07     0.03  -0.01  -0.11     0.03   0.01   0.08
  10   6    -0.15  -0.01   0.02     0.04  -0.01  -0.10     0.05   0.01   0.08
  11   6    -0.13   0.01  -0.08     0.01   0.00  -0.00     0.08  -0.03   0.01
  12   6    -0.09   0.04  -0.10    -0.01   0.01   0.05     0.06  -0.05  -0.02
  13   6    -0.06   0.04  -0.02    -0.01   0.00  -0.00     0.03  -0.03   0.02
  14   7    -0.04   0.07  -0.01    -0.01   0.01  -0.01     0.01  -0.05   0.05
  15   6    -0.04   0.06  -0.01    -0.01   0.01  -0.01     0.01  -0.03   0.02
  16   6    -0.01   0.22  -0.14    -0.01  -0.21   0.17     0.01   0.11  -0.09
  17   6    -0.01   0.15  -0.11    -0.01  -0.23   0.18     0.00   0.19  -0.14
  18   6    -0.01  -0.08   0.06    -0.02  -0.01   0.01     0.00   0.13  -0.09
  19   6    -0.00  -0.12   0.08    -0.01  -0.02   0.01     0.00   0.11  -0.07
  20   7     0.00  -0.04   0.01    -0.02  -0.01   0.01    -0.00  -0.26   0.23
  21   7     0.00  -0.04   0.02    -0.02   0.01  -0.01    -0.00  -0.26   0.23
  22   6     0.00  -0.12   0.08    -0.01   0.01  -0.01    -0.00   0.11  -0.07
  23   6     0.01  -0.08   0.06    -0.02   0.01  -0.01    -0.00   0.13  -0.09
  24   6     0.03  -0.20   0.17    -0.01  -0.23   0.18    -0.01  -0.01   0.01
  25   6     0.03  -0.12   0.12    -0.01  -0.23   0.18    -0.01  -0.10   0.07
  26   6     0.04   0.06  -0.01    -0.00  -0.00   0.01    -0.01  -0.03   0.02
  27   7     0.04   0.07  -0.01    -0.01  -0.00   0.01    -0.01  -0.05   0.05
  28   6     0.06   0.04  -0.02    -0.00  -0.00   0.00    -0.03  -0.03   0.02
  29   6     0.09   0.04  -0.10    -0.00  -0.00  -0.06    -0.06  -0.05  -0.02
  30   6     0.13   0.01  -0.09     0.02  -0.00  -0.01    -0.08  -0.03   0.01
  31   6     0.14  -0.01   0.01     0.05   0.01   0.10    -0.05   0.01   0.08
  32   6     0.11  -0.02   0.06     0.04   0.00   0.11    -0.03   0.01   0.08
  33   6     0.07   0.01   0.04     0.01   0.00   0.05    -0.03  -0.01   0.03
  34   8     0.06  -0.00   0.07    -0.00   0.00   0.00    -0.02  -0.01  -0.02
  35   6     0.00   0.02  -0.01    -0.01  -0.00  -0.04    -0.00  -0.02  -0.03
  36   6    -0.04  -0.00  -0.08    -0.02  -0.01  -0.13     0.00  -0.02  -0.10
  37   6    -0.07   0.01  -0.11    -0.01  -0.02  -0.12     0.04  -0.03  -0.07
  38   6    -0.04   0.04  -0.06     0.03  -0.01  -0.01     0.07  -0.05   0.05
  39   6    -0.00   0.06  -0.00     0.04  -0.01   0.06     0.06  -0.05   0.10
  40   6     0.01   0.05  -0.00     0.00  -0.00   0.01     0.01  -0.04   0.04
  41   6     0.02   0.20  -0.12    -0.01   0.23  -0.17    -0.01   0.11  -0.09
  42   6     0.01   0.14  -0.09    -0.01   0.24  -0.18    -0.00   0.19  -0.14
  43   8     0.00  -0.23   0.16    -0.02  -0.01   0.01     0.00   0.41  -0.31
  44   6    -0.03  -0.22   0.18    -0.01   0.22  -0.17     0.01  -0.00   0.01
  45   6    -0.03  -0.14   0.14    -0.01   0.22  -0.17     0.01  -0.09   0.07
  46   1     0.03  -0.00  -0.05    -0.00   0.01   0.05    -0.01  -0.01  -0.04
  47   1     0.02   0.01  -0.02     0.01   0.00  -0.01    -0.03  -0.02   0.03
  48   1    -0.01   0.02   0.02     0.02   0.01  -0.04    -0.02  -0.02   0.05
  49   1     0.01  -0.01  -0.03    -0.01   0.00   0.05     0.00  -0.00  -0.05
  50   1    -0.04  -0.01   0.04     0.01  -0.00  -0.05     0.01   0.01   0.03
  51   1    -0.05  -0.01   0.01     0.02  -0.00  -0.05     0.02   0.01   0.04
  52   1    -0.04   0.00  -0.04     0.00   0.00   0.01     0.03  -0.01  -0.00
  53   1    -0.02   0.02  -0.05    -0.01   0.00   0.04     0.02  -0.02  -0.02
  54   1    -0.00   0.11  -0.07    -0.00  -0.11   0.08     0.00   0.04  -0.04
  55   1     0.00   0.08  -0.06    -0.00  -0.12   0.09    -0.00   0.08  -0.06
  56   1     0.01  -0.11   0.08    -0.00  -0.12   0.09    -0.00  -0.02   0.02
  57   1     0.01  -0.06   0.06    -0.01  -0.12   0.09    -0.01  -0.06   0.04
  58   1     0.02   0.02  -0.05    -0.01  -0.00  -0.04    -0.02  -0.02  -0.02
  59   1     0.04   0.00  -0.04     0.00  -0.00  -0.01    -0.03  -0.01  -0.00
  60   1     0.05  -0.01   0.01     0.02   0.00   0.05    -0.02   0.01   0.03
  61   1     0.03  -0.01   0.04     0.01   0.00   0.05    -0.01   0.01   0.03
  62   1    -0.01  -0.01  -0.03    -0.01  -0.00  -0.05    -0.00  -0.00  -0.05
  63   1    -0.03  -0.00  -0.05    -0.01  -0.01  -0.06     0.01  -0.01  -0.04
  64   1    -0.02   0.02  -0.02     0.01  -0.00   0.01     0.03  -0.02   0.03
  65   1     0.01   0.02   0.01     0.02  -0.00   0.04     0.02  -0.02   0.05
  66   1     0.00   0.10  -0.06    -0.00   0.12  -0.08    -0.00   0.05  -0.04
  67   1     0.00   0.07  -0.05    -0.00   0.12  -0.09     0.00   0.08  -0.06
  68   1    -0.01  -0.11   0.09    -0.00   0.11  -0.09     0.00  -0.02   0.02
  69   1    -0.01  -0.07   0.06    -0.01   0.11  -0.09     0.01  -0.06   0.04
                     13                     14                     15
                        a                      a                      a 
 Frequencies --   105.4517               107.2793               118.7718
 Red. masses --    11.6489                11.4993                 9.9195
 Frc consts  --     0.0000                 0.0000                 0.0000
 IR Inten    --     0.0037                 0.1567                 5.5885
 Raman Activ --     0.0000                 0.0000                 0.0000
 Depolar     --     0.0000                 0.0000                 0.0000
 Atom AN      X      Y      Z        X      Y      Z        X      Y      Z
   1   6     0.21   0.02  -0.05     0.08   0.04   0.05     0.07  -0.02  -0.12
   2   6     0.16   0.06   0.09     0.09   0.07  -0.00    -0.03   0.03   0.17
   3   6     0.10   0.08   0.15     0.07   0.07  -0.06    -0.07   0.05   0.25
   4   6     0.09   0.04   0.08     0.04   0.05  -0.08    -0.03   0.01   0.08
   5   6     0.11   0.02   0.03     0.04   0.03  -0.02     0.01  -0.01  -0.06
   6   6     0.18  -0.00  -0.06     0.05   0.02   0.04     0.08  -0.04  -0.22
   7   8     0.11   0.04   0.08     0.01   0.01  -0.03    -0.00  -0.00  -0.00
   8   6     0.09   0.04   0.06    -0.02   0.02  -0.03    -0.02   0.01   0.05
   9   6     0.10   0.06   0.09    -0.07   0.01   0.06    -0.04   0.05   0.23
  10   6     0.13   0.05   0.06    -0.09   0.01   0.04     0.01   0.03   0.14
  11   6     0.15   0.03  -0.02    -0.07   0.03  -0.07     0.09  -0.03  -0.15
  12   6     0.14   0.02  -0.02    -0.03   0.04  -0.14     0.10  -0.06  -0.23
  13   6     0.09   0.04   0.03    -0.00   0.04  -0.10     0.02  -0.02  -0.08
  14   7     0.06   0.04   0.06     0.03   0.06  -0.15    -0.02  -0.01   0.00
  15   6     0.07   0.01  -0.00    -0.00   0.03  -0.01    -0.01  -0.00  -0.00
  16   6     0.08  -0.00  -0.01    -0.05  -0.04   0.06    -0.02  -0.07   0.05
  17   6     0.10  -0.05  -0.04    -0.06  -0.14   0.20    -0.03  -0.07   0.05
  18   6     0.03  -0.10  -0.09    -0.03  -0.16   0.26    -0.03   0.02  -0.02
  19   6     0.02  -0.12  -0.10    -0.02  -0.12   0.18    -0.03   0.01  -0.01
  20   7     0.00  -0.08  -0.14     0.06  -0.08   0.12    -0.03   0.01  -0.01
  21   7    -0.00  -0.08  -0.14     0.06   0.08  -0.12    -0.03  -0.01   0.01
  22   6    -0.02  -0.12  -0.10    -0.02   0.12  -0.18    -0.03  -0.01   0.01
  23   6    -0.03  -0.10  -0.09    -0.03   0.16  -0.26    -0.03  -0.02   0.02
  24   6    -0.02  -0.08  -0.09     0.01   0.13  -0.22    -0.02  -0.10   0.09
  25   6    -0.00  -0.03  -0.06     0.03   0.03  -0.09    -0.02  -0.07   0.07
  26   6    -0.07   0.01  -0.01    -0.00  -0.03   0.01    -0.01   0.01   0.00
  27   7    -0.06   0.04   0.06     0.03  -0.06   0.15    -0.01   0.01  -0.00
  28   6    -0.09   0.04   0.03    -0.00  -0.04   0.11     0.02   0.02   0.07
  29   6    -0.14   0.02  -0.03    -0.03  -0.04   0.14     0.10   0.05   0.22
  30   6    -0.15   0.03  -0.02    -0.07  -0.03   0.07     0.09   0.03   0.14
  31   6    -0.13   0.05   0.06    -0.09  -0.01  -0.04     0.02  -0.03  -0.14
  32   6    -0.09   0.06   0.09    -0.07  -0.01  -0.06    -0.04  -0.05  -0.21
  33   6    -0.09   0.04   0.06    -0.02  -0.02   0.03    -0.01  -0.01  -0.05
  34   8    -0.11   0.04   0.08     0.01  -0.01   0.03     0.00   0.00   0.00
  35   6    -0.11   0.02   0.03     0.04  -0.03   0.03     0.01   0.01   0.05
  36   6    -0.18  -0.00  -0.06     0.05  -0.02  -0.04     0.08   0.04   0.21
  37   6    -0.21   0.02  -0.04     0.08  -0.04  -0.05     0.07   0.02   0.11
  38   6    -0.16   0.06   0.09     0.09  -0.07   0.00    -0.02  -0.03  -0.17
  39   6    -0.10   0.08   0.15     0.07  -0.08   0.06    -0.06  -0.04  -0.24
  40   6    -0.09   0.04   0.08     0.04  -0.05   0.08    -0.03  -0.00  -0.08
  41   6    -0.08  -0.00  -0.01    -0.05   0.04  -0.06    -0.02   0.07  -0.05
  42   6    -0.10  -0.05  -0.04    -0.06   0.14  -0.20    -0.02   0.07  -0.05
  43   8    -0.00  -0.19  -0.08    -0.08  -0.00   0.00    -0.03  -0.00   0.00
  44   6     0.02  -0.08  -0.09     0.01  -0.14   0.22    -0.02   0.11  -0.09
  45   6     0.00  -0.03  -0.06     0.03  -0.03   0.09    -0.02   0.08  -0.07
  46   1     0.07  -0.00  -0.04     0.02   0.01   0.03     0.04  -0.01  -0.07
  47   1     0.05   0.02   0.04     0.03   0.03   0.00    -0.02   0.02   0.09
  48   1     0.02   0.04   0.07     0.02   0.03  -0.03    -0.04   0.03   0.12
  49   1     0.06  -0.02  -0.04     0.01  -0.00   0.03     0.04  -0.03  -0.11
  50   1     0.02   0.03   0.04    -0.02  -0.00   0.04    -0.03   0.03   0.11
  51   1     0.04   0.02   0.02    -0.04   0.00   0.03    -0.00   0.02   0.08
  52   1     0.05   0.01  -0.02    -0.03   0.01  -0.03     0.04  -0.02  -0.08
  53   1     0.04  -0.00  -0.02    -0.00   0.01  -0.06     0.04  -0.03  -0.11
  54   1     0.03   0.00   0.00    -0.02   0.00  -0.00    -0.01  -0.04   0.02
  55   1     0.05  -0.02  -0.01    -0.03  -0.05   0.07    -0.01  -0.04   0.03
  56   1    -0.00  -0.03  -0.03     0.01   0.05  -0.08    -0.01  -0.05   0.04
  57   1     0.02  -0.00  -0.01     0.02  -0.00  -0.01    -0.01  -0.03   0.03
  58   1    -0.04  -0.00  -0.02    -0.00  -0.01   0.06     0.04   0.03   0.10
  59   1    -0.05   0.01  -0.02    -0.03  -0.01   0.03     0.04   0.01   0.08
  60   1    -0.04   0.02   0.02    -0.04  -0.00  -0.03    -0.00  -0.02  -0.08
  61   1    -0.02   0.03   0.04    -0.02   0.00  -0.04    -0.03  -0.03  -0.11
  62   1    -0.06  -0.01  -0.04     0.01   0.00  -0.03     0.04   0.02   0.11
  63   1    -0.07   0.00  -0.04     0.02  -0.01  -0.03     0.04   0.01   0.07
  64   1    -0.05   0.02   0.04     0.03  -0.03  -0.00    -0.02  -0.01  -0.09
  65   1    -0.02   0.04   0.07     0.02  -0.03   0.03    -0.03  -0.03  -0.11
  66   1    -0.03   0.00   0.00    -0.02  -0.00   0.00    -0.01   0.03  -0.02
  67   1    -0.05  -0.02  -0.01    -0.03   0.05  -0.07    -0.01   0.04  -0.03
  68   1     0.00  -0.03  -0.03     0.01  -0.05   0.08    -0.01   0.05  -0.04
  69   1    -0.02  -0.00  -0.01     0.02   0.00   0.01    -0.01   0.03  -0.03
                     16                     17                     18
                        a                      a                      a 
 Frequencies --   122.7765               124.6634               178.8026
 Red. masses --    10.1905                11.6960                11.6449
 Frc consts  --     0.0000                 0.0000                 0.0000
 IR Inten    --     0.5094                 0.9878                 0.1760
 Raman Activ --     0.0000                 0.0000                 0.0000
 Depolar     --     0.0000                 0.0000                 0.0000
 Atom AN      X      Y      Z        X      Y      Z        X      Y      Z
   1   6     0.01   0.02   0.10     0.07   0.02  -0.09     0.19   0.00   0.04
   2   6     0.09  -0.02  -0.13     0.04   0.06   0.01     0.19   0.04   0.01
   3   6     0.11  -0.03  -0.18    -0.02   0.08   0.09     0.11   0.06   0.01
   4   6     0.06  -0.00  -0.04    -0.03   0.06   0.07     0.02  -0.00   0.01
   5   6     0.03   0.02   0.07    -0.01   0.03   0.04     0.03  -0.01   0.03
   6   6    -0.01   0.04   0.19     0.04   0.01  -0.05     0.10  -0.04   0.07
   7   8     0.06   0.02   0.03    -0.05   0.03   0.12     0.04   0.01   0.03
   8   6     0.06   0.01  -0.03    -0.04   0.03   0.04     0.03   0.03  -0.00
   9   6     0.10  -0.02  -0.19    -0.04  -0.00  -0.04     0.10   0.08  -0.03
  10   6     0.07  -0.00  -0.11    -0.06  -0.00  -0.10     0.17   0.07   0.03
  11   6     0.00   0.04   0.16    -0.08   0.03  -0.04     0.16   0.05   0.09
  12   6    -0.02   0.06   0.24    -0.07   0.06   0.04     0.10  -0.00   0.07
  13   6     0.02   0.03   0.10    -0.05   0.05   0.05     0.02   0.02   0.01
  14   7     0.04   0.01   0.03    -0.04   0.07   0.05    -0.03  -0.01  -0.02
  15   6     0.04   0.00  -0.00     0.01  -0.01  -0.05    -0.06  -0.02  -0.03
  16   6     0.04   0.09  -0.08     0.11  -0.06  -0.04    -0.13   0.01  -0.04
  17   6     0.05   0.10  -0.11     0.14  -0.20  -0.07    -0.14   0.02  -0.05
  18   6     0.02  -0.02  -0.05     0.09  -0.25  -0.11    -0.17  -0.04  -0.04
  19   6     0.01  -0.04  -0.04     0.06  -0.18  -0.07    -0.19  -0.02  -0.03
  20   7    -0.00  -0.08  -0.01    -0.13  -0.12  -0.05    -0.26  -0.01  -0.02
  21   7    -0.00  -0.08  -0.00    -0.13   0.12   0.05    -0.26   0.01   0.02
  22   6    -0.01  -0.03  -0.04     0.06   0.18   0.07    -0.19   0.02   0.03
  23   6    -0.02  -0.01  -0.04     0.09   0.25   0.11    -0.17   0.03   0.04
  24   6    -0.02  -0.12   0.04    -0.01   0.22   0.12    -0.11   0.08   0.01
  25   6    -0.02  -0.10   0.05    -0.05   0.09   0.08    -0.10   0.07   0.03
  26   6    -0.04   0.00  -0.00     0.01   0.01   0.05    -0.06   0.02   0.03
  27   7    -0.04   0.01   0.03    -0.03  -0.07  -0.05    -0.03   0.01   0.02
  28   6    -0.02   0.03   0.10    -0.05  -0.05  -0.05     0.02  -0.02  -0.01
  29   6     0.02   0.05   0.25    -0.08  -0.06  -0.05     0.10   0.01  -0.07
  30   6     0.00   0.04   0.17    -0.08  -0.03   0.04     0.16  -0.04  -0.10
  31   6    -0.07  -0.00  -0.11    -0.05   0.00   0.10     0.17  -0.08  -0.03
  32   6    -0.11  -0.02  -0.20    -0.04   0.00   0.05     0.10  -0.09   0.03
  33   6    -0.06   0.01  -0.03    -0.04  -0.03  -0.04     0.03  -0.03   0.01
  34   8    -0.06   0.02   0.03    -0.05  -0.03  -0.12     0.04  -0.01  -0.03
  35   6    -0.03   0.01   0.07    -0.01  -0.03  -0.05     0.03   0.01  -0.03
  36   6     0.02   0.03   0.21     0.04  -0.01   0.04     0.10   0.04  -0.07
  37   6    -0.00   0.02   0.11     0.07  -0.03   0.08     0.18  -0.00  -0.05
  38   6    -0.09  -0.02  -0.14     0.04  -0.06  -0.01     0.19  -0.04  -0.01
  39   6    -0.11  -0.03  -0.20    -0.01  -0.08  -0.08     0.11  -0.06  -0.01
  40   6    -0.07  -0.00  -0.05    -0.03  -0.06  -0.06     0.03   0.00  -0.00
  41   6    -0.04   0.10  -0.08     0.11   0.06   0.04    -0.13  -0.01   0.04
  42   6    -0.04   0.11  -0.11     0.14   0.19   0.07    -0.14  -0.02   0.05
  43   8     0.00  -0.01  -0.07     0.21   0.00   0.00    -0.20   0.00  -0.00
  44   6     0.02  -0.12   0.03    -0.01  -0.21  -0.12    -0.11  -0.08  -0.01
  45   6     0.01  -0.09   0.04    -0.05  -0.09  -0.08    -0.10  -0.07  -0.03
  46   1    -0.01   0.01   0.06     0.03   0.00  -0.05     0.07  -0.00   0.01
  47   1     0.04  -0.01  -0.07     0.01   0.02   0.01     0.07   0.02  -0.00
  48   1     0.04  -0.02  -0.09    -0.01   0.03   0.04     0.03   0.04   0.00
  49   1    -0.02   0.02   0.10     0.02  -0.01  -0.03     0.03  -0.04   0.03
  50   1     0.04  -0.01  -0.10    -0.01  -0.01  -0.02     0.03   0.05  -0.03
  51   1     0.03  -0.01  -0.07    -0.01  -0.01  -0.05     0.06   0.03   0.00
  52   1    -0.01   0.02   0.08    -0.03   0.01  -0.02     0.05   0.01   0.04
  53   1    -0.02   0.03   0.11    -0.03   0.02   0.02     0.03  -0.02   0.03
  54   1     0.02   0.04  -0.03     0.05  -0.00   0.00    -0.04  -0.00  -0.02
  55   1     0.02   0.05  -0.05     0.07  -0.07  -0.02    -0.03   0.01  -0.02
  56   1    -0.01  -0.06   0.03    -0.02   0.08   0.04    -0.03   0.03  -0.01
  57   1    -0.00  -0.04   0.03    -0.04   0.02   0.02    -0.04   0.02   0.00
  58   1     0.02   0.03   0.11    -0.03  -0.02  -0.03     0.03   0.02  -0.03
  59   1     0.01   0.02   0.09    -0.03  -0.01   0.02     0.06  -0.01  -0.04
  60   1    -0.03  -0.01  -0.07    -0.01   0.01   0.05     0.06  -0.03  -0.01
  61   1    -0.05  -0.01  -0.11    -0.01   0.01   0.02     0.03  -0.05   0.02
  62   1     0.02   0.02   0.10     0.02   0.00   0.02     0.03   0.04  -0.03
  63   1     0.01   0.01   0.06     0.04  -0.00   0.05     0.07   0.00  -0.02
  64   1    -0.04  -0.01  -0.08     0.02  -0.02  -0.00     0.07  -0.02   0.00
  65   1    -0.05  -0.02  -0.09    -0.01  -0.03  -0.04     0.03  -0.04  -0.00
  66   1    -0.01   0.04  -0.03     0.05   0.00   0.00    -0.04   0.00   0.02
  67   1    -0.02   0.06  -0.05     0.07   0.07   0.02    -0.03  -0.02   0.02
  68   1     0.00  -0.06   0.02    -0.02  -0.08  -0.04    -0.03  -0.03   0.01
  69   1    -0.00  -0.04   0.02    -0.04  -0.02  -0.02    -0.04  -0.02  -0.00
                     19                     20                     21
                        a                      a                      a 
 Frequencies --   187.1513               193.7032               202.9457
 Red. masses --    12.0454                12.1155                11.9946
 Frc consts  --     0.0000                 0.0000                 0.0000
 IR Inten    --     0.6925                 0.7302                 0.0358
 Raman Activ --     0.0000                 0.0000                 0.0000
 Depolar     --     0.0000                 0.0000                 0.0000
 Atom AN      X      Y      Z        X      Y      Z        X      Y      Z
   1   6     0.05   0.04   0.09     0.06   0.02  -0.11     0.03  -0.01  -0.12
   2   6     0.09   0.05  -0.07    -0.01   0.06   0.08    -0.05   0.02   0.11
   3   6     0.07   0.05  -0.12    -0.04   0.07   0.11    -0.05   0.02   0.13
   4   6     0.02   0.04  -0.06    -0.01   0.04  -0.00    -0.01  -0.00   0.00
   5   6     0.03   0.02  -0.04    -0.02   0.03   0.05    -0.03   0.01   0.05
   6   6     0.02   0.02   0.09     0.03   0.01  -0.08     0.02  -0.01  -0.11
   7   8     0.04  -0.00  -0.15    -0.08   0.06   0.26    -0.09   0.05   0.30
   8   6    -0.00   0.02  -0.05    -0.02   0.03   0.05    -0.01   0.01   0.06
   9   6    -0.05   0.02   0.06    -0.01  -0.01  -0.09     0.03  -0.02  -0.11
  10   6    -0.06   0.03   0.06    -0.04  -0.01  -0.13     0.03  -0.02  -0.12
  11   6    -0.03   0.02  -0.09    -0.09   0.04   0.05    -0.03   0.02   0.11
  12   6    -0.00   0.03  -0.13    -0.08   0.07   0.10    -0.04   0.03   0.14
  13   6    -0.00   0.03  -0.07    -0.00   0.04   0.00     0.01  -0.00   0.01
  14   7    -0.02   0.06   0.02     0.06   0.00  -0.21     0.07  -0.04  -0.24
  15   6    -0.04  -0.02   0.13     0.06  -0.09  -0.12     0.06  -0.05  -0.16
  16   6    -0.00  -0.10   0.18     0.01  -0.18  -0.05    -0.05  -0.06  -0.12
  17   6     0.02  -0.13   0.14    -0.02  -0.15   0.03    -0.10   0.00   0.01
  18   6    -0.01  -0.06   0.04     0.02  -0.04   0.02    -0.02   0.06   0.08
  19   6     0.00   0.09  -0.15     0.00   0.12  -0.01    -0.02   0.05   0.09
  20   7     0.00  -0.03  -0.06    -0.00   0.06   0.04     0.09   0.03   0.06
  21   7    -0.00  -0.03  -0.06     0.00   0.06   0.04     0.09  -0.03  -0.06
  22   6    -0.00   0.09  -0.14     0.00   0.12  -0.01    -0.02  -0.05  -0.09
  23   6     0.01  -0.06   0.04    -0.02  -0.04   0.02    -0.02  -0.06  -0.08
  24   6     0.05  -0.16   0.13    -0.09  -0.12   0.06     0.09  -0.04  -0.06
  25   6     0.06  -0.14   0.18    -0.11  -0.16  -0.01     0.14   0.02   0.07
  26   6     0.04  -0.02   0.13    -0.06  -0.09  -0.12     0.06   0.05   0.16
  27   7     0.02   0.06   0.02    -0.06   0.01  -0.21     0.08   0.04   0.24
  28   6     0.00   0.03  -0.07     0.00   0.04  -0.00     0.01  -0.00  -0.01
  29   6     0.00   0.03  -0.13     0.07   0.07   0.10    -0.04  -0.03  -0.14
  30   6     0.03   0.02  -0.09     0.09   0.04   0.05    -0.04  -0.02  -0.11
  31   6     0.07   0.02   0.06     0.04  -0.01  -0.13     0.03   0.01   0.12
  32   6     0.05   0.02   0.06     0.01  -0.01  -0.08     0.03   0.02   0.11
  33   6     0.00   0.02  -0.05     0.02   0.03   0.05    -0.01  -0.01  -0.06
  34   8    -0.05  -0.00  -0.15     0.08   0.06   0.25    -0.09  -0.04  -0.31
  35   6    -0.03   0.02  -0.04     0.02   0.03   0.05    -0.03  -0.01  -0.05
  36   6    -0.02   0.02   0.10    -0.04   0.01  -0.08     0.02   0.01   0.12
  37   6    -0.04   0.04   0.09    -0.06   0.02  -0.10     0.03   0.01   0.12
  38   6    -0.09   0.05  -0.07     0.00   0.06   0.08    -0.05  -0.02  -0.11
  39   6    -0.07   0.05  -0.12     0.03   0.07   0.11    -0.05  -0.02  -0.14
  40   6    -0.02   0.04  -0.06     0.01   0.04  -0.00    -0.01   0.00   0.00
  41   6     0.00  -0.10   0.18    -0.01  -0.18  -0.05    -0.05   0.06   0.12
  42   6    -0.02  -0.13   0.14     0.02  -0.15   0.03    -0.10   0.00  -0.01
  43   8     0.00   0.26  -0.31     0.00   0.25  -0.10    -0.10  -0.00   0.00
  44   6    -0.05  -0.16   0.13     0.09  -0.12   0.06     0.09   0.05   0.06
  45   6    -0.06  -0.14   0.18     0.12  -0.16  -0.01     0.14  -0.02  -0.07
  46   1     0.01   0.01   0.05     0.03  -0.00  -0.06     0.02  -0.01  -0.07
  47   1     0.04   0.02  -0.03    -0.01   0.02   0.04    -0.03   0.01   0.06
  48   1     0.02   0.01  -0.04    -0.02   0.03   0.05    -0.02   0.01   0.06
  49   1    -0.00   0.00   0.05     0.01  -0.00  -0.04     0.01  -0.01  -0.05
  50   1    -0.02   0.01   0.04     0.00  -0.02  -0.04     0.02  -0.01  -0.05
  51   1    -0.03   0.01   0.04    -0.01  -0.01  -0.07     0.02  -0.01  -0.07
  52   1    -0.01   0.01  -0.04    -0.04   0.02   0.03    -0.02   0.01   0.06
  53   1     0.00   0.00  -0.05    -0.03   0.03   0.05    -0.02   0.02   0.06
  54   1     0.01  -0.02   0.06    -0.01  -0.07  -0.02    -0.04  -0.04  -0.05
  55   1     0.02  -0.04   0.04    -0.03  -0.05   0.02    -0.06  -0.00   0.01
  56   1     0.02  -0.06   0.04    -0.04  -0.04   0.03     0.05  -0.02  -0.04
  57   1     0.03  -0.04   0.06    -0.05  -0.06   0.00     0.07   0.01   0.02
  58   1    -0.00   0.01  -0.05     0.03   0.03   0.05    -0.02  -0.02  -0.06
  59   1     0.01   0.01  -0.04     0.04   0.02   0.03    -0.02  -0.01  -0.06
  60   1     0.03   0.01   0.05     0.01  -0.01  -0.07     0.02   0.01   0.07
  61   1     0.02   0.00   0.04    -0.00  -0.02  -0.04     0.02   0.01   0.05
  62   1     0.00   0.00   0.05    -0.02  -0.00  -0.04     0.01   0.01   0.05
  63   1    -0.01   0.01   0.06    -0.03   0.00  -0.06     0.02   0.01   0.07
  64   1    -0.04   0.02  -0.03     0.01   0.02   0.04    -0.03  -0.01  -0.06
  65   1    -0.02   0.01  -0.04     0.02   0.03   0.05    -0.02  -0.01  -0.06
  66   1    -0.01  -0.02   0.06     0.01  -0.07  -0.02    -0.04   0.04   0.05
  67   1    -0.02  -0.04   0.04     0.02  -0.05   0.02    -0.06   0.00  -0.01
  68   1    -0.02  -0.06   0.04     0.04  -0.04   0.04     0.05   0.02   0.04
  69   1    -0.03  -0.04   0.06     0.05  -0.06   0.00     0.07  -0.01  -0.02
                     22                     23                     24
                        a                      a                      a 
 Frequencies --   242.8718               249.6405               253.9601
 Red. masses --    10.7687                10.4543                11.5377
 Frc consts  --     0.0000                 0.0000                 0.0000
 IR Inten    --     0.6062                13.3368                 0.0227
 Raman Activ --     0.0000                 0.0000                 0.0000
 Depolar     --     0.0000                 0.0000                 0.0000
 Atom AN      X      Y      Z        X      Y      Z        X      Y      Z
   1   6     0.16  -0.04  -0.05    -0.06   0.03   0.14    -0.07  -0.04  -0.02
   2   6     0.15   0.03  -0.05    -0.06   0.02   0.15    -0.06  -0.07  -0.00
   3   6    -0.02   0.09   0.08     0.06  -0.04  -0.16    -0.02  -0.07   0.02
   4   6    -0.13   0.00   0.07     0.09  -0.03  -0.20     0.01  -0.03   0.06
   5   6    -0.13  -0.03   0.10     0.09  -0.02  -0.19     0.01  -0.03   0.03
   6   6     0.00  -0.08   0.12     0.06  -0.01  -0.18    -0.02  -0.01  -0.02
   7   8    -0.15  -0.03   0.02     0.04   0.01   0.01     0.02  -0.04  -0.01
   8   6    -0.07  -0.02  -0.16    -0.03   0.03   0.21     0.01  -0.03  -0.00
   9   6     0.04   0.08  -0.16    -0.04   0.01   0.18     0.04  -0.02  -0.02
  10   6     0.10   0.09   0.11     0.03  -0.03  -0.15     0.06  -0.02   0.04
  11   6     0.10   0.03   0.18     0.03  -0.02  -0.16     0.06  -0.03   0.05
  12   6     0.06  -0.09  -0.07    -0.04   0.04   0.17     0.04  -0.06   0.01
  13   6    -0.05  -0.06  -0.16    -0.04   0.04   0.21    -0.00  -0.04   0.03
  14   7    -0.11  -0.03  -0.07     0.02   0.00   0.01    -0.01  -0.02   0.09
  15   6    -0.10  -0.02  -0.03     0.00   0.00   0.00    -0.01   0.14  -0.07
  16   6    -0.11  -0.01  -0.03    -0.01   0.01   0.00     0.01   0.25  -0.15
  17   6    -0.11   0.02  -0.02    -0.02   0.01  -0.00     0.01   0.07  -0.04
  18   6    -0.06   0.02   0.03    -0.03  -0.01  -0.00     0.00  -0.15   0.12
  19   6    -0.02   0.01   0.01    -0.03  -0.01  -0.00     0.00  -0.25   0.20
  20   7    -0.00   0.01   0.01    -0.05  -0.00  -0.00    -0.01  -0.20   0.16
  21   7     0.00   0.01   0.01    -0.05   0.00   0.00    -0.01   0.20  -0.16
  22   6     0.02   0.01   0.01    -0.03   0.01   0.00     0.00   0.26  -0.20
  23   6     0.06   0.02   0.03    -0.03   0.01   0.00    -0.01   0.15  -0.12
  24   6     0.08   0.00   0.04    -0.01   0.01   0.00    -0.02  -0.06   0.03
  25   6     0.08  -0.00   0.01    -0.01   0.01   0.01    -0.03  -0.23   0.15
  26   6     0.10  -0.02  -0.03     0.00  -0.00  -0.00    -0.02  -0.14   0.07
  27   7     0.11  -0.03  -0.07     0.02  -0.00  -0.01    -0.02   0.02  -0.08
  28   6     0.05  -0.06  -0.16    -0.03  -0.04  -0.21    -0.02   0.04  -0.04
  29   6    -0.06  -0.09  -0.07    -0.04  -0.04  -0.17     0.04   0.06  -0.03
  30   6    -0.10   0.03   0.18     0.03   0.02   0.16     0.08   0.03  -0.05
  31   6    -0.10   0.09   0.12     0.03   0.03   0.15     0.08   0.01  -0.02
  32   6    -0.04   0.09  -0.16    -0.04  -0.01  -0.18     0.04   0.00   0.01
  33   6     0.07  -0.02  -0.16    -0.03  -0.03  -0.21    -0.01   0.03  -0.02
  34   8     0.15  -0.03   0.01     0.04  -0.01  -0.01     0.00   0.04  -0.00
  35   6     0.13  -0.03   0.10     0.09   0.02   0.19     0.01   0.03   0.00
  36   6    -0.00  -0.09   0.12     0.06   0.01   0.17    -0.01   0.03   0.04
  37   6    -0.17  -0.04  -0.05    -0.06  -0.02  -0.14    -0.06   0.04  -0.01
  38   6    -0.15   0.03  -0.05    -0.06  -0.02  -0.15    -0.06   0.06  -0.03
  39   6     0.03   0.09   0.08     0.06   0.03   0.16    -0.01   0.07   0.00
  40   6     0.13   0.00   0.07     0.09   0.03   0.20     0.01   0.04  -0.03
  41   6     0.11  -0.01  -0.03    -0.01  -0.01  -0.00    -0.01  -0.25   0.15
  42   6     0.11   0.02  -0.02    -0.02  -0.01   0.00    -0.00  -0.08   0.04
  43   8     0.00   0.02   0.01    -0.04  -0.00   0.00     0.01   0.00   0.00
  44   6    -0.08   0.00   0.04    -0.01  -0.01  -0.00    -0.01   0.06  -0.04
  45   6    -0.08   0.00   0.01    -0.01  -0.01  -0.01    -0.02   0.23  -0.15
  46   1     0.08  -0.02  -0.05    -0.04   0.02   0.11    -0.02  -0.01  -0.01
  47   1     0.07   0.02  -0.05    -0.04   0.01   0.11    -0.02  -0.03  -0.01
  48   1    -0.01   0.06   0.03     0.02  -0.02  -0.06    -0.00  -0.03  -0.00
  49   1     0.00  -0.06   0.05     0.02   0.00  -0.06    -0.01   0.01  -0.02
  50   1     0.01   0.06  -0.07    -0.01  -0.00   0.06     0.01   0.00  -0.02
  51   1     0.03   0.05   0.08     0.03  -0.02  -0.11     0.02  -0.00   0.02
  52   1     0.04   0.01   0.11     0.03  -0.02  -0.12     0.02  -0.01   0.02
  53   1     0.03  -0.06  -0.02    -0.02   0.02   0.06     0.01  -0.02  -0.01
  54   1    -0.03  -0.00  -0.01    -0.01  -0.00   0.00     0.01   0.10  -0.06
  55   1    -0.04   0.01  -0.01    -0.00   0.00  -0.00     0.01   0.02  -0.01
  56   1     0.02  -0.00   0.02    -0.00   0.00  -0.00    -0.01  -0.02   0.01
  57   1     0.01  -0.00   0.00    -0.00  -0.00   0.00    -0.01  -0.10   0.06
  58   1    -0.03  -0.06  -0.02    -0.02  -0.02  -0.06     0.01   0.03  -0.00
  59   1    -0.04   0.01   0.11     0.03   0.02   0.12     0.03   0.01  -0.02
  60   1    -0.03   0.05   0.08     0.03   0.02   0.11     0.03  -0.00  -0.00
  61   1    -0.01   0.06  -0.07    -0.01   0.00  -0.06     0.01  -0.01   0.02
  62   1    -0.00  -0.06   0.05     0.02  -0.00   0.06    -0.00   0.00   0.02
  63   1    -0.08  -0.02  -0.05    -0.04  -0.02  -0.11    -0.02   0.01  -0.00
  64   1    -0.07   0.02  -0.05    -0.04  -0.01  -0.11    -0.02   0.02  -0.01
  65   1     0.02   0.06   0.03     0.02   0.02   0.06     0.00   0.02   0.01
  66   1     0.03  -0.00  -0.01    -0.01   0.00  -0.00     0.00  -0.10   0.06
  67   1     0.04   0.01  -0.01    -0.00  -0.00   0.00     0.00  -0.02   0.01
  68   1    -0.02  -0.00   0.02    -0.00  -0.00   0.00    -0.01   0.02  -0.01
  69   1    -0.01  -0.00   0.00    -0.00   0.00  -0.00    -0.01   0.09  -0.06
                     25                     26                     27
                        a                      a                      a 
 Frequencies --   255.0972               270.4146               274.2917
 Red. masses --    10.7092                11.6517                11.4634
 Frc consts  --     0.0000                 0.0000                 0.0000
 IR Inten    --     0.2309                 1.4225                 0.4085
 Raman Activ --     0.0000                 0.0000                 0.0000
 Depolar     --     0.0000                 0.0000                 0.0000
 Atom AN      X      Y      Z        X      Y      Z        X      Y      Z
   1   6     0.06  -0.01   0.16    -0.07   0.00   0.06     0.04  -0.01  -0.10
   2   6     0.05   0.05   0.16    -0.09  -0.01   0.14     0.06  -0.02  -0.15
   3   6     0.05   0.03  -0.16     0.04  -0.06  -0.11    -0.05   0.03   0.15
   4   6    -0.01  -0.04  -0.22     0.09  -0.03  -0.12    -0.06   0.02   0.15
   5   6    -0.02  -0.06  -0.19     0.07  -0.01  -0.06    -0.04   0.02   0.10
   6   6     0.08  -0.10  -0.14     0.05  -0.00  -0.17    -0.06   0.03   0.18
   7   8    -0.12  -0.02   0.04    -0.04   0.03   0.33     0.09  -0.02  -0.31
   8   6    -0.12   0.01   0.13     0.05  -0.02  -0.10    -0.02   0.02   0.10
   9   6    -0.02   0.09   0.09     0.06  -0.06  -0.18    -0.05   0.03   0.19
  10   6     0.14   0.04  -0.09    -0.04  -0.01   0.09     0.02  -0.01  -0.10
  11   6     0.14  -0.01  -0.04    -0.06   0.02   0.16     0.03  -0.02  -0.16
  12   6    -0.00  -0.05   0.15     0.04  -0.01  -0.14    -0.04   0.03   0.15
  13   6    -0.11  -0.02   0.13     0.07  -0.02  -0.16    -0.03   0.03   0.16
  14   7    -0.07  -0.02  -0.05     0.03   0.01   0.00     0.02  -0.02  -0.05
  15   6    -0.09   0.00  -0.02    -0.01   0.07   0.09     0.04  -0.05  -0.10
  16   6    -0.09   0.02  -0.03     0.00   0.08   0.08    -0.02  -0.05  -0.09
  17   6    -0.09   0.03  -0.02     0.02   0.03   0.06    -0.05  -0.01  -0.02
  18   6    -0.05   0.01   0.03    -0.01   0.00   0.02    -0.01   0.01   0.04
  19   6    -0.02  -0.02   0.01     0.01  -0.04  -0.05    -0.02   0.01   0.06
  20   7    -0.00  -0.02   0.01     0.00  -0.05  -0.06     0.04   0.00   0.04
  21   7     0.00   0.01  -0.01    -0.00  -0.05  -0.06     0.04  -0.00  -0.04
  22   6     0.02   0.02  -0.02    -0.00  -0.04  -0.06    -0.02  -0.01  -0.06
  23   6     0.05   0.03   0.01     0.01   0.00   0.02    -0.01  -0.01  -0.03
  24   6     0.07  -0.01   0.05     0.04   0.02   0.02     0.05  -0.02  -0.01
  25   6     0.06  -0.01   0.02     0.05   0.06   0.06     0.08   0.03   0.07
  26   6     0.09  -0.02  -0.01     0.01   0.07   0.09     0.04   0.05   0.10
  27   7     0.07  -0.02  -0.06    -0.03   0.01   0.00     0.02   0.02   0.05
  28   6     0.11  -0.01   0.13    -0.07  -0.02  -0.16    -0.03  -0.03  -0.16
  29   6     0.01  -0.04   0.15    -0.04  -0.01  -0.15    -0.04  -0.03  -0.15
  30   6    -0.13  -0.01  -0.05     0.06   0.02   0.16     0.03   0.02   0.16
  31   6    -0.13   0.05  -0.09     0.04  -0.01   0.09     0.02   0.01   0.10
  32   6     0.02   0.09   0.09    -0.06  -0.05  -0.18    -0.05  -0.02  -0.18
  33   6     0.12   0.01   0.13    -0.06  -0.02  -0.10    -0.01  -0.02  -0.10
  34   8     0.12  -0.02   0.04     0.04   0.03   0.33     0.09   0.02   0.31
  35   6     0.02  -0.05  -0.19    -0.07  -0.01  -0.06    -0.04  -0.01  -0.10
  36   6    -0.08  -0.09  -0.14    -0.05   0.00  -0.17    -0.06  -0.02  -0.18
  37   6    -0.07  -0.00   0.16     0.07   0.00   0.06     0.04   0.01   0.10
  38   6    -0.06   0.06   0.16     0.10  -0.01   0.14     0.06   0.01   0.15
  39   6    -0.05   0.05  -0.16    -0.04  -0.06  -0.11    -0.05  -0.03  -0.15
  40   6     0.01  -0.03  -0.22    -0.09  -0.02  -0.12    -0.06  -0.02  -0.15
  41   6     0.09  -0.02  -0.00     0.00   0.07   0.09    -0.02   0.04   0.09
  42   6     0.09   0.02  -0.02    -0.02   0.03   0.06    -0.05   0.01   0.02
  43   8     0.00   0.01  -0.00     0.00  -0.05  -0.08    -0.06   0.00  -0.00
  44   6    -0.07  -0.00   0.04    -0.04   0.02   0.02     0.05   0.02   0.01
  45   6    -0.07   0.02   0.00    -0.04   0.06   0.06     0.07  -0.03  -0.07
  46   1     0.01   0.00   0.11    -0.04   0.01   0.05     0.03  -0.01  -0.08
  47   1     0.01   0.04   0.12    -0.05   0.00   0.10     0.04  -0.02  -0.11
  48   1     0.01   0.03  -0.06     0.02  -0.03  -0.04    -0.02   0.01   0.05
  49   1     0.03  -0.06  -0.04     0.02   0.01  -0.06    -0.02   0.01   0.06
  50   1    -0.01   0.06   0.02     0.02  -0.02  -0.06    -0.02   0.01   0.06
  51   1     0.07   0.02  -0.08    -0.03   0.00   0.08     0.02  -0.01  -0.08
  52   1     0.07  -0.02  -0.05    -0.04   0.02   0.12     0.03  -0.02  -0.12
  53   1     0.00  -0.04   0.05     0.01  -0.00  -0.05    -0.02   0.02   0.05
  54   1    -0.02   0.01  -0.01     0.01   0.03   0.02    -0.02  -0.03  -0.04
  55   1    -0.03   0.02  -0.01     0.02   0.01   0.01    -0.03  -0.00   0.00
  56   1     0.02  -0.01   0.02     0.02   0.01  -0.00     0.03  -0.01  -0.02
  57   1     0.01  -0.00   0.01     0.03   0.02   0.02     0.04   0.01   0.02
  58   1    -0.00  -0.04   0.05    -0.01   0.00  -0.05    -0.02  -0.02  -0.05
  59   1    -0.07  -0.01  -0.05     0.04   0.02   0.12     0.03   0.02   0.12
  60   1    -0.06   0.02  -0.08     0.03  -0.00   0.08     0.02   0.01   0.08
  61   1     0.02   0.06   0.02    -0.02  -0.02  -0.06    -0.02  -0.00  -0.06
  62   1    -0.03  -0.06  -0.04    -0.02   0.02  -0.06    -0.02  -0.01  -0.06
  63   1    -0.02   0.00   0.11     0.04   0.01   0.05     0.03   0.01   0.08
  64   1    -0.01   0.04   0.12     0.06   0.00   0.10     0.04   0.01   0.11
  65   1    -0.01   0.04  -0.05    -0.02  -0.03  -0.04    -0.02  -0.01  -0.05
  66   1     0.02  -0.01   0.00    -0.01   0.03   0.03    -0.02   0.03   0.04
  67   1     0.04   0.01  -0.01    -0.02   0.01   0.01    -0.03   0.00  -0.00
  68   1    -0.02  -0.01   0.01    -0.02   0.01  -0.00     0.03   0.01   0.02
  69   1    -0.01   0.01  -0.00    -0.03   0.02   0.02     0.04  -0.01  -0.02
                     28                     29                     30
                        a                      a                      a 
 Frequencies --   281.5234               332.4627               354.7400
 Red. masses --    11.8014                12.1407                11.5016
 Frc consts  --     0.0000                 0.0000                 0.0000
 IR Inten    --     3.8273                 5.2874                 0.4692
 Raman Activ --     0.0000                 0.0000                 0.0000
 Depolar     --     0.0000                 0.0000                 0.0000
 Atom AN      X      Y      Z        X      Y      Z        X      Y      Z
   1   6     0.13  -0.02   0.07     0.03   0.05   0.10    -0.05  -0.01  -0.00
   2   6     0.11   0.07   0.04     0.05   0.07   0.02    -0.05  -0.02  -0.00
   3   6    -0.04   0.11  -0.07     0.01   0.07  -0.12    -0.00  -0.03  -0.00
   4   6    -0.15   0.01  -0.09    -0.08   0.04  -0.01     0.02   0.02   0.06
   5   6    -0.15  -0.04  -0.08    -0.07   0.01  -0.07     0.02   0.01   0.03
   6   6     0.01  -0.12   0.00     0.02  -0.02  -0.08     0.00   0.01  -0.02
   7   8    -0.25  -0.06  -0.07    -0.12   0.01   0.00    -0.05  -0.07  -0.04
   8   6    -0.18  -0.03  -0.01    -0.03  -0.01  -0.04    -0.08  -0.05   0.01
   9   6    -0.04   0.11  -0.00    -0.00   0.01  -0.09    -0.01   0.00  -0.03
  10   6     0.12   0.08  -0.00    -0.04   0.03   0.08     0.07  -0.01   0.03
  11   6     0.14  -0.02   0.03    -0.02  -0.01   0.01     0.08  -0.06   0.04
  12   6    -0.01  -0.12   0.05    -0.00  -0.04  -0.11     0.01  -0.11   0.01
  13   6    -0.16  -0.07   0.01    -0.03  -0.02   0.02    -0.09  -0.06   0.04
  14   7    -0.11  -0.02  -0.02    -0.08   0.03   0.31    -0.00   0.04   0.05
  15   6    -0.06  -0.01  -0.02     0.05  -0.10   0.01     0.02   0.22  -0.12
  16   6     0.03  -0.02  -0.03     0.15  -0.10  -0.03     0.08   0.20  -0.11
  17   6     0.04   0.00  -0.04     0.15  -0.05  -0.13     0.09  -0.14   0.09
  18   6     0.10   0.02   0.02     0.13  -0.03  -0.13     0.06  -0.24   0.13
  19   6     0.13   0.01   0.02     0.02   0.08   0.12     0.02   0.05   0.01
  20   7     0.20   0.01   0.01    -0.01   0.10   0.15     0.00   0.08   0.00
  21   7     0.20  -0.01  -0.01     0.01   0.10   0.15     0.00   0.08  -0.00
  22   6     0.13  -0.01  -0.02    -0.02   0.08   0.12    -0.02   0.05   0.00
  23   6     0.10  -0.02  -0.02    -0.13  -0.04  -0.13    -0.06  -0.24   0.13
  24   6     0.01  -0.00  -0.04    -0.09  -0.06  -0.12    -0.03  -0.16   0.08
  25   6    -0.00  -0.02  -0.03    -0.05  -0.10  -0.04    -0.00   0.19  -0.12
  26   6    -0.07   0.01   0.02    -0.05  -0.10   0.01    -0.02   0.22  -0.12
  27   7    -0.11   0.02   0.02     0.08   0.03   0.31     0.00   0.04   0.05
  28   6    -0.16   0.07  -0.01     0.03  -0.02   0.02     0.09  -0.06   0.04
  29   6    -0.01   0.12  -0.05     0.00  -0.04  -0.11    -0.01  -0.11   0.01
  30   6     0.14   0.02  -0.03     0.02  -0.01   0.01    -0.08  -0.06   0.04
  31   6     0.12  -0.08  -0.00     0.04   0.03   0.08    -0.07  -0.02   0.03
  32   6    -0.04  -0.11   0.00     0.00   0.01  -0.09     0.01   0.00  -0.03
  33   6    -0.18   0.03   0.01     0.03  -0.01  -0.04     0.08  -0.05   0.01
  34   8    -0.25   0.06   0.07     0.12   0.01   0.00     0.05  -0.07  -0.04
  35   6    -0.15   0.04   0.08     0.07   0.01  -0.07    -0.02   0.01   0.03
  36   6     0.01   0.12   0.00    -0.02  -0.02  -0.08    -0.00   0.01  -0.02
  37   6     0.12   0.02  -0.07    -0.03   0.05   0.10     0.05  -0.01  -0.01
  38   6     0.11  -0.07  -0.04    -0.04   0.07   0.02     0.05  -0.02  -0.00
  39   6    -0.03  -0.11   0.07    -0.01   0.07  -0.12     0.01  -0.03  -0.00
  40   6    -0.15  -0.01   0.09     0.08   0.04  -0.01    -0.02   0.02   0.05
  41   6     0.03   0.02   0.02    -0.15  -0.10  -0.03    -0.08   0.20  -0.11
  42   6     0.04  -0.00   0.04    -0.15  -0.05  -0.13    -0.10  -0.14   0.09
  43   8     0.15   0.00   0.00    -0.00   0.08   0.22    -0.00   0.27  -0.14
  44   6     0.01   0.00   0.04     0.09  -0.06  -0.13     0.03  -0.16   0.07
  45   6    -0.00   0.02   0.02     0.05  -0.10  -0.04     0.00   0.19  -0.12
  46   1     0.06  -0.01   0.04     0.01   0.01   0.07    -0.02  -0.00  -0.01
  47   1     0.05   0.04   0.02     0.02   0.03   0.02    -0.02  -0.01  -0.01
  48   1    -0.02   0.08  -0.02     0.00   0.04  -0.05     0.01  -0.02  -0.02
  49   1     0.01  -0.08   0.01     0.01  -0.03  -0.03     0.00   0.02  -0.02
  50   1    -0.02   0.08  -0.01     0.00   0.00  -0.04    -0.00   0.02  -0.03
  51   1     0.06   0.04  -0.01    -0.02   0.02   0.06     0.03   0.01   0.01
  52   1     0.07  -0.02   0.01    -0.00  -0.00   0.02     0.04  -0.02   0.01
  53   1     0.00  -0.08   0.02     0.00  -0.02  -0.04     0.01  -0.05  -0.02
  54   1     0.02   0.00   0.00     0.05  -0.03   0.01     0.03   0.09  -0.04
  55   1    -0.00   0.01  -0.01     0.05  -0.01  -0.04     0.04  -0.06   0.04
  56   1    -0.01   0.01  -0.01    -0.02  -0.02  -0.05    -0.00  -0.07   0.03
  57   1     0.01  -0.01  -0.00    -0.01  -0.04  -0.01     0.01   0.08  -0.05
  58   1     0.01   0.08  -0.02    -0.00  -0.02  -0.04    -0.01  -0.05  -0.02
  59   1     0.07   0.02  -0.01     0.00  -0.00   0.02    -0.04  -0.02   0.01
  60   1     0.06  -0.04   0.01     0.02   0.01   0.06    -0.03   0.01   0.01
  61   1    -0.02  -0.08   0.01    -0.00   0.00  -0.04     0.00   0.02  -0.03
  62   1     0.01   0.08  -0.01    -0.01  -0.03  -0.03    -0.00   0.02  -0.02
  63   1     0.06   0.01  -0.04    -0.01   0.01   0.07     0.02  -0.00  -0.01
  64   1     0.05  -0.04  -0.03    -0.02   0.03   0.02     0.02  -0.01  -0.01
  65   1    -0.02  -0.08   0.02    -0.00   0.04  -0.05    -0.01  -0.02  -0.02
  66   1     0.02  -0.00  -0.01    -0.05  -0.03   0.01    -0.03   0.09  -0.04
  67   1    -0.00  -0.01   0.01    -0.06  -0.01  -0.04    -0.04  -0.06   0.04
  68   1    -0.01  -0.01   0.01     0.02  -0.02  -0.05     0.00  -0.07   0.03
  69   1     0.02   0.00   0.00     0.01  -0.04  -0.01    -0.01   0.08  -0.05
                     31                     32                     33
                        a                      a                      a 
 Frequencies --   368.0890               371.5229               376.6993
 Red. masses --    11.7133                11.6079                 9.1326
 Frc consts  --     0.0000                 0.0000                 0.0000
 IR Inten    --     0.0231                 3.5549                33.3320
 Raman Activ --     0.0000                 0.0000                 0.0000
 Depolar     --     0.0000                 0.0000                 0.0000
 Atom AN      X      Y      Z        X      Y      Z        X      Y      Z
   1   6    -0.02  -0.04  -0.11     0.01   0.10  -0.07    -0.01   0.04  -0.00
   2   6    -0.05  -0.03  -0.01    -0.01   0.15  -0.03    -0.02   0.03   0.00
   3   6    -0.03  -0.02   0.11    -0.06   0.15   0.02     0.01   0.02  -0.02
   4   6     0.08  -0.01  -0.08    -0.04   0.08  -0.10    -0.01   0.02   0.04
   5   6     0.05  -0.01   0.02    -0.07   0.06  -0.05    -0.01   0.02   0.03
   6   6    -0.03   0.03   0.09    -0.06   0.07   0.04    -0.01   0.03  -0.04
   7   8    -0.00  -0.06   0.01    -0.18  -0.05  -0.03    -0.01   0.00  -0.00
   8   6    -0.05  -0.04  -0.01    -0.04  -0.10  -0.01     0.02  -0.02  -0.02
   9   6    -0.03   0.01   0.09    -0.03  -0.08   0.05    -0.01  -0.03   0.02
  10   6     0.08  -0.04  -0.08     0.06  -0.12  -0.01    -0.01  -0.04   0.01
  11   6     0.06  -0.04   0.02     0.05  -0.15   0.04    -0.00  -0.04  -0.01
  12   6    -0.01  -0.05   0.12     0.01  -0.14   0.07     0.01  -0.02   0.01
  13   6    -0.03  -0.05  -0.10    -0.01  -0.12  -0.05     0.02  -0.02  -0.03
  14   7     0.11  -0.01  -0.37     0.13   0.00  -0.15     0.01   0.00   0.03
  15   6    -0.05   0.19   0.09     0.09   0.04   0.12     0.02  -0.00  -0.00
  16   6    -0.00   0.14   0.14     0.12  -0.02   0.18     0.01  -0.25   0.19
  17   6     0.07  -0.00   0.06     0.15   0.14  -0.01    -0.00   0.24  -0.18
  18   6     0.01  -0.03  -0.02     0.08   0.06  -0.03    -0.01   0.00  -0.00
  19   6     0.03   0.00  -0.12     0.04  -0.04  -0.05    -0.01  -0.00   0.01
  20   7    -0.09   0.02  -0.11     0.01  -0.06  -0.04    -0.01  -0.01   0.01
  21   7    -0.09  -0.02   0.11    -0.01  -0.06  -0.04    -0.01   0.01  -0.01
  22   6     0.03   0.00   0.12    -0.04  -0.04  -0.05    -0.01   0.00  -0.01
  23   6     0.01   0.02   0.02    -0.08   0.06  -0.03    -0.01  -0.00   0.00
  24   6    -0.06   0.05  -0.03    -0.10  -0.01   0.04     0.02   0.22  -0.16
  25   6    -0.09  -0.13  -0.10    -0.09   0.09   0.07     0.01  -0.23   0.18
  26   6    -0.05  -0.18  -0.09    -0.09   0.04   0.12     0.03   0.00  -0.00
  27   7     0.11   0.00   0.37    -0.13   0.00  -0.15     0.01  -0.00  -0.02
  28   6    -0.02   0.05   0.11     0.01  -0.12  -0.05     0.02   0.02   0.03
  29   6    -0.01   0.05  -0.12    -0.01  -0.14   0.07     0.01   0.02  -0.01
  30   6     0.06   0.04  -0.02    -0.05  -0.15   0.03    -0.00   0.04   0.01
  31   6     0.08   0.03   0.08    -0.06  -0.12  -0.01    -0.00   0.04  -0.01
  32   6    -0.04  -0.01  -0.09     0.03  -0.08   0.05    -0.01   0.03  -0.02
  33   6    -0.05   0.04   0.01     0.04  -0.10  -0.01     0.02   0.02   0.02
  34   8    -0.01   0.06  -0.01     0.18  -0.05  -0.03    -0.01  -0.00   0.00
  35   6     0.05   0.01  -0.02     0.07   0.06  -0.05    -0.01  -0.02  -0.02
  36   6    -0.03  -0.02  -0.09     0.06   0.07   0.04    -0.01  -0.03   0.03
  37   6    -0.02   0.03   0.11    -0.01   0.10  -0.06    -0.01  -0.04   0.00
  38   6    -0.05   0.03   0.01     0.01   0.15  -0.03    -0.02  -0.04  -0.00
  39   6    -0.04   0.02  -0.11     0.06   0.15   0.02     0.01  -0.03   0.01
  40   6     0.08   0.01   0.08     0.04   0.09  -0.10    -0.01  -0.02  -0.03
  41   6    -0.00  -0.13  -0.15    -0.12  -0.02   0.17     0.01   0.24  -0.18
  42   6     0.07  -0.00  -0.06    -0.15   0.14  -0.01     0.00  -0.23   0.16
  43   8     0.12   0.00  -0.00     0.00  -0.12  -0.04    -0.02   0.00   0.00
  44   6    -0.06  -0.05   0.04     0.10  -0.01   0.04     0.02  -0.23   0.18
  45   6    -0.10   0.14   0.10     0.09   0.09   0.06     0.01   0.24  -0.20
  46   1    -0.00  -0.01  -0.07     0.02   0.02  -0.03    -0.00   0.01  -0.00
  47   1    -0.02  -0.01  -0.00     0.00   0.05  -0.01    -0.01   0.01  -0.00
  48   1    -0.02  -0.02   0.06    -0.03   0.06   0.03     0.01   0.01  -0.03
  49   1    -0.02   0.03   0.05    -0.03   0.02   0.04     0.00   0.01  -0.03
  50   1    -0.02   0.03   0.05    -0.01  -0.01   0.03    -0.00  -0.01   0.02
  51   1     0.04  -0.01  -0.05     0.03  -0.03  -0.02    -0.00  -0.01   0.01
  52   1     0.02  -0.01   0.01     0.02  -0.04   0.01    -0.01  -0.01  -0.00
  53   1    -0.01  -0.02   0.06     0.00  -0.06   0.04    -0.00  -0.00   0.02
  54   1     0.02   0.06   0.06     0.05  -0.02   0.08    -0.00  -0.15   0.11
  55   1     0.05  -0.01   0.02     0.06   0.06  -0.03     0.00   0.15  -0.11
  56   1    -0.04   0.04  -0.00    -0.03  -0.02   0.02     0.01   0.14  -0.11
  57   1    -0.06  -0.05  -0.03    -0.01   0.04   0.01     0.00  -0.13   0.10
  58   1    -0.01   0.02  -0.06    -0.00  -0.06   0.04    -0.00   0.00  -0.02
  59   1     0.02   0.01  -0.01    -0.02  -0.04   0.01    -0.00   0.01   0.00
  60   1     0.04   0.01   0.05    -0.03  -0.03  -0.02    -0.00   0.01  -0.01
  61   1    -0.02  -0.02  -0.05     0.01  -0.01   0.03    -0.00   0.01  -0.02
  62   1    -0.02  -0.03  -0.06     0.03   0.02   0.04     0.00  -0.01   0.02
  63   1    -0.00   0.01   0.07    -0.02   0.02  -0.03    -0.00  -0.01   0.00
  64   1    -0.02   0.01   0.00    -0.00   0.05  -0.01    -0.01  -0.01   0.00
  65   1    -0.02   0.02  -0.06     0.03   0.06   0.03     0.01  -0.01   0.02
  66   1     0.02  -0.06  -0.06    -0.05  -0.02   0.07     0.00   0.14  -0.10
  67   1     0.05   0.01  -0.01    -0.06   0.06  -0.03     0.00  -0.14   0.10
  68   1    -0.04  -0.04   0.00     0.03  -0.02   0.02     0.01  -0.15   0.12
  69   1    -0.06   0.05   0.03     0.01   0.04   0.01    -0.00   0.14  -0.11
                     34                     35                     36
                        a                      a                      a 
 Frequencies --   378.1938               389.7212               399.9578
 Red. masses --     9.2492                11.4161                11.1416
 Frc consts  --     0.0000                 0.0000                 0.0000
 IR Inten    --     0.6588                 0.1871                 0.0019
 Raman Activ --     0.0000                 0.0000                 0.0000
 Depolar     --     0.0000                 0.0000                 0.0000
 Atom AN      X      Y      Z        X      Y      Z        X      Y      Z
   1   6     0.01   0.02  -0.02    -0.01   0.21  -0.04     0.06  -0.04  -0.02
   2   6     0.01   0.03  -0.02    -0.01   0.23  -0.06     0.04   0.04  -0.01
   3   6    -0.02   0.04   0.01    -0.00   0.20  -0.00    -0.08   0.07   0.02
   4   6    -0.00   0.01  -0.07    -0.02   0.11  -0.07    -0.08  -0.01  -0.15
   5   6    -0.01   0.01  -0.05    -0.02   0.10  -0.06    -0.09  -0.06  -0.09
   6   6    -0.02   0.01   0.04    -0.07   0.16  -0.01    -0.06  -0.08   0.07
   7   8    -0.06  -0.01  -0.01    -0.11  -0.02  -0.03    -0.02   0.05   0.05
   8   6    -0.03  -0.02   0.03     0.01  -0.10   0.06     0.13   0.00  -0.04
   9   6     0.00  -0.01  -0.01     0.01  -0.18  -0.02     0.05  -0.03   0.09
  10   6     0.02  -0.02  -0.00     0.04  -0.21   0.06    -0.03  -0.03  -0.05
  11   6     0.02  -0.03   0.02     0.04  -0.21   0.06    -0.05   0.05  -0.04
  12   6    -0.00  -0.04   0.01     0.08  -0.17   0.01     0.01   0.12   0.05
  13   6    -0.02  -0.03   0.02     0.01  -0.10   0.07     0.13   0.05  -0.10
  14   7     0.04   0.00  -0.04     0.08   0.02   0.04     0.03  -0.04  -0.09
  15   6     0.01   0.01   0.03     0.08  -0.01   0.02    -0.02  -0.17   0.19
  16   6     0.03   0.24  -0.14     0.03   0.05  -0.00    -0.01  -0.05   0.10
  17   6     0.04  -0.19   0.17     0.01   0.01   0.04     0.02   0.14  -0.11
  18   6     0.03   0.01  -0.01    -0.03   0.00  -0.00     0.01   0.04  -0.05
  19   6     0.01  -0.01  -0.01    -0.06  -0.02   0.00     0.01  -0.18   0.11
  20   7     0.00  -0.01  -0.01    -0.11  -0.02   0.01    -0.02  -0.20   0.14
  21   7    -0.00  -0.01  -0.01    -0.11   0.02  -0.01    -0.02   0.21  -0.13
  22   6    -0.01  -0.01  -0.01    -0.06   0.02  -0.00     0.01   0.18  -0.11
  23   6    -0.03   0.01  -0.01    -0.03  -0.00   0.00     0.00  -0.05   0.04
  24   6    -0.02   0.24  -0.18     0.04  -0.04   0.03    -0.01  -0.14   0.10
  25   6    -0.03  -0.24   0.22     0.06   0.05  -0.02    -0.01   0.06  -0.09
  26   6    -0.01   0.01   0.03     0.08   0.01  -0.02    -0.01   0.18  -0.18
  27   7    -0.03   0.00  -0.04     0.08  -0.02  -0.04     0.03   0.04   0.07
  28   6     0.02  -0.03   0.03     0.01   0.11  -0.07     0.14  -0.05   0.09
  29   6     0.00  -0.04   0.01     0.08   0.17  -0.01     0.02  -0.11  -0.05
  30   6    -0.02  -0.02   0.02     0.04   0.21  -0.06    -0.05  -0.05   0.03
  31   6    -0.02  -0.01  -0.00     0.04   0.21  -0.06    -0.03   0.03   0.04
  32   6    -0.00  -0.01  -0.01     0.01   0.18   0.02     0.05   0.04  -0.09
  33   6     0.03  -0.02   0.03     0.01   0.10  -0.06     0.13  -0.00   0.03
  34   8     0.06  -0.01  -0.01    -0.11   0.02   0.03    -0.02  -0.05  -0.05
  35   6     0.01   0.00  -0.05    -0.02  -0.10   0.06    -0.09   0.05   0.09
  36   6     0.02   0.01   0.04    -0.07  -0.16   0.00    -0.06   0.08  -0.06
  37   6    -0.02   0.01  -0.01    -0.02  -0.22   0.04     0.06   0.03   0.02
  38   6    -0.01   0.03  -0.02    -0.01  -0.23   0.06     0.04  -0.05   0.01
  39   6     0.02   0.04   0.02    -0.00  -0.20   0.00    -0.08  -0.08  -0.02
  40   6     0.00   0.01  -0.07    -0.02  -0.11   0.07    -0.08   0.01   0.14
  41   6    -0.03   0.26  -0.15     0.03  -0.05   0.00    -0.01   0.06  -0.09
  42   6    -0.05  -0.21   0.18     0.01  -0.00  -0.05     0.01  -0.15   0.11
  43   8    -0.00  -0.04  -0.00    -0.08   0.00   0.00     0.04   0.00   0.01
  44   6     0.02   0.22  -0.17     0.04   0.03  -0.04    -0.01   0.13  -0.11
  45   6     0.03  -0.22   0.21     0.06  -0.05   0.02    -0.02  -0.05   0.10
  46   1     0.01   0.00  -0.00     0.01   0.06  -0.00     0.03  -0.02   0.00
  47   1     0.01   0.01  -0.00    -0.01   0.06  -0.02     0.02   0.03   0.01
  48   1    -0.02   0.02   0.03    -0.01   0.07   0.02    -0.04   0.05   0.04
  49   1    -0.01   0.00   0.03    -0.03   0.05   0.02    -0.03  -0.05   0.07
  50   1     0.00   0.00  -0.01     0.01  -0.07  -0.02     0.01  -0.03   0.08
  51   1     0.01  -0.00  -0.01     0.02  -0.05   0.02    -0.02  -0.02  -0.02
  52   1     0.01  -0.01   0.01     0.00  -0.06   0.01    -0.03   0.02  -0.01
  53   1     0.00  -0.02  -0.01     0.03  -0.06  -0.02    -0.01   0.06   0.06
  54   1     0.01   0.14  -0.09    -0.00   0.02  -0.02     0.01  -0.00   0.03
  55   1     0.02  -0.13   0.10     0.01  -0.01   0.02     0.01   0.08  -0.06
  56   1    -0.00   0.15  -0.12     0.02  -0.03   0.01    -0.01  -0.08   0.06
  57   1    -0.01  -0.14   0.12     0.01   0.02  -0.02    -0.01   0.01  -0.02
  58   1    -0.00  -0.02  -0.02     0.03   0.06   0.02    -0.01  -0.06  -0.05
  59   1    -0.01  -0.01   0.01     0.00   0.06  -0.01    -0.04  -0.02   0.01
  60   1    -0.01  -0.00  -0.01     0.02   0.05  -0.02    -0.02   0.03   0.01
  61   1    -0.00   0.00  -0.02     0.01   0.06   0.02     0.01   0.03  -0.07
  62   1     0.01  -0.00   0.04    -0.03  -0.05  -0.02    -0.03   0.05  -0.06
  63   1    -0.01   0.00  -0.00     0.01  -0.06   0.00     0.03   0.02  -0.00
  64   1    -0.01   0.01  -0.00    -0.01  -0.06   0.02     0.02  -0.03  -0.01
  65   1     0.02   0.02   0.03    -0.01  -0.07  -0.02    -0.04  -0.05  -0.04
  66   1    -0.01   0.15  -0.09    -0.00  -0.02   0.02     0.00   0.01  -0.03
  67   1    -0.02  -0.14   0.11     0.01   0.01  -0.02     0.01  -0.08   0.06
  68   1     0.00   0.14  -0.11     0.02   0.03  -0.01    -0.01   0.07  -0.07
  69   1     0.01  -0.13   0.11     0.01  -0.02   0.02    -0.02  -0.01   0.03
                     37                     38                     39
                        a                      a                      a 
 Frequencies --   401.8306               422.0979               423.6557
 Red. masses --    10.8976                11.1205                10.8209
 Frc consts  --     0.0000                 0.0000                 0.0000
 IR Inten    --     0.2390                 1.0134                 2.2035
 Raman Activ --     0.0000                 0.0000                 0.0000
 Depolar     --     0.0000                 0.0000                 0.0000
 Atom AN      X      Y      Z        X      Y      Z        X      Y      Z
   1   6    -0.01   0.16   0.02    -0.03   0.16  -0.08     0.01  -0.06  -0.03
   2   6     0.00   0.15  -0.03    -0.02   0.04  -0.04    -0.01   0.09  -0.05
   3   6     0.04   0.12  -0.05     0.10   0.00   0.13    -0.13   0.13   0.03
   4   6    -0.05   0.06   0.05     0.18  -0.03  -0.09    -0.10   0.03  -0.18
   5   6    -0.02   0.07  -0.00     0.18   0.08  -0.08    -0.08  -0.12  -0.14
   6   6    -0.04   0.10  -0.07    -0.01   0.20   0.07    -0.12  -0.11   0.08
   7   8     0.01   0.03  -0.04     0.09   0.01   0.04     0.03   0.00   0.07
   8   6     0.05  -0.03   0.10    -0.07   0.01   0.05     0.20  -0.06   0.04
   9   6     0.04  -0.14  -0.08    -0.06  -0.04  -0.06     0.13  -0.16   0.08
  10   6    -0.01  -0.14   0.09     0.02  -0.07   0.02     0.03  -0.15   0.02
  11   6    -0.01  -0.12   0.03     0.02  -0.12   0.05    -0.00   0.03  -0.01
  12   6     0.09  -0.07  -0.07     0.04  -0.12  -0.02     0.11   0.14   0.03
  13   6     0.03  -0.01   0.16    -0.07  -0.05   0.04     0.15   0.11  -0.01
  14   7    -0.02   0.00   0.17    -0.03  -0.01  -0.06    -0.03   0.03   0.02
[...]
  46   1     0.04   0.09  -0.00     0.00   0.01  -0.00    -0.07  -0.19   0.00
  47   1    -0.01   0.02  -0.01    -0.00   0.00  -0.00     0.21  -0.27   0.12
  48   1     0.07   0.01   0.02     0.01   0.00   0.00     0.57   0.10   0.19
  49   1    -0.04  -0.01  -0.01    -0.01  -0.00  -0.00     0.29   0.05   0.08
  50   1    -0.33  -0.09  -0.08    -0.02  -0.01  -0.01    -0.12  -0.03  -0.03
  51   1     0.45  -0.49   0.19     0.03  -0.03   0.01     0.04  -0.04   0.02
  52   1    -0.07  -0.22   0.02    -0.00  -0.01   0.00    -0.05  -0.14   0.01
  53   1     0.47   0.12   0.10     0.03   0.01   0.01    -0.24  -0.06  -0.05
  54   1    -0.05   0.03   0.04    -0.00   0.00   0.00     0.01  -0.00  -0.01
  55   1    -0.00  -0.01  -0.01     0.00   0.00   0.00     0.00   0.00   0.00
  56   1     0.01   0.00   0.00     0.00   0.00   0.00     0.00   0.00   0.00
  57   1    -0.00   0.00   0.01     0.00  -0.01  -0.01    -0.00   0.01   0.01
  58   1     0.03  -0.01  -0.01    -0.47   0.12   0.10    -0.11   0.03   0.02
  59   1    -0.01   0.02  -0.00     0.07  -0.22   0.01    -0.02   0.06  -0.00
  60   1     0.03   0.04  -0.01    -0.45  -0.50   0.19     0.02   0.02  -0.01
  61   1    -0.02   0.01   0.01     0.33  -0.09  -0.08    -0.05   0.01   0.01
  62   1     0.00  -0.00  -0.00     0.03  -0.01  -0.01     0.14  -0.02  -0.04
  63   1    -0.00   0.00  -0.00    -0.03   0.07  -0.00    -0.04   0.09  -0.00
  64   1     0.00   0.00  -0.00     0.01   0.01  -0.01     0.11   0.14  -0.06
  65   1    -0.00   0.00   0.00    -0.06   0.01   0.02     0.28  -0.05  -0.09
  66   1    -0.01  -0.00  -0.00     0.05   0.03   0.03     0.00   0.00   0.00
  67   1    -0.00   0.00   0.00     0.00  -0.01  -0.01    -0.00   0.00   0.00
  68   1    -0.00   0.00   0.00    -0.01   0.00   0.00     0.00  -0.00  -0.00
  69   1    -0.00  -0.01  -0.01     0.00   0.00   0.00    -0.01  -0.02  -0.02
                    193                    194                    195
                        a                      a                      a 
 Frequencies --  3106.6085              3107.4069              3107.5157
 Red. masses --     1.8637                 1.8624                 1.8620
 Frc consts  --     0.0000                 0.0000                 0.0000
 IR Inten    --    48.6750                37.7847                40.3363
 Raman Activ --     0.0000                 0.0000                 0.0000
 Depolar     --     0.0000                 0.0000                 0.0000
 Atom AN      X      Y      Z        X      Y      Z        X      Y      Z
   1   6     0.01   0.03  -0.00     0.01   0.03  -0.00     0.00   0.00  -0.00
   2   6    -0.03   0.04  -0.02    -0.03   0.04  -0.02    -0.00   0.00  -0.00
   3   6    -0.08  -0.01  -0.03    -0.07  -0.01  -0.02    -0.01  -0.00  -0.00
   4   6    -0.00  -0.00   0.00    -0.00  -0.00   0.00    -0.00  -0.00   0.00
   5   6    -0.00   0.00  -0.00    -0.00   0.00  -0.00    -0.00   0.00  -0.00
   6   6    -0.04  -0.01  -0.01    -0.03  -0.01  -0.01    -0.00  -0.00  -0.00
   7   8     0.00   0.00  -0.00     0.00  -0.00   0.00     0.00  -0.00   0.00
   8   6    -0.00   0.00  -0.00    -0.00  -0.00   0.00    -0.00  -0.00   0.00
   9   6     0.02   0.00   0.00    -0.09  -0.02  -0.02    -0.00  -0.00  -0.00
  10   6    -0.01   0.01  -0.00     0.04  -0.04   0.02     0.00  -0.00   0.00
  11   6     0.01   0.02  -0.00    -0.04  -0.12   0.01    -0.00  -0.01   0.00
  12   6     0.03   0.01   0.01    -0.19  -0.05  -0.04    -0.01  -0.00  -0.00
  13   6     0.00  -0.00   0.00    -0.00   0.01  -0.00    -0.00   0.00  -0.00
  14   7    -0.00   0.00  -0.00    -0.00  -0.00  -0.00    -0.00  -0.00  -0.00
  15   6     0.00  -0.00  -0.00     0.00   0.00   0.00     0.00   0.00   0.00
  16   6    -0.00   0.00   0.00     0.01  -0.00  -0.01     0.00  -0.00  -0.00
  17   6    -0.00  -0.00  -0.00     0.00   0.00   0.00     0.00   0.00   0.00
  18   6    -0.00  -0.00  -0.00    -0.00   0.00   0.00    -0.00  -0.00  -0.00
  19   6    -0.00   0.00   0.00    -0.00  -0.00  -0.00     0.00  -0.00  -0.00
  20   7     0.00  -0.00   0.00    -0.00   0.00   0.00     0.00   0.00   0.00
  21   7    -0.00  -0.00   0.00     0.00  -0.00  -0.00    -0.00  -0.00  -0.00
  22   6     0.00   0.00  -0.00     0.00   0.00   0.00    -0.00   0.00   0.00
  23   6    -0.00  -0.00  -0.00    -0.00   0.00   0.00    -0.00  -0.00  -0.00
  24   6     0.00   0.00   0.00    -0.00  -0.00  -0.00    -0.00  -0.00  -0.00
  25   6    -0.00   0.01   0.01    -0.00   0.00   0.00     0.00  -0.00  -0.00
  26   6    -0.00  -0.00  -0.00    -0.00   0.00   0.00     0.00  -0.00  -0.00
  27   7     0.00   0.00  -0.00     0.00  -0.00  -0.00    -0.00   0.00   0.00
  28   6    -0.00  -0.00   0.00     0.00   0.00  -0.00    -0.00  -0.01   0.00
  29   6    -0.06   0.02   0.01     0.01  -0.00  -0.00    -0.19   0.05   0.04
  30   6    -0.01   0.04  -0.00     0.00  -0.01   0.00    -0.04   0.12  -0.01
  31   6     0.01   0.01  -0.00    -0.00  -0.00   0.00     0.04   0.04  -0.02
  32   6    -0.03   0.01   0.01     0.00  -0.00  -0.00    -0.09   0.02   0.02
  33   6     0.00   0.00  -0.00    -0.00  -0.00   0.00    -0.00   0.00  -0.00
  34   8    -0.00   0.00  -0.00    -0.00  -0.00   0.00     0.00   0.00  -0.00
  35   6     0.00   0.00  -0.00     0.00   0.00  -0.00    -0.00  -0.00   0.00
  36   6     0.08  -0.01  -0.02     0.00  -0.00  -0.00    -0.03   0.01   0.01
  37   6    -0.02   0.06   0.00    -0.00   0.00   0.00     0.01  -0.02  -0.00
  38   6     0.07   0.09  -0.04     0.00   0.00  -0.00    -0.03  -0.03   0.01
  39   6     0.17  -0.03  -0.06     0.00  -0.00  -0.00    -0.07   0.01   0.02
  40   6     0.00  -0.01   0.00     0.00  -0.00   0.00    -0.00   0.00  -0.00
  41   6     0.00   0.00   0.00    -0.00  -0.00  -0.00     0.01   0.00   0.01
  42   6     0.00  -0.00  -0.00     0.00  -0.00  -0.00     0.00  -0.00  -0.00
  43   8     0.00  -0.00  -0.00    -0.00  -0.00  -0.00    -0.00   0.00   0.00
  44   6    -0.00   0.00   0.00    -0.00   0.00   0.00    -0.00   0.00   0.00
  45   6     0.00   0.00   0.00     0.00   0.00   0.00     0.00   0.00   0.00
  46   1    -0.04  -0.09   0.00    -0.04  -0.09   0.00    -0.00  -0.01   0.00
  47   1     0.11  -0.14   0.06     0.09  -0.12   0.05     0.01  -0.01   0.00
  48   1     0.28   0.05   0.09     0.25   0.05   0.08     0.02   0.00   0.01
  49   1     0.14   0.02   0.04     0.12   0.02   0.04     0.01   0.00   0.00
  50   1    -0.06  -0.02  -0.01     0.33   0.09   0.08     0.02   0.00   0.00
  51   1     0.02  -0.02   0.01    -0.12   0.13  -0.05    -0.01   0.01  -0.00
  52   1    -0.02  -0.06   0.00     0.13   0.38  -0.03     0.01   0.02  -0.00
  53   1    -0.11  -0.03  -0.02     0.65   0.17   0.13     0.03   0.01   0.01
  54   1     0.00  -0.00  -0.00    -0.03   0.02   0.02    -0.00   0.00   0.00
  55   1     0.00   0.00   0.00    -0.00  -0.00  -0.01    -0.00  -0.00  -0.00
  56   1    -0.01  -0.00  -0.00     0.00   0.00   0.00     0.00   0.00   0.00
  57   1     0.01  -0.02  -0.03     0.00  -0.00  -0.00    -0.00   0.01   0.01
  58   1     0.21  -0.05  -0.04    -0.04   0.01   0.01     0.66  -0.17  -0.14
  59   1     0.04  -0.12   0.01    -0.01   0.02  -0.00     0.13  -0.38   0.02
  60   1    -0.03  -0.04   0.01     0.01   0.01  -0.00    -0.12  -0.13   0.05
  61   1     0.10  -0.03  -0.03    -0.02   0.00   0.00     0.33  -0.09  -0.08
  62   1    -0.29   0.05   0.09    -0.00   0.00   0.00     0.11  -0.02  -0.03
  63   1     0.08  -0.19   0.00     0.00  -0.00   0.00    -0.03   0.08  -0.00
  64   1    -0.22  -0.28   0.12    -0.00  -0.00   0.00     0.09   0.11  -0.04
  65   1    -0.58   0.11   0.19    -0.01   0.00   0.00     0.23  -0.04  -0.08
  66   1    -0.01  -0.00  -0.00     0.00   0.00   0.00    -0.03  -0.02  -0.02
  67   1    -0.00   0.00   0.00    -0.00   0.00   0.00    -0.00   0.00   0.01
  68   1     0.00  -0.00  -0.00     0.00  -0.00  -0.00     0.00  -0.00  -0.00
  69   1    -0.00  -0.01  -0.01    -0.00  -0.01  -0.01    -0.00  -0.00  -0.00
                    196                    197                    198
                        a                      a                      a 
 Frequencies --  3113.5161              3113.6041              3114.0616
 Red. masses --     1.8911                 1.8910                 1.8894
 Frc consts  --     0.0000                 0.0000                 0.0000
 IR Inten    --    21.7001                24.9174                58.6385
 Raman Activ --     0.0000                 0.0000                 0.0000
 Depolar     --     0.0000                 0.0000                 0.0000
 Atom AN      X      Y      Z        X      Y      Z        X      Y      Z
   1   6     0.03   0.09  -0.00     0.00   0.00  -0.00     0.03   0.09  -0.00
   2   6    -0.03   0.03  -0.01    -0.00   0.00  -0.00    -0.03   0.03  -0.01
   3   6    -0.03  -0.01  -0.01    -0.00  -0.00  -0.00    -0.03  -0.01  -0.01
   4   6    -0.00  -0.00  -0.00    -0.00  -0.00  -0.00    -0.00  -0.00  -0.00
   5   6     0.00  -0.00   0.00     0.00  -0.00   0.00     0.00  -0.00   0.00
   6   6     0.16   0.02   0.05     0.01   0.00   0.00     0.16   0.02   0.05
   7   8    -0.00   0.00  -0.00    -0.00   0.00  -0.00    -0.00  -0.00  -0.00
   8   6    -0.00  -0.01   0.00    -0.00  -0.00   0.00     0.00   0.01  -0.00
   9   6    -0.16  -0.04  -0.04    -0.01  -0.00  -0.00     0.15   0.04   0.04
  10   6    -0.06   0.07  -0.03    -0.00   0.00  -0.00     0.06  -0.06   0.03
  11   6     0.02   0.05  -0.00     0.00   0.00  -0.00    -0.02  -0.04   0.00
  12   6     0.03   0.01   0.01     0.00   0.00   0.00    -0.03  -0.01  -0.01
  13   6     0.00  -0.00   0.00     0.00  -0.00   0.00    -0.00  -0.00  -0.00
  14   7    -0.00   0.00  -0.00    -0.00   0.00  -0.00     0.00   0.00   0.00
  15   6     0.00  -0.00  -0.00     0.00  -0.00  -0.00    -0.00  -0.00  -0.00
  16   6    -0.00   0.00   0.00    -0.00   0.00   0.00    -0.00   0.00   0.00
  17   6     0.00   0.00   0.00     0.00   0.00   0.00     0.00   0.00   0.00
  18   6     0.00  -0.00  -0.00    -0.00  -0.00  -0.00     0.00   0.00   0.00
  19   6    -0.00   0.00   0.00    -0.00   0.00   0.00    -0.00  -0.00  -0.00
  20   7     0.00  -0.00  -0.00     0.00  -0.00   0.00     0.00   0.00   0.00
  21   7    -0.00  -0.00   0.00    -0.00  -0.00  -0.00     0.00  -0.00  -0.00
  22   6     0.00   0.00   0.00     0.00   0.00   0.00    -0.00   0.00   0.00
  23   6     0.00  -0.00  -0.00    -0.00  -0.00  -0.00     0.00  -0.00  -0.00
  24   6     0.00   0.00   0.00    -0.00  -0.00  -0.00    -0.00  -0.00  -0.00
  25   6    -0.00   0.00   0.00     0.00  -0.00   0.00     0.00   0.00   0.00
  26   6    -0.00   0.00   0.00    -0.00  -0.00  -0.00    -0.00   0.00   0.00
  27   7    -0.00  -0.00   0.00     0.00   0.00  -0.00     0.00  -0.00  -0.00
  28   6     0.00   0.00  -0.00    -0.00  -0.00   0.00    -0.00  -0.00   0.00
  29   6     0.00  -0.00  -0.00    -0.03   0.01   0.01    -0.01   0.00   0.00
  30   6     0.00  -0.00   0.00    -0.02   0.05  -0.00    -0.00   0.01  -0.00
  31   6    -0.00  -0.00   0.00     0.06   0.07  -0.03     0.01   0.01  -0.01
  32   6    -0.01   0.00   0.00     0.16  -0.04  -0.04     0.03  -0.01  -0.01
  33   6    -0.00   0.00  -0.00     0.00  -0.01   0.00     0.00  -0.00   0.00
  34   8    -0.00  -0.00   0.00     0.00   0.00  -0.00    -0.00   0.00   0.00
  35   6     0.00   0.00  -0.00    -0.00  -0.00   0.00     0.00   0.00  -0.00
  36   6     0.01  -0.00  -0.00    -0.16   0.02   0.05     0.04  -0.01  -0.01
  37   6     0.00  -0.00   0.00    -0.03   0.09  -0.00     0.01  -0.02   0.00
  38   6    -0.00  -0.00   0.00     0.03   0.03  -0.01    -0.01  -0.01   0.00
  39   6    -0.00   0.00   0.00     0.03  -0.01  -0.01    -0.01   0.00   0.00
  40   6    -0.00   0.00   0.00     0.00  -0.00  -0.00    -0.00   0.00   0.00
  41   6    -0.00  -0.00  -0.00     0.00   0.00   0.00    -0.00  -0.00  -0.00
  42   6     0.00  -0.00  -0.00    -0.00   0.00   0.00     0.00  -0.00  -0.00
  43   8    -0.00  -0.00  -0.00     0.00  -0.00  -0.00    -0.00  -0.00  -0.00
  44   6     0.00  -0.00  -0.00    -0.00   0.00   0.00    -0.00   0.00   0.00
  45   6    -0.00  -0.00   0.00     0.00   0.00   0.00     0.00   0.00   0.00
  46   1    -0.11  -0.28   0.00    -0.00  -0.01   0.00    -0.11  -0.28   0.00
  47   1     0.08  -0.10   0.04     0.00  -0.00   0.00     0.08  -0.10   0.04
  48   1     0.09   0.02   0.03     0.00   0.00   0.00     0.09   0.02   0.03
  49   1    -0.54  -0.09  -0.16    -0.02  -0.00  -0.01    -0.54  -0.09  -0.16
  50   1     0.54   0.15   0.13     0.02   0.01   0.01    -0.52  -0.14  -0.13
  51   1     0.21  -0.23   0.09     0.01  -0.01   0.00    -0.19   0.21  -0.08
  52   1    -0.05  -0.15   0.01    -0.00  -0.01   0.00     0.05   0.14  -0.01
  53   1    -0.11  -0.03  -0.02    -0.00  -0.00  -0.00     0.10   0.02   0.02
  54   1     0.00  -0.00  -0.00     0.00  -0.00  -0.00     0.00  -0.00  -0.00
  55   1    -0.00  -0.00  -0.00    -0.00  -0.00  -0.00    -0.00  -0.01  -0.01
  56   1    -0.00  -0.00  -0.00     0.00   0.00   0.00     0.00   0.00   0.00
  57   1     0.00  -0.00  -0.00    -0.00   0.00   0.00     0.00  -0.00  -0.00
  58   1    -0.00   0.00   0.00     0.11  -0.03  -0.02     0.02  -0.01  -0.01
  59   1    -0.00   0.01  -0.00     0.05  -0.15   0.01     0.01  -0.03   0.00
  60   1     0.01   0.01  -0.00    -0.21  -0.23   0.09    -0.04  -0.05   0.02
  61   1     0.02  -0.01  -0.00    -0.54   0.15   0.13    -0.12   0.03   0.03
  62   1    -0.02   0.00   0.01     0.54  -0.09  -0.16    -0.12   0.02   0.04
  63   1    -0.00   0.01  -0.00     0.11  -0.28   0.00    -0.02   0.06  -0.00
  64   1     0.00   0.00  -0.00    -0.08  -0.10   0.04     0.02   0.02  -0.01
  65   1     0.00  -0.00  -0.00    -0.09   0.02   0.03     0.02  -0.00  -0.01
  66   1     0.00   0.00   0.00    -0.00  -0.00  -0.00     0.00   0.00   0.00
  67   1    -0.00   0.00   0.00     0.00  -0.00  -0.00    -0.00   0.00   0.00
  68   1    -0.00   0.00   0.00     0.00  -0.00  -0.00     0.00  -0.00  -0.00
  69   1     0.00   0.00   0.00    -0.00  -0.00  -0.00    -0.00  -0.00  -0.00
                    199                    200                    201
                        a                      a                      a 
 Frequencies --  3114.1590              3116.6102              3116.7929
 Red. masses --     1.8893                 1.8618                 1.8618
 Frc consts  --     0.0000                 0.0000                 0.0000
 IR Inten    --    27.3662                 1.6765                 6.7342
 Raman Activ --     0.0000                 0.0000                 0.0000
 Depolar     --     0.0000                 0.0000                 0.0000
 Atom AN      X      Y      Z        X      Y      Z        X      Y      Z
   1   6    -0.01  -0.02   0.00     0.00   0.00  -0.00     0.00   0.00  -0.00
   2   6     0.01  -0.01   0.00    -0.00   0.00  -0.00    -0.00   0.00  -0.00
   3   6     0.01   0.00   0.00    -0.00  -0.00  -0.00    -0.00  -0.00   0.00
   4   6     0.00   0.00   0.00    -0.00   0.00  -0.00     0.00   0.00  -0.00
   5   6    -0.00   0.00  -0.00     0.00  -0.00   0.00     0.00  -0.00   0.00
   6   6    -0.04  -0.01  -0.01     0.00   0.00   0.00     0.00   0.00   0.00
   7   8     0.00   0.00   0.00    -0.00   0.00  -0.00    -0.00   0.00  -0.00
   8   6    -0.00  -0.00   0.00    -0.00   0.00  -0.00    -0.00   0.00  -0.00
   9   6    -0.03  -0.01  -0.01     0.00   0.00   0.00     0.00   0.00   0.00
  10   6    -0.01   0.01  -0.01     0.00  -0.00   0.00     0.00  -0.00   0.00
  11   6     0.00   0.01  -0.00    -0.00  -0.00   0.00    -0.00  -0.00   0.00
  12   6     0.01   0.00   0.00    -0.00  -0.00   0.00     0.00   0.00   0.00
  13   6     0.00   0.00   0.00     0.00  -0.00   0.00     0.00  -0.00   0.00
  14   7     0.00   0.00   0.00    -0.00  -0.00  -0.00    -0.00  -0.00  -0.00
  15   6    -0.00  -0.00   0.00     0.00   0.00   0.00     0.00   0.00   0.00
  16   6    -0.00   0.00   0.00     0.02  -0.01  -0.01     0.05  -0.02  -0.03
  17   6    -0.00  -0.00  -0.00    -0.02  -0.06  -0.08    -0.06  -0.15  -0.19
  18   6    -0.00  -0.00  -0.00    -0.00  -0.00  -0.00    -0.01  -0.00  -0.00
  19   6     0.00  -0.00  -0.00    -0.00  -0.00  -0.00     0.00  -0.00  -0.00
  20   7     0.00   0.00   0.00    -0.00  -0.00  -0.00    -0.00   0.00   0.00
  21   7    -0.00  -0.00  -0.00    -0.00  -0.00  -0.00     0.00   0.00   0.00
  22   6    -0.00   0.00   0.00     0.00   0.00   0.00    -0.00  -0.00  -0.00
  23   6     0.00  -0.00  -0.00    -0.01   0.00   0.00     0.00  -0.00  -0.00
  24   6    -0.00  -0.00  -0.00    -0.00  -0.00  -0.00     0.00   0.00   0.00
  25   6     0.00  -0.00  -0.00    -0.00  -0.00  -0.00     0.00   0.00   0.00
  26   6    -0.00   0.00   0.00     0.00  -0.00  -0.00    -0.00   0.00   0.00
  27   7     0.00  -0.00  -0.00    -0.00   0.00   0.00     0.00  -0.00  -0.00
  28   6    -0.00   0.00   0.00     0.00   0.00  -0.00    -0.00  -0.00   0.00
  29   6    -0.03   0.01   0.01     0.00  -0.00  -0.00    -0.00   0.00   0.00
  30   6    -0.02   0.04  -0.00    -0.00   0.00  -0.00     0.00  -0.00   0.00
  31   6     0.06   0.07  -0.02     0.00   0.00  -0.00    -0.00  -0.00   0.00
  32   6     0.15  -0.04  -0.04     0.00  -0.00  -0.00    -0.00   0.00   0.00
  33   6     0.00  -0.01   0.00    -0.00  -0.00   0.00     0.00   0.00  -0.00
  34   8    -0.00   0.00   0.00    -0.00  -0.00   0.00     0.00   0.00  -0.00
  35   6     0.00   0.00  -0.00     0.00   0.00  -0.00    -0.00  -0.00   0.00
  36   6     0.16  -0.03  -0.05     0.00  -0.00  -0.00    -0.00   0.00   0.00
  37   6     0.03  -0.09  -0.00     0.00  -0.00  -0.00    -0.00   0.00   0.00
  38   6    -0.03  -0.03   0.01    -0.00  -0.00   0.00     0.00   0.00  -0.00
  39   6    -0.03   0.01   0.01    -0.00   0.00   0.00    -0.00   0.00   0.00
  40   6    -0.00   0.00   0.00     0.00  -0.00   0.00    -0.00   0.00  -0.00
  41   6    -0.00  -0.00  -0.00     0.05   0.02   0.03    -0.02  -0.01  -0.01
  42   6     0.00  -0.00  -0.00    -0.06   0.15   0.20     0.02  -0.06  -0.08
  43   8    -0.00   0.00   0.00     0.00   0.00   0.00     0.00  -0.00  -0.00
  44   6     0.00  -0.00  -0.00    -0.00   0.00   0.00    -0.00   0.00   0.00
  45   6    -0.00  -0.00  -0.00    -0.00   0.00   0.00    -0.00   0.00   0.00
  46   1     0.03   0.06  -0.00    -0.00  -0.00   0.00    -0.00  -0.00   0.00
  47   1    -0.02   0.02  -0.01     0.00  -0.00   0.00     0.00  -0.00   0.00
  48   1    -0.02  -0.00  -0.01     0.00   0.00   0.00     0.00   0.00  -0.00
  49   1     0.12   0.02   0.04    -0.00  -0.00  -0.00    -0.01  -0.00  -0.00
  50   1     0.12   0.03   0.03    -0.00  -0.00  -0.00    -0.00  -0.00  -0.00
  51   1     0.04  -0.05   0.02    -0.00   0.00  -0.00    -0.00   0.00  -0.00
  52   1    -0.01  -0.03   0.00     0.00   0.00  -0.00     0.00   0.00  -0.00
  53   1    -0.02  -0.01  -0.00     0.00   0.00  -0.00    -0.00  -0.00  -0.00
  54   1     0.00  -0.00  -0.00    -0.06   0.03   0.04    -0.14   0.07   0.10
  55   1     0.00   0.00   0.00     0.07   0.21   0.27     0.18   0.52   0.68
  56   1     0.00   0.00   0.00     0.01   0.01   0.01    -0.00  -0.00  -0.00
  57   1    -0.00   0.00   0.00     0.00  -0.00  -0.00    -0.00   0.00   0.00
  58   1     0.10  -0.03  -0.02    -0.00   0.00   0.00     0.00  -0.00  -0.00
  59   1     0.05  -0.14   0.01     0.00  -0.00   0.00    -0.00   0.00  -0.00
  60   1    -0.19  -0.21   0.08    -0.00  -0.00   0.00     0.00   0.00  -0.00
  61   1    -0.52   0.14   0.13    -0.00   0.00   0.00     0.00  -0.00  -0.00
  62   1    -0.55   0.09   0.16    -0.01   0.00   0.00     0.00  -0.00  -0.00
  63   1    -0.11   0.28  -0.00    -0.00   0.01   0.00     0.00  -0.00  -0.00
  64   1     0.08   0.10  -0.04     0.00   0.00  -0.00    -0.00  -0.00   0.00
  65   1     0.09  -0.02  -0.03     0.00  -0.00  -0.00     0.00  -0.00  -0.00
  66   1     0.00   0.00   0.00    -0.14  -0.07  -0.10     0.06   0.03   0.04
  67   1    -0.00   0.01   0.01     0.19  -0.51  -0.68    -0.07   0.20   0.27
  68   1    -0.00   0.00   0.00     0.00  -0.00  -0.00     0.01  -0.01  -0.01
  69   1     0.00   0.00   0.00     0.00   0.00   0.00     0.00   0.00   0.00
