$hessian                                                                        
        0.5101305513   0.0215312234   0.0171227195  -0.0815774347   0.0340321289
        0.0321749926  -0.0095725536   0.0081859787   0.0141190488   0.0073805199
       -0.0120903376  -0.0099808935  -0.0022508696  -0.0019651995  -0.0013130159
       -0.0001590243  -0.0009542469  -0.0003274878   0.0003795236   0.0001555691
        0.0001187934   0.0005519387  -0.0002497289  -0.0000579877  -0.0010427639
       -0.0001080557  -0.0005804333   0.0003913066   0.0000856322   0.0000856899
       -0.0001068683   0.0001008212   0.0000410921   0.0002249063  -0.0000146072
        0.0000054293  -0.0000543725  -0.0000109562  -0.0000122176   0.0001489489
       -0.0000109140  -0.0000109261  -0.0001024491   0.0001240416  -0.0000089534
        0.0000482388  -0.0000759793   0.0001190134   0.0000126029   0.0000031839
       -0.0000287771   0.0000129818  -0.0000146995   0.0000197577  -0.0000004397
        0.0000017414  -0.0000086108   0.0000080776  -0.0000108302   0.0000206249
       -0.0000229559   0.0000252863  -0.0000156317   0.0000111978  -0.0000082617
        0.0000009130   0.0000044784  -0.0000036528  -0.0000022906   0.0000074012
        0.0000034086  -0.0000017469  -0.0000021531  -0.0000015586   0.0000113873
        0.0000020425   0.0000002209  -0.0000053264   0.0000029071  -0.0000063974
        0.0000011705   0.0000112880  -0.0000096996  -0.0000279084   0.0000302152
       -0.0000208592   0.0000065795  -0.0000145284  -0.0000057530  -0.0000645265
       -0.0000053440  -0.0000300429  -0.0000085405   0.0001804866   0.0001361984
        0.0000488678  -0.0001671184  -0.0001732012  -0.0000514104   0.0001094979
       -0.0000190241  -0.0000126236  -0.0000042125   0.0000051890   0.0000034077
        0.0000462847  -0.0000004250  -0.0000012345  -0.0001114895  -0.0000390451
       -0.0000129391   0.0001584649   0.0001230866   0.0000486443  -0.0001117425
       -0.0000715972  -0.0000550216  -0.0003459154  -0.0005365967  -0.0003248512
       -0.0143744947   0.0190252292   0.0063861499  -0.0005911921  -0.0000976137
        0.0009823279  -0.0002088856  -0.0004450809  -0.0006372060   0.0001377353
       -0.0003465906   0.0001668630  -0.0004469600  -0.0006609950  -0.0010893244
       -0.0000113747   0.0011512989  -0.0007629919   0.0001881100   0.0001077230
       -0.0000451690  -0.0000511057  -0.0000679484   0.0000125882   0.0000458259
        0.0000119335  -0.0000417939  -0.0000233543  -0.0000029331  -0.0000054918
        0.0000681103   0.0000165535  -0.0000053365  -0.0000464232  -0.0000611278
        0.0000145095  -0.0000007150  -0.0000084564  -0.0000378766   0.0000104520
        0.0000105650   0.0000032256   0.0000056558   0.0000013730  -0.0000122893
       -0.0000008633  -0.0000002411   0.0000003867   0.0000010962  -0.0000020057
       -0.0000042990  -0.0000030983   0.0000007589   0.0000080080   0.0000050329
        0.0000035686  -0.0000018758   0.0000015544   0.0000004830  -0.0000014462
        0.0000039865  -0.0000022715  -0.0000000324  -0.0000105648  -0.0000139383
       -0.0000040838   0.0000026768   0.0000058496   0.0000077232   0.0000010372
       -0.0000027777  -0.0000054993   0.0000068140   0.0000101423   0.0000104057
        0.0000106733  -0.0000076057  -0.0000158891   0.0000186949   0.0000523100
        0.0000481919   0.0000041774  -0.0000000524  -0.0000027966   0.0000648592
       -0.0000318165   0.0000320718  -0.0000820824   0.0000121677  -0.0000104221
        0.0000463350   0.0000440955  -0.0000628390  -0.0000056858  -0.0000432483
        0.0000217006   0.0000621057   0.0000056528  -0.0000163671  -0.0001035765
        0.0000229288  -0.0000430205   0.0002233397  -0.0000320531   0.0000757034
       -0.0000826307   0.0000245383   0.0000520475  -0.0003384353   0.0003785123
       -0.0001137204  -0.1161869913  -0.0600486248   0.0925223991  -0.1708288348
       -0.0910672575  -0.0779647079  -0.1200352695   0.0854849827  -0.0725074317
        0.0003895793   0.0000716819  -0.0006763117   0.0004627938   0.0010713304
        0.0004149904  -0.0013792183  -0.0009823385   0.0031125839   0.0000540536
       -0.0000822625  -0.0001252349  -0.0001128673  -0.0002883112  -0.0001553996
       -0.0007669207  -0.0016423445  -0.0011526495  -0.0000580306  -0.0000767157
        0.0000274790  -0.0000151037   0.0000008763   0.0000097429  -0.0000101302
       -0.0000002289   0.0000014649  -0.0000026020   0.0000018531  -0.0000118228
       -0.0000076158   0.0000070367  -0.0000085361  -0.0000099226   0.0000092847
       -0.0000033519  -0.0000020149   0.0000026350   0.0000056031  -0.0000019093
       -0.0000017136   0.0000004929  -0.0000048132   0.0000083694  -0.0000034489
       -0.0000097829   0.0000026775  -0.0000042321  -0.0000049345  -0.0000000921
        0.0000055825  -0.0000019901  -0.0000045677  -0.0000012251  -0.0000117035
        0.0000099612   0.0000075412  -0.0000092823   0.0000067764   0.0000139688
       -0.0000040318   0.0000031272   0.0000047654  -0.0000187858   0.0000150073
        0.0000016266  -0.0000290912  -0.0000088236  -0.0000033675  -0.0000212948
       -0.0000120732  -0.0000065702  -0.0000099101  -0.0000185666  -0.0000110082
        0.0000106444  -0.0000250481  -0.0000118812   0.0000226427   0.0000025204
        0.0002841675  -0.0000009508   0.0000070274  -0.0000034828   0.0000205226
        0.0003682775   0.0002636233  -0.0000426674   0.0000362155   0.0000178400
       -0.0000106714  -0.0000089103   0.0000137506  -0.0000026251  -0.0000021204
        0.0000025505   0.0000008848   0.0000001980   0.0000006502  -0.0000039592
       -0.0000009095   0.0000067888  -0.0000062393  -0.0000038568   0.0000053264
       -0.0000003511   0.0000016265   0.0000012300  -0.0000008758  -0.0000007023
        0.0000034766  -0.0000031009  -0.0000051475  -0.0000007751  -0.0000027939
        0.0000009768   0.0000032089  -0.0000003220   0.0000019932  -0.0000003026
       -0.0000050460  -0.0000031983  -0.0000021192  -0.0000058075  -0.0000057030
        0.0000005422  -0.0000055064  -0.0000066313  -0.0000025581  -0.0000027240
       -0.0000034947  -0.0000055010  -0.0000075759   0.0000033642   0.0000050154
       -0.0000175894   0.0000026543   0.0000004454  -0.0000197652   0.0000134049
        0.0000017837  -0.0000113722   0.0000152850  -0.0000063594   0.0000034182
        0.0000095308  -0.0000072725
        0.0215312234   0.4831751412  -0.0408950397   0.0326191923  -0.1138920400
       -0.0516939194  -0.0038237814   0.0050685858   0.0050244729   0.0034332786
       -0.0164734746  -0.0147951592  -0.0023229926  -0.0012927057  -0.0018477652
        0.0000798473  -0.0010208058  -0.0003711444   0.0002049371  -0.0002478102
       -0.0001424676   0.0003267891  -0.0001516111   0.0000646823   0.0002654899
       -0.0003939120   0.0003048396   0.0002112480  -0.0000373873  -0.0000186095
       -0.0000737042   0.0000132686   0.0000344562   0.0000120949  -0.0000484687
        0.0000039286  -0.0000631771  -0.0000225928   0.0000037229  -0.0000277816
       -0.0000131280  -0.0000122821  -0.0000130855   0.0000009550   0.0000291868
       -0.0000016339   0.0000120994  -0.0000083194  -0.0000010933  -0.0000034054
       -0.0000013932  -0.0000004033   0.0000011740   0.0000023058  -0.0000007641
        0.0000019103   0.0000053179  -0.0000016073   0.0000028482  -0.0000056917
        0.0000048066  -0.0000018162  -0.0000022922  -0.0000053797  -0.0000031920
        0.0000003229  -0.0000067188  -0.0000003190   0.0000033202  -0.0000017429
       -0.0000006960   0.0000023049  -0.0000030135   0.0000050471   0.0000065674
        0.0000007267   0.0000007393   0.0000025569   0.0000036897  -0.0000014938
        0.0000054199   0.0000001417   0.0000069497  -0.0000023282   0.0000073354
       -0.0000012568   0.0000109147   0.0000057186  -0.0000026620  -0.0000311117
       -0.0000063653   0.0000211774   0.0000101594  -0.0000165438  -0.0000478550
       -0.0000238152  -0.0000289098   0.0001103566   0.0000452828   0.0000384022
       -0.0000709842  -0.0000364278  -0.0000085349   0.0000328531   0.0000181989
        0.0000287924  -0.0000182219  -0.0000070306  -0.0000419836  -0.0000131500
       -0.0000029548   0.0001476067   0.0000073908  -0.0000132990  -0.0000452616
        0.0000292198   0.0000011979  -0.0001061736   0.0000133238  -0.0000159701
        0.0162757795  -0.0175908706  -0.0048399896   0.0004761525   0.0000498264
       -0.0002626625  -0.0000935505   0.0005424000   0.0003238095   0.0000818592
        0.0002866297  -0.0001331923   0.0005773463   0.0003403688   0.0011737845
       -0.0011267259  -0.0011792498  -0.0001883797  -0.0002384468  -0.0001177307
        0.0000995531   0.0000649446   0.0000422954  -0.0000390529   0.0000215909
       -0.0000542364   0.0000191690   0.0000358819  -0.0000024606   0.0000006018
       -0.0000169967  -0.0000159696   0.0000142151   0.0000218329   0.0000400948
        0.0000191529   0.0000038469   0.0000016084  -0.0000042411  -0.0000062463
       -0.0000035456  -0.0000018792  -0.0000046638  -0.0000013850   0.0000032659
        0.0000004499   0.0000021820  -0.0000001052   0.0000005808  -0.0000007945
       -0.0000050171  -0.0000039938  -0.0000029066   0.0000012635   0.0000012914
       -0.0000041257  -0.0000008370   0.0000041651   0.0000008940  -0.0000010517
        0.0000013077   0.0000009968  -0.0000001745   0.0000083839   0.0000128001
        0.0000023491  -0.0000019369  -0.0000051737  -0.0000061548   0.0000025023
        0.0000047945   0.0000011840  -0.0000002919  -0.0000031398  -0.0000076882
        0.0000010234   0.0000067416   0.0000107111  -0.0000230428  -0.0000389737
       -0.0000334128  -0.0000092404   0.0000154277  -0.0000054279  -0.0000122078
        0.0000026148  -0.0000064703   0.0000535329   0.0000697609  -0.0000433730
       -0.0000456122  -0.0000794214   0.0000860490   0.0000033364   0.0000588250
       -0.0000366288  -0.0000782748  -0.0000166688   0.0000220068   0.0000993276
       -0.0000232893   0.0000419685  -0.0002371289   0.0000076725  -0.0000452821
        0.0000583966  -0.0000017035  -0.0000534662   0.0003391048  -0.0002229656
        0.0000276884  -0.0600570332  -0.0925651993   0.0777914137  -0.0911570551
       -0.1064723853  -0.0538668436   0.0849483747  -0.1376731998   0.0813814533
       -0.0006039872   0.0004273504   0.0005589642  -0.0003094540   0.0007167095
        0.0009254715  -0.0014484801  -0.0002957363   0.0025310146  -0.0001139276
        0.0001501386   0.0000671574  -0.0001824728  -0.0002132496  -0.0000458942
       -0.0001686962  -0.0003195038  -0.0007646141   0.0001422458   0.0000055600
       -0.0000144783   0.0000006666   0.0000216130  -0.0000066898   0.0000013928
        0.0000029829   0.0000026443   0.0000000694   0.0000006815   0.0000043785
        0.0000008820   0.0000002732   0.0000026052   0.0000006884   0.0000005357
        0.0000003168  -0.0000006176   0.0000024480  -0.0000002241   0.0000034697
        0.0000035430  -0.0000023652   0.0000032726  -0.0000009612   0.0000022832
        0.0000027440  -0.0000003858   0.0000018128  -0.0000001978   0.0000018248
       -0.0000008238   0.0000019866   0.0000044643  -0.0000006501   0.0000009960
       -0.0000002197  -0.0000010285  -0.0000017843   0.0000022259  -0.0000008339
       -0.0000067724   0.0000012393   0.0000036769  -0.0000076955   0.0000031320
       -0.0000133204  -0.0000009459   0.0000118777   0.0000014319  -0.0000110189
       -0.0000007135  -0.0000038313  -0.0000100272  -0.0000027264  -0.0000023471
       -0.0000006505   0.0000046191  -0.0000007033   0.0003154741  -0.0003765267
       -0.0002181175   0.0000263878  -0.0000100289  -0.0000204339   0.0000417437
       -0.0003040093  -0.0001262984  -0.0000066894  -0.0000112462   0.0000250135
        0.0000066487   0.0000158313  -0.0000086831   0.0000040214   0.0000049394
        0.0000040432   0.0000019817   0.0000040305   0.0000030265   0.0000014352
        0.0000020021   0.0000004236   0.0000023063   0.0000033308  -0.0000002287
       -0.0000016027   0.0000006188   0.0000008715  -0.0000007188  -0.0000001648
        0.0000013926  -0.0000002304   0.0000024650   0.0000005010  -0.0000015867
        0.0000003198   0.0000005122  -0.0000022771   0.0000018133  -0.0000000604
        0.0000011334   0.0000012448   0.0000013198   0.0000003033   0.0000012884
        0.0000012236   0.0000002673   0.0000012036   0.0000021667  -0.0000014644
       -0.0000004611   0.0000038266  -0.0000032330  -0.0000031788  -0.0000017933
        0.0000068505   0.0000044202  -0.0000032830   0.0000144794  -0.0000071987
       -0.0000031505   0.0000109909  -0.0000099494   0.0000011588   0.0000028599
       -0.0000030566   0.0000021693
        0.0171227195  -0.0408950397   0.4945033214   0.0277647428  -0.0446697153
       -0.1033436030   0.0153593042  -0.0125601616  -0.0207505189   0.0026415507
       -0.0116905901  -0.0091503483  -0.0014584817  -0.0010437802  -0.0004445268
        0.0000832924  -0.0007387760  -0.0001629404   0.0001996763  -0.0001038064
        0.0000183157   0.0002475633  -0.0001318741   0.0000964010   0.0002096735
        0.0003409338  -0.0002681787   0.0002260155  -0.0000129829  -0.0000005656
       -0.0000408574   0.0000792091  -0.0000014965  -0.0000120704  -0.0000215082
       -0.0000296736  -0.0000113751  -0.0000177313  -0.0000061351   0.0000060892
       -0.0000127890  -0.0000008771   0.0000027142   0.0000134258   0.0000684341
       -0.0000239482   0.0000216164  -0.0000215428   0.0000094417  -0.0000015041
        0.0000039080   0.0000005984   0.0000020549  -0.0000038619   0.0000015435
       -0.0000001751   0.0000015260  -0.0000014946   0.0000034162  -0.0000035334
        0.0000067095  -0.0000064942  -0.0000009086  -0.0000016208  -0.0000006947
       -0.0000070136  -0.0000012589   0.0000018564   0.0000000558   0.0000017890
        0.0000016920   0.0000004211  -0.0000118178   0.0000122349   0.0000155165
        0.0000012040   0.0000033682  -0.0000165927  -0.0000024574   0.0000052938
        0.0000049349  -0.0000065395   0.0000080569  -0.0000033966   0.0000020109
        0.0000022498   0.0000083438   0.0000027223  -0.0000095960  -0.0000629271
        0.0000014799   0.0000220361   0.0000078372   0.0000423277  -0.0000024009
        0.0000044977  -0.0000472208   0.0000549497   0.0000282321   0.0000498819
       -0.0000737251  -0.0000313044  -0.0000074606   0.0000316044   0.0000146200
        0.0000391845  -0.0000125976  -0.0000070587  -0.0000618275  -0.0000259897
       -0.0000073238   0.0001451711   0.0000341384   0.0000049411  -0.0000535228
        0.0000068038  -0.0000042939  -0.0001689627  -0.0001003697  -0.0000891944
       -0.0038906109   0.0052522521   0.0081139349  -0.0006332352   0.0011972271
       -0.0009858027   0.0003315720  -0.0004946722   0.0000924825   0.0001590792
       -0.0004943114   0.0004249838  -0.0004918104  -0.0004882226  -0.0006403944
       -0.0009455208   0.0008449780  -0.0006555832   0.0005207167   0.0002084999
       -0.0001326876  -0.0001519419  -0.0001564568   0.0000921286  -0.0000833347
        0.0001066959  -0.0000953491  -0.0000962835  -0.0000166948   0.0000130206
        0.0000996344   0.0000151984  -0.0000145490  -0.0000336470  -0.0000273798
        0.0000729130   0.0000148875  -0.0000099885  -0.0000868549   0.0000012805
        0.0000020608   0.0000205673  -0.0000020376  -0.0000085823  -0.0000055531
       -0.0000006759   0.0000005371   0.0000072465   0.0000027888  -0.0000047510
       -0.0000118375  -0.0000134495  -0.0000052846   0.0000208100   0.0000012969
        0.0000023260  -0.0000047711  -0.0000033795  -0.0000026484   0.0000028332
       -0.0000016076  -0.0000017885   0.0000027376   0.0000001196  -0.0000022391
       -0.0000043188   0.0000000670   0.0000000967   0.0000011517  -0.0000010158
       -0.0000008914   0.0000022018   0.0000021359   0.0000004732  -0.0000001561
        0.0000037445  -0.0000043075  -0.0000022890  -0.0000011377   0.0000085433
        0.0000116558   0.0000246138   0.0000007403  -0.0000011239   0.0001294517
       -0.0000908693   0.0000660783  -0.0001984554  -0.0000739552   0.0000810649
        0.0002277026   0.0001865087  -0.0001740207  -0.0000238777  -0.0001147795
        0.0000840707   0.0001946145   0.0000507750  -0.0000455797  -0.0002569130
        0.0000921130  -0.0000903738   0.0005198906  -0.0001045701   0.0000970475
       -0.0001559590   0.0000326420   0.0000313853  -0.0007844095   0.0005227968
       -0.0003545579   0.0925909446   0.0778160912  -0.1616213101  -0.0780220580
       -0.0537156817  -0.0908916575  -0.0728012544   0.0816765695  -0.1104503754
        0.0003539831  -0.0009328978   0.0004443418  -0.0005741723  -0.0009577055
        0.0007628688   0.0025384936   0.0015498000  -0.0041410905  -0.0000249748
        0.0000437945  -0.0000880226  -0.0001105800  -0.0001129996  -0.0000918150
       -0.0003639933  -0.0009141159  -0.0003835902  -0.0000066298  -0.0000904298
       -0.0000301127  -0.0000311298   0.0000214764   0.0000041269  -0.0000063777
        0.0000004395   0.0000037759  -0.0000014519   0.0000001108   0.0000053167
       -0.0000012331   0.0000003639   0.0000023429  -0.0000014007   0.0000007107
        0.0000015160  -0.0000005907   0.0000016503   0.0000007840  -0.0000004187
        0.0000002647   0.0000002632   0.0000007852  -0.0000029605   0.0000013549
        0.0000025246  -0.0000005321   0.0000005882  -0.0000017818  -0.0000004092
        0.0000007524   0.0000007000   0.0000011605   0.0000007745   0.0000022306
       -0.0000030467   0.0000020811   0.0000017612  -0.0000027820   0.0000005515
        0.0000050127  -0.0000070122   0.0000024864   0.0000067522  -0.0000100883
        0.0000025564   0.0000000906   0.0000043821   0.0000039509  -0.0000091322
       -0.0000026075  -0.0000001952  -0.0000069874  -0.0000036872  -0.0000018363
        0.0000023381   0.0000010177  -0.0000000750  -0.0001525987   0.0004182704
        0.0000481498   0.0000020168   0.0000289050  -0.0000298376  -0.0000550058
        0.0001828977   0.0001447601  -0.0000026124   0.0000385244  -0.0000082049
       -0.0000105228  -0.0000261777   0.0000143409  -0.0000013525   0.0000018704
       -0.0000109657  -0.0000004079   0.0000057133   0.0000032148   0.0000004938
        0.0000018301   0.0000007441   0.0000009005   0.0000024610   0.0000011000
        0.0000005706   0.0000004610  -0.0000007165  -0.0000000691   0.0000002434
        0.0000018181   0.0000016089   0.0000031095  -0.0000002824  -0.0000007567
        0.0000011383   0.0000015992   0.0000020008   0.0000001175   0.0000000586
        0.0000025906   0.0000013686  -0.0000001621  -0.0000015531  -0.0000002127
        0.0000014000  -0.0000002806   0.0000013436   0.0000015893  -0.0000005604
        0.0000023821   0.0000039136  -0.0000039755   0.0000050880   0.0000051287
       -0.0000115043  -0.0000002340   0.0000016293  -0.0000218723   0.0000086292
        0.0000020419  -0.0000156849   0.0000132628  -0.0000080814   0.0000063419
        0.0000134221  -0.0000095916
       -0.0815774347   0.0326191923   0.0277647428   0.4483894351   0.0019484069
        0.0043105092  -0.0840957184  -0.0250512893   0.0372630577  -0.1115893200
       -0.0461735463  -0.0306843935   0.0058216754  -0.0014213465  -0.0006637966
        0.0010874460   0.0027894454   0.0013230204  -0.0010798235   0.0003252885
        0.0000287692  -0.0033902777   0.0016039258   0.0003095582  -0.0243596324
       -0.0164485394  -0.0109221696  -0.0006633359  -0.0006743662  -0.0004700722
        0.0000459061   0.0000003543   0.0000067428   0.0000132490  -0.0000511160
        0.0000141798   0.0000192069   0.0000161852   0.0000015266   0.0000308974
       -0.0000231563  -0.0000157121  -0.0000123202   0.0000320768  -0.0000027596
        0.0000194844  -0.0000210230   0.0000308636  -0.0000001880   0.0000052110
       -0.0000049182   0.0000047295  -0.0000045335   0.0000060378  -0.0000028005
        0.0000044090  -0.0000031134   0.0000015835  -0.0000021494   0.0000091726
       -0.0000049786   0.0000063269  -0.0000033728   0.0000033063  -0.0000016127
        0.0000013651   0.0000017687   0.0000007113   0.0000010174   0.0000021151
        0.0000014220   0.0000002903   0.0000004549  -0.0000011208   0.0000024100
       -0.0000010179   0.0000023851  -0.0000015393   0.0000012859  -0.0000015128
        0.0000048205   0.0000047288  -0.0000025571  -0.0000072067   0.0000062371
        0.0000002347   0.0000040281  -0.0000000726  -0.0000050291  -0.0000184075
        0.0000145124   0.0000082158   0.0000048805   0.0000136597   0.0000161745
       -0.0000067145  -0.0000189665   0.0000330893   0.0000142072   0.0000095300
       -0.0001353727  -0.0000514301  -0.0000194955   0.0000560756   0.0000248063
        0.0000738595  -0.0000200602  -0.0000150198  -0.0000806944  -0.0000407195
       -0.0000245788   0.0002528972   0.0000168066   0.0000082265  -0.0002899126
        0.0001370117   0.0000819680  -0.0001471423  -0.0000102045   0.0000937697
       -0.1076340010   0.0370412452  -0.0403079136   0.0063696686   0.0003268303
       -0.0000871430   0.0008472528  -0.0025152965   0.0019692918  -0.0010266759
       -0.0003147942   0.0001039288  -0.0035200057  -0.0014766585   0.0005055368
       -0.0235518564   0.0139582964  -0.0152842324  -0.0006081537   0.0005503140
       -0.0006509475   0.0000385890  -0.0000049519   0.0000132346   0.0000068640
        0.0000585190  -0.0000025128   0.0000170119  -0.0000155398   0.0000078446
        0.0000358143   0.0000194772  -0.0000192323  -0.0000119943  -0.0000335098
        0.0000043340   0.0000021805  -0.0000021607  -0.0000188604   0.0000060234
        0.0000014167   0.0000047320   0.0000050990   0.0000009583  -0.0000070208
        0.0000007754   0.0000031218   0.0000040283  -0.0000009063  -0.0000017581
       -0.0000008553   0.0000001814   0.0000023201   0.0000020284   0.0000030966
        0.0000024002   0.0000012057   0.0000018268  -0.0000000881   0.0000016000
        0.0000020660  -0.0000008657   0.0000009033  -0.0000051575  -0.0000069727
       -0.0000022302   0.0000009486   0.0000052508   0.0000082441  -0.0000025222
       -0.0000046103  -0.0000019474   0.0000041419   0.0000061583   0.0000050082
       -0.0000000120  -0.0000062250  -0.0000037807   0.0000162193   0.0000317038
        0.0000256950   0.0000149073  -0.0000062063   0.0000060048   0.0000215211
       -0.0000199194   0.0000114168  -0.0000283769  -0.0000367705   0.0000251506
        0.0000265306   0.0001234484  -0.0000970892  -0.0000220092  -0.0000487525
        0.0000364070   0.0000772796   0.0000161205  -0.0000168095  -0.0000832775
        0.0000350549  -0.0000382597   0.0002528407  -0.0000209949   0.0000279382
       -0.0003062560  -0.0001015784   0.0000913932  -0.0001706766   0.0000419803
        0.0000746219  -0.0083942446   0.0104267656   0.0119112582   0.0074124806
       -0.0135716726  -0.0120850924  -0.0094528034   0.0148203825   0.0099775539
        0.0077614551   0.0092044709  -0.0144994542  -0.0103437603  -0.0117424240
        0.0137367912  -0.0086823872  -0.0065433719   0.0139373387   0.0002520635
        0.0008727804   0.0006906835   0.0002692255   0.0005648615   0.0003712619
        0.0009099754  -0.0005637799  -0.0000500835  -0.0001251925   0.0000308233
       -0.0000109595  -0.0000014983   0.0000100500   0.0000054118   0.0000023195
       -0.0000044787  -0.0000000428   0.0000012135  -0.0000002854  -0.0000040115
       -0.0000005254   0.0000015044  -0.0000017960  -0.0000012407   0.0000019078
       -0.0000011004  -0.0000004100  -0.0000002247   0.0000016614  -0.0000000640
       -0.0000009906  -0.0000007355  -0.0000004941   0.0000015764  -0.0000009126
       -0.0000016592   0.0000006338  -0.0000013937  -0.0000002778   0.0000001804
        0.0000021446   0.0000004969  -0.0000012566  -0.0000009992  -0.0000017348
        0.0000014445   0.0000011579  -0.0000015933   0.0000009632   0.0000013319
       -0.0000009214   0.0000002722   0.0000011109  -0.0000030075   0.0000008682
       -0.0000044464  -0.0000115817   0.0000002812  -0.0000001588  -0.0000207673
       -0.0000100168  -0.0000051909  -0.0000054600  -0.0000123956  -0.0000005707
       -0.0000071322  -0.0000064768  -0.0000053246   0.0002284366  -0.0006785966
        0.0008689817   0.0002660261  -0.0004809468   0.0005335139   0.0008710598
        0.0005481933  -0.0001431162  -0.0001271929  -0.0000342835  -0.0000090717
       -0.0000026870  -0.0000094067   0.0000080514  -0.0000027468  -0.0000012838
       -0.0000046623  -0.0000010365   0.0000003195   0.0000007726  -0.0000017712
        0.0000002722   0.0000012121  -0.0000018505  -0.0000008240   0.0000012095
       -0.0000000524   0.0000013878  -0.0000011764  -0.0000005724   0.0000014244
        0.0000012192  -0.0000004079  -0.0000010909  -0.0000007428  -0.0000003826
        0.0000010761   0.0000017688   0.0000005576   0.0000018332  -0.0000014573
       -0.0000014926  -0.0000004658  -0.0000014883  -0.0000010661  -0.0000015701
       -0.0000008017  -0.0000002571  -0.0000008773  -0.0000022849   0.0000016699
       -0.0000000882  -0.0000041586   0.0000023369   0.0000038116  -0.0000011202
       -0.0000117801   0.0000002394  -0.0000006807  -0.0000208802   0.0000095711
       -0.0000080290  -0.0000057921   0.0000117605  -0.0000018003  -0.0000063882
        0.0000064955  -0.0000080510
        0.0340321289  -0.1138920400  -0.0446697153   0.0019484069   0.4655883045
        0.0002061670  -0.0252076598  -0.0872302178   0.0392849781  -0.0505376929
       -0.1058043350  -0.0327522520  -0.0135622462  -0.0222063722  -0.0133999101
        0.0026748323  -0.0011437403  -0.0037417007  -0.0006784083  -0.0004449411
       -0.0006387013   0.0025422094   0.0022417714  -0.0027797983  -0.0035287328
        0.0034737510   0.0006648166  -0.0003465481   0.0000449185   0.0001090092
        0.0001210596  -0.0001236785  -0.0000476993   0.0000480235   0.0000648962
        0.0000287982   0.0000566261  -0.0000339153  -0.0000074201  -0.0000880237
       -0.0000085724   0.0000040353   0.0000157746  -0.0000390913   0.0000033105
       -0.0000096942   0.0000249918  -0.0000301003  -0.0000007501  -0.0000073244
        0.0000050488   0.0000006236  -0.0000008335  -0.0000019015  -0.0000003645
        0.0000002705   0.0000004406  -0.0000039481   0.0000051004  -0.0000068381
        0.0000090212  -0.0000084355   0.0000023938  -0.0000062577   0.0000011522
       -0.0000011693  -0.0000045723  -0.0000009834  -0.0000004693  -0.0000040545
       -0.0000028218  -0.0000000901   0.0000021965   0.0000004086  -0.0000031275
       -0.0000022503   0.0000011627   0.0000005030  -0.0000018892   0.0000020720
        0.0000011168  -0.0000015023  -0.0000001187  -0.0000016549  -0.0000079391
       -0.0000015523  -0.0000041721   0.0000108510   0.0000062776   0.0000104140
       -0.0000090528   0.0000231202   0.0000053446  -0.0001332853  -0.0001224348
       -0.0000591832   0.0001337448   0.0000585718  -0.0000023649  -0.0001692560
        0.0001149776  -0.0000342909   0.0000045407   0.0000079152  -0.0000206116
       -0.0000384094   0.0000137638  -0.0000196721   0.0000540375   0.0000369941
       -0.0000378970   0.0000583849  -0.0001920518   0.0000100303   0.0001461481
        0.0001235734   0.0002975109   0.0002663434   0.0000980304   0.0008522586
        0.0405649929  -0.0904426500   0.0374137025   0.0103749284  -0.0156313642
        0.0155179089  -0.0025277499   0.0010477493   0.0041184945   0.0005976150
       -0.0000673474   0.0006678236  -0.0023897552   0.0037569861   0.0031149162
        0.0028355849   0.0030013812  -0.0012110034   0.0002224062  -0.0000344022
       -0.0000806123  -0.0000850698  -0.0000760198   0.0000400770  -0.0000432974
        0.0000339174  -0.0000393636  -0.0000336346  -0.0000251950   0.0000056228
        0.0000599341  -0.0000099746   0.0000057300  -0.0000037933  -0.0000186413
        0.0000073247  -0.0000071209   0.0000043201  -0.0000063560   0.0000032008
       -0.0000019824   0.0000026625  -0.0000002919   0.0000002232   0.0000021821
        0.0000014242   0.0000010534  -0.0000027327   0.0000021434   0.0000015945
       -0.0000009712  -0.0000018140   0.0000009510   0.0000015179   0.0000039341
       -0.0000000381  -0.0000001284   0.0000035637  -0.0000005018  -0.0000004343
        0.0000031542  -0.0000018427   0.0000000950  -0.0000045924  -0.0000034396
       -0.0000003183   0.0000021889   0.0000029433   0.0000009549   0.0000018622
        0.0000019934  -0.0000010270  -0.0000012704  -0.0000017985  -0.0000003864
        0.0000012065  -0.0000061562  -0.0000003221  -0.0000010045   0.0000148600
        0.0000077040   0.0000053421   0.0000194335  -0.0000091250   0.0000962742
       -0.0000786344   0.0000635761  -0.0000911385   0.0000481863  -0.0000171891
        0.0001261571   0.0001068097   0.0000770136  -0.0000020621   0.0000361010
        0.0000082605   0.0000016640   0.0000168307   0.0000294230  -0.0000027903
        0.0000352320   0.0000532812  -0.0001399223  -0.0001788909  -0.0000152457
       -0.0000876080  -0.0000068241  -0.0003708104  -0.0000403249  -0.0004273660
       -0.0008931631  -0.0039330487   0.0076841180   0.0058791047   0.0049203389
       -0.0150772127  -0.0126134427   0.0110602740  -0.0163514243  -0.0104297640
       -0.0042818450  -0.0086025201   0.0124933092  -0.0121902636  -0.0135076756
        0.0158160903   0.0072735235   0.0078851939  -0.0126078908  -0.0009930534
       -0.0000466972   0.0012311642  -0.0006127824  -0.0005970531  -0.0004888321
        0.0006509232  -0.0008716882   0.0009554254   0.0000053985   0.0000051229
       -0.0000086465  -0.0000000026   0.0000008986  -0.0000030848   0.0000011109
        0.0000063716   0.0000003633  -0.0000000487   0.0000020899   0.0000043939
        0.0000010409   0.0000009164   0.0000031621   0.0000025066  -0.0000007786
        0.0000009298   0.0000014563   0.0000015730  -0.0000010464   0.0000019126
        0.0000028042   0.0000004108   0.0000019576  -0.0000002150   0.0000010649
        0.0000030841   0.0000005897   0.0000015776   0.0000014594   0.0000013531
       -0.0000018182   0.0000022210   0.0000042773   0.0000006461   0.0000033012