$hessian                                                                        
        0.4582255854   0.0001882470   0.2638516469  -0.0961540600  -0.0318896797
       -0.0361288169   0.0352158297  -0.0066466191   0.0266570409  -0.0255063142
       -0.0283576501  -0.0134348668  -0.0009297548   0.0007027092  -0.0003256906
       -0.0000111372  -0.0005552283   0.0002490908  -0.0001868372   0.0000410519
       -0.0001191570  -0.0000021445  -0.0000328345   0.0000254316   0.0000005824
        0.0000099799  -0.0000022836  -0.0000038981  -0.0000072047   0.0000007718
        0.0000003933   0.0000055216  -0.0000002378   0.0000145625   0.0000040965
       -0.0000112973   0.0000024757   0.0000028737   0.0000076992   0.0001125865
       -0.0000170252  -0.0000202680   0.0000559229  -0.0000249406  -0.0001438864
        0.0000059000   0.0000121223  -0.0000136892  -0.0000023031  -0.0000087342
       -0.0000102599   0.0000074830   0.0000129612   0.0000097051   0.0000017724
       -0.0000023382  -0.0000008740  -0.0000163985   0.0000065893   0.0000041988
        0.0000029657  -0.0000044369  -0.0000036858  -0.0000153249  -0.0000028605
       -0.0000011445  -0.0000162165   0.0000016617   0.0000019966   0.0000172908
        0.0000024741   0.0000014200   0.0000034443   0.0000041981  -0.0000039310
        0.0000028413  -0.0000038151   0.0000032099  -0.0000047407  -0.0000004864
        0.0000007301  -0.0000030770  -0.0000010395  -0.0000000077  -0.0000007743
        0.0000006357  -0.0000000649   0.0000021979  -0.0000014610  -0.0000003945
       -0.0000004000  -0.0000019225  -0.0000003652  -0.0000017256   0.0000011601
        0.0000004873   0.0000001582   0.0000010016   0.0000003865   0.0000009116
        0.0000000628   0.0000000214  -0.0000022461   0.0000001167   0.0000000126
        0.0000014214  -0.0000009837  -0.0000005734  -0.0000026062  -0.0000016858
       -0.0000009399   0.0000004154  -0.0000006531  -0.0000006055  -0.0000012241
        0.0000010832  -0.0000002065   0.0000001172   0.0000012901  -0.0000002630
        0.0000005982   0.0000008491  -0.0000003072  -0.0000016804   0.0000002535
       -0.0000000151   0.0000002867   0.0000001234  -0.0000002157   0.0000009801
       -0.0000004266  -0.0000002737  -0.0000039985  -0.0000007211  -0.0000006131
        0.0000046028   0.0000026162  -0.0000001410  -0.0000000725  -0.0000008331
        0.0000008385  -0.0000000038   0.0000007356  -0.0000006318  -0.0000008830
       -0.0000011766  -0.0000006922   0.0000003115   0.0000003973  -0.0000000657
       -0.0000002758   0.0000012326  -0.0000014433  -0.0000004866  -0.0000007652
       -0.0000010496   0.0000004908   0.0000044359  -0.0000035413   0.0000051359
       -0.0000045625   0.0000050713  -0.0000044107   0.0000048199   0.0000066533
       -0.0000009900   0.0000031242   0.0000036486  -0.0000104652  -0.0000104132
       -0.0000052511  -0.0000262986   0.0000021102   0.0000035308   0.0000551884
        0.0000121825  -0.0000164525  -0.0000076207  -0.0000081649  -0.0000067662
        0.0000751346   0.0002415125   0.0002185418  -0.0324204523   0.0559253396
       -0.0284365009  -0.2221701520  -0.0660876816  -0.1318233907  -0.1047347415
        0.0972750198  -0.0583926428  -0.0083606796  -0.0226764293  -0.0061264048
        0.0021819520   0.0029127235  -0.0049164022   0.0000544315   0.0001326382
        0.0000162783   0.0000037227  -0.0000058380  -0.0000033308   0.0000037129
       -0.0000026317  -0.0000017732   0.0000022043  -0.0000045886   0.0000034286
       -0.0000020396   0.0000026010   0.0000008771   0.0000006948  -0.0000024689
       -0.0000076736   0.0000138910   0.0000279910   0.0000574435  -0.0000063910
       -0.0000053747  -0.0000042369  -0.0000017060   0.0000027962   0.0000015879
        0.0000027070   0.0000004311  -0.0000006108  -0.0000008777   0.0000012952
        0.0000008541   0.0000003341  -0.0000011737   0.0000010145  -0.0000029844
        0.0000002988   0.0000003146   0.0000005602  -0.0000003882   0.0000002692
       -0.0000000897  -0.0000004940   0.0000003905  -0.0000006286  -0.0000002057
        0.0000001215  -0.0000003806   0.0000000990  -0.0000000925   0.0000001864
        0.0000002912  -0.0000003267   0.0000000462  -0.0000001597  -0.0000005377
       -0.0000003744  -0.0000002175  -0.0000005156  -0.0000005861  -0.0000000198
       -0.0000002286  -0.0000002872   0.0000002148   0.0000003622  -0.0000001925
        0.0000004378   0.0000004221  -0.0000003061   0.0000009465  -0.0000004706
       -0.0000005741   0.0000003425  -0.0000006158  -0.0000004552  -0.0000000213
       -0.0000007486  -0.0000023823   0.0000004407  -0.0000002841  -0.0000004458
        0.0000021623  -0.0000013750  -0.0000011513   0.0000010356   0.0000002560
       -0.0000027842   0.0000009173   0.0000016155  -0.0000010706   0.0000090043
        0.0000073739   0.0000101974  -0.0000113891   0.0000428387   0.0002081755
        0.0000680733  -0.0000167240   0.0021322264   0.0024416339  -0.0048805030
       -0.0078025267  -0.0036932189  -0.0063112237
        0.0001882470   0.6654258736  -0.0214335756  -0.0945654319  -0.3053219102
       -0.0631539345   0.0410150274  -0.0642386395   0.0337623513  -0.0286745997
       -0.0242360097  -0.0210474768   0.0005128476  -0.0014990568   0.0007106720
        0.0001776145   0.0002984151   0.0003169789   0.0001239995  -0.0000643012
       -0.0001181026   0.0000307792   0.0000236557  -0.0000224485  -0.0000031894
        0.0000169739   0.0000092104   0.0000029836  -0.0000082206  -0.0000047494
       -0.0000051380  -0.0000225485   0.0000034033  -0.0000139033   0.0000028382
        0.0000090043   0.0000108065   0.0000064092  -0.0000043473   0.0000319449
        0.0001149901  -0.0000538456  -0.0000620745  -0.0002978207   0.0000544149
       -0.0000050861   0.0000214292  -0.0000179302   0.0000307322  -0.0000211693
       -0.0000132260  -0.0000360135  -0.0000149795  -0.0000158477   0.0000184437
        0.0000061188   0.0000031673   0.0000138889  -0.0000112288  -0.0000068468
       -0.0000060970   0.0000095252   0.0000069337   0.0000174749   0.0000110095
        0.0000112485   0.0000253839   0.0000032970   0.0000025061  -0.0000403105
       -0.0000012020   0.0000000055  -0.0000106677  -0.0000121395   0.0000105479
       -0.0000009057   0.0000070394  -0.0000075311   0.0000060383  -0.0000013593
       -0.0000002981   0.0000060005  -0.0000064638  -0.0000019441  -0.0000040906
        0.0000050220   0.0000004693   0.0000040460  -0.0000017404  -0.0000008600
        0.0000025514   0.0000022995   0.0000003153  -0.0000008018  -0.0000003621
       -0.0000006576   0.0000005149   0.0000018492  -0.0000001284   0.0000006428
        0.0000009726  -0.0000000534  -0.0000008725  -0.0000000707  -0.0000000476
        0.0000016066   0.0000008860   0.0000002430   0.0000009636  -0.0000007547
        0.0000000797   0.0000013340   0.0000004587   0.0000005777   0.0000002745
       -0.0000000507   0.0000006577   0.0000008528  -0.0000002804   0.0000007021
       -0.0000006322   0.0000013022   0.0000012653   0.0000041254  -0.0000025868
       -0.0000008232  -0.0000018115  -0.0000005099   0.0000001958  -0.0000004731
        0.0000011876   0.0000004185  -0.0000052827   0.0000000690   0.0000003286
       -0.0000003322   0.0000010680   0.0000018915  -0.0000001709   0.0000005327
       -0.0000011328   0.0000006246  -0.0000021895   0.0000025376   0.0000014906
        0.0000012610   0.0000015792  -0.0000006324  -0.0000003324  -0.0000003348
        0.0000003052  -0.0000020837   0.0000018213   0.0000007427   0.0000023077
        0.0000016044  -0.0000059972  -0.0000053956   0.0000057417  -0.0000102455
        0.0000075173  -0.0000102318   0.0000387588  -0.0000045346  -0.0000029314
       -0.0000159418  -0.0000115946  -0.0000112189   0.0000205471   0.0000099057
        0.0000035062   0.0000170843  -0.0000007236  -0.0000002018  -0.0000254821
        0.0000196489   0.0000162715   0.0000315311  -0.0000009723  -0.0000040628
       -0.0007348033   0.0002547417  -0.0002722749   0.0086324880   0.0451313599
        0.0051348844  -0.0031445194  -0.1036027248  -0.0003462067   0.0972779094
       -0.1916420123   0.0812181643  -0.0037132084  -0.0069558456  -0.0022848482
        0.0024457146  -0.0028576389   0.0022259124   0.0002093876   0.0001402344
       -0.0000749422  -0.0000074796   0.0000067231   0.0000068914  -0.0000061230
        0.0000008001   0.0000041181   0.0000005498   0.0000026165  -0.0000034356
        0.0000031838  -0.0000084219  -0.0000015323   0.0000201236  -0.0000112296
       -0.0000119623   0.0000214127   0.0000512243   0.0000386889  -0.0000084351
        0.0000048381   0.0000052590  -0.0000030492   0.0000013124   0.0000081941
       -0.0000027924  -0.0000013322   0.0000053102  -0.0000004377   0.0000004422
        0.0000018301   0.0000004167   0.0000064266  -0.0000046715   0.0000042288
        0.0000009617  -0.0000006643   0.0000000261   0.0000005607  -0.0000000512
       -0.0000000005  -0.0000000226  -0.0000004905  -0.0000010213   0.0000001139
       -0.0000002917  -0.0000006054   0.0000000791   0.0000000926  -0.0000003671
        0.0000007022   0.0000007689   0.0000000071   0.0000004756   0.0000010328
        0.0000003537   0.0000001633   0.0000010987   0.0000004100  -0.0000004707
        0.0000003251   0.0000003371   0.0000010908  -0.0000017951   0.0000000773
       -0.0000013028  -0.0000015413   0.0000007256  -0.0000016392   0.0000006616
        0.0000005118  -0.0000002522   0.0000011393   0.0000006392  -0.0000000527
        0.0000012500   0.0000024064  -0.0000010337  -0.0000007640  -0.0000008462
       -0.0000050460   0.0000032873  -0.0000021838  -0.0000008159  -0.0000014100
       -0.0000079764  -0.0000024468  -0.0000028053  -0.0000062190  -0.0000050833
        0.0000013448   0.0000012228  -0.0000012914   0.0000045537   0.0000922523
        0.0000551851   0.0000699135   0.0029895682  -0.0028644639   0.0025403730
       -0.0229079095  -0.0079095570  -0.0172712689
        0.2638516469  -0.0214335756   0.3202722492  -0.0337337411  -0.0140312336
       -0.0736111606   0.0251074462  -0.0026340555   0.0207868674  -0.0140297575
       -0.0214113740  -0.0158888967  -0.0006125381   0.0005113671  -0.0005800743
       -0.0000353711  -0.0004786691   0.0002599733  -0.0001555912   0.0000735155
       -0.0000894058  -0.0000034046  -0.0000187032   0.0000196352  -0.0000008073
        0.0000090493  -0.0000017035  -0.0000030911  -0.0000045364   0.0000009011
        0.0000003310   0.0000038196  -0.0000002576   0.0000126878   0.0000049732
       -0.0000103348   0.0000038565  -0.0000060720   0.0000058119   0.0001172612
       -0.0000016275  -0.0000255234   0.0000763754  -0.0000211058  -0.0000850777
        0.0000044635   0.0000063082  -0.0000054015  -0.0000044657  -0.0000071701
       -0.0000090065   0.0000070538   0.0000116833   0.0000110039  -0.0000007171
       -0.0000037997  -0.0000007768  -0.0000124729   0.0000045962   0.0000038195
        0.0000029960  -0.0000040895  -0.0000021452  -0.0000143396  -0.0000021988
       -0.0000016262  -0.0000139255   0.0000011445   0.0000018449   0.0000163238
        0.0000019178   0.0000013999   0.0000022903   0.0000065108  -0.0000044682
        0.0000029540  -0.0000037016   0.0000033288  -0.0000036860  -0.0000004483
        0.0000006546  -0.0000023908  -0.0000012767  -0.0000002898  -0.0000006216
       -0.0000004678   0.0000006727   0.0000011903  -0.0000004323  -0.0000003043
       -0.0000004035  -0.0000016063  -0.0000004545  -0.0000012897   0.0000008230
        0.0000004847   0.0000002506   0.0000005978   0.0000002773   0.0000003543
       -0.0000012240  -0.0000002109  -0.0000006228   0.0000000359  -0.0000001079
       -0.0000009993   0.0000002474  -0.0000000207  -0.0000008448  -0.0000000959
       -0.0000002534  -0.0000010151  -0.0000006859  -0.0000005536  -0.0000003420
        0.0000008694   0.0000000567  -0.0000002335   0.0000000940  -0.0000002287
       -0.0000004244   0.0000000834  -0.0000002115  -0.0000013163   0.0000011063
        0.0000002569   0.0000004745   0.0000003807  -0.0000001493   0.0000011911
       -0.0000008280  -0.0000003866  -0.0000009413  -0.0000010743  -0.0000004611
        0.0000005259   0.0000017008   0.0000000410  -0.0000004324   0.0000002370
       -0.0000003130   0.0000005896   0.0000007669   0.0000003541  -0.0000007005
        0.0000001096  -0.0000008932  -0.0000003243  -0.0000004103  -0.0000003971
       -0.0000000788  -0.0000000881  -0.0000002800  -0.0000000592   0.0000007248
       -0.0000008660   0.0000016709   0.0000041837  -0.0000033097   0.0000047606
       -0.0000038377   0.0000046175  -0.0000051757   0.0000056517   0.0000056748
       -0.0000003593  -0.0000000601   0.0000017082  -0.0000062342  -0.0000077918
       -0.0000031122  -0.0000229634   0.0000018251   0.0000035987   0.0000438258
        0.0000038770  -0.0000131818  -0.0000054143  -0.0000049652  -0.0000052131
        0.0000133460   0.0002191201   0.0002156304  -0.0262218076   0.0419712094
       -0.0209488871  -0.1337956630  -0.0491411328  -0.1493114967  -0.0583452482
        0.0811931596  -0.0823102281  -0.0069915090  -0.0173168922  -0.0038433788
       -0.0048039165   0.0026352861   0.0042514403   0.0000665575   0.0000757450
        0.0000127095   0.0000019107  -0.0000038495  -0.0000017722   0.0000023500
       -0.0000016472  -0.0000009808   0.0000011752  -0.0000034874   0.0000032234
       -0.0000036263   0.0000009256   0.0000026771   0.0000009378  -0.0000005775
       -0.0000055668   0.0000136911   0.0000192860   0.0000390623  -0.0000027655
       -0.0000043309  -0.0000050280  -0.0000006392   0.0000030463   0.0000008833
        0.0000018439   0.0000008490  -0.0000007264  -0.0000005041   0.0000010142
        0.0000000981   0.0000005743  -0.0000021258   0.0000007994  -0.0000031662
        0.0000001926  -0.0000000001   0.0000004381  -0.0000003603  -0.0000001078
       -0.0000002193  -0.0000003242   0.0000001178  -0.0000000761   0.0000002549
        0.0000000502   0.0000001868   0.0000000835  -0.0000002103   0.0000002407
       -0.0000000985  -0.0000004516   0.0000002366  -0.0000002930  -0.0000005678
       -0.0000003551  -0.0000000671  -0.0000004563  -0.0000002416   0.0000001556
       -0.0000002099  -0.0000004784  -0.0000001297   0.0000001523  -0.0000000817
        0.0000003723   0.0000005777  -0.0000001158   0.0000008239  -0.0000002131
       -0.0000004878   0.0000004075  -0.0000006689  -0.0000002258  -0.0000002414
       -0.0000004164  -0.0000016955  -0.0000002211   0.0000001301  -0.0000004070
        0.0000010674  -0.0000009211  -0.0000004967   0.0000015160   0.0000003476
       -0.0000019856   0.0000009985   0.0000010393  -0.0000010159   0.0000072646
        0.0000046420   0.0000036713  -0.0000038525   0.0000334298   0.0001571895
        0.0000778579  -0.0000463256  -0.0048236573   0.0022377180   0.0043013756
       -0.0058473881  -0.0025397182  -0.0034279477
       -0.0961540600  -0.0945654319  -0.0337337411   0.4641721985   0.0125460824
        0.2696238993  -0.1370946455   0.1217954759  -0.0751441418  -0.0316823061
        0.0090534264  -0.0255532733  -0.0001223232  -0.0019098710  -0.0056040299
       -0.0002220161   0.0005213662   0.0000665346   0.0002243218   0.0001183922
        0.0002908856  -0.0000009783  -0.0000060722  -0.0000163905  -0.0000169476
       -0.0000126997   0.0000065897  -0.0000105495   0.0000218690   0.0000133558
        0.0000144570   0.0000139042  -0.0000108172   0.0000284128  -0.0000106799
       -0.0000165090  -0.0000119319   0.0000062836   0.0000360304  -0.0000256462
       -0.0000654844  -0.0000183947  -0.0000003009   0.0003503550   0.0003837496
       -0.0000826933  -0.0000058100  -0.0000081933  -0.0000054224   0.0000084736
        0.0000101183  -0.0000023086   0.0000222176   0.0000205237  -0.0000103662
       -0.0000036953  -0.0000027867  -0.0000048878   0.0000108364   0.0000091561
        0.0000070843  -0.0000022761  -0.0000027662  -0.0000135107  -0.0000120372
       -0.0000083446  -0.0000174372  -0.0000001818   0.0000007494   0.0000271858
        0.0000038147   0.0000012770   0.0000125911   0.0000012848  -0.0000060024
       -0.0000001623  -0.0000021028   0.0000057216  -0.0000045042   0.0000017752
       -0.0000002055  -0.0000056029   0.0000051868   0.0000026035   0.0000033770
       -0.0000036537   0.0000001760   0.0000004973   0.0000006326  -0.0000000784
       -0.0000035286  -0.0000033286  -0.0000008754   0.0000018324   0.0000002877
        0.0000005228  -0.0000019350  -0.0000022690   0.0000000242   0.0000003206
       -0.0000009984  -0.0000000999  -0.0000000073   0.0000006443   0.0000002448
       -0.0000012876  -0.0000006847  -0.0000004461  -0.0000014164  -0.0000008132
       -0.0000007898  -0.0000012637  -0.0000003596  -0.0000007767   0.0000011754
        0.0000005677  -0.0000009222  -0.0000013818   0.0000007554  -0.0000008523
        0.0000008493  -0.0000018862  -0.0000018234  -0.0000063437   0.0000044696
        0.0000017561   0.0000026430   0.0000013507  -0.0000001579   0.0000007477
       -0.0000016764  -0.0000006336   0.0000079025  -0.0000002022   0.0000004013
       -0.0000022665  -0.0000006929  -0.0000032709  -0.0000002681   0.0000002589
        0.0000015667   0.0000006653   0.0000004904  -0.0000020854  -0.0000003717
       -0.0000002994  -0.0000021945   0.0000011023   0.0000000958  -0.0000001733
        0.0000003104   0.0000019763  -0.0000019142  -0.0000001151  -0.0000018854
       -0.0000021422   0.0000037983   0.0000017896  -0.0000050639   0.0000095085
       -0.0000028221   0.0000094262  -0.0000303034   0.0000087723   0.0000008098
        0.0000134150   0.0000057081   0.0000065689  -0.0000222274  -0.0000072417
       -0.0000011574  -0.0000248915   0.0000001549  -0.0000046171   0.0000488920
       -0.0000164110  -0.0000255443  -0.0000018495  -0.0000057996  -0.0000065907
       -0.0004239817   0.0001377065  -0.0001294573  -0.0010389032   0.0084442056
        0.0031137326  -0.0099773183  -0.0267062729  -0.0074694538   0.0038270197
        0.0142486112   0.0017723135  -0.1953570521  -0.0373225072  -0.1235760188
        0.0040018871  -0.0055492977   0.0025729128   0.0000224928   0.0001204473
       -0.0002593982   0.0000030778  -0.0000012920  -0.0000032094   0.0000042104
       -0.0000145476  -0.0000007222  -0.0000068427  -0.0000150466   0.0000059091
       -0.0000074861   0.0000020636   0.0000079279  -0.0000006723   0.0000013032
       -0.0000256024   0.0000235298  -0.0000590848  -0.0000433628  -0.0000048351
        0.0000042043  -0.0000054551  -0.0000017311   0.0000003181  -0.0000059474
        0.0000076007  -0.0000015643  -0.0000064156   0.0000066938  -0.0000013064
       -0.0000024503   0.0000006320  -0.0000035503   0.0000035138  -0.0000011035
        0.0000000750   0.0000000184  -0.0000001258  -0.0000006796   0.0000003184
        0.0000004566   0.0000007270   0.0000007862   0.0000014625   0.0000000273
        0.0000003245   0.0000010990   0.0000002420  -0.0000001301   0.0000007780
       -0.0000006641  -0.0000009594   0.0000002322  -0.0000005068  -0.0000013000
       -0.0000001823  -0.0000004758  -0.0000014669  -0.0000004482   0.0000002862
       -0.0000004203  -0.0000009804  -0.0000008482   0.0000015438  -0.0000009753
        0.0000011797   0.0000015199  -0.0000013286   0.0000013638  -0.0000006489
       -0.0000004617  -0.0000001275  -0.0000009625  -0.0000006286   0.0000000410
       -0.0000007925  -0.0000004028  -0.0000000682   0.0000014006   0.0000006028
        0.0000035168  -0.0000027771   0.0000049149   0.0000028610   0.0000033703
        0.0000072392   0.0000057050   0.0000064743   0.0000029879   0.0000127805
        0.0000100792   0.0000076817  -0.0000028044   0.0000259448   0.0001502669
       -0.0000011335  -0.0001644694   0.0004980348   0.0002599671   0.0005003591
       -0.0007426709  -0.0014271865  -0.0066319147
       -0.0318896797  -0.3053219102  -0.0140312336   0.0125460824   0.6547958638
       -0.0111390833   0.0592483400  -0.2335190607   0.0541677045   0.0557049767
        0.0426509249   0.0404755575  -0.0025323042   0.0029016616  -0.0022746983
       -0.0004298833  -0.0007734280  -0.0001513527  -0.0002247186   0.0003263988
        0.0000514914  -0.0000360300   0.0000402198   0.0000275820   0.0000084507
        0.0000198289  -0.0000106868  -0.0000046198  -0.0000111837   0.0000036252
       -0.0000039906   0.0000029789   0.0000043558   0.0000116444   0.0000156625
       -0.0000103775   0.0000068744  -0.0000378657  -0.0000116281   0.0000164132
       -0.0002378357   0.0001123424  -0.0001426556   0.0005295942   0.0000480842
        0.0000214648  -0.0000250009  -0.0000177619  -0.0000001651   0.0000136495
        0.0000141232  -0.0000000596   0.0000029666   0.0000002618  -0.0000018432
        0.0000009337   0.0000031417  -0.0000025784   0.0000028004   0.0000023794
        0.0000078357  -0.0000050783  -0.0000041095  -0.0000030827  -0.0000056662
       -0.0000013795  -0.0000045704  -0.0000048586  -0.0000042694   0.0000076968
        0.0000003460  -0.0000014204   0.0000041614   0.0000069371  -0.0000043352
        0.0000018849  -0.0000036768   0.0000026603  -0.0000011922  -0.0000005315
        0.0000008288  -0.0000038008  -0.0000007312  -0.0000001867  -0.0000000233
       -0.0000003778  -0.0000004018   0.0000020699  -0.0000001548  -0.0000001546
       -0.0000002539  -0.0000014971  -0.0000005967  -0.0000012118   0.0000010842
        0.0000000482  -0.0000000232   0.0000008541  -0.0000001456   0.0000006304
       -0.0000003392  -0.0000004268  -0.0000007868   0.0000002326  -0.0000001716
       -0.0000000024   0.0000000045  -0.0000002661  -0.0000006336  -0.0000007675
       -0.0000004391  -0.0000000323  -0.0000003626  -0.0000002334  -0.0000000914
        0.0000004705   0.0000002510   0.0000001109   0.0000002681   0.0000001994
       -0.0000002508  -0.0000003429  -0.0000000757  -0.0000019224   0.0000013849
        0.0000005506   0.0000006398   0.0000002078  -0.0000001193   0.0000008130
       -0.0000000614  -0.0000002440  -0.0000010869  -0.0000016066  -0.0000003226
        0.0000014765   0.0000000721  -0.0000003763   0.0000002568   0.0000015015
        0.0000008098   0.0000008553   0.0000012167   0.0000008935  -0.0000007323
       -0.0000000729  -0.0000004780  -0.0000000398  -0.0000007332   0.0000004645
        0.0000003835   0.0000005184   0.0000003823  -0.0000001754   0.0000006227
       -0.0000009599   0.0000020717   0.0000050033  -0.0000031627   0.0000060814
       -0.0000043116   0.0000037858  -0.0000168974  -0.0000000612   0.0000033012
        0.0000089679   0.0000055913   0.0000044022   0.0000036194   0.0000013578
       -0.0000007464   0.0000153760  -0.0000089567  -0.0000073018  -0.0000352427
       -0.0000116846   0.0000128600  -0.0000118491  -0.0000005980   0.0000014857
        0.0011771653  -0.0001874321   0.0004176928   0.0099701685  -0.0629441566
        0.0097060717  -0.0735661194   0.0060206178  -0.0570116724  -0.0048837340
       -0.0251778900  -0.0027429279  -0.0371885602  -0.0531193116  -0.0287220251
        0.0132372170  -0.0259273107   0.0116318712  -0.0000294442  -0.0002768027
       -0.0000933809  -0.0000043601  -0.0000000474   0.0000033414   0.0000022507
        0.0000028296   0.0000012932   0.0000048454   0.0000005311   0.0000057363
       -0.0000050744  -0.0000013949   0.0000067615   0.0000017260  -0.0000077023
        0.0000086235  -0.0000045755  -0.0000595468  -0.0000920885   0.0000027888
        0.0000021254   0.0000043838   0.0000008766  -0.0000019398  -0.0000018720
        0.0000043291  -0.0000007140  -0.0000013206   0.0000006023  -0.0000021726
       -0.0000015336  -0.0000006072  -0.0000057063   0.0000025972  -0.0000008088
       -0.0000000713   0.0000000751   0.0000004006  -0.0000005078  -0.0000004429
        0.0000000986  -0.0000002258  -0.0000003804  -0.0000000274   0.0000001945
       -0.0000003317   0.0000001076   0.0000001260  -0.0000002781   0.0000003072
        0.0000000554  -0.0000001582   0.0000005053  -0.0000003112  -0.0000000569
       -0.0000001434  -0.0000004374   0.0000001710  -0.0000005654  -0.0000000043
        0.0000003726  -0.0000004194  -0.0000004226   0.0000003593  -0.0000003873
       -0.0000001833   0.0000006811  -0.0000001013   0.0000001908   0.0000002421
       -0.0000002295   0.0000001904   0.0000001573   0.0000003923  -0.0000001503
        0.0000001824  -0.0000000373  -0.0000000403   0.0000008095  -0.0000020169
        0.0000033206  -0.0000017110   0.0000015941   0.0000026478   0.0000024312
        0.0000090987   0.0000016080   0.0000018558   0.0000041895  -0.0000040723
        0.0000020731  -0.0000091350   0.0000034522  -0.0000432359  -0.0001900552
       -0.0001300943  -0.0000414265   0.0001081727  -0.0005114911   0.0002672255
       -0.0009171823   0.0009698489  -0.0005745934
       -0.0361288169  -0.0631539345  -0.0736111606   0.2696238993  -0.0111390833
        0.3265362987  -0.0727053211   0.1013500121  -0.1075295688  -0.0264767831
        0.0065666563  -0.0204595042  -0.0055201765  -0.0016973782   0.0032364897
        0.0004392172  -0.0004393077   0.0005993069  -0.0000761830  -0.0001678903
       -0.0001579150   0.0000509129  -0.0000054754   0.0000240302  -0.0000273637
       -0.0000202203   0.0000159926  -0.0000174677   0.0000191952   0.0000060205
        0.0000132815   0.0000108702  -0.0000103067   0.0000220655  -0.0000102386
       -0.0000231817  -0.0000056613  -0.0000251427   0.0000282036   0.0001743711
        0.0000287389  -0.0000315798  -0.0003788603  -0.0003127965  -0.0001363445
       -0.0000965010   0.0001010708  -0.0000254345  -0.0000262399   0.0000064340
        0.0000035162  -0.0000028054   0.0000165204   0.0000099793  -0.0000085715
       -0.0000028518  -0.0000019938  -0.0000029863   0.0000095055   0.0000072146
        0.0000023372  -0.0000011073  -0.0000018219  -0.0000128607  -0.0000100810
        0.0000044010  -0.0000153012   0.0000021678   0.0000036473   0.0000190965
        0.0000055126  -0.0000019966   0.0000101398   0.0000009788  -0.0000045364
        0.0000001267  -0.0000014978   0.0000049566  -0.0000035905   0.0000015035
       -0.0000002658  -0.0000041575   0.0000029392   0.0000019896   0.0000031296
       -0.0000031784   0.0000009405   0.0000002647   0.0000011193  -0.0000002147
       -0.0000035109  -0.0000031821  -0.0000009402   0.0000020749   0.0000003158
        0.0000005475  -0.0000016620  -0.0000024513  -0.0000000498  -0.0000001451
       -0.0000021603  -0.0000002646   0.0000012619   0.0000005141   0.0000001940
       -0.0000032803   0.0000002288   0.0000000925   0.0000000056   0.0000007824
       -0.0000000204  -0.0000021820  -0.0000006071  -0.0000006801   0.0000014154
        0.0000004777  -0.0000004967  -0.0000015857  -0.0000000600  -0.0000006204
        0.0000000423  -0.0000023406  -0.0000015999  -0.0000054552   0.0000046715
        0.0000019094   0.0000025605   0.0000014103  -0.0000000243   0.0000012564
       -0.0000017993  -0.0000006301   0.0000081874  -0.0000009297   0.0000003994
       -0.0000044455   0.0000004273  -0.0000024939  -0.0000010453   0.0000002147
        0.0000001994   0.0000013334   0.0000002006  -0.0000008909  -0.0000000440
        0.0000007534  -0.0000022744   0.0000005334  -0.0000003402  -0.0000005514
        0.0000002643   0.0000005561  -0.0000010881   0.0000002828  -0.0000001166
       -0.0000018780   0.0000028867   0.0000014566  -0.0000039648   0.0000069909
       -0.0000009273   0.0000074400  -0.0000175900   0.0000003418   0.0000058153
        0.0000078237   0.0000035542   0.0000039282  -0.0000118725  -0.0000043249
       -0.0000031800  -0.0000238623  -0.0000034675  -0.0000067001   0.0000407392
       -0.0000087065  -0.0000209103  -0.0000074019  -0.0000178135  -0.0000078984
       -0.0013291112   0.0012079195  -0.0007948263   0.0030783023   0.0086067425
       -0.0035671816  -0.0057931953  -0.0206197259  -0.0022938448   0.0026117546
        0.0120387455   0.0021895959  -0.1235336813  -0.0284313092  -0.1295411895
        0.0020404925  -0.0034524111   0.0024068831   0.0001386646   0.0000619385
       -0.0000245914  -0.0000008692   0.0000039569   0.0000028921   0.0000017021
       -0.0000146731   0.0000007267  -0.0000074618  -0.0000141390   0.0000093104
       -0.0000150082  -0.0000018695   0.0000141807   0.0000053290   0.0000016891
       -0.0000103575   0.0000094477   0.0000097758   0.0000603995  -0.0000004617
        0.0000029228  -0.0000011496  -0.0000015324   0.0000019343  -0.0000039197
        0.0000062887  -0.0000016047  -0.0000052217   0.0000063999  -0.0000017841
       -0.0000004907   0.0000006921  -0.0000031740   0.0000024665  -0.0000004946
        0.0000002253  -0.0000003837  -0.0000000615  -0.0000007116   0.0000000840
        0.0000003111   0.0000008683   0.0000006450   0.0000017468   0.0000004641
        0.0000003593   0.0000015284   0.0000002568  -0.0000000869   0.0000007410
       -0.0000008860  -0.0000008412   0.0000004713  -0.0000005526  -0.0000010719
       -0.0000001929  -0.0000002093  -0.0000011262   0.0000000142   0.0000005700
       -0.0000002229  -0.0000011001  -0.0000010418   0.0000012188  -0.0000006571
        0.0000011077   0.0000016272  -0.0000009887   0.0000012999  -0.0000003561
       -0.0000004243   0.0000000164  -0.0000008025  -0.0000004206  -0.0000001020
       -0.0000003108   0.0000002888  -0.0000005832   0.0000014175   0.0000005486
        0.0000022814  -0.0000021985   0.0000048119   0.0000024959   0.0000039640
        0.0000055492   0.0000051518   0.0000058878   0.0000021410   0.0000111608
        0.0000106170   0.0000041380  -0.0000072034   0.0000183370   0.0001201461
        0.0001442082   0.0000159377   0.0005199827   0.0002044822   0.0001468239
       -0.0067186024  -0.0008579527   0.0029062680
        0.0352158297   0.0410150274   0.0251074462  -0.1370946455   0.0592483400
       -0.0727053211   0.4445583862   0.0044060093   0.2563697867  -0.2069948591
       -0.0112483511  -0.1213873167  -0.0213361404   0.0113622542  -0.0176869385
       -0.0014344133  -0.0041283243   0.0004123100  -0.0007029634   0.0006636864
        0.0001693798  -0.0000267854  -0.0000383744   0.0000520640  -0.0000387236