101
 energy: -155.920417452567 gnorm: 0.000060715587 xtb: 6.7.1 (edcfbbe)
C           -9.84808011531024        4.43496739984294       -2.39088477081509
C          -10.23358562640958        3.12798938472184       -2.63760244596737
C           -9.54321184963958        2.07858252011339       -2.06032882952824
C           -8.45109676518598        2.32016131445341       -1.23071317538535
C           -7.71438309553868        1.20609124697131       -0.61418611062415
C           -8.39510573604002        0.11571597491292       -0.08329111505832
C           -7.70873614459696       -0.94074994136632        0.50585869544839
C           -8.44017107399922       -2.09179805972638        1.05733291567297
C           -7.97466936499126       -3.38876277861584        0.85437796181395
C           -8.66653662333818       -4.47199251128968        1.36323632445646
C           -9.83068575100448       -4.27728072509216        2.08745139717378
C          -10.29995140275357       -2.99166824887047        2.29878171676637
C           -9.61255436642952       -1.90740898704108        1.78599283550928
C           -6.31915289432575       -0.89656280696664        0.56009323633930
C           -5.62239590037209        0.18401758806620        0.03374617958627
C           -4.14619917683086        0.22063296885694        0.09269144405585
C           -3.39554929791941       -0.68965126186633       -0.66499972136697
C           -4.01537868997028       -1.64055099418777       -1.51811958138670
C           -3.27847525137092       -2.51261848380504       -2.25808819530395
C           -1.87103638663949       -2.47584390922393       -2.20487870707121
C           -1.23705633158318       -1.56770123421414       -1.41446470755236
C           -1.96734227936554       -0.65141754425626       -0.61202209153632
C           -1.32527868431115        0.29898694356628        0.19567345061129
C            0.14986637929765        0.34279684328350        0.23862267428591
C            0.84416321751546        1.42826121570240       -0.29053071487607
C            2.22326432349199        1.44983899062683       -0.28308141452719
C            2.94478409655921        0.38150622533089        0.24877832244457
C            4.39729930790446        0.43335317153040        0.20094590960441
N            5.09497706084877        1.52257793137770        0.39902556115653
C            6.39864931317653        1.16142241231674        0.27191609116954
C            7.55125547300231        1.98382736378721        0.42691502456381
C            7.47761784599844        3.33137304170619        0.76007639817085
C            8.63560095504452        4.07392235220405        0.91555393974170
C            9.87114617327871        3.48419149746974        0.73705792920251
C            9.98159297855740        2.13345719680345        0.39474275734016
C           11.25021957794675        1.51673459043851        0.19316714367758
C           11.34358941531990        0.21695959691645       -0.16546721286997
C           10.18051483689868       -0.58738823461125       -0.34861695384893
C           10.28362478453402       -1.92213935619847       -0.74927288363791
C            9.15203536677874       -2.68278304005093       -0.95226956739841
C            7.89443428186522       -2.14714713877098       -0.73206595115675
C            7.74467819988820       -0.83102908462464       -0.29882084051390
C            8.90243060057440       -0.01651953964532       -0.12938732466259
C            8.80739614690521        1.35652924959135        0.23554860641629
C            6.49660005274741       -0.19747535490728       -0.03150061407050
N            5.19916025206330       -0.65602040871826       -0.06313378447265
C            4.72187958702875       -1.95628480455203       -0.31571436148994
C            3.88117597351837       -2.17916357698369       -1.39999317473924
C            3.36859696226993       -3.44457226459900       -1.62069581852998
C            3.69343592779920       -4.48673093465687       -0.76851994811442
C            4.53388642917615       -4.26381011724843        0.31039454824448
C            5.04633968384414       -3.00114579694765        0.54424321378855
C            2.25185670930888       -0.68634889862573        0.81607032831183
C            0.87172484034390       -0.70362749449787        0.80564030517595
C           -2.07610345507011        1.20729350566614        0.95576050189153
C           -1.45654142718301        2.15659361478541        1.81079684155063
C           -2.19511028806113        3.02477537514717        2.55395355203636
C           -3.60264212072390        2.98594337506551        2.50244753377812
C           -4.23561946652287        2.07946647228327        1.70933122843365
C           -3.50417714148625        1.16703442030270        0.90402078895624
C           -6.32477593761191        1.23044914671863       -0.55087548513779
C           -8.06967131061596        3.63827358461590       -0.99190043250603
C           -8.76496754086967        4.68640542369204       -1.56545294457467
H          -10.38937706468252        5.25429769622482       -2.84052719717779
H          -11.07525099073757        2.92584059610380       -3.28424398444780
H           -9.83871048447226        1.06041788036060       -2.26910465544757
H           -9.47390232164518        0.08883389985310       -0.12944897771883
H           -7.07486926804239       -3.54818473482846        0.27757646467294
H           -8.29736011280152       -5.47304568627417        1.19278730083537
H          -10.36998630477448       -5.12401386139935        2.48581841407553
H          -11.20524096972254       -2.83353875219543        2.86696604466389
H           -9.97490910077769       -0.90580583246212        1.96763448119818
H           -5.77201718999525       -1.69655178454523        1.03778916540177
H           -5.09354716689473       -1.65374888944109       -1.57762539889836
H           -3.76556131009620       -3.23103471558219       -2.90121490338720
H           -1.30079289863090       -3.16758479909888       -2.80774578756621
H           -0.15799190558309       -1.52777402410410       -1.39197554988704
H            0.29098685311244        2.24997000926584       -0.72219091642405
H            2.76596822522374        2.28610393781003       -0.69566771002926
H            6.50351861119850        3.77423303750758        0.89677687100843
H            8.57199586411546        5.12011268634935        1.17796335371960
H           10.77363415234149        4.06684581134700        0.85749095290823
H           12.13741995314986        2.11958619557511        0.32729387581737
H           12.30747277383493       -0.24497618145335       -0.32724618417571
H           11.26340174212936       -2.34787970833417       -0.91170195946014
H            9.24080471854168       -3.70674564735993       -1.28556122684703
H            7.02471393939596       -2.75894164893736       -0.91225515238326
H            3.63321962170452       -1.35922701459657       -2.05771463724601
H            2.71458891051909       -3.61638677778720       -2.46227492981513
H            3.29142462127720       -5.47308916390557       -0.94357664073541
H            4.78707051286625       -5.07444233843650        0.97713713668022
H            5.69646597167066       -2.81433366240921        1.38673393788059
H            2.78795783974277       -1.49899557059703        1.28284776948804
H            0.34052519437502       -1.53451533017816        1.24744954469750
H           -0.37851033648522        2.17258851920883        1.86913777296534
H           -1.70840809153897        3.74187460345012        3.19854957231625
H           -4.17369854894180        3.67399753588292        3.10860059530432
H           -5.31442529505687        2.03429441152790        1.68926568795470
H           -5.77946492114509        2.05745005719155       -0.98234488215657
H           -7.23419353824112        3.84129786773474       -0.33732075225732
H           -8.46176981036335        5.70425310524741       -1.36690411381499
