$hessian                                                                        
        0.0839271118   0.0070039814   0.0033197052  -0.0734456335  -0.0050441923
       -0.0048071716  -0.0017727873  -0.0413043796  -0.0098259686  -0.0051843870
       -0.0015614365  -0.0014041983  -0.0013557577  -0.0011516271   0.0014655667
        0.0011512988   0.0000778625   0.0005917742  -0.0007787109  -0.0007601178
       -0.0005845686  -0.0000707624   0.0007150499   0.0005832102   0.0001321893
       -0.0000802352  -0.0001700042  -0.0000762850   0.0000563351   0.0001181811
       -0.0000074245  -0.0000246511  -0.0000235497  -0.0000025749   0.0000311116
        0.0000717120  -0.0000686818  -0.0001666687  -0.0001677394  -0.0000425489
       -0.0000263866  -0.0000051228   0.0000263723  -0.0000587124   0.0000507563
        0.0000324754   0.0000170678  -0.0000014698  -0.0000161154  -0.0000262422
        0.0000066145   0.0000200503   0.0000026003   0.0000062989   0.0000120512
       -0.0000158121   0.0000171386  -0.0000075741   0.0000778490  -0.0000534019
       -0.0000035816  -0.0000193567   0.0000060895   0.0000273145  -0.0000453014
        0.0000460731   0.0000013190   0.0000170260  -0.0000108056   0.0000068287
        0.0000126812  -0.0000072906  -0.0000343527   0.0000011216  -0.0000199743
        0.0000252627   0.0000137395   0.0000001085  -0.0000136461   0.0000618008
       -0.0000613583  -0.0000847403   0.0000352452   0.0000967963   0.0000117885
        0.0000080210  -0.0000258282  -0.0000255974  -0.0000207898  -0.0000048011
        0.0000583678  -0.0000626893  -0.0000938126   0.0000725278   0.0001356319
        0.0001647527   0.0004961324  -0.0002677323  -0.0003169778   0.0009752713
       -0.0000139981   0.0014754800   0.0002889981  -0.0022537583  -0.0003410394
       -0.0000349153   0.0406499518   0.0066497825  -0.0048818300   0.0021169510
       -0.0007207921  -0.0013197510   0.0005914748   0.0015715860   0.0011563275
       -0.0004233908   0.0004511894  -0.0009047336   0.0008975634  -0.0001999612
        0.0002684125  -0.0003054575   0.0007720471   0.0001007866   0.0000619283
       -0.0001747410  -0.0000350955  -0.0000367577   0.0001247403  -0.0000075042
        0.0000244166  -0.0000232333  -0.0000089679  -0.0000558726   0.0000545653
       -0.0000913426   0.0001469708  -0.0001482437  -0.0000458073   0.0000190090
        0.0000089037  -0.0000183453  -0.0000812499  -0.0000364784   0.0000147960
       -0.0000084698  -0.0000031959  -0.0000403084  -0.0000056566  -0.0000129834
        0.0000035127  -0.0000135003  -0.0000054571   0.0000034062  -0.0000120520
       -0.0000051611   0.0000193116   0.0000451192   0.0000230671   0.0000063591
        0.0000335121   0.0000120414  -0.0000155574  -0.0001038982  -0.0000392628
        0.0000152741   0.0000248380   0.0000127776   0.0000235466  -0.0000063789
        0.0000016654  -0.0000143525   0.0000238276   0.0000056384   0.0000377848
       -0.0000239494  -0.0000028478   0.0000295398   0.0000724574   0.0000211603
       -0.0000759022  -0.0000244601   0.0001242945   0.0000329934   0.0000218957
       -0.0000278558  -0.0000252569   0.0000151220   0.0000096999   0.0000185238
        0.0000527728  -0.0001182633   0.0000767714  -0.0001279736   0.0001589971
        0.0002552245  -0.0000569230  -0.0006612378   0.0008133874  -0.0008240723
        0.0015697438   0.0002070790   0.0019163465   0.0005829563  -0.0000128662
       -0.0002483197  -0.0002585199  -0.0004344235  -0.0003371661   0.0001121972
       -0.0000535354   0.0000657712   0.0001248940   0.0000303403  -0.0000185684
       -0.0000450346  -0.0000176022  -0.0000373963  -0.0000361720  -0.0000306514
       -0.0000314058  -0.0000197615  -0.0000118112  -0.0000182844   0.0000140116
        0.0000067255   0.0000103011  -0.0000003119  -0.0000236896   0.0000090821
       -0.0000162101  -0.0000213360  -0.0000092270  -0.0000028451  -0.0000169482
       -0.0000117807   0.0000011192  -0.0000081511  -0.0000267541   0.0000167785
        0.0000144658  -0.0000034033   0.0000123705  -0.0000158522   0.0000131844
       -0.0000156737  -0.0000518739  -0.0000207460   0.0000035204  -0.0000511817
        0.0000019990   0.0000240571   0.0000030852   0.0000173673   0.0000100657
       -0.0000434912  -0.0000534384  -0.0001071506   0.0001522880   0.0000168524
       -0.0001157541   0.0006328325  -0.0005261977  -0.0000377007  -0.0000063683
        0.0003061937  -0.0000978369  -0.0004051356   0.0002820159   0.0002261103
       -0.0000330039  -0.0000795478   0.0001064560   0.0000136156   0.0000037554
       -0.0000442082  -0.0000291522   0.0000344323  -0.0000326173  -0.0000362084
        0.0000293377  -0.0000129294  -0.0000172694  -0.0000189315  -0.0000079439
        0.0000202742   0.0000094629   0.0000093204  -0.0000033145   0.0000299284
        0.0000130580  -0.0000145930   0.0000118893   0.0000027746  -0.0000222441
        0.0000110226   0.0000004494  -0.0000262585  -0.0000077456  -0.0000073808
        0.0000085048  -0.0000043401   0.0000000235  -0.0000124035   0.0000231972
        0.0000065170  -0.0000462658   0.0000218127   0.0000176205  -0.0000435505
        0.0000026704   0.0000388329   0.0000041664  -0.0000238815   0.0000246568
       -0.0000448091   0.0000782319  -0.0000872559   0.0001556410   0.0000233240
       -0.0000910640   0.0006544858   0.0005081708   0.0002012203
        0.0070039814   0.7539714701   0.1499561794  -0.0047109665  -0.6320715073
       -0.1182627085  -0.0361892097  -0.0589194890  -0.0133466928  -0.0049478458
        0.0033580162  -0.0010555937  -0.0042664707  -0.0011321362   0.0018609057
        0.0039624973   0.0016571791   0.0006143294  -0.0023913502  -0.0008540954
       -0.0003549164  -0.0001992896   0.0012483716   0.0003351081   0.0000749628
       -0.0000135895  -0.0001420066  -0.0000934271   0.0000917584   0.0001040201
        0.0000037559  -0.0000242138  -0.0000731470   0.0000189517   0.0000122073
        0.0001915830   0.0000719952  -0.0001118635  -0.0002809889  -0.0001020348
       -0.0000596951   0.0000059710   0.0001242458  -0.0000615164   0.0001326648
       -0.0000191928  -0.0000141904   0.0000123954  -0.0000157528  -0.0000617200
        0.0000391064   0.0000205326   0.0000086512   0.0000070411   0.0000139630
       -0.0000134312   0.0000051817  -0.0000300643   0.0000763418  -0.0000688121
       -0.0000216888   0.0000418886  -0.0000216226   0.0001436147  -0.0001017815
        0.0001244862  -0.0000318640   0.0000454497  -0.0000371155   0.0000372299
        0.0000154122   0.0000094773  -0.0000445506   0.0000142456  -0.0000189910
        0.0000134520   0.0000234058   0.0000071228  -0.0000237654   0.0001131600
       -0.0001015599  -0.0002778529   0.0000416893   0.0002852731   0.0001151768
       -0.0000039182  -0.0002499769  -0.0000221153   0.0000710173   0.0001148978
        0.0000113805  -0.0001436622  -0.0001733792  -0.0002206521   0.0001192131
        0.0001715319   0.0015847551  -0.0009321506  -0.0006274133  -0.0017636402
       -0.0022591664   0.0001800279   0.0082666090  -0.0039812143   0.0016217097
        0.0333454482  -0.0585021261  -0.0172651403   0.0060123109   0.0020589443
        0.0016873262   0.0030579392  -0.0017541219  -0.0009811776  -0.0033053278
        0.0015308314   0.0000793345   0.0020108669  -0.0009521162  -0.0000682429
       -0.0006440320   0.0000441606  -0.0011775443   0.0000001053   0.0000195465
        0.0001566045   0.0000585072   0.0000532937  -0.0001414574  -0.0000236548
       -0.0000350811   0.0000752231   0.0000278353   0.0001630932  -0.0001112357
       -0.0000076208  -0.0001684613   0.0002483072   0.0000927045  -0.0000522678
       -0.0000285774   0.0000560892   0.0001215353   0.0000347926  -0.0000219102
        0.0000247454  -0.0000044903   0.0000361951   0.0000094783   0.0000084247
       -0.0000444535   0.0000141985  -0.0000044399   0.0000477232   0.0000429980
        0.0000305282  -0.0001857788  -0.0001091543  -0.0000719706   0.0000740059
        0.0000469472   0.0000226815   0.0000479185   0.0000504555   0.0000240466
       -0.0000075812   0.0000003214   0.0000012357  -0.0000197526   0.0000037806
       -0.0000020103   0.0000009670  -0.0000727983  -0.0000269491   0.0000280269
       -0.0000228051  -0.0000099526  -0.0001692090  -0.0000829678  -0.0000385368
        0.0001918461   0.0000958581  -0.0002693504  -0.0001255983  -0.0001129390
        0.0001755267   0.0000025340   0.0000788818  -0.0000990197   0.0000563395
       -0.0000780690   0.0001594701   0.0001426902   0.0001133718  -0.0001694156
       -0.0005421335   0.0003256503   0.0015233909   0.0015846210  -0.0007549057
       -0.0018892047  -0.0073628664  -0.0027521972  -0.0029772758   0.0002139229
        0.0002721134  -0.0011395931  -0.0004900381  -0.0003291006  -0.0001483664
       -0.0000699478  -0.0000484513   0.0001351858   0.0000348863  -0.0000364883
       -0.0000104874  -0.0000195204  -0.0000542619  -0.0000455510  -0.0000552312
       -0.0000565814  -0.0000280755   0.0000045624  -0.0000547148   0.0000267083
       -0.0000029330   0.0000342549  -0.0000378263  -0.0000331498   0.0000086726
       -0.0000261704  -0.0000240754  -0.0000091236  -0.0000060176  -0.0000297327
       -0.0000276175  -0.0000040923  -0.0000153994  -0.0000334998   0.0000091071
        0.0000121268  -0.0000126605   0.0000075691  -0.0000342925   0.0000023329
       -0.0000345228  -0.0000537517   0.0000018074   0.0000275574  -0.0000555470
        0.0000070707   0.0000534687  -0.0000399361   0.0000740005   0.0001142112
        0.0000113485  -0.0000828656  -0.0001023394  -0.0001922324   0.0000733509
        0.0000122030  -0.0008977708   0.0010562389  -0.0007869096  -0.0001602010
        0.0000140353   0.0008509840   0.0005436269  -0.0004246540   0.0000547539
        0.0000668190  -0.0000035212  -0.0001035867  -0.0000239323  -0.0000297804
        0.0000513782   0.0000180524  -0.0000371653   0.0000415531   0.0000481922
       -0.0000426421   0.0000273949   0.0000411048  -0.0000005865   0.0000147927
       -0.0000043149  -0.0000034603   0.0000006780   0.0000123288  -0.0000277571
       -0.0000070855   0.0000292107  -0.0000252409   0.0000011519   0.0000195670
       -0.0000042694   0.0000028466   0.0000373220   0.0000179051   0.0000136424
        0.0000136696   0.0000484157   0.0000263903  -0.0000198911  -0.0000548183
       -0.0000125022   0.0000421413  -0.0000131363  -0.0000392796   0.0000224394
       -0.0000020098  -0.0000583757  -0.0000025624   0.0000234586  -0.0001030538
       -0.0000480896  -0.0001704189   0.0000723881   0.0001455349   0.0000226579
       -0.0000504160   0.0004455684   0.0004302938   0.0013452971
        0.0033197052   0.1499561794   0.0515891621  -0.0057387333  -0.1182202477
       -0.0783498577  -0.0055506737  -0.0139271804   0.0139411822  -0.0027137141
       -0.0000825286   0.0012752218   0.0002955707  -0.0013688259  -0.0006013469
        0.0002638168   0.0000737310  -0.0000454243  -0.0001241233   0.0001891911
        0.0004334026   0.0000093513  -0.0001415574  -0.0001576402   0.0000113904
        0.0000435059   0.0000252120   0.0000109305   0.0000001020  -0.0000086881
       -0.0000189081   0.0000052110   0.0000180395   0.0000103551  -0.0000208790
       -0.0000279794   0.0000544472   0.0000523013   0.0000280909  -0.0000057268
        0.0000001659   0.0000030140  -0.0000068961   0.0000077320   0.0000043403
       -0.0000024745   0.0000029088   0.0000061845  -0.0000010177   0.0000039511
        0.0000018852   0.0000027707   0.0000020107   0.0000014739  -0.0000027702
       -0.0000011630  -0.0000002728   0.0000051588   0.0000018220  -0.0000035042
        0.0000043906  -0.0000023498   0.0000122599  -0.0000058584  -0.0000007792
       -0.0000064894   0.0000014620   0.0000011336   0.0000012989  -0.0000026855
        0.0000002495   0.0000007467  -0.0000006693   0.0000014380   0.0000046034
       -0.0000059249   0.0000036272   0.0000058680  -0.0000025200   0.0000029395
        0.0000079683  -0.0000700367  -0.0000154926   0.0000247333   0.0000227406
       -0.0000085910  -0.0000240737   0.0000051738   0.0000213861   0.0000261419
       -0.0000172323  -0.0000262276  -0.0000233147  -0.0000838459  -0.0000201937
        0.0000288755   0.0001755213  -0.0000591729  -0.0001594198   0.0004844323
       -0.0001656192  -0.0005785664   0.0006238070  -0.0004101468  -0.0000871611
        0.0087223383  -0.0169578490   0.0123116008  -0.0006152539   0.0008692757
        0.0020839111   0.0018873436   0.0007586004  -0.0003296443  -0.0012498017
        0.0006630985  -0.0000122713   0.0006704023  -0.0006841658   0.0003470652
       -0.0002675258   0.0000653346  -0.0005750058   0.0000126490  -0.0000326413
        0.0001205444   0.0000692316   0.0000061340  -0.0000720223  -0.0000249880
        0.0000024367   0.0000144335  -0.0000037502   0.0000611853  -0.0000175719
        0.0000466942  -0.0001162691   0.0001268151   0.0000339701  -0.0000170530
       -0.0000046123   0.0000297271   0.0000351930   0.0000205538  -0.0000150595
        0.0000015118   0.0000008043   0.0000198655  -0.0000043798   0.0000047828
       -0.0000008080   0.0000134448   0.0000064526  -0.0000009395   0.0000174065
        0.0000086652  -0.0000401661  -0.0000428440  -0.0000235676   0.0000024213
        0.0000124940   0.0000085657   0.0000277795   0.0000283056   0.0000105080
       -0.0000189404   0.0000020767  -0.0000008294  -0.0000093089  -0.0000109818
       -0.0000039798   0.0000100716  -0.0000244689  -0.0000025175  -0.0000029649
        0.0000037348   0.0000074867  -0.0000348475  -0.0000474371  -0.0000068358
        0.0000100542   0.0000591085  -0.0000726144  -0.0000341593  -0.0000126566
       -0.0000198070  -0.0000019045  -0.0000009596   0.0000217847   0.0000270963
       -0.0000299068   0.0000481747  -0.0000176920   0.0000630065  -0.0000665477
       -0.0000331562   0.0001982664   0.0003419638   0.0012229914   0.0000952055
       -0.0012027085  -0.0025094957  -0.0007760227  -0.0011953169   0.0000104449
        0.0000843601   0.0000723500  -0.0002353816  -0.0002129645  -0.0001431648
       -0.0000170865  -0.0000187020  -0.0000101308  -0.0000106699   0.0000118584
        0.0000196611  -0.0000024753   0.0000022070   0.0000048177  -0.0000038160
       -0.0000000544   0.0000039993  -0.0000000032  -0.0000017102  -0.0000068190
        0.0000031426  -0.0000043720  -0.0000003574   0.0000019217  -0.0000016545
        0.0000000351   0.0000019109  -0.0000015525   0.0000003208   0.0000017816
       -0.0000009584  -0.0000017318   0.0000014641  -0.0000003030  -0.0000014374
        0.0000020868  -0.0000029545  -0.0000016547   0.0000060327  -0.0000009176
       -0.0000064905   0.0000104998   0.0000085794   0.0000037429   0.0000061682
        0.0000037805   0.0000014541  -0.0000158508   0.0000204662   0.0000309941
        0.0000412761  -0.0000126590  -0.0000305270   0.0000180949   0.0000350268
        0.0000109531   0.0004627477   0.0002348719   0.0000107370  -0.0000417339
       -0.0001187549   0.0003787860  -0.0000194665   0.0000673864  -0.0000381134
        0.0000192159   0.0000150927  -0.0000643729  -0.0000171954  -0.0000192356
        0.0000402988   0.0000070951  -0.0000161918   0.0000205111   0.0000136832
       -0.0000127057   0.0000096298   0.0000160096   0.0000086948   0.0000024764
       -0.0000056845  -0.0000011485  -0.0000032970   0.0000027186  -0.0000127338
       -0.0000053313   0.0000114044  -0.0000081062  -0.0000011839   0.0000109388
       -0.0000029376  -0.0000003452   0.0000145740   0.0000089452   0.0000037952
        0.0000018118   0.0000147500   0.0000029603  -0.0000055228  -0.0000179199
       -0.0000123690   0.0000225675  -0.0000123131  -0.0000067094   0.0000165017
       -0.0000044173  -0.0000206251  -0.0000064572   0.0000016080  -0.0000011009
        0.0000324382  -0.0000540790  -0.0000017957   0.0000842163  -0.0000234013
       -0.0000404366   0.0007015094  -0.0000516956   0.0005362453
       -0.0734456335  -0.0047109665  -0.0057387333   0.4617709523   0.0002712306
        0.0123408457  -0.1570569240  -0.0415512050  -0.0037760940  -0.0012730613
       -0.0172859177   0.0008475032   0.0068763398   0.0001725930  -0.0017111646
       -0.0064005647  -0.0026576256  -0.0013027966   0.0045798769   0.0030528038
        0.0013834392   0.0002881573  -0.0031413282  -0.0018953970  -0.0002982226
        0.0003766772   0.0005817485   0.0002600759  -0.0002371018  -0.0004272325
       -0.0000362321   0.0000687871   0.0001202237  -0.0000162843  -0.0001322422
       -0.0003765564   0.0002023870   0.0005867538   0.0006837892   0.0001751966
        0.0001013292   0.0000208084  -0.0001271013   0.0001942255  -0.0002174912
       -0.0000525937  -0.0000303557   0.0000027397   0.0000478218   0.0001033938
       -0.0000405678  -0.0000789709  -0.0000117092  -0.0000261429  -0.0000498060
        0.0000544596  -0.0000626110   0.0000317642  -0.0002688361   0.0001910219
        0.0000263563   0.0000492307  -0.0000089588  -0.0001176657   0.0001683502
       -0.0001779904  -0.0000059517  -0.0000685741   0.0000441125  -0.0000440828
       -0.0000589546   0.0000244226   0.0001215780  -0.0000165220   0.0000776864
       -0.0000502122  -0.0000230884   0.0000004402   0.0000364031  -0.0002465686
        0.0002272104   0.0004801182  -0.0001267385  -0.0005229928  -0.0001281857
       -0.0000245140   0.0002735235   0.0000542750  -0.0000017706  -0.0000669219
       -0.0001643560   0.0002628677   0.0003663001   0.0000761532  -0.0003962500
       -0.0005413969  -0.0024286551   0.0015855302   0.0012264419  -0.0008073105
        0.0056828219  -0.0036244782  -0.0399405786  -0.0037713564  -0.0071305533
       -0.1559698876   0.0418673958   0.0129073864  -0.0006374231   0.0147028438
        0.0076939582   0.0060420373  -0.0008652184  -0.0001652063  -0.0059521936
        0.0029644805  -0.0002254503   0.0045899848  -0.0032938219   0.0000819274
       -0.0013488367   0.0009514651  -0.0031262757  -0.0001669742  -0.0002669213
        0.0006166637   0.0001094740   0.0001420353  -0.0004687965  -0.0000300725
       -0.0000786467   0.0001138550   0.0000415886   0.0003032266  -0.0002458903
        0.0002943020  -0.0005842983   0.0006082153   0.0001895788  -0.0000834406
       -0.0000341612   0.0000736478   0.0003132235   0.0001245912  -0.0000240205
        0.0000138509   0.0000062873   0.0001419045   0.0000286042   0.0000499931
       -0.0000290703   0.0000626728   0.0000216557  -0.0000082697   0.0000633132
        0.0000293866  -0.0001158135  -0.0001794852  -0.0000977380  -0.0000108178
       -0.0000682436  -0.0000260017   0.0000677499   0.0003329815   0.0001331298
       -0.0000626811  -0.0000754946  -0.0000434505  -0.0000843546   0.0000165920
       -0.0000076804   0.0000370503  -0.0001056108  -0.0000310758  -0.0000634190
        0.0000370372   0.0000036099  -0.0001631891  -0.0002536435  -0.0000796834
        0.0003992144   0.0001308052  -0.0005955515  -0.0001913293  -0.0001671326
        0.0001977623   0.0000435377   0.0000235170  -0.0000821437  -0.0000375267
       -0.0002012627   0.0004430394  -0.0000610762   0.0003300925  -0.0005899405
       -0.0009357951   0.0004807698   0.0030377692  -0.0004585222  -0.0017691504
       -0.0072008822  -0.0384322924   0.0076521007  -0.0055111128  -0.0001105790
        0.0024812686   0.0008753154   0.0004104673   0.0007666946  -0.0000260122
        0.0001476502  -0.0001208986  -0.0002940013  -0.0001250223   0.0000731595
        0.0001701071   0.0000511907   0.0001198667   0.0001205448   0.0001024686
        0.0001079528   0.0000642719   0.0000448874   0.0000772294  -0.0000474080
       -0.0000162759  -0.0000465075   0.0000187849   0.0000758237  -0.0000344923
        0.0000573079   0.0000649674   0.0000255762   0.0000118108   0.0000551495
        0.0000385983  -0.0000028569   0.0000250447   0.0000891085  -0.0000569838
       -0.0000508583   0.0000195555  -0.0000473778   0.0000736364  -0.0000369866
        0.0000558978   0.0001678935   0.0000596626  -0.0000188936   0.0001491801
       -0.0000173081  -0.0000856773  -0.0000054942  -0.0000920505  -0.0000929474
        0.0000565597   0.0001482285   0.0002687180  -0.0006491854  -0.0004347865
        0.0000928182  -0.0002524683  -0.0005364000   0.0003648742  -0.0000547955
       -0.0023288085  -0.0004409391   0.0003997074  -0.0007309714  -0.0002576100
        0.0001156524   0.0001937638  -0.0002373332  -0.0000595151  -0.0000185373
        0.0001797652   0.0000908322  -0.0001199401   0.0001105902   0.0001233840
       -0.0001010608   0.0000439120   0.0000803705   0.0000464551   0.0000277154
       -0.0000691425  -0.0000372657  -0.0000325328   0.0000090361  -0.0000990849
       -0.0000439270   0.0000481278  -0.0000395545  -0.0000087119   0.0000670946
       -0.0000288520   0.0000014944   0.0000842362   0.0000299204   0.0000278275
       -0.0000143488   0.0000386695   0.0000129348   0.0000392807  -0.0000917192
       -0.0000284747   0.0001504518  -0.0000739941  -0.0000640685   0.0001386942
       -0.0000000036  -0.0001249778  -0.0000365793   0.0000936083  -0.0001244143
        0.0000518028  -0.0002229465   0.0002230228  -0.0006524353   0.0003877614
        0.0001475220  -0.0004784580   0.0000210230   0.0008575453
       -0.0050441923  -0.6320715073  -0.1182202477   0.0002712306   0.8125696610
        0.1299437293  -0.0344783220  -0.0759036893  -0.0053785246  -0.0216814094
       -0.0252397450  -0.0013120123   0.0036862910  -0.0034840920   0.0027868841
       -0.0046162908  -0.0033090602   0.0001993789   0.0032710476   0.0010905508
       -0.0006238349   0.0001440517  -0.0016624935  -0.0004038194  -0.0000862666
        0.0000987872   0.0001717929   0.0000926618  -0.0001140475  -0.0001310979
       -0.0000269218   0.0000474274   0.0001154221  -0.0000145914  -0.0000357350
       -0.0002545556  -0.0000453810   0.0001238858   0.0003214330   0.0001254160
        0.0000659129   0.0000035266  -0.0001398819   0.0000675273  -0.0001549415
        0.0000174953   0.0000221614  -0.0000146352   0.0000235178   0.0000778364
       -0.0000471184  -0.0000297752  -0.0000163143  -0.0000051696  -0.0000093300
        0.0000235499  -0.0000152673   0.0000251956  -0.0000948849   0.0000831534
        0.0000475834  -0.0000250005   0.0000240169  -0.0001523653   0.0001078441
       -0.0001332630   0.0000342878  -0.0000464021   0.0000398486  -0.0000524152
       -0.0000163519  -0.0000157221   0.0000483771  -0.0000241434   0.0000292437
        0.0000138013  -0.0000006139  -0.0000046422   0.0000154553  -0.0001492668
        0.0001205545   0.0003980868  -0.0000616649  -0.0003849684  -0.0001429130
        0.0000257652   0.0003261912   0.0000364827  -0.0000918392  -0.0001548226
       -0.0000034173   0.0001758374   0.0002060866   0.0002932828  -0.0000797508
       -0.0002219776  -0.0017766513   0.0012493397   0.0007813150   0.0057477437
        0.0035303736   0.0040564316  -0.0028025623   0.0124250203  -0.0011474363
        0.0372005302  -0.0781883116   0.0004247766   0.0159742576  -0.0212514663
       -0.0077599549  -0.0019330215   0.0019263035  -0.0066138545   0.0042622261
       -0.0023786050  -0.0011246253  -0.0031305263   0.0004673658   0.0013509583
        0.0009870979  -0.0001889307   0.0013971546   0.0000300284   0.0000546076
       -0.0002370213  -0.0000630789  -0.0000544634   0.0002021603   0.0000152345
        0.0000606296  -0.0001060408  -0.0000262199  -0.0002046161   0.0001313306
        0.0000189104   0.0001803551  -0.0002504080  -0.0001222901   0.0000660699
        0.0000319898  -0.0000655130  -0.0001656076  -0.0000439927   0.0000016150
       -0.0000098926   0.0000096573  -0.0000465283  -0.0000193642  -0.0000160725
        0.0000596237  -0.0000154071   0.0000060170  -0.0000492741  -0.0000502654
       -0.0000367965   0.0002081532   0.0001253244   0.0000844095  -0.0000832459
       -0.0000533914  -0.0000256296  -0.0000505465  -0.0000659280  -0.0000359856
        0.0000068662   0.0000077354   0.0000047481   0.0000243717  -0.0000083024
       -0.0000000715  -0.0000078912   0.0000901470   0.0000328266  -0.0000309564
        0.0000313481   0.0000166422   0.0002002906   0.0000986149   0.0000481097
       -0.0003422656  -0.0001110396   0.0004375367   0.0001538947   0.0001948376
       -0.0002495525   0.0000089771  -0.0001179240   0.0001475598  -0.0000672348
        0.0001061688  -0.0001711576  -0.0001774577  -0.0000349744   0.0002215510
        0.0003935242  -0.0003698692  -0.0020621243  -0.0040862024   0.0051976154
       -0.0024687913   0.0077202903   0.0081709466   0.0056359073  -0.0004694183
        0.0001774808  -0.0003064715  -0.0007798026  -0.0003462786   0.0001610925
        0.0000690516   0.0000479762  -0.0000702738  -0.0000471980   0.0000408230
        0.0000289277   0.0000210990   0.0000609877   0.0000525518   0.0000618404
        0.0000648698   0.0000258320  -0.0000077709   0.0000483189  -0.0000353231
       -0.0000039997  -0.0000394541   0.0000397963   0.0000402927  -0.0000107366
        0.0000317421   0.0000297936   0.0000109255   0.0000086917   0.0000328766
        0.0000327871   0.0000038506   0.0000153374   0.0000402556  -0.0000134431
       -0.0000173234   0.0000226849  -0.0000178834   0.0000486476  -0.0000177611
        0.0000381170   0.0000686597   0.0000004127  -0.0000309583   0.0000601858
       -0.0000111252  -0.0000588981   0.0000342103  -0.0000883084  -0.0001326578
       -0.0000955111   0.0000517831   0.0001407558   0.0012505472   0.0002290278
       -0.0000279700   0.0032856841  -0.0011970339  -0.0003673438   0.0000248594
       -0.0007261586   0.0011387796   0.0004688405  -0.0000945294  -0.0003279314
       -0.0001001736  -0.0000194210   0.0000661233   0.0000333797   0.0000283492
       -0.0000691923  -0.0000313743   0.0000488879  -0.0000526569  -0.0000623940
        0.0000448984  -0.0000240950  -0.0000547755   0.0000020181  -0.0000258653
        0.0000109265   0.0000134759   0.0000037667  -0.0000123662   0.0000370804
        0.0000106011  -0.0000341852   0.0000321928  -0.0000003553  -0.0000267542
        0.0000051353  -0.0000048412  -0.0000467311  -0.0000197098  -0.0000180592
       -0.0000096225  -0.0000575661  -0.0000308967   0.0000238909   0.0000552596
        0.0000097155  -0.0000587690   0.0000167198   0.0000475357  -0.0000316745
       -0.0000059923   0.0000637827   0.0000200265  -0.0000386823   0.0001292109
        0.0001269115   0.0000952217  -0.0001152799  -0.0009826939   0.0001889448
        0.0001492757  -0.0030274838  -0.0014883482   0.0000140391
       -0.0048071716  -0.1182627085  -0.0783498577   0.0123408457   0.1299437293
        0.2038141943  -0.0075873108   0.0010094109  -0.0655234938   0.0068049103
        0.0005907059  -0.0003906177  -0.0002028188   0.0042341540   0.0061653947
       -0.0011702580   0.0003104169   0.0000257890   0.0008210943  -0.0004721628
       -0.0019481408  -0.0002465926  -0.0000679559   0.0001177019  -0.0000616810
       -0.0000335982   0.0000592127   0.0000115087  -0.0000358253  -0.0000183347
        0.0000356313   0.0000094844  -0.0000073267  -0.0000346447   0.0000238412
        0.0000412607  -0.0000787851  -0.0001160450  -0.0000660332   0.0000221322
        0.0000061650   0.0000005861   0.0000047332  -0.0000000041  -0.0000177213
        0.0000062532  -0.0000056189  -0.0000044384   0.0000019428   0.0000026514
       -0.0000066299  -0.0000044598  -0.0000009307  -0.0000030508   0.0000011141
        0.0000023288  -0.0000016816   0.0000027115  -0.0000097708   0.0000120686
       -0.0000024503   0.0000006612  -0.0000092064  -0.0000013474   0.0000132593
       -0.0000043624  -0.0000012710  -0.0000055099   0.0000025556   0.0000026956
       -0.0000013663   0.0000013543   0.0000086061  -0.0000011585  -0.0000000092
       -0.0000000283  -0.0000050552  -0.0000082691   0.0000095937  -0.0000147559
        0.0000023830   0.0001738773  -0.0000155582  -0.0001179197  -0.0000116887
        0.0000242205   0.0000764217  -0.0000117858  -0.0000374067  -0.0000461065
        0.0000196328   0.0000165179   0.0000331811   0.0001079175   0.0000214987
        0.0000184301  -0.0001758556   0.0003705131   0.0002399342  -0.0032137848
        0.0025278165   0.0062006214  -0.0100288493  -0.0034454151  -0.0008377836
        0.0068664837  -0.0054681539  -0.0651936649   0.0151069852  -0.0106106382
       -0.0043265032  -0.0020231931  -0.0060476777   0.0013528649   0.0005888505
       -0.0014729236  -0.0006583096  -0.0002919055   0.0015507110  -0.0010255983
        0.0001218421  -0.0000141516   0.0006058446  -0.0000507849   0.0000534449
       -0.0000744036  -0.0000623805  -0.0000058364   0.0000629806   0.0000302338
       -0.0000009500  -0.0000185674  -0.0000114278  -0.0000664508   0.0000401811
       -0.0000739245   0.0001429211  -0.0001797096  -0.0000376092   0.0000134727
        0.0000005213  -0.0000235116  -0.0000377161  -0.0000207954  -0.0000035514
        0.0000064118   0.0000009021  -0.0000117720   0.0000008439  -0.0000038808
        0.0000023471  -0.0000110650  -0.0000044783   0.0000031775  -0.0000168539
       -0.0000075213   0.0000336467   0.0000341594   0.0000198033   0.0000007182
       -0.0000101173  -0.0000054993  -0.0000223381  -0.0000268238  -0.0000131451
        0.0000189030   0.0000011813   0.0000029402   0.0000089587   0.0000100848
        0.0000032694  -0.0000137300   0.0000229409   0.0000029058   0.0000115203
       -0.0000032360  -0.0000012520   0.0000293585   0.0000430078   0.0000041512
       -0.0000080539  -0.0000467106   0.0000207194   0.0000421173   0.0000063609
        0.0000116621   0.0000008208  -0.0000042274  -0.0000082334  -0.0000236610
        0.0000263987  -0.0000539435   0.0000229862  -0.0000633892   0.0000989859
        0.0001950135  -0.0002738576  -0.0003817814  -0.0051909910  -0.0030952443
        0.0033403959  -0.0091752824   0.0079987839   0.0026555070   0.0007903411
       -0.0006229213  -0.0017823009   0.0004971602   0.0004794465   0.0002648449
        0.0000517993   0.0000709273   0.0000085813   0.0000097174  -0.0000117400
       -0.0000146379   0.0000095518   0.0000098431  -0.0000023691   0.0000087140
        0.0000024263  -0.0000091614  -0.0000000387   0.0000092569   0.0000035779