$hessian                                                                        
        0.0694637782   0.0073479568  -0.0737585233  -0.0482552728  -0.0041319481
        0.0392330351  -0.0136849385   0.0031308290   0.0182095217   0.0033132217
        0.0036932654   0.0014287634  -0.0003486049  -0.0005017170   0.0003564140
        0.0040284759  -0.0016909885   0.0006296350  -0.0010037210  -0.0009351543
        0.0008377042  -0.0003815255   0.0008624830  -0.0001932988  -0.0002436632
       -0.0000603575   0.0000323486   0.0000993944   0.0000007985  -0.0000386358
        0.0000284447  -0.0000021682  -0.0000052188   0.0001703777  -0.0000386466
       -0.0000172727   0.0000228485   0.0000161200   0.0000051771   0.0000451998
       -0.0000693690  -0.0000904836  -0.0000533786  -0.0000692659  -0.0000422938
        0.0002355308  -0.0000100855  -0.0000158237  -0.0002192422   0.0000129118
        0.0000053969   0.0000370501   0.0000350038   0.0000397707  -0.0000144097
       -0.0000223018  -0.0000266688   0.0000040339  -0.0000013550  -0.0000267265
        0.0000012075   0.0000056138  -0.0000263682   0.0000184476   0.0000093202
       -0.0000072150  -0.0000061254  -0.0000130208  -0.0000115937   0.0000578866
       -0.0000700136  -0.0000492361   0.0000001410   0.0000050930   0.0000139283
        0.0000189824  -0.0000145023   0.0000164899   0.0000089552  -0.0000130304
        0.0000313307   0.0000228906  -0.0000258001   0.0000205424   0.0000111536
        0.0000251236   0.0000171075  -0.0000169426   0.0000470508   0.0000242122
        0.0000198851   0.0000312927  -0.0000242221   0.0000804238  -0.0000169799
       -0.0001304622   0.0001180094  -0.0001398052  -0.0000754085  -0.0001739142
       -0.0003894392   0.0000364495   0.0000920133  -0.0001847986   0.0000693979
        0.0000737654   0.0000600838  -0.0000459842  -0.0000485592  -0.0000104179
       -0.0000028230  -0.0000044751   0.0000234469  -0.0000012846   0.0000136128
        0.0000227133  -0.0000006014   0.0000021040  -0.0000102531   0.0000126188
        0.0000256428  -0.0000591001   0.0000327609   0.0006072881   0.0002118626
        0.0000574498   0.0001639143  -0.0000961246  -0.0000669147  -0.0002286128
        0.0000023870   0.0001718143   0.0000699614  -0.0000128803  -0.0000376913
        0.0000454862  -0.0000219263  -0.0000394320   0.0000433600   0.0000125812
       -0.0000908151   0.0000012283   0.0000658311  -0.0001682903  -0.0118566737
       -0.0070623223   0.0161189692  -0.0007571576  -0.0000869481  -0.0010702276
       -0.0006713569  -0.0000293829   0.0006462949  -0.0005763685  -0.0000286367
       -0.0006547564  -0.0000413160   0.0000317736   0.0000178785  -0.0000275706
        0.0000317551   0.0000178604   0.0000377399   0.0000056427   0.0000166716
       -0.0000224118  -0.0000046289   0.0000397493   0.0000418942  -0.0000112219
       -0.0000204078   0.0000280354  -0.0000053075  -0.0000301790   0.0000210990
        0.0000041008  -0.0000224027   0.0000166954   0.0000046133  -0.0000061784
        0.0000167573  -0.0000011932   0.0000077538   0.0000139969  -0.0000329422
        0.0000014835   0.0000091856  -0.0000309101   0.0000218288   0.0000100724
       -0.0000267731   0.0000349760   0.0000084321  -0.0000185457   0.0000329772
        0.0000049732  -0.0000176187   0.0000250820  -0.0000044112   0.0000048838
        0.0000011663   0.0000079836   0.0000150418   0.0000467531   0.0000884912
        0.0000616189   0.0000484342  -0.0002462133   0.0001069507   0.0000663102
        0.0000215404   0.0000284779   0.0000005016   0.0000114710   0.0000375928
        0.0000019502   0.0000196795   0.0000370497  -0.0000023243   0.0000218296
        0.0000179699  -0.0000136795   0.0000030838   0.0000337549  -0.0000443617
        0.0000270626  -0.0000840971  -0.0000664851  -0.0000153157   0.0000270199
       -0.0000865644   0.0000432905   0.0000021033  -0.0000647134   0.0000238614
        0.0000212343  -0.0000427093   0.0000443803   0.0000027979  -0.0000145631
       -0.0005640893  -0.0000441717  -0.0012956684
        0.0073479568   0.0265314232  -0.0086683784  -0.0038420720  -0.0215357262
        0.0044609567   0.0109277296   0.0022317492  -0.0130654967   0.0007005398
       -0.0025324946  -0.0006736537  -0.0001241225   0.0006322608   0.0001126588
        0.0002387761  -0.0029478098  -0.0002812217  -0.0008822530  -0.0005114396
        0.0009289184  -0.0001782473   0.0003757898  -0.0001410627  -0.0000540348
        0.0000306606  -0.0000003156  -0.0000109414   0.0000610733   0.0000106383
        0.0000124428   0.0000296341   0.0000054576  -0.0000086873   0.0000057984
       -0.0000245165   0.0000140299   0.0000104867  -0.0000073318  -0.0000063582
       -0.0000091776  -0.0000055690   0.0000123949   0.0000101927   0.0000143767
       -0.0000380058  -0.0000018788  -0.0000010787   0.0000376033   0.0000138635
        0.0000083111  -0.0000134579  -0.0000203760  -0.0000228259  -0.0000016765
        0.0000096356  -0.0000031977   0.0000028469  -0.0000074738  -0.0000062751
        0.0000023976   0.0000048056  -0.0000016890   0.0000008293   0.0000040770
       -0.0000018391   0.0000048753   0.0000020294   0.0000026297  -0.0000050777
        0.0000045083   0.0000097255   0.0000044210  -0.0000054517   0.0000040788
        0.0000030110  -0.0000026568   0.0000001959   0.0000062570  -0.0000018029
        0.0000039264  -0.0000015270  -0.0000006959   0.0000033910   0.0000033164
       -0.0000042498   0.0000046183   0.0000193238  -0.0000030960  -0.0000124699
       -0.0000067373  -0.0000063514  -0.0000136147  -0.0000081238  -0.0000235484
       -0.0000320983   0.0000160791  -0.0000503178  -0.0000256631  -0.0000585470
       -0.0001811044   0.0000427532  -0.0000416631  -0.0001234776   0.0000090144
        0.0000472299   0.0000243783  -0.0000277643  -0.0000323554  -0.0000210746
        0.0000094506  -0.0000008480   0.0000113543  -0.0000037281  -0.0000009184
        0.0000053593  -0.0000001828   0.0000087335   0.0000016938   0.0000105033
       -0.0000110576  -0.0000221022   0.0000180190   0.0003000093   0.0000448444
        0.0000936251   0.0000696109  -0.0000369067  -0.0000150514  -0.0000225161
        0.0000027929   0.0000191605   0.0000176726  -0.0000048624   0.0000123766
        0.0000024901   0.0000072628  -0.0000072562   0.0000050748   0.0000051536
       -0.0000101255   0.0000004797   0.0000234070  -0.0000388422  -0.0147898980
       -0.0028614370   0.0178428885   0.0006189131   0.0003942091  -0.0008085522
        0.0004812862   0.0000032773  -0.0005840043  -0.0000087491   0.0001037339
       -0.0000274993  -0.0000057440  -0.0000000756  -0.0000103042   0.0000102362
       -0.0000045431  -0.0000093502  -0.0000098991   0.0000067021  -0.0000061981
       -0.0000045785  -0.0000057432  -0.0000044833   0.0000017925  -0.0000110044
       -0.0000062817   0.0000036652   0.0000008285  -0.0000055783   0.0000047005
        0.0000020446  -0.0000029019   0.0000036690   0.0000000294  -0.0000024149
        0.0000001502   0.0000003668  -0.0000030689   0.0000027637  -0.0000036875
       -0.0000028310   0.0000023334  -0.0000037256  -0.0000017010   0.0000011406
       -0.0000084899   0.0000029242  -0.0000011711  -0.0000049872   0.0000039099
       -0.0000042336  -0.0000026254   0.0000014048   0.0000028742   0.0000043591
        0.0000042925  -0.0000027031   0.0000026298   0.0000068380   0.0000284795
        0.0000170595  -0.0000103529  -0.0000441644  -0.0000130046  -0.0000243917
        0.0000059167   0.0000203099  -0.0000021799   0.0000020131   0.0000030302
        0.0000074791  -0.0000020373   0.0000006529   0.0000022398  -0.0000030543
        0.0000014580  -0.0000016340   0.0000082310   0.0000059052  -0.0000048267
        0.0000126301  -0.0000246803   0.0000351453  -0.0000092131  -0.0000005430
       -0.0000066157   0.0000011254  -0.0000008768  -0.0000033003   0.0000001178
        0.0000047645  -0.0000046310   0.0000003572  -0.0000003191  -0.0000050578
       -0.0007638533   0.0003442225   0.0009374993
       -0.0737585233  -0.0086683784   0.0949181809   0.0390138182   0.0042971255
       -0.0617861443   0.0180283138  -0.0035300786  -0.0194859246   0.0014893133
       -0.0041974769   0.0026947289   0.0002666837   0.0005921421  -0.0005007338
        0.0008310286   0.0019499085   0.0040876435   0.0011156513   0.0013029473
       -0.0011491701   0.0005304775  -0.0011203007   0.0002015201   0.0002311774
        0.0000883578  -0.0000346223  -0.0000931425  -0.0000653511   0.0000390303
       -0.0000444775  -0.0000431629  -0.0000005449  -0.0001990666   0.0000474671
        0.0000640128  -0.0000226084  -0.0000352126   0.0000032643  -0.0000372107
        0.0000799668   0.0000948515   0.0000678740   0.0000732349   0.0000246226
       -0.0001964204   0.0000047224   0.0000335427   0.0001912578   0.0000180304
       -0.0000065205  -0.0000452745  -0.0000444618  -0.0000274052   0.0000356055
        0.0000166634   0.0000426881  -0.0000033414  -0.0000001032   0.0000320524
       -0.0000102162   0.0000032210   0.0000298173  -0.0000213452  -0.0000089886
        0.0000135484   0.0000021392   0.0000155272   0.0000192541  -0.0000314579
        0.0000302189   0.0000444332  -0.0000161862  -0.0000039003  -0.0000050340
       -0.0000154940   0.0000110151  -0.0000174606  -0.0000110638   0.0000195856
       -0.0000235105  -0.0000262962   0.0000226507  -0.0000182388  -0.0000163089
       -0.0000153533  -0.0000099029   0.0000068790  -0.0000273383  -0.0000122390
       -0.0000154643  -0.0000132188   0.0000561605  -0.0000580777  -0.0000143724
        0.0001362694  -0.0002262603   0.0002602049   0.0001250726   0.0002372807
        0.0004775131  -0.0000301079  -0.0001465577   0.0002160318  -0.0001094176
       -0.0000839850  -0.0000735674   0.0000613300   0.0000563472   0.0000117795
        0.0000016971   0.0000076977  -0.0000289951   0.0000033592  -0.0000126701
       -0.0000254370   0.0000023940  -0.0000036661   0.0000128462  -0.0000183763
       -0.0000321353   0.0000795558  -0.0000408195  -0.0006461787  -0.0002305004
       -0.0000738648  -0.0002603970   0.0001365073   0.0000645567   0.0002344712
       -0.0000201201  -0.0001841487  -0.0000564740   0.0000073924   0.0000241938
       -0.0000525956   0.0000149675   0.0000672632  -0.0000543041  -0.0000032269
        0.0000909964   0.0000193772  -0.0000880060   0.0001745104   0.0163400590
        0.0086803893  -0.0178252840  -0.0009886274   0.0000627588  -0.0002930208
        0.0006610382   0.0000298912  -0.0008798831  -0.0006373844   0.0000137365
       -0.0003440957   0.0000602324  -0.0000326645  -0.0000122605   0.0000278256
       -0.0000409719  -0.0000097894  -0.0000444951  -0.0000351844  -0.0000177272
        0.0000317812  -0.0000037473  -0.0000378149  -0.0000434656   0.0000045014
        0.0000305224  -0.0000248893   0.0000155501   0.0000428711  -0.0000280080
       -0.0000054434   0.0000286521  -0.0000253591  -0.0000032005   0.0000089338
       -0.0000243290   0.0000085034  -0.0000054458  -0.0000076291   0.0000356717
        0.0000027289  -0.0000112723   0.0000339689  -0.0000157551  -0.0000127685
        0.0000305555  -0.0000291481  -0.0000093976   0.0000241708  -0.0000302773
       -0.0000069351   0.0000125627  -0.0000192045   0.0000046442  -0.0000109949
       -0.0000005958  -0.0000108722  -0.0000276941  -0.0000522511  -0.0001193563
       -0.0000905189  -0.0000095416   0.0003009294  -0.0001790516  -0.0000928441
       -0.0000251933  -0.0000240044   0.0000052177  -0.0000162280  -0.0000399401
       -0.0000000627  -0.0000253433  -0.0000411414   0.0000002405  -0.0000230079
       -0.0000190604   0.0000127016  -0.0000046212  -0.0000413784   0.0000460873
       -0.0000340767   0.0000988817   0.0000263497   0.0000307348  -0.0000314661
        0.0000804672  -0.0000480662  -0.0000012088   0.0000598786  -0.0000311588
       -0.0000222262   0.0000440316  -0.0000537617  -0.0000029627   0.0000129473
       -0.0013691925   0.0000696855  -0.0003434360
       -0.0482552728  -0.0038420720   0.0390138182   0.2316653373  -0.0142800325
       -0.1627028971  -0.0883829107   0.0909148061   0.0476393680  -0.0192836925
        0.0103169946   0.0253445680  -0.0016539904   0.0049319834  -0.0040687283
       -0.0112724415  -0.0188829574   0.0133070381   0.0025754965   0.0004503073
        0.0055471622   0.0002024568  -0.0015073707   0.0008004857   0.0000198535
        0.0001367959  -0.0000643523   0.0000680238  -0.0001811713  -0.0000184815
       -0.0001015665  -0.0000562870  -0.0000022876  -0.0000196667   0.0000754625
        0.0000421150  -0.0000556614   0.0000124648   0.0000345979  -0.0000331929
       -0.0000320810   0.0000353262  -0.0000333010   0.0000009964   0.0000173145
       -0.0000379511   0.0000250933  -0.0000119327   0.0000001191  -0.0000236876
        0.0000364066  -0.0000021350   0.0000179742  -0.0000072874  -0.0000130983
        0.0000040672   0.0000178046  -0.0000029165   0.0000061085   0.0000240406
        0.0000018993  -0.0000119086   0.0000179436  -0.0000080737   0.0000000817
        0.0000076735  -0.0000031969  -0.0000044631   0.0000066525  -0.0000149201
        0.0000213915  -0.0000171434  -0.0000012862   0.0000051570  -0.0000019807
       -0.0000096896   0.0000082269  -0.0000090607  -0.0000132579   0.0000097801
       -0.0000119881  -0.0000042346   0.0000131039  -0.0000166986  -0.0000063856
       -0.0000007816  -0.0000070677  -0.0000316927  -0.0000111688   0.0000216461
       -0.0000050404  -0.0000056448   0.0000029720  -0.0000037300   0.0001569432
        0.0000964435   0.0000174124   0.0000756647  -0.0003435640  -0.0000082743
        0.0001393569  -0.0002552151   0.0002461179   0.0000070840  -0.0002401483
       -0.0001799032  -0.0001285148  -0.0000886468   0.0001133358   0.0000614621
       -0.0000062292  -0.0000055712  -0.0000242275   0.0000303648  -0.0000145802
       -0.0000188255   0.0000043022  -0.0000401319   0.0000020233  -0.0000112654
        0.0000138703   0.0000669523  -0.0000147164  -0.0007215182   0.0002203106
        0.0006535265   0.0000165866   0.0000780673   0.0000385049  -0.0000215712
        0.0000939026   0.0001682106   0.0000059782   0.0000558680  -0.0000412789
       -0.0000728648   0.0000308928   0.0000367258  -0.0000571406  -0.0000039969
        0.0000722855   0.0000465856  -0.0000806321   0.0001134153  -0.0722891550
       -0.0726258891   0.0345540864   0.0024296084  -0.0057185319  -0.0025381806
        0.0026630413  -0.0001770820   0.0062342237   0.0002583947   0.0000602005
       -0.0004762823   0.0000063561  -0.0000016817  -0.0000074474  -0.0000178625
        0.0000180896  -0.0000182092  -0.0000010213   0.0000284774  -0.0000216031
       -0.0000129050   0.0000210751  -0.0000152079  -0.0000210996   0.0000144059
        0.0000017029  -0.0000206870  -0.0000040352   0.0000104592  -0.0000131398
       -0.0000023775   0.0000106652  -0.0000105854  -0.0000017073   0.0000003026
       -0.0000098206   0.0000041821  -0.0000080186  -0.0000171723   0.0000130136
       -0.0000044717  -0.0000140023   0.0000206356  -0.0000121962  -0.0000093224
        0.0000204859  -0.0000235517  -0.0000043349   0.0000136953  -0.0000241212
       -0.0000019125   0.0000110655  -0.0000189718  -0.0000016918  -0.0000010623
       -0.0000035310   0.0000100793  -0.0000008316   0.0000004715  -0.0000296576
       -0.0000347158  -0.0000537769   0.0000522657   0.0000700072   0.0001597892
       -0.0000124054  -0.0000265396   0.0000046567  -0.0000035590  -0.0000044949
       -0.0000156558   0.0000016245  -0.0000128251  -0.0000083652   0.0000006013
       -0.0000107688   0.0000147106  -0.0000170139  -0.0000312030   0.0000155039
       -0.0000553340  -0.0000797596  -0.0000922474  -0.0000296873  -0.0000029651
        0.0000202244   0.0000106141  -0.0000195557   0.0000223124   0.0000130883
       -0.0000133431  -0.0000023645  -0.0000214319   0.0000057319  -0.0000401593
        0.0025459147   0.0096248036  -0.0028544889
       -0.0041319481  -0.0215357262   0.0042971255  -0.0142800325   0.6377153329
        0.0074831931   0.0490015317  -0.2571847872  -0.0527449299   0.0510892439
        0.0356972947  -0.0624686196   0.0041123228  -0.0641579453  -0.0034157641
       -0.0573986489   0.0149539180   0.0712426256   0.0002636775   0.0031249599
       -0.0025971565   0.0007995306  -0.0013646942   0.0001186816  -0.0003683786
        0.0001152118  -0.0000460890   0.0001789635  -0.0002903683   0.0001116941
       -0.0002227383  -0.0002231022  -0.0000975351   0.0001224794   0.0001296727
        0.0001206118   0.0000212418   0.0000123594   0.0000275366   0.0000183656
       -0.0000489485  -0.0000333854  -0.0000499721  -0.0000363618  -0.0000245697
        0.0001521116   0.0000104993  -0.0000080928  -0.0001649929  -0.0000232977
        0.0000059726   0.0000313392   0.0000535847   0.0000417679  -0.0000018955
       -0.0000248706  -0.0000026134   0.0000032456   0.0000135885  -0.0000003300
       -0.0000025154  -0.0000061957  -0.0000005026   0.0000040935   0.0000031064
        0.0000037759  -0.0000142779  -0.0000121316  -0.0000026316   0.0000256199
       -0.0000303822  -0.0000398163  -0.0000066072   0.0000072229   0.0000058245
        0.0000065323  -0.0000025048  -0.0000030676  -0.0000050524  -0.0000019598
        0.0000059768   0.0000037253  -0.0000058538  -0.0000012344  -0.0000077232
        0.0000148280   0.0000026515  -0.0000625050   0.0000279658   0.0000294240
        0.0000259717   0.0000522491   0.0000469901   0.0001414275   0.0001709599
       -0.0000240888  -0.0002582324  -0.0000142371  -0.0005369214   0.0004281624
        0.0004931998  -0.0001235612  -0.0001704818   0.0002276213  -0.0000802400
       -0.0000941458  -0.0001080200  -0.0000743590   0.0001122656   0.0000017817
       -0.0000003039  -0.0000185722  -0.0000186184   0.0000262306   0.0000102465
       -0.0000101438   0.0000120838  -0.0000184625   0.0000060226  -0.0000057292
       -0.0000362372   0.0000436164  -0.0000567983  -0.0008278002  -0.0004672811
        0.0005358490  -0.0001073448  -0.0000965762   0.0000263634  -0.0002668972
       -0.0001092772   0.0001525412   0.0001017168  -0.0001139374  -0.0001407381
       -0.0000158999  -0.0000195837   0.0001024172  -0.0001009395   0.0000509043
       -0.0000374659   0.0001839833  -0.0000032487  -0.0000355298  -0.0313388349
       -0.2959039324   0.0421214536   0.0097358237  -0.0258801013  -0.0111455445
       -0.0003311512   0.0009886811   0.0003955864   0.0001127988  -0.0008378217
       -0.0001085606   0.0000208687   0.0000198098   0.0000221418  -0.0000075093
        0.0000697494  -0.0000331766   0.0000184848   0.0000000552  -0.0000046631
       -0.0000106168   0.0000073278   0.0000082354   0.0000020601   0.0000137128
       -0.0000009261  -0.0000022332  -0.0000049261  -0.0000006315  -0.0000040276
       -0.0000014708  -0.0000025947  -0.0000026806   0.0000012592  -0.0000028207
        0.0000007835   0.0000046398   0.0000007725  -0.0000003173  -0.0000037738
       -0.0000003524  -0.0000035333   0.0000013078   0.0000027238  -0.0000003870
        0.0000022200   0.0000023577   0.0000029805   0.0000025365  -0.0000000138
        0.0000033417  -0.0000032391   0.0000027571  -0.0000151485  -0.0000047134
       -0.0000105974   0.0000144725  -0.0000035937  -0.0000013338  -0.0000150506
        0.0000112240  -0.0000236482  -0.0002867634   0.0001723407  -0.0000278241
       -0.0000240935  -0.0000030116   0.0000080297  -0.0000000452   0.0000191284
       -0.0000069573   0.0000106406   0.0000054032  -0.0000032875   0.0000173281
        0.0000010428   0.0000108162   0.0000174931  -0.0000176394   0.0000323581
       -0.0001172765   0.0000271368  -0.0000911193  -0.0000013306   0.0000129002
       -0.0000015701   0.0000249305   0.0000138137  -0.0000056006  -0.0000019612
       -0.0000043930  -0.0000228514   0.0000048280   0.0000336499  -0.0000597351
       -0.0060293703  -0.0257551694   0.0071493134
        0.0392330351   0.0044609567  -0.0617861443  -0.1627028971   0.0074831931
        0.2875666665   0.0479522332  -0.1030918027  -0.1017186700   0.0249824974
       -0.0125009139  -0.0271615450  -0.0038178846  -0.0053878641  -0.0000633559
        0.0138631128   0.0235122812  -0.0182804067   0.0060546161  -0.0029278191
        0.0015568590  -0.0012152994   0.0022273456  -0.0000937375   0.0000577963
       -0.0000575560  -0.0000162363  -0.0000132767   0.0001767507   0.0000112733
        0.0000616162   0.0000462808  -0.0000086895  -0.0000846965  -0.0000024795
        0.0000081727   0.0000632822  -0.0000166074  -0.0000274353   0.0000135628
        0.0000548888  -0.0000121036   0.0000620056   0.0000215434  -0.0000031620
       -0.0000637105  -0.0000305151   0.0000124700   0.0001044559   0.0000177223
       -0.0000478234  -0.0000090008  -0.0000290544  -0.0000235330   0.0000077697
        0.0000063041  -0.0000312173   0.0000046623  -0.0000082893  -0.0000326563
        0.0000034546   0.0000110893  -0.0000211639   0.0000082553   0.0000052128
       -0.0000131606   0.0000090134   0.0000056067  -0.0000080964  -0.0000071547
        0.0000122253   0.0000448599   0.0000159840  -0.0000110102  -0.0000077488
        0.0000077696  -0.0000071141   0.0000045147   0.0000185424  -0.0000091784
        0.0000061611   0.0000016598  -0.0000061279   0.0000118215   0.0000098570
       -0.0000170623   0.0000017275   0.0000567827  -0.0000065660  -0.0000423506
       -0.0000090319  -0.0000276799  -0.0000200990  -0.0000005477  -0.0001047793
       -0.0001496136  -0.0002714525   0.0000496009   0.0000661793  -0.0006583335
       -0.0016638558   0.0001789199   0.0006854740  -0.0001659123   0.0002156867
        0.0001420220   0.0002428805  -0.0000128771  -0.0001151652  -0.0000608089
        0.0000225091   0.0000148069   0.0000448906  -0.0000449479  -0.0000074763
        0.0000132664  -0.0000097372   0.0000528984  -0.0000046351   0.0000307689
       -0.0000037515  -0.0001076790   0.0000403465   0.0016860120   0.0019419518
       -0.0011642876   0.0000598660  -0.0000937095  -0.0000228573  -0.0000870430
       -0.0000786672  -0.0001122524   0.0000341241  -0.0000927052   0.0000492699
        0.0000224382   0.0000025627  -0.0000331443   0.0000293184  -0.0000068144
       -0.0000550226   0.0000182064   0.0000795330  -0.0001873585   0.0334268608
        0.0895651421  -0.0861659892  -0.0029712736   0.0073133740   0.0033315760
        0.0062078851   0.0003257719   0.0003981890  -0.0004045356  -0.0000603997
        0.0005010962  -0.0000189585  -0.0000136426   0.0000074014   0.0000327368
       -0.0000425779   0.0000076767  -0.0000043276  -0.0000310400   0.0000238763
        0.0000213427  -0.0000251250   0.0000070829   0.0000174692  -0.0000154986
       -0.0000043729   0.0000173045   0.0000030903  -0.0000175472   0.0000181346
        0.0000068918  -0.0000138413   0.0000178742   0.0000012039  -0.0000043758
        0.0000127352  -0.0000057255   0.0000018751   0.0000168404  -0.0000125160
        0.0000000529   0.0000174404  -0.0000195047   0.0000027252   0.0000129073
       -0.0000266304   0.0000170838   0.0000045200  -0.0000178056   0.0000213035
        0.0000000853  -0.0000087325   0.0000141108   0.0000087635   0.0000057833
        0.0000025631  -0.0000081028   0.0000037365  -0.0000130647   0.0000099934
        0.0000262070   0.0000093375   0.0000407250   0.0000780074  -0.0003645560
        0.0000075715   0.0000488055  -0.0000245451   0.0000072634   0.0000130821
        0.0000160950   0.0000025134   0.0000146656   0.0000092064  -0.0000057398
        0.0000078996  -0.0000114271   0.0000147990   0.0000387304  -0.0000185962
        0.0000988462   0.0000167172   0.0001573778   0.0000066608   0.0000064939
       -0.0000104180   0.0000033741   0.0000146962  -0.0000122842  -0.0000073844
        0.0000200359  -0.0000116284   0.0000133248  -0.0000005603   0.0000393657
       -0.0028880582  -0.0111294553   0.0034878783
       -0.0136849385   0.0109277296   0.0180283138  -0.0883829107   0.0490015317
        0.0479522332   0.3326850537   0.0100443728  -0.2637562961  -0.1632247806
        0.0128021401   0.1385665742  -0.0091144887  -0.0563726930   0.0147056951
       -0.0234965792   0.0181751499   0.0234022366  -0.0005536005  -0.0013506575
       -0.0000865837  -0.0002909751   0.0008470620  -0.0000758208  -0.0000448885
       -0.0000276722  -0.0000030383   0.0000752258  -0.0000249818   0.0000446486
       -0.0000443223  -0.0000362240  -0.0000213485  -0.0000447869   0.0000568759
        0.0000636959   0.0000104907  -0.0000130434  -0.0000067048   0.0000047395
        0.0000369094   0.0000127764   0.0000183896   0.0000209701  -0.0000029089
       -0.0000299052  -0.0000074598   0.0000091091   0.0000249694   0.0000075374
       -0.0000208021  -0.0000063839  -0.0000023937   0.0000042775   0.0000120079
        0.0000006331   0.0000035193  -0.0000014298  -0.0000001667   0.0000026855
       -0.0000052139   0.0000028679  -0.0000005558  -0.0000036884  -0.0000007485
       -0.0000004313  -0.0000020193   0.0000048263  -0.0000015914   0.0000007496
       -0.0000015791   0.0000099552  -0.0000071052   0.0000011743  -0.0000061556
       -0.0000046077   0.0000031741  -0.0000050235  -0.0000022975   0.0000091421
       -0.0000074219  -0.0000031509   0.0000063371  -0.0000064894  -0.0000007586
       -0.0000007903  -0.0000068380   0.0000056961  -0.0000032570  -0.0000136180
        0.0000083882  -0.0000048878   0.0000083971   0.0000831219  -0.0000408059
       -0.0000394992  -0.0001410423   0.0000839867  -0.0001327082  -0.0001698629
       -0.0005851008   0.0000119102   0.0001038254  -0.0000669178   0.0000978446
        0.0000566576   0.0000224624   0.0000189321  -0.0000376378  -0.0000365138
        0.0000140480   0.0000002969  -0.0000070435  -0.0000043736  -0.0000143031
       -0.0000127702   0.0000005737   0.0000012047  -0.0000095544   0.0000117567
       -0.0000139539  -0.0000201465  -0.0000050105   0.0003584519   0.0001638859
       -0.0003257707   0.0000857387  -0.0001072594   0.0000697071  -0.0000361501
       -0.0000083229   0.0000100587  -0.0000117126  -0.0000160752  -0.0000040111
       -0.0000085446   0.0000156008   0.0000315249  -0.0000256440   0.0000063731
       -0.0000008143   0.0000663286   0.0000321544  -0.0000158557   0.0213452280
        0.0229420741  -0.0248049042  -0.0558180403  -0.0638191866   0.0284132790
       -0.0080844231   0.0006014377   0.0104699143   0.0043955613  -0.0015507632
        0.0038168252  -0.0000053503  -0.0000243802   0.0000054310   0.0000197766
       -0.0000187645  -0.0000127039  -0.0000080004  -0.0000126799   0.0000131104
        0.0000044315   0.0000000081   0.0000044218  -0.0000030974  -0.0000010461
        0.0000128934  -0.0000014502   0.0000015347   0.0000103831  -0.0000074596
       -0.0000033889   0.0000031434  -0.0000086132   0.0000009631  -0.0000017227
       -0.0000065328   0.0000066227  -0.0000018181  -0.0000023544  -0.0000006603
        0.0000033489  -0.0000076764   0.0000045213   0.0000012329  -0.0000053773
        0.0000115741  -0.0000030047   0.0000001389   0.0000103136  -0.0000060419
        0.0000022868   0.0000024932  -0.0000052094  -0.0000022584  -0.0000041580
       -0.0000022302  -0.0000104730  -0.0000084730  -0.0000110631   0.0000092886
        0.0000124080   0.0000026592  -0.0000322832  -0.0000673930  -0.0000540360
        0.0000116115   0.0000101945  -0.0000021227  -0.0000002245  -0.0000243113
        0.0000139488  -0.0000156702  -0.0000202416   0.0000049175  -0.0000233422
       -0.0000037703  -0.0000046509   0.0000098221   0.0000248442   0.0000052599
        0.0000420163   0.0000157390  -0.0000267064  -0.0000173333   0.0000357621
       -0.0000299687  -0.0000330639   0.0000309491   0.0000085209  -0.0000401654
       -0.0000050803   0.0000257222   0.0000075049  -0.0000120713   0.0000097986
        0.0040918695  -0.0016509027   0.0036105703
        0.0031308290   0.0022317492  -0.0035300786   0.0909148061  -0.2571847872
       -0.1030918027   0.0100443728   0.6706141759  -0.0239832892  -0.0390513590
       -0.0958506129   0.0480112885  -0.0190033665   0.0169299923   0.0227099998
        0.0167815652  -0.0075868033  -0.0211965950   0.0000293390  -0.0012027866
        0.0011242561  -0.0002371057   0.0004890410   0.0002352197   0.0000185279
       -0.0000924096  -0.0000309076  -0.0000698418   0.0001274085  -0.0000289182
        0.0000835207   0.0000998881   0.0000443810   0.0000095820  -0.0000892522
       -0.0000566459  -0.0000340100   0.0000261520  -0.0000009505  -0.0000054250
       -0.0000063301  -0.0000108170  -0.0000035737  -0.0000028493  -0.0000007101
       -0.0000112934   0.0000003494   0.0000010085   0.0000166192   0.0000165988
        0.0000115157  -0.0000105325  -0.0000185324  -0.0000127739  -0.0000039510
        0.0000049940   0.0000021700  -0.0000038195  -0.0000046650  -0.0000017909
       -0.0000003984   0.0000016480   0.0000018432  -0.0000013093  -0.0000008805
        0.0000007879   0.0000017532   0.0000015957   0.0000034173  -0.0000002715
       -0.0000001356   0.0000036301  -0.0000000098   0.0000009559   0.0000030443
        0.0000023169  -0.0000000862  -0.0000001273   0.0000020379  -0.0000017006
        0.0000020738  -0.0000016122  -0.0000015019   0.0000021722  -0.0000019731
        0.0000004769   0.0000031630   0.0000147645   0.0000032797   0.0000083539
       -0.0000117899  -0.0000097724  -0.0000273804  -0.0000584147  -0.0000168955
        0.0000194986   0.0002600903  -0.0001444197   0.0000611889  -0.0002681065
        0.0000427998  -0.0001004565   0.0001989361  -0.0000233389   0.0000678243
        0.0000283462   0.0000387901   0.0000648024  -0.0000356466   0.0000159489
       -0.0000127748   0.0000094728   0.0000029828  -0.0000045379  -0.0000017653
        0.0000027048  -0.0000027169  -0.0000161463  -0.0000154258  -0.0000048202
        0.0000333539  -0.0000098955   0.0000290056   0.0000343222  -0.0000356853
       -0.0003912789   0.0001342203  -0.0000115041   0.0000385831   0.0000398543
        0.0001421028   0.0000025096  -0.0000398655   0.0000783722   0.0000484233
        0.0000203323  -0.0000040039  -0.0000301329   0.0000573386  -0.0000168365