$hessian                                                                        
        0.0521642030  -0.0500524357   0.0409525735  -0.0381243996   0.0273145745
       -0.0208009016  -0.0141149593   0.0152067536  -0.0149824050   0.0018484347
       -0.0031064870  -0.0041953580   0.0000383697   0.0007539264   0.0002302949
        0.0040905339  -0.0005779248  -0.0007063043  -0.0003889682   0.0009101280
        0.0001132364   0.0002032392  -0.0001907679  -0.0001516116   0.0002135869
        0.0000049891   0.0000298269  -0.0001174662  -0.0000891115   0.0000098083
        0.0001601826  -0.0000006343   0.0000001256  -0.0001636696  -0.0000741512
       -0.0000027268   0.0002281834  -0.0000103512   0.0000073585  -0.0000749630
        0.0000078559  -0.0000017732   0.0000876061   0.0000454289   0.0000187613
        0.0000372228  -0.0000063541  -0.0000021121  -0.0000035329  -0.0000040225
        0.0000015901  -0.0000227183  -0.0000787740   0.0000315678   0.0000133369
       -0.0000132953   0.0000290427  -0.0000049224  -0.0000153617   0.0000109706
        0.0000068567   0.0000026078   0.0000105893   0.0000091935  -0.0000198324
        0.0000168521  -0.0000119968  -0.0000217609  -0.0000133464  -0.0000298540
        0.0000448508  -0.0000297407  -0.0000167502  -0.0000021419   0.0000125994
        0.0000083188  -0.0000002532  -0.0000188156   0.0000103312  -0.0000171450
       -0.0000114435  -0.0000040045  -0.0000059669  -0.0000097389   0.0000101804
        0.0000017495  -0.0000275905   0.0000808643  -0.0000470973  -0.0000176141
       -0.0000844679  -0.0000025341   0.0000293892   0.0001478978   0.0000027601
       -0.0000163957  -0.0002322623   0.0001991921   0.0000835245   0.0000089206
        0.0000856718   0.0000724587  -0.0000282892  -0.0000445932   0.0000094807
       -0.0000062930  -0.0000480873  -0.0000025691  -0.0000170022   0.0000273841
        0.0000511232   0.0000193897   0.0000014964   0.0000033400   0.0000117721
       -0.0000226426  -0.0000157403   0.0000262960  -0.0000021363  -0.0000166740
        0.0000359261  -0.0000123966  -0.0000090322  -0.0001390876  -0.0001110611
       -0.0001030593  -0.0003089965   0.0002043601   0.0000274476   0.0001728292
       -0.0000409867   0.0001024764   0.0000130904   0.0000300235   0.0000554053
        0.0001805115  -0.0000754414   0.0000714305  -0.0000782218  -0.0002379529
        0.0001608077   0.0001811968  -0.0001058359   0.0000555193  -0.0034659231
        0.0107778277  -0.0033283674  -0.0009353015  -0.0001281522   0.0010405175
       -0.0006850346   0.0007272939  -0.0005422609  -0.0005800749  -0.0001253662
        0.0006017460   0.0000296626  -0.0000136079  -0.0000076724   0.0000106224
       -0.0000019728  -0.0000062226   0.0000096033  -0.0000058671  -0.0000091285
        0.0000227840  -0.0000149023  -0.0000142087  -0.0000023340   0.0000069755
       -0.0000005593   0.0000049984   0.0000142603   0.0000125369   0.0000139583
        0.0000137805   0.0000198087   0.0000189328  -0.0000036543   0.0000124784
        0.0000171091  -0.0000111227   0.0000111654   0.0000168325   0.0000014999
       -0.0000187357   0.0000228158  -0.0000065607  -0.0000209227   0.0000193047
       -0.0000190916  -0.0000267054   0.0000217069  -0.0000268658  -0.0000134486
        0.0000081622  -0.0000236196  -0.0000010839   0.0000153195  -0.0000048959
        0.0000119895   0.0000126639  -0.0000358108   0.0000019231  -0.0000280152
       -0.0000627836   0.0000163217   0.0000096027  -0.0000302262  -0.0000028031
        0.0000131643  -0.0000202419  -0.0000127853  -0.0000056906  -0.0000224410
        0.0000004683  -0.0000031214  -0.0000310359  -0.0000177126   0.0000010868
       -0.0000177701  -0.0000235273   0.0000043287  -0.0000134990  -0.0000124470
       -0.0000352245   0.0000007877  -0.0000298862  -0.0000434821  -0.0000034406
       -0.0000193605  -0.0000558961   0.0000126995   0.0000137008   0.0000582744
       -0.0000281005  -0.0000503517  -0.0001740020   0.0000561534  -0.0000826877
       -0.0003524820  -0.0007664649   0.0014355736
       -0.0500524357   0.0884754844  -0.0417483164   0.0276768641  -0.0547076581
        0.0239045524   0.0067172620  -0.0032879161   0.0068785636  -0.0002549416
        0.0027927953   0.0000725546  -0.0002636113  -0.0007825501  -0.0003490435
       -0.0017095866  -0.0002374985  -0.0035842262   0.0012387607  -0.0028515930
       -0.0001211643  -0.0005998287   0.0003142245   0.0003621475  -0.0004639160
        0.0000447346  -0.0000043452   0.0003574666  -0.0000279933  -0.0000339153
       -0.0003921785  -0.0002160544  -0.0000172184   0.0007251099   0.0000904092
        0.0000118355  -0.0007056276  -0.0000375023   0.0000023690   0.0003368514
       -0.0001655576  -0.0000331722  -0.0002100887  -0.0000814163  -0.0000121012
        0.0001435858   0.0000387173   0.0000019143   0.0000675394   0.0000212032
       -0.0000028273  -0.0000546018  -0.0001012338  -0.0000163692  -0.0000072921
        0.0000554250  -0.0000209878  -0.0000204183  -0.0000136148  -0.0000081009
       -0.0000004832   0.0000209737  -0.0000171305  -0.0000170852  -0.0000066300
       -0.0000040662   0.0000280314   0.0000544825  -0.0000049961  -0.0000830311
        0.0001076289   0.0000094007   0.0000353231  -0.0000142263   0.0000047986
       -0.0000244137   0.0000318909  -0.0000002754   0.0000028096   0.0000058382
        0.0000135407  -0.0000285692   0.0000327282   0.0000059446   0.0000099384
       -0.0000271709   0.0000148685  -0.0001894721   0.0000622678   0.0000049095
        0.0003020724   0.0002147406  -0.0000082208  -0.0004651638   0.0002098863
        0.0000153286   0.0005137385  -0.0001195747  -0.0001048601   0.0002265391
       -0.0004379488  -0.0001620107  -0.0002205994   0.0002495456   0.0000691275
       -0.0000005688   0.0000656718   0.0000140544   0.0000433312  -0.0000469433
       -0.0000719935  -0.0000327678  -0.0000055647  -0.0000036987  -0.0000153901
        0.0000278220   0.0000152791  -0.0000450002  -0.0000063427   0.0000183243
       -0.0000587762   0.0000219501   0.0000169251   0.0005080341   0.0001604053
        0.0001543066   0.0002807341  -0.0002559727  -0.0000718863  -0.0001059059
        0.0001214691  -0.0000119285  -0.0000300270   0.0000308140  -0.0000270002
       -0.0001683269   0.0000964398  -0.0000659812  -0.0001950043  -0.0000527593
       -0.0000342628  -0.0002743958   0.0000144800  -0.0001866462   0.0179677223
       -0.0314700180   0.0145242330  -0.0006399158   0.0012455045  -0.0005514645
        0.0002342460  -0.0002912161   0.0003373422  -0.0000677480   0.0000352962
        0.0000961922  -0.0000422156   0.0000139502   0.0000055067  -0.0000060936
        0.0000034949   0.0000001934  -0.0000289919  -0.0000048713   0.0000059028
       -0.0000253632   0.0000055598   0.0000008090  -0.0000103646  -0.0000207572
       -0.0000078514  -0.0000063640  -0.0000052317  -0.0000302979  -0.0000098917
       -0.0000048631  -0.0000285202  -0.0000138286   0.0000131173  -0.0000116746
       -0.0000148446   0.0000051044  -0.0000071495  -0.0000172267   0.0000075847
        0.0000093835  -0.0000179940   0.0000016192   0.0000161133  -0.0000168508
        0.0000106107   0.0000320928  -0.0000285018   0.0000203289   0.0000249148
       -0.0000270575   0.0000320811   0.0000071184  -0.0000118514   0.0000224682
       -0.0000007793  -0.0000345932   0.0000476729   0.0000040491   0.0000587499
        0.0000781911  -0.0000308901  -0.0000952344   0.0000272261   0.0000086723
       -0.0000275909   0.0000462745   0.0000266579  -0.0000007823   0.0000329308
        0.0000034823  -0.0000025151   0.0000349261   0.0000216930   0.0000022408
        0.0000143463   0.0000208140   0.0000151339   0.0000214070   0.0000046412
        0.0000688181  -0.0000044187   0.0000000896   0.0000546753   0.0000347162
        0.0000154775   0.0001180687   0.0000263558  -0.0000239958  -0.0000896031
        0.0001199362   0.0000457438   0.0003204453  -0.0000479767   0.0001535927
       -0.0001291615   0.0000703429   0.0004639083
        0.0409525735  -0.0417483164   0.0480839173  -0.0216131499   0.0226847802
       -0.0360474951  -0.0162748322   0.0173934243  -0.0140788588  -0.0032313291
       -0.0038471859  -0.0010660159   0.0006547468   0.0009145661   0.0008016634
       -0.0019728007  -0.0022065734   0.0020191463  -0.0003537591   0.0007940327
        0.0003856253   0.0000218042  -0.0000842600  -0.0001564763   0.0003406029
       -0.0000460786   0.0000007927  -0.0002515344   0.0000109755   0.0000242702
        0.0002773559   0.0000896801   0.0000183089  -0.0005134539  -0.0000463253
       -0.0000046128   0.0005382590   0.0000309408  -0.0000055887  -0.0002270858
        0.0000941197   0.0000221986   0.0001833467   0.0001027188   0.0000248397
       -0.0000549908  -0.0000166747  -0.0000035836  -0.0000454903  -0.0000132055
        0.0000100991   0.0000097241   0.0000113948   0.0000235009   0.0000162224
       -0.0000323714   0.0000368499   0.0000076970   0.0000003093   0.0000024258
        0.0000059580  -0.0000079626   0.0000119757   0.0000098192  -0.0000050753
        0.0000082482  -0.0000285973  -0.0000349158  -0.0000065730   0.0000165581
       -0.0000253502  -0.0000216205  -0.0000322944   0.0000093744   0.0000124168
        0.0000144026  -0.0000131530  -0.0000066067   0.0000032751  -0.0000104874
       -0.0000079867   0.0000074301  -0.0000155529  -0.0000057562   0.0000079083
        0.0000174749  -0.0000263057   0.0001792004  -0.0000793984  -0.0000120664
       -0.0002126239  -0.0001300393   0.0000099306   0.0003304526  -0.0001079024
       -0.0000110189  -0.0003700668   0.0001043257   0.0000990649  -0.0000620713
        0.0000114470  -0.0000055765   0.0000979877  -0.0001899215  -0.0000617141
        0.0000287493  -0.0000129011  -0.0000009902  -0.0000342946   0.0000275852
        0.0000451213   0.0000177499   0.0000071004   0.0000055814   0.0000059067
       -0.0000222322  -0.0000094825   0.0000260918  -0.0000026233  -0.0000130552
        0.0000401436  -0.0000394539  -0.0000102672   0.0000466689   0.0001345544
       -0.0000403038  -0.0002199488   0.0002698685   0.0000593506   0.0001352653
       -0.0000605445   0.0000444459  -0.0000146123   0.0000205679   0.0000434085
        0.0001254413  -0.0000866658   0.0000138807   0.0001114147   0.0000140430
        0.0000053530   0.0002007122  -0.0000847229   0.0001135249  -0.0011753997
        0.0056396764   0.0012732913   0.0006944109   0.0005106607  -0.0003049960
       -0.0006245757   0.0008491177  -0.0007568062   0.0005461739   0.0001017950
       -0.0003387502   0.0000222602  -0.0000098964  -0.0000085157   0.0000093185
       -0.0000010668  -0.0000047984   0.0000094186  -0.0000005139  -0.0000042818
        0.0000160821  -0.0000125299  -0.0000003357  -0.0000011237   0.0000084410
       -0.0000000625   0.0000028986   0.0000052368   0.0000137068   0.0000099720
        0.0000099185   0.0000194108   0.0000144193  -0.0000045255   0.0000093070
        0.0000162689  -0.0000086524   0.0000102764   0.0000154419  -0.0000013702
       -0.0000099276   0.0000166856  -0.0000066928  -0.0000116837   0.0000163679
       -0.0000159659  -0.0000177131   0.0000156099  -0.0000170053  -0.0000083681
        0.0000038324  -0.0000205608  -0.0000018741   0.0000096765  -0.0000069309
       -0.0000033282   0.0000169507  -0.0000309288  -0.0000014639  -0.0000262615
       -0.0000475925   0.0000177380   0.0000210818  -0.0000279060  -0.0000211829
        0.0000168338  -0.0000171972  -0.0000121300  -0.0000059143  -0.0000217050
        0.0000012898  -0.0000023256  -0.0000274783  -0.0000140244   0.0000019607
       -0.0000156865  -0.0000200948  -0.0000039712  -0.0000173667  -0.0000078943
       -0.0000410769   0.0000076828  -0.0000167818  -0.0000375793  -0.0000069874
       -0.0000207786  -0.0000926524  -0.0000136744  -0.0000024182   0.0000528346
       -0.0000645872  -0.0000172411  -0.0001780740   0.0000361352  -0.0001325156
        0.0017599225  -0.0005452331   0.0000689609
       -0.0381243996   0.0276768641  -0.0216131499   0.2521684847   0.0165812629
        0.1993964331  -0.1299634763  -0.0591989973  -0.1178450842  -0.0287000137
        0.0364417499  -0.0288012215  -0.0063500035  -0.0174273602  -0.0061805651
        0.0077444249   0.0096061927   0.0119784177   0.0014152625   0.0016029266
       -0.0050786961  -0.0021656789   0.0011265752  -0.0004532460   0.0015432955
       -0.0004996520  -0.0001690315  -0.0010369857   0.0006381468   0.0000444663
        0.0007630728   0.0003458862   0.0000845279  -0.0023257925   0.0005213669
       -0.0000229676   0.0021277254   0.0002356538  -0.0001043638  -0.0009388132
        0.0005538347   0.0000947203   0.0006205863   0.0004517770   0.0001051356
       -0.0002210413  -0.0000392632  -0.0000100658  -0.0003818035  -0.0000525533
       -0.0000158151   0.0000547364   0.0002426208   0.0000230993   0.0000328564
       -0.0001128626   0.0000763180   0.0000363278   0.0000413663  -0.0000050052
       -0.0000215038  -0.0000278705   0.0000012674   0.0000135821   0.0000529442
       -0.0000346257  -0.0001088508  -0.0000562243  -0.0000256905   0.0001043560
       -0.0001968168  -0.0000168629  -0.0001207023   0.0000526830   0.0000200562
        0.0000110917  -0.0000376933   0.0000336225  -0.0000219108   0.0000327377
       -0.0000070692   0.0000398081  -0.0000189019   0.0000008719   0.0000138754
        0.0001238890  -0.0000810958   0.0006741160  -0.0002863654  -0.0000848342
       -0.0007833733  -0.0007348230  -0.0001113532   0.0016996372  -0.0010105167
        0.0001301673  -0.0016351722   0.0001401001  -0.0000852269   0.0002395005
       -0.0006627301   0.0002145673   0.0000219653  -0.0001236923  -0.0000885099
        0.0000988597   0.0001100257   0.0000530687  -0.0000422665   0.0000232976
       -0.0000139489  -0.0000170202   0.0000271338  -0.0000004162  -0.0000278156
        0.0000045769   0.0000030433   0.0000016283   0.0000047027  -0.0000107898
        0.0000317472  -0.0000495763  -0.0000196007   0.0024688507   0.0015939983
        0.0003291631  -0.0008373169   0.0007339292   0.0002946247   0.0006697636
        0.0000377009   0.0000963871  -0.0005158740   0.0005166180   0.0003728234
       -0.0002430242  -0.0003668263  -0.0007932823   0.0004478403  -0.0001066914
        0.0002090494  -0.0008575006  -0.0010815374   0.0002055963  -0.0567046865
       -0.0021712934  -0.0187059748  -0.0021743623  -0.0012543118  -0.0024208112
        0.0033268653   0.0028914336  -0.0045290707   0.0000524091  -0.0005133187
        0.0001286676   0.0000048919   0.0000032501   0.0000202805  -0.0000114777
        0.0000163772   0.0000201279   0.0000039741   0.0000092144   0.0000041721
       -0.0000423185   0.0000245411   0.0000503957   0.0000117358   0.0000162996
        0.0000012553  -0.0000011445  -0.0000011255  -0.0000022113  -0.0000114112
       -0.0000145738  -0.0000162324  -0.0000161235   0.0000157830  -0.0000054818
       -0.0000007151   0.0000154060  -0.0000188914  -0.0000051942  -0.0000012243
        0.0000234430  -0.0000177384  -0.0000055930   0.0000090707  -0.0000081063
        0.0000067705   0.0000203771  -0.0000177012   0.0000137572  -0.0000039635
        0.0000133404   0.0000111157   0.0000023110  -0.0000390205  -0.0000214607
       -0.0000474741  -0.0000292313   0.0000021147  -0.0000097416  -0.0000513330
       -0.0000059534   0.0000738835   0.0001024082  -0.0001547632   0.0000407537
        0.0000114560   0.0000051536   0.0000038409   0.0000218396   0.0000198255
        0.0000040112  -0.0000005882   0.0000228983   0.0000214560  -0.0000053225
        0.0000090738   0.0000178763  -0.0000209200   0.0000110620   0.0000109022
       -0.0000111215   0.0000241854   0.0000319165   0.0000002757  -0.0000160255
        0.0000405327   0.0000173716   0.0000106223  -0.0000382594   0.0000106434
       -0.0000204817   0.0000460210   0.0001356157   0.0001279447  -0.0001906357
       -0.0021473659  -0.0165063102  -0.0066774564
        0.0273145745  -0.0547076581   0.0226847802   0.0165812629   0.5216230453
        0.1221799591  -0.0164211125  -0.0992017171  -0.0323197299  -0.0026852098
        0.0412833465   0.0038432607  -0.0109464212  -0.0237208917  -0.0184650100
        0.0381538999  -0.0642249650   0.0336321797   0.0017834427   0.0021041977
        0.0008533302  -0.0026705551  -0.0011665620   0.0004975070   0.0040738074
        0.0000698540  -0.0001340885  -0.0032806345   0.0015450580  -0.0000079704
        0.0030861612   0.0022184796   0.0001193308  -0.0069224344  -0.0000928828
       -0.0000572729   0.0064428837   0.0007282559  -0.0000330508  -0.0029282953
        0.0016330743   0.0002645763   0.0018008308   0.0010238191   0.0002851043
       -0.0004874513  -0.0001038389  -0.0000158615  -0.0013260800  -0.0001707196
       -0.0000128198   0.0002613697   0.0008489862   0.0001325433  -0.0000386332
       -0.0003427463   0.0001574809   0.0001202392   0.0001777745  -0.0000563937
       -0.0000672532  -0.0001299986   0.0000269431   0.0001010201   0.0001539759
       -0.0000548136  -0.0001858084  -0.0003081358  -0.0000120463   0.0004550574
       -0.0007650759  -0.0001173042  -0.0002446572   0.0002428429   0.0000025834
        0.0001306478  -0.0001515759   0.0000591161  -0.0000909715   0.0000912096
       -0.0000252946   0.0001600301  -0.0001591471   0.0000496902  -0.0001224331
        0.0002938988  -0.0001525458   0.0019429267  -0.0005878519  -0.0002536813
       -0.0024526749  -0.0022941141  -0.0002882447   0.0042413021  -0.0023161912
       -0.0002412008  -0.0032413773  -0.0013866417   0.0000881547  -0.0005875962
       -0.0001358272   0.0003025826   0.0012013678  -0.0018120678  -0.0008238101
        0.0002037838   0.0001860595  -0.0000198938  -0.0002287402   0.0001462939
        0.0000693161  -0.0000433846   0.0000434249   0.0000728941  -0.0000451506
       -0.0000602158  -0.0000086289   0.0001334761   0.0000061834  -0.0000697720
        0.0002176547  -0.0002016645  -0.0000858861   0.0026020698   0.0016589654
       -0.0004447037  -0.0013185506   0.0016889276   0.0003232683   0.0007320799
       -0.0002618780   0.0000330036  -0.0006352800   0.0006219791   0.0005228302
        0.0001036164  -0.0006810560  -0.0007026524   0.0000820002  -0.0000366689
        0.0005112605  -0.0004892817  -0.0009341022  -0.0005673684  -0.0395102700
       -0.3008854164  -0.1064724425  -0.0168853676  -0.0101785682  -0.0220868376
        0.0030530596  -0.0015516593   0.0014273090  -0.0006977668   0.0000437110
       -0.0006010835  -0.0000052775   0.0000975747  -0.0000152765  -0.0000669985
        0.0000921213   0.0000703008   0.0000517890   0.0000862454   0.0000071001
       -0.0000609682   0.0000640999   0.0001020023   0.0000400945   0.0000628753
       -0.0000393068   0.0000168062  -0.0000226565   0.0000507482  -0.0000214497
       -0.0000318772   0.0000174072  -0.0000398704  -0.0000184058  -0.0000104653
        0.0000023634   0.0000449460  -0.0000024520   0.0000092199  -0.0000466830
        0.0000075417  -0.0000390354   0.0000044306   0.0000082478  -0.0000127230
        0.0000183656  -0.0000180374   0.0000163498   0.0000210722  -0.0000445054
        0.0000601239  -0.0000426316   0.0000397119  -0.0000622326  -0.0000783144
       -0.0000932374   0.0000409119  -0.0000656377  -0.0000037439  -0.0000891329
       -0.0000622743   0.0001022903   0.0004835672  -0.0003752987  -0.0000613102
        0.0000082010  -0.0000728210   0.0000128765   0.0000477405   0.0000051931
       -0.0000042752   0.0000093353   0.0000149845   0.0000063676  -0.0000170330
        0.0000288521   0.0000082348  -0.0000507683  -0.0000125345  -0.0000073105
       -0.0000172230   0.0000635885   0.0000652299   0.0000510419   0.0000270866
        0.0000664940   0.0001111738   0.0000280911   0.0000200742   0.0001086067
       -0.0000216105  -0.0000729735   0.0002739879   0.0001874949   0.0000519060
       -0.0012737740  -0.0098598015  -0.0042722358
       -0.0208009016   0.0239045524  -0.0360474951   0.1993964331   0.1221799591
        0.3624331444  -0.1079615784  -0.0850064719  -0.1941634253  -0.0377355855
        0.0541041709  -0.0319600701  -0.0056582624  -0.0262878301  -0.0171250347
        0.0196313419  -0.0018045264   0.0231360758  -0.0064699077  -0.0008285442
       -0.0012421632  -0.0028240280   0.0014313205   0.0006028346   0.0024533170
       -0.0004669228  -0.0001261185  -0.0017053867   0.0009941659  -0.0000770768
        0.0012796552   0.0006661143   0.0000772479  -0.0035609051   0.0006367398
       -0.0000334071   0.0032645678   0.0003728387  -0.0001273022  -0.0014602637
        0.0008457446   0.0001452261   0.0009395172   0.0006452984   0.0001404667
       -0.0003593536  -0.0000662010  -0.0000144282  -0.0005845220  -0.0000694046
       -0.0000227891   0.0001101590   0.0004100358   0.0000314473   0.0000425149
       -0.0001701530   0.0001055375   0.0000628751   0.0000672832  -0.0000109650
       -0.0000304059  -0.0000489108   0.0000004282   0.0000270148   0.0000824970
       -0.0000526079  -0.0001524394  -0.0001008881  -0.0000270627   0.0002073890
       -0.0003613777  -0.0000175356  -0.0001757470   0.0000866010   0.0000180988
        0.0000311125  -0.0000708452   0.0000486783  -0.0000365176   0.0000468191
       -0.0000126105   0.0000693658  -0.0000465175   0.0000043910   0.0000073339
        0.0001786513  -0.0001093874   0.0010188151  -0.0004015073  -0.0001117204
       -0.0012144446  -0.0011573689  -0.0001808367   0.0026032594  -0.0015410452
        0.0001113657  -0.0022587674  -0.0000731622  -0.0000497053   0.0000913991
        0.0000980926   0.0004490812  -0.0000035014  -0.0008935043  -0.0004873382
        0.0002051008   0.0001554495   0.0000206830  -0.0001119477   0.0000692613
        0.0000142843  -0.0000296993   0.0000514902   0.0000207326  -0.0000381576
       -0.0000056370   0.0000051819   0.0000291322   0.0000022836  -0.0000280840
        0.0000657987  -0.0001350675  -0.0000356979   0.0039455902   0.0013917372
        0.0006236842  -0.0008749636   0.0016649111   0.0003653534   0.0006948126
       -0.0000783096  -0.0000565675  -0.0006233669   0.0006855309   0.0005159611
       -0.0003051844  -0.0006176521  -0.0010743288   0.0007197006  -0.0000641652
        0.0005467939  -0.0004633922  -0.0009535779  -0.0001253718  -0.0285574017
       -0.0639055351  -0.0902526252  -0.0059926422  -0.0038290305  -0.0088157793
       -0.0043676934   0.0012633765   0.0021965432  -0.0000470631  -0.0005996445
       -0.0000154483   0.0000086889   0.0000199120   0.0000301195  -0.0000246566
        0.0000414285   0.0000514688   0.0000119559   0.0000209000   0.0000088041
       -0.0000551021   0.0000348707   0.0000787749   0.0000180294   0.0000198317
       -0.0000016134   0.0000022394  -0.0000075565  -0.0000000378  -0.0000140231
       -0.0000234075  -0.0000163892  -0.0000225225   0.0000125256  -0.0000127708
        0.0000006148   0.0000208442  -0.0000270429  -0.0000022224  -0.0000084062
        0.0000294642  -0.0000248491  -0.0000075579   0.0000129931  -0.0000108321
        0.0000095549   0.0000213314  -0.0000189522   0.0000208770  -0.0000087993
        0.0000188809   0.0000070539   0.0000041993  -0.0000463776  -0.0000349347
       -0.0000730093  -0.0000254003   0.0000028600  -0.0000038205  -0.0000540178
       -0.0000041412   0.0000977576   0.0001241836  -0.0002263756   0.0000569786
        0.0000134232  -0.0000135119  -0.0000004705   0.0000331008   0.0000234059
        0.0000056653   0.0000015507   0.0000256416   0.0000280846  -0.0000086609
        0.0000092302   0.0000196509  -0.0000330463  -0.0000018262   0.0000064384
       -0.0000152724   0.0000158371   0.0000172413  -0.0000099352  -0.0000262965
        0.0000331086   0.0000333366   0.0000163932  -0.0000342780   0.0000606161
       -0.0000349847  -0.0000193219   0.0002291126   0.0003755220  -0.0002857553
       -0.0026820383  -0.0227388141  -0.0092290299
       -0.0141149593   0.0067172620  -0.0162748322  -0.1299634763  -0.0164211125
       -0.1079615784   0.3134188017  -0.0563942555   0.2405026188  -0.1251145708
        0.0606953745  -0.0824976867   0.0101256551   0.0441128595   0.0187417695
       -0.0180913836   0.0049688573  -0.0167504310  -0.0000531434   0.0005521652
        0.0025645061  -0.0000485431  -0.0000181765   0.0000891932   0.0002547457
        0.0011048141   0.0000932119  -0.0000136526  -0.0002399039  -0.0000178372
        0.0003854400   0.0007184902  -0.0000594076   0.0006556096  -0.0012768770
        0.0000611028  -0.0004606852  -0.0000800838   0.0001996534   0.0002549166
       -0.0001028340  -0.0000288794  -0.0001989098  -0.0001440357   0.0000182808
        0.0004107955   0.0000834391   0.0000127479  -0.0001018968  -0.0000034555
        0.0000057544  -0.0001028780  -0.0002219422   0.0000532811  -0.0000502809
        0.0000595193  -0.0000107621  -0.0000338564  -0.0000314000  -0.0000117375
       -0.0000036051   0.0000024687  -0.0000047876  -0.0000031983  -0.0000397107
        0.0000268811   0.0000763430   0.0000133496  -0.0000040639  -0.0001507607
        0.0001914495  -0.0000546465   0.0000767653   0.0000099888   0.0000092922
       -0.0000114281   0.0000442968  -0.0000247558  -0.0000080915   0.0000018424
        0.0000131074  -0.0000386515   0.0000255282   0.0000131285  -0.0000369569
       -0.0000625610   0.0000107199  -0.0001643764   0.0000894011  -0.0000568114
        0.0002101133   0.0001448926   0.0000082876  -0.0010925529   0.0007287989
       -0.0004590824   0.0011117810  -0.0012502639  -0.0001504925  -0.0000790693
        0.0001139678  -0.0000001775   0.0000848129   0.0000803492   0.0000366024
       -0.0000681369  -0.0000855135  -0.0000319023   0.0000092551  -0.0000015566
        0.0000167920  -0.0000020326   0.0000009512   0.0000066449   0.0000008881
        0.0000004939   0.0000034091  -0.0000030670  -0.0000116412   0.0000112979
        0.0000014896   0.0000200210   0.0000024227  -0.0007765669  -0.0003437668
       -0.0003806007  -0.0002634200  -0.0009218494  -0.0004048696  -0.0000977019
        0.0000666380   0.0003227297   0.0003221500  -0.0004499879  -0.0004708683
        0.0004994689   0.0004764398   0.0009465391  -0.0010996560   0.0001188721
       -0.0005864197   0.0011540668   0.0005274416  -0.0002928087   0.0004363514
       -0.0449009030  -0.0116151887  -0.0357201665  -0.0116796830  -0.0096463025
       -0.0107740154   0.0119718544  -0.0104534603   0.0050307753   0.0001652929
       -0.0031352805  -0.0000129632   0.0000327086  -0.0000421656  -0.0000234371
        0.0000242193   0.0000071292  -0.0000026459   0.0000066802  -0.0000032554
       -0.0000075398   0.0000101869  -0.0000169285   0.0000059558  -0.0000110468
       -0.0000124908   0.0000017984  -0.0000062914  -0.0000086111  -0.0000018737
       -0.0000012372  -0.0000073223  -0.0000078535   0.0000018858  -0.0000034527
       -0.0000102570   0.0000097349   0.0000074281  -0.0000079646  -0.0000090175
       -0.0000055288  -0.0000087510   0.0000004046   0.0000064505  -0.0000059148
        0.0000055711   0.0000095983  -0.0000015623   0.0000101473   0.0000092827
       -0.0000008722   0.0000145394   0.0000111389   0.0000025886   0.0000018910
        0.0000175555   0.0000059030   0.0000061187   0.0000100715  -0.0000210316
       -0.0000289229  -0.0000715922  -0.0002958925   0.0001976477   0.0003643096
       -0.0000069721   0.0000022165  -0.0000187180   0.0000099493   0.0000096193
       -0.0000062835   0.0000040490   0.0000140194   0.0000034250  -0.0000039632
        0.0000129443   0.0000129387  -0.0000121375  -0.0000053647  -0.0000022335
        0.0000057924   0.0000218469   0.0000197720   0.0000341069   0.0000458067
       -0.0000118157   0.0000239586   0.0000055927   0.0000003141  -0.0000158850
        0.0000685522  -0.0000241033  -0.0000647604  -0.0000895143   0.0001180388
        0.0046396407   0.0005234549  -0.0027472549
        0.0152067536  -0.0032879161   0.0173934243  -0.0591989973  -0.0992017171
       -0.0850064719  -0.0563942555   0.6594021923   0.0660641027   0.1132125670
       -0.1964203795   0.0992726095   0.0072725084  -0.0624233204  -0.0027789809
        0.0061766565   0.0059290998   0.0113971147   0.0016640782   0.0002005236
       -0.0011629365   0.0041141912  -0.0007689309  -0.0008334960  -0.0042517675
       -0.0011400747   0.0000498942   0.0028298132  -0.0010831781   0.0000571114
       -0.0028460025  -0.0023926511  -0.0000560462   0.0049872361   0.0012440986
       -0.0000058294  -0.0047425560  -0.0004726399  -0.0001461862   0.0021058995
       -0.0011738594  -0.0001825571  -0.0013170006  -0.0007600650  -0.0002045812
        0.0002355728   0.0000253301   0.0000040933   0.0009974503   0.0001400310
        0.0000149315  -0.0001375439  -0.0005559937  -0.0000834418   0.0000447827
        0.0002307573  -0.0001255304  -0.0000521322  -0.0001069352   0.0000587905
        0.0000459521   0.0000712363  -0.0000020411  -0.0000764934  -0.0000989673
        0.0000275313   0.0001235614   0.0002016018   0.0000048051  -0.0002572931
        0.0004768943   0.0000770470   0.0001639190  -0.0001857663   0.0000034424
       -0.0000829858   0.0000760452  -0.0000266718   0.0000602534  -0.0000571057
        0.0000030651  -0.0000756114   0.0000849040  -0.0000473681   0.0000949176
       -0.0002048115   0.0001290906  -0.0014601043   0.0004533448   0.0002275776
        0.0018035079   0.0016036412   0.0002225210  -0.0025385730   0.0011603153
        0.0005958363   0.0021634474   0.0021526997   0.0000028621   0.0002618585
        0.0004205682  -0.0002882170  -0.0006820564   0.0014987024   0.0005527565
       -0.0001789747  -0.0001637312   0.0000126690   0.0001419897  -0.0001094210
       -0.0000560773   0.0000307301  -0.0000615217  -0.0000484150   0.0000466948
        0.0000167846  -0.0000058845  -0.0000818946  -0.0000006249   0.0000341585
       -0.0001339507   0.0001497440   0.0000556682  -0.0036990403  -0.0018867643
        0.0002459289   0.0019820141  -0.0007372330  -0.0000089784  -0.0010409148
        0.0000282140  -0.0005062417   0.0004869462  -0.0003503649  -0.0000970863
       -0.0005361139   0.0002264150  -0.0000080181   0.0008097568   0.0000255970