$hessian                                                                        
        0.6486946919  -0.0199772703   0.0401630539  -0.1690765311   0.0586005892
        0.0353992344   0.0580719094   0.0268497193   0.0281833452  -0.0492175793
        0.0230388189   0.0145819996  -0.0012447789  -0.0004906010  -0.0005094203
       -0.0000939643   0.0010483139   0.0008836229  -0.0005335335  -0.0003542284
       -0.0003593220  -0.0000627547   0.0000763921   0.0000642223  -0.0000131953
       -0.0000530754  -0.0000458344  -0.0000220130   0.0000314981   0.0000242079
       -0.0000057396   0.0000031754   0.0000013872   0.0000413818  -0.0000063814
       -0.0000059000   0.0000439036   0.0000280814   0.0000248638   0.0005179349
       -0.0001552129  -0.0000774760  -0.0000044304   0.0002373061   0.0001786795
       -0.0000140321  -0.0000068340  -0.0000020943  -0.0000170045   0.0000149682
        0.0000142684   0.0000236589  -0.0000039178  -0.0000037565  -0.0000509419
       -0.0000114251  -0.0000167156   0.0000468132   0.0000035215   0.0000003470
       -0.0000179845  -0.0000252147  -0.0000037103   0.0000001122   0.0000040743
       -0.0000004512  -0.0000036757  -0.0000018105  -0.0000002359  -0.0000007760
       -0.0000016746   0.0000002226  -0.0000041519  -0.0000037957   0.0000000152
        0.0000004256   0.0000018766   0.0000001752   0.0000000267   0.0000034979
       -0.0000033280  -0.0000044613  -0.0000043511  -0.0000000475   0.0000006112
        0.0000027894  -0.0000016484   0.0000015370   0.0000014464  -0.0000001395
       -0.0000025850  -0.0000027780   0.0000003373   0.0000020840   0.0000000325
        0.0000016957  -0.0000002672   0.0000017500  -0.0000017100  -0.0000017407
       -0.0000021277   0.0000006516   0.0000011218  -0.0000001548   0.0000010214
        0.0000039089   0.0000002493   0.0000037338  -0.0000003024   0.0000005943
       -0.0000015802  -0.0000060259  -0.0000002433   0.0000013269   0.0000101256
       -0.0000089420   0.0000016033   0.0000123860   0.0000042458   0.0000002669
       -0.0000095192   0.0000021941   0.0000000895   0.0000004855   0.0000070005
       -0.0000009330  -0.0000025871   0.0000051840   0.0000013604   0.0000049738
       -0.0000044481   0.0000023323  -0.0000040480  -0.0000038132  -0.0000068341
       -0.0000033610   0.0000049127   0.0000023073  -0.0000000857  -0.0000018666
       -0.0000002866   0.0000013788  -0.0000025317  -0.0000010934  -0.0000064583
        0.0000071729  -0.0000013972   0.0000065650   0.0000017643   0.0000049392
       -0.0000003313  -0.0000048622  -0.0000034906  -0.0000069469   0.0000047974
       -0.0000019634   0.0000070763   0.0000005495   0.0000046560   0.0000109474
       -0.0000023861   0.0000062807  -0.0000049459  -0.0000023077  -0.0000053685
       -0.0000046549  -0.0000046606   0.0000001081  -0.0000052950  -0.0000018198
        0.0000028993  -0.0000114820   0.0000223057  -0.0000007148  -0.0000304338
       -0.0000147863  -0.0000152974   0.0000270181   0.0000119706   0.0000144007
       -0.0001463248  -0.0003429615  -0.0002766128  -0.0286423492  -0.0670183871
       -0.0584405097  -0.3246746747   0.0339584502  -0.0015469209  -0.0928989268
       -0.0746515071  -0.0676935310  -0.0205643413   0.0202088983   0.0143731894
       -0.0002027605  -0.0017299694  -0.0023722048  -0.0000032920   0.0000036079
        0.0000033563  -0.0000039530  -0.0000004246  -0.0000010038   0.0000084816
        0.0000040396   0.0000033714  -0.0000138262   0.0000016876   0.0000006303
        0.0000302723  -0.0000008258   0.0000028931   0.0000706322  -0.0000290253
       -0.0000256944  -0.0000084011  -0.0000073731  -0.0000078470   0.0000015013
        0.0000017076  -0.0000003330  -0.0000013292   0.0000024928  -0.0000001603
       -0.0000001907   0.0000000713  -0.0000005626   0.0000005482  -0.0000001790
        0.0000007240   0.0000007827   0.0000007865  -0.0000000282  -0.0000000906
        0.0000006386  -0.0000007469   0.0000000299  -0.0000001741   0.0000000433
        0.0000011561   0.0000007867   0.0000000091   0.0000003341  -0.0000002336
        0.0000004557   0.0000022322  -0.0000010603  -0.0000002741   0.0000035256
        0.0000010030  -0.0000008519  -0.0000003615   0.0000008740  -0.0000004200
        0.0000016010   0.0000009317   0.0000018160   0.0000020749  -0.0000015848
        0.0000002032   0.0000001023  -0.0000013860  -0.0000005639  -0.0000005529
        0.0000004610   0.0000006486   0.0000016230  -0.0000008260   0.0000000542
        0.0000009172   0.0000003744   0.0000015789  -0.0000019218   0.0000010429
       -0.0000001890   0.0000046672  -0.0000034074  -0.0000001540  -0.0000008636
        0.0000047825   0.0000055164  -0.0000131040  -0.0000024369  -0.0000019875
       -0.0002126910  -0.0014687093  -0.0021355630  -0.0197829863   0.0022005632
       -0.0003872374
       -0.0199772703   0.4463187241   0.2683191452   0.1200995002  -0.1795998891
       -0.0952441583  -0.0190303503  -0.0407138286  -0.0365896226   0.0230856917
       -0.0092698202   0.0003858520  -0.0004709062  -0.0014531667  -0.0010458332
       -0.0002895136   0.0002847651   0.0002218844  -0.0001032230  -0.0000493400
       -0.0000798495  -0.0000315347   0.0000302398   0.0000320736  -0.0000169750
       -0.0000001421  -0.0000028693   0.0000009288  -0.0000226910  -0.0000202734
        0.0000002933  -0.0000246921  -0.0000216656   0.0000030715  -0.0000065571
       -0.0000071268   0.0000440517   0.0000096838   0.0000095366  -0.0001548530
        0.0001730483   0.0001395330  -0.0000806557  -0.0004390968  -0.0004106480
        0.0001375403  -0.0000021507   0.0000171428  -0.0000365225   0.0000515813
        0.0000498711  -0.0000041706   0.0000254726   0.0000083468  -0.0001094076
       -0.0000145642  -0.0000246584   0.0001066309   0.0000051623   0.0000131764
       -0.0000247206  -0.0000374295  -0.0000151953   0.0000012580   0.0000129579
       -0.0000028840  -0.0000102703  -0.0000046106  -0.0000006452   0.0000013535
       -0.0000079553   0.0000010451  -0.0000055293  -0.0000052117  -0.0000004608
        0.0000012386   0.0000017824   0.0000012109  -0.0000001077   0.0000031896
       -0.0000036537  -0.0000061429  -0.0000055703  -0.0000001003  -0.0000002628
        0.0000030290  -0.0000021887   0.0000011950   0.0000019978   0.0000001541
       -0.0000036127  -0.0000034892   0.0000010489   0.0000023842  -0.0000000813
        0.0000024087  -0.0000011850   0.0000012686  -0.0000019503  -0.0000015026
       -0.0000033802   0.0000011561  -0.0000004743  -0.0000008689   0.0000012066
        0.0000016905  -0.0000007042   0.0000032909   0.0000011900   0.0000021105
       -0.0000026280  -0.0000041023   0.0000047271   0.0000014264   0.0000131019
       -0.0000133909   0.0000016033   0.0000049185   0.0000180587  -0.0000031525
        0.0000022080  -0.0000100303   0.0000010224   0.0000021962   0.0000020392
       -0.0000006198  -0.0000050191   0.0000030231  -0.0000020191  -0.0000069796
        0.0000002112  -0.0000030716   0.0000052524  -0.0000002575   0.0000033469
       -0.0000099925   0.0000055963  -0.0000046649   0.0000087618  -0.0000074533
        0.0000012882  -0.0000012126   0.0000012390   0.0000006151   0.0000045397
       -0.0000029744   0.0000018761  -0.0000065685  -0.0000013037  -0.0000052172
        0.0000027646   0.0000028146   0.0000031021   0.0000053802   0.0000004264
        0.0000027057  -0.0000062364  -0.0000007562  -0.0000041988  -0.0000049990
        0.0000042255  -0.0000002532   0.0000058978   0.0000004797   0.0000019799
       -0.0000100205   0.0000112488  -0.0000053458   0.0000067438  -0.0000146943
        0.0000022006  -0.0000248447   0.0000301016   0.0000124006   0.0000460701
       -0.0000145798   0.0000033059  -0.0000542254  -0.0000468386  -0.0000456976
        0.0010643176   0.0003685603   0.0004227923  -0.0211403191   0.0165768568
        0.0103702495  -0.0275653398  -0.0768748675  -0.0263545576  -0.0746387183
       -0.1558398623  -0.1075887648   0.0017771632  -0.0003749805  -0.0008090640
       -0.0014639776   0.0008893979  -0.0062492035   0.0000051372  -0.0000033749
       -0.0000028949   0.0000042336   0.0000041057   0.0000027703  -0.0000049196
       -0.0000005300  -0.0000015877  -0.0000100800  -0.0000058824  -0.0000066685
       -0.0000567469   0.0000300519   0.0000194853   0.0000190697   0.0000066071
       -0.0000036168   0.0000125504  -0.0000028164  -0.0000038217   0.0000030113
       -0.0000029610  -0.0000006021  -0.0000010962  -0.0000004570  -0.0000003039
       -0.0000013970  -0.0000002491  -0.0000009572  -0.0000008560  -0.0000005429
        0.0000010472  -0.0000001960   0.0000005205   0.0000005500  -0.0000010517
        0.0000005085  -0.0000002644  -0.0000005991  -0.0000007459   0.0000000826
       -0.0000001776   0.0000000972   0.0000003556  -0.0000007042  -0.0000007420
        0.0000010686   0.0000002791  -0.0000010730   0.0000003626   0.0000012699
        0.0000014809  -0.0000006059   0.0000001809  -0.0000010790  -0.0000001771
       -0.0000004689  -0.0000008549   0.0000001096   0.0000001605  -0.0000002301
        0.0000004294   0.0000013610  -0.0000014379  -0.0000000500  -0.0000002811
       -0.0000008470  -0.0000014359   0.0000000681  -0.0000009243   0.0000005862
       -0.0000007277  -0.0000005613  -0.0000000293  -0.0000017978  -0.0000037562
       -0.0000002194   0.0000032796   0.0000005968  -0.0000002682   0.0000016275
       -0.0000012518   0.0000001137   0.0000041666   0.0000062997   0.0000008025
       -0.0017593500   0.0009074916  -0.0062776118   0.0206484662  -0.0009042330
        0.0007875947
        0.0401630539   0.2683191452   0.3434955365   0.0860806478  -0.1018579164
       -0.1231809130  -0.0095767640  -0.0317060784  -0.0258807757   0.0144767742
        0.0004507721  -0.0049348514  -0.0005120179  -0.0010624803  -0.0011426742
       -0.0002342941   0.0003822854   0.0002594878  -0.0001592706  -0.0001228592
       -0.0000631527  -0.0000353323   0.0000450639   0.0000216492  -0.0000145535
       -0.0000076194  -0.0000076052   0.0000007427  -0.0000154071  -0.0000115525
       -0.0000033575  -0.0000198151  -0.0000165335   0.0000078813  -0.0000083513
       -0.0000061939   0.0000426994   0.0000138871   0.0000067022  -0.0000617483
        0.0001372410   0.0000970516  -0.0000653860  -0.0003797960  -0.0002748754
        0.0001135425   0.0000075447   0.0000010366  -0.0000316360   0.0000481403
        0.0000401090  -0.0000031200   0.0000178161   0.0000058105  -0.0000959120
       -0.0000147066  -0.0000227919   0.0000916179  -0.0000008600   0.0000118044
       -0.0000179102  -0.0000295563  -0.0000132814   0.0000014034   0.0000117853
       -0.0000020151  -0.0000070094  -0.0000052919   0.0000001794   0.0000021132
       -0.0000044745   0.0000005686  -0.0000036748  -0.0000030332  -0.0000007227
       -0.0000029456   0.0000014348  -0.0000020279   0.0000000116  -0.0000014354
        0.0000007291  -0.0000071751  -0.0000058798  -0.0000003102   0.0000054630
        0.0000057589  -0.0000002338  -0.0000012968  -0.0000007320   0.0000003115
        0.0000011508   0.0000008338   0.0000011365  -0.0000047902  -0.0000010468
       -0.0000026084   0.0000008819  -0.0000012794   0.0000020012   0.0000012977
        0.0000004627   0.0000003772  -0.0000028324  -0.0000006338  -0.0000011951
       -0.0000023124  -0.0000027424   0.0000014513   0.0000025176  -0.0000003104
        0.0000007943  -0.0000032618   0.0000062689   0.0000011772   0.0000101818
       -0.0000125596   0.0000015311   0.0000065863   0.0000141421  -0.0000021297
       -0.0000000292  -0.0000056520   0.0000008252   0.0000006842   0.0000035883
       -0.0000007765  -0.0000049476   0.0000038617  -0.0000015113  -0.0000014115
       -0.0000016342  -0.0000001765   0.0000022851  -0.0000024817   0.0000000764
       -0.0000067239   0.0000050432  -0.0000027081   0.0000029989  -0.0000060801
       -0.0000010288   0.0000016399   0.0000001385   0.0000014132   0.0000004399
        0.0000008082   0.0000011407  -0.0000002240  -0.0000009780  -0.0000006283
        0.0000004976  -0.0000002148   0.0000002367   0.0000017191   0.0000028597
        0.0000021987  -0.0000025067  -0.0000003746  -0.0000016435  -0.0000006077
        0.0000019399   0.0000013719   0.0000024266  -0.0000010232  -0.0000003791
       -0.0000095197   0.0000081981  -0.0000043059   0.0000043013  -0.0000119161
        0.0000023202  -0.0000231590   0.0000275230   0.0000094823   0.0000340271
       -0.0000138861   0.0000034582  -0.0000419598  -0.0000378425  -0.0000354694
        0.0008584979   0.0002841162   0.0002819604  -0.0205972637   0.0054543186
        0.0035305381  -0.0521760389  -0.0197718030  -0.0702990408  -0.0676909322
       -0.1075847790  -0.1308149180  -0.0008238563   0.0011727940   0.0016965125
       -0.0021210502  -0.0062956026   0.0028966121   0.0000042048  -0.0000013782
       -0.0000022216   0.0000028413   0.0000034260   0.0000018928  -0.0000025592
        0.0000002896  -0.0000012305  -0.0000095630  -0.0000038952  -0.0000055459
       -0.0000438603   0.0000167488   0.0000218149   0.0000264618  -0.0000017903
        0.0000028449   0.0000095529  -0.0000023667  -0.0000040072   0.0000021204
       -0.0000023148  -0.0000008875  -0.0000014607   0.0000001214  -0.0000004671
       -0.0000003081  -0.0000002814  -0.0000000784  -0.0000004661   0.0000004201
        0.0000002852  -0.0000003933  -0.0000000082   0.0000005418   0.0000001558
        0.0000005649   0.0000004097  -0.0000003078  -0.0000001610  -0.0000002200
        0.0000003912   0.0000000445   0.0000006875  -0.0000004519   0.0000000083
        0.0000003328   0.0000006768  -0.0000013468   0.0000002264   0.0000009383
        0.0000009760  -0.0000007320  -0.0000003847  -0.0000006091  -0.0000006168
       -0.0000000860  -0.0000001495   0.0000004636   0.0000005485  -0.0000006666
        0.0000002318   0.0000006135  -0.0000014974  -0.0000007315  -0.0000003387
       -0.0000003034  -0.0000013065   0.0000000385  -0.0000007284  -0.0000000419
       -0.0000005814   0.0000001570  -0.0000000091  -0.0000013029  -0.0000029602
       -0.0000002773   0.0000030507   0.0000003572  -0.0000005691   0.0000011626
       -0.0000004381   0.0000003784   0.0000021414   0.0000057228   0.0000000770
       -0.0023660660  -0.0062498710   0.0029120537   0.0148019780  -0.0011867087
        0.0014281395
       -0.1690765311   0.1200995002   0.0860806478   0.6715602888  -0.0247177260
        0.0390626857  -0.1419456317  -0.0990526440  -0.0917482863  -0.0259015736
       -0.0207869422  -0.0201762999  -0.0061402734   0.0002964491  -0.0012954498
        0.0005535678   0.0011890732   0.0011410407  -0.0003717929  -0.0005126863
       -0.0004055883  -0.0000752874   0.0001620996   0.0001258504  -0.0000649839
       -0.0000405555  -0.0000394036  -0.0000637367  -0.0000115601  -0.0000119935
        0.0000386474  -0.0000003395  -0.0000005802   0.0000825646   0.0000492101
        0.0000422617   0.0000016688  -0.0000250656  -0.0000133791   0.0003830651
        0.0002820424   0.0002137826  -0.0008235039  -0.0004393633  -0.0002988931
        0.0001753409  -0.0000943930  -0.0000735498  -0.0000597942   0.0001076713
        0.0000925040   0.0000322733   0.0000577663   0.0000257220  -0.0002127234
       -0.0000300527  -0.0000468125   0.0002315119   0.0000015839   0.0000220199
       -0.0000569382  -0.0000901902  -0.0000283071   0.0000044790   0.0000249371
       -0.0000046665  -0.0000219456  -0.0000099765  -0.0000012793   0.0000093149
       -0.0000127883   0.0000026578  -0.0000079310  -0.0000084738  -0.0000005953
       -0.0000002143   0.0000040842  -0.0000003066   0.0000011906   0.0000043649
       -0.0000047875  -0.0000140316  -0.0000127089  -0.0000004470   0.0000056168
        0.0000095499  -0.0000032709   0.0000016630   0.0000021274   0.0000004595
       -0.0000031286  -0.0000032535   0.0000013543  -0.0000002516  -0.0000009084
        0.0000010362   0.0000003727   0.0000007679  -0.0000002159   0.0000004262
       -0.0000032645   0.0000023734  -0.0000021965  -0.0000012999   0.0000003624
        0.0000030333  -0.0000014553   0.0000061575   0.0000041476   0.0000024866
       -0.0000029277  -0.0000051391   0.0000093048   0.0000039928   0.0000251866
       -0.0000313652   0.0000040705   0.0000174495   0.0000356782  -0.0000045253
        0.0000018241  -0.0000114743   0.0000013473   0.0000083570   0.0000080992
       -0.0000002362  -0.0000093286   0.0000064422  -0.0000031307  -0.0000011173
       -0.0000031127   0.0000004578   0.0000042937  -0.0000057607  -0.0000010593
       -0.0000139203   0.0000108902  -0.0000055268   0.0000075132  -0.0000109056
       -0.0000013836   0.0000025192  -0.0000022354   0.0000012095  -0.0000007221
        0.0000021834   0.0000011447   0.0000003637  -0.0000012328  -0.0000005041
       -0.0000003842   0.0000001150  -0.0000004305   0.0000038648   0.0000038941
        0.0000033250  -0.0000043335   0.0000010432  -0.0000017314  -0.0000013980
        0.0000033822   0.0000027260   0.0000073794  -0.0000027527  -0.0000002134
       -0.0000268639   0.0000163117  -0.0000108945   0.0000151697  -0.0000251359
        0.0000036565  -0.0000664807   0.0000856825   0.0000217885   0.0000791524
       -0.0000530690  -0.0000126649  -0.0001139839  -0.0000773655  -0.0000753540
       -0.0001903448  -0.0007645502  -0.0006354038   0.0034368367   0.0031042627
        0.0035167090  -0.0420353883   0.0186124361   0.0107404751   0.0065351494
       -0.0080636296  -0.0061057935  -0.2972404220  -0.0001487897  -0.0282170523
        0.0063325426   0.0103945417   0.0090965047   0.0000070336  -0.0000007885
       -0.0000001456   0.0000048286   0.0000188250   0.0000153682  -0.0000104345
        0.0000182848   0.0000137291  -0.0000221885   0.0000042614   0.0000020440
        0.0001007154  -0.0000891005  -0.0000812211   0.0000087491  -0.0000190633
       -0.0000151637   0.0000274376  -0.0000054274  -0.0000077528   0.0000035250
       -0.0000032445  -0.0000002043  -0.0000014670   0.0000014531  -0.0000003396
       -0.0000011917  -0.0000003530  -0.0000013050   0.0000003983  -0.0000001969
        0.0000016626   0.0000006257   0.0000009220   0.0000007863  -0.0000002847
        0.0000016569  -0.0000006098  -0.0000008438  -0.0000002903  -0.0000004904
        0.0000004692   0.0000003504   0.0000010986  -0.0000005925  -0.0000007176
        0.0000023303   0.0000039275  -0.0000010925   0.0000006676   0.0000040515
        0.0000008985  -0.0000012419  -0.0000009140  -0.0000005156  -0.0000012219
        0.0000007051   0.0000002505   0.0000012616   0.0000013232  -0.0000011315
        0.0000005760   0.0000005593  -0.0000026205  -0.0000013676   0.0000002746
       -0.0000008164  -0.0000014888   0.0000010701  -0.0000012354   0.0000011122
        0.0000001256   0.0000007313   0.0000014206   0.0000005091  -0.0000072469
        0.0000011907   0.0000044231   0.0000029574   0.0000017275   0.0000028165
        0.0000002188   0.0000033032  -0.0000109949   0.0000035634  -0.0000085406
        0.0008088546  -0.0000202593   0.0000842945  -0.0059479893   0.0005687723
       -0.0009968590
        0.0586005892  -0.1795998891  -0.1018579164  -0.0247177260   0.4350912770
        0.2602584286  -0.0392510497  -0.1853926884  -0.1180407397  -0.0636904143
        0.0131882792   0.0025634813   0.0023302570   0.0067842932  -0.0008426029
        0.0005017947  -0.0010213659  -0.0003108137   0.0001591786   0.0001967251
        0.0005093248   0.0000579792   0.0000008165  -0.0000640121   0.0000105258
        0.0000255189   0.0000169236   0.0000095271  -0.0000085526   0.0000001035
        0.0000107616  -0.0000059006  -0.0000036358  -0.0000421955  -0.0000275865
       -0.0000178288   0.0000038881   0.0000276751   0.0000109991   0.0000583474
       -0.0003310867  -0.0005477585   0.0003734569   0.0004162366   0.0011452544
       -0.0001902727   0.0000117232  -0.0000395748   0.0000094786  -0.0000657538
       -0.0000537503  -0.0000311977  -0.0000522755  -0.0000229306   0.0001486553
       -0.0000164997  -0.0000066357  -0.0001662728   0.0000157645  -0.0000136771
        0.0000329686   0.0000618215   0.0000192723  -0.0000020914  -0.0000234852
        0.0000040266   0.0000131203   0.0000114064   0.0000002403  -0.0000099215
        0.0000071238  -0.0000017397   0.0000047302   0.0000063125   0.0000002228
        0.0000038535  -0.0000020605   0.0000031209  -0.0000021200  -0.0000000048
       -0.0000003666   0.0000088364   0.0000070993   0.0000005611  -0.0000072639
       -0.0000068441   0.0000002976   0.0000010040   0.0000003712  -0.0000000704
       -0.0000020644  -0.0000020424   0.0000000094   0.0000051483   0.0000011599
        0.0000034309  -0.0000023377   0.0000012897  -0.0000026056  -0.0000028835
       -0.0000006705  -0.0000009518   0.0000029505   0.0000004768   0.0000016051
        0.0000006335   0.0000016367  -0.0000021299  -0.0000045196   0.0000005572
       -0.0000011614  -0.0000007699  -0.0000125802  -0.0000020357  -0.0000133930
        0.0000208974  -0.0000025073  -0.0000236439  -0.0000192121   0.0000011058
        0.0000032048   0.0000052185  -0.0000001538  -0.0000078220  -0.0000069475
       -0.0000005819   0.0000090040  -0.0000087490   0.0000017119  -0.0000043658
        0.0000052279  -0.0000027273   0.0000006086   0.0000034919   0.0000034381
        0.0000070889  -0.0000061698   0.0000015070   0.0000009131   0.0000077879
        0.0000041430  -0.0000062296   0.0000011391  -0.0000037120   0.0000046593
       -0.0000024008   0.0000015050  -0.0000050778   0.0000001243  -0.0000036057
       -0.0000002757   0.0000014642   0.0000002378  -0.0000012338  -0.0000006484
       -0.0000014199  -0.0000001264  -0.0000030123  -0.0000020215  -0.0000050458
        0.0000015349  -0.0000040025  -0.0000042681   0.0000008406  -0.0000003829
        0.0000126999  -0.0000106702   0.0000079504  -0.0000086624   0.0000220297
       -0.0000019390   0.0000577831  -0.0000770245  -0.0000129314  -0.0000860805
        0.0000499736   0.0000222772   0.0000631062   0.0000804367   0.0000606400
       -0.0023156988  -0.0005410747  -0.0005797229   0.0023578083  -0.0405229626
       -0.0284464052   0.0628800224   0.0177868849   0.0203188638   0.0103328485
       -0.0151127408  -0.0124562515  -0.0001350207  -0.0402237879  -0.0044971989
       -0.0073583263  -0.0143295579  -0.0137640819  -0.0000038846   0.0000035539
        0.0000012084   0.0000001179  -0.0000096736  -0.0000061638  -0.0000018138
       -0.0000105302  -0.0000096539   0.0000073316   0.0000023866   0.0000052084
       -0.0000081805   0.0000630015   0.0000779548   0.0000483992  -0.0000354169
       -0.0000360810  -0.0000239497   0.0000017983   0.0000036358   0.0000003242
        0.0000059933  -0.0000009395   0.0000013338  -0.0000027155   0.0000003310
        0.0000003499   0.0000002201   0.0000002670  -0.0000010726  -0.0000010307
       -0.0000008315  -0.0000001210  -0.0000000051  -0.0000005294  -0.0000006872
       -0.0000011842   0.0000000354   0.0000006652  -0.0000006498   0.0000009588
        0.0000001017   0.0000002797  -0.0000009863   0.0000010655  -0.0000000608
       -0.0000007701  -0.0000047427   0.0000009772  -0.0000008115  -0.0000030830
        0.0000003778   0.0000007065   0.0000016983   0.0000006338   0.0000022274
       -0.0000009080  -0.0000000999  -0.0000009511  -0.0000000904   0.0000005395
        0.0000000854   0.0000003043   0.0000014303   0.0000011489   0.0000007486
        0.0000016966   0.0000018466   0.0000005871  -0.0000014369  -0.0000001058
        0.0000011728  -0.0000008695  -0.0000001747  -0.0000006261   0.0000068863
       -0.0000027510   0.0000032375  -0.0000074888  -0.0000019961  -0.0000109339
       -0.0000020817  -0.0000017354   0.0000076845   0.0000068026   0.0000146232
       -0.0001027163  -0.0003997171  -0.0001665162   0.0001086267   0.0039660119
       -0.0032273395
        0.0353992344  -0.0952441583  -0.1231809130   0.0390626857   0.2602584286
        0.3347097971  -0.0424965359  -0.1243241647  -0.1544063964  -0.0553559525
        0.0069283958   0.0018838149   0.0004042993  -0.0010000742   0.0072322625
        0.0005689036  -0.0001338213  -0.0006565642   0.0000922501   0.0004501657
       -0.0000405810   0.0000365597  -0.0000499268   0.0000428968  -0.0000006654
        0.0000078620   0.0000165638  -0.0000011031  -0.0000017613  -0.0000092688
        0.0000141972  -0.0000060963  -0.0000019262  -0.0000243541  -0.0000119269
       -0.0000179157   0.0000038296   0.0000196475   0.0000145360   0.0000918018
       -0.0005495674  -0.0000940102   0.0002517358   0.0011281370  -0.0000026368
       -0.0001436266  -0.0000429594   0.0000035539   0.0000017498  -0.0000437356
       -0.0000360969  -0.0000203699  -0.0000310298  -0.0000213404   0.0000990522
       -0.0000172917  -0.0000109043  -0.0001133916   0.0000042554  -0.0000054089
        0.0000237149   0.0000428864   0.0000130804  -0.0000010279  -0.0000159966
        0.0000031700   0.0000095612   0.0000072146   0.0000005780  -0.0000053963
        0.0000063467  -0.0000013205   0.0000045427   0.0000058766   0.0000000233
       -0.0000008234  -0.0000015494  -0.0000004209  -0.0000015206  -0.0000036066
        0.0000029382   0.0000042388   0.0000036154   0.0000003123  -0.0000000503
       -0.0000019270   0.0000017058  -0.0000016107  -0.0000018236  -0.0000001390
        0.0000022237   0.0000016430   0.0000005433  -0.0000025318  -0.0000000864
       -0.0000017145  -0.0000001789  -0.0000010997   0.0000011977  -0.0000000079
        0.0000021109  -0.0000011420  -0.0000000642   0.0000006418  -0.0000009275
       -0.0000028610  -0.0000008172  -0.0000025708  -0.0000021568  -0.0000013566
        0.0000014516  -0.0000005730  -0.0000069117  -0.0000014174  -0.0000099689
        0.0000127510  -0.0000015903  -0.0000149940  -0.0000128445   0.0000009837
        0.0000014161   0.0000058197  -0.0000000247  -0.0000060937  -0.0000038300
       -0.0000005386   0.0000059543  -0.0000060568   0.0000010512  -0.0000002456
        0.0000027545  -0.0000001941  -0.0000005727   0.0000009983   0.0000011513
        0.0000060300  -0.0000039451   0.0000014844  -0.0000019837   0.0000053023
        0.0000015140  -0.0000026304   0.0000000370  -0.0000021104   0.0000014313
        0.0000004475   0.0000011570  -0.0000002553  -0.0000000622  -0.0000002288
       -0.0000017290  -0.0000007103  -0.0000015833  -0.0000025709   0.0000015141
       -0.0000008512   0.0000013166  -0.0000021793  -0.0000005283  -0.0000024372
        0.0000006060  -0.0000022408  -0.0000043551  -0.0000005872  -0.0000015082
        0.0000071532  -0.0000080445   0.0000055423  -0.0000062377   0.0000158445
       -0.0000009265   0.0000363395  -0.0000494073  -0.0000097082  -0.0000614751
        0.0000399094   0.0000092502   0.0000386963   0.0000431125   0.0000587419
       -0.0019758504  -0.0005343155  -0.0006911371   0.0029063088  -0.0283683396
       -0.0287610238   0.0471961550   0.0155806459   0.0191499803   0.0090690141
       -0.0144238572  -0.0095703594  -0.0281931840  -0.0045126387  -0.0414661701
       -0.0055390701  -0.0118365646  -0.0089787948  -0.0000025167   0.0000011658
        0.0000027142   0.0000006872  -0.0000042802  -0.0000045676  -0.0000032081
       -0.0000082718  -0.0000038517   0.0000022377   0.0000048735   0.0000028066
        0.0000054538   0.0000540689   0.0000461910   0.0000405137  -0.0000352904
       -0.0000293320  -0.0000170923   0.0000011465   0.0000012429   0.0000004981
        0.0000046909  -0.0000011014   0.0000005135  -0.0000018821  -0.0000000185
        0.0000010005   0.0000000766   0.0000008091  -0.0000006533  -0.0000000146
       -0.0000011211  -0.0000003215  -0.0000003714  -0.0000002491   0.0000003127
       -0.0000008054   0.0000006909   0.0000006686  -0.0000002275   0.0000006477
        0.0000006589   0.0000003305  -0.0000003008   0.0000010125   0.0000004930
       -0.0000008106  -0.0000029983   0.0000003351  -0.0000006504  -0.0000024311
       -0.0000000076   0.0000002875   0.0000009100   0.0000005465   0.0000012256
       -0.0000005658   0.0000002947  -0.0000005902   0.0000002895   0.0000000834
        0.0000000009  -0.0000001232   0.0000008335   0.0000002782   0.0000006587
        0.0000017203   0.0000013169   0.0000005440  -0.0000012801  -0.0000003888
        0.0000009557  -0.0000001835  -0.0000001418  -0.0000001326   0.0000044802
       -0.0000022232   0.0000028880  -0.0000057129  -0.0000017153  -0.0000086049
        0.0000014423  -0.0000027526   0.0000038824   0.0000041809   0.0000126089
        0.0000235376  -0.0001415450  -0.0003564423  -0.0013905151  -0.0032027888
        0.0051592888
        0.0580719094  -0.0190303503  -0.0095767640  -0.1419456317  -0.0392510497
       -0.0424965359   0.6380078933  -0.0304898953   0.0306025423  -0.3086186585
       -0.0136595925  -0.0389139628  -0.0243422216  -0.0168597975  -0.0164052595
       -0.0037217890   0.0042889502   0.0030731589  -0.0006819270  -0.0009338429
       -0.0007742013  -0.0001505294   0.0002928423   0.0002273487  -0.0001947828
       -0.0001193895  -0.0001087154  -0.0001077686  -0.0000553416  -0.0000476968
        0.0000601974  -0.0000435161  -0.0000309987  -0.0000010178  -0.0000057854
       -0.0000047914   0.0003180654   0.0002553374   0.0002035502  -0.0000419021
        0.0013218098   0.0010903128  -0.0022626462  -0.0025903567  -0.0023215492
        0.0006258419  -0.0000768664  -0.0000118567  -0.0000957721   0.0002348762
        0.0001971326   0.0001473455   0.0001522613   0.0000802992  -0.0004963410
        0.0000349199   0.0000024108   0.0005309223  -0.0000153086   0.0000349092
       -0.0001285304  -0.0002111578  -0.0000595942   0.0000178016   0.0000615873
       -0.0000072884  -0.0000462747  -0.0000260560  -0.0000015058   0.0000303091
       -0.0000238695   0.0000070680  -0.0000125216  -0.0000170499   0.0000002945
        0.0000019142   0.0000118442  -0.0000025862   0.0000018700   0.0000076464
       -0.0000100298  -0.0000238098  -0.0000226243   0.0000003857   0.0000107360
        0.0000184292  -0.0000083326   0.0000063703   0.0000046273   0.0000007590
       -0.0000059423  -0.0000053113  -0.0000014974   0.0000011611  -0.0000023568