68
 energy: -106.936365068180 gnorm: 0.000063056843 xtb: 6.7.1 (edcfbbe)
O           -5.34812731681260        0.49859584024475        2.01088344806500
P           -4.36401584640557        0.14248174005593        0.98249903162067
C           -5.08445941547231       -0.03077604184329       -0.68188300702311
C           -6.42785182011051       -0.37363080447286       -0.74568121716461
C           -7.04509221481085       -0.53250017981328       -1.97304045466996
C           -6.31861467646704       -0.34673952032912       -3.13823625586193
C           -4.97917809994357        0.00409637045370       -3.07563477888267
C           -4.35856156654984        0.16347354301015       -1.84964703415611
C           -3.50397660788799       -1.43339851377006        1.30826706365695
C           -2.90010911730844       -2.19334131204849        0.31461023803977
C           -2.21310574051438       -3.34531274150939        0.65357932205795
C           -2.13524933233105       -3.74477183052987        1.97850096987136
C           -2.75246311531028       -2.99712294878646        2.96824607499848
C           -3.43400823614317       -1.84086715086185        2.63289243626256
C           -3.02201581641432        1.36109004808282        0.79293952085145
C           -3.34221850559215        2.67155396033614        1.06251628512744
C           -2.35911589580843        3.72892118420995        0.93054439686094
C           -1.10727483481534        3.36815346243286        0.53189559015167
N            0.02464558713439        4.14855083222448        0.33444842901173
C            1.07548110189960        3.36849013812047       -0.04293396349359
C            2.38167830421289        3.68519047493039       -0.32501236094331
C            3.24475538266047        2.64119049795462       -0.66932725889759
C            2.78573155246499        1.29473300613850       -0.72500053975886
P            4.05697322955497        0.07697399212059       -1.19229221749133
O            4.71210203489369        0.37210371983625       -2.47273232992638
C            3.22429258042831       -1.54182169678376       -1.15500221257935
C            2.70465687823839       -2.09003561147846        0.01160063676409
C            2.04112346733903       -3.30214903843835       -0.03722804429310
C            1.90416864926100       -3.97193159711731       -1.24367700474151
C            2.43566246344671       -3.43338639804004       -2.40408927889128
C            3.09412750456789       -2.21699537901054       -2.35969544898949
C            5.20461441577058        0.06492911457985        0.22274420171113
C            4.80428962147032        0.34271094481152        1.52286414005655
C            5.73007663152202        0.29221020961202        2.54919860763093
C            7.04999833926939       -0.03479038556314        2.28081872792665
C            7.45079133150256       -0.30580414077525        0.98245653635657
C            6.52757884345099       -0.25548746022393       -0.04623760988233
C            1.48980996125003        0.95375809884413       -0.47229375643186
C            0.58386322348638        1.99062956532767       -0.10790763863412
C           -0.75212436121379        2.01218892389432        0.25031610400907
C           -1.74059683095373        0.98172935845054        0.38483816410153
H           -6.97361929206674       -0.50067466486963        0.17838427923170
H           -8.09068905589447       -0.79890390069491       -2.02339954751719
H           -6.79791456405531       -0.46912749253593       -4.09853179008605
H           -4.41777200447490        0.15682741615441       -3.98616537643265
H           -3.31748412401953        0.45181660842596       -1.79691328452937
H           -2.97587276980546       -1.88968231078935       -0.72014372621801
H           -1.73679325864874       -3.93316654115476       -0.11807939185317
H           -1.59813889817232       -4.64555008485817        2.23822045497967
H           -2.69952060151756       -3.31500856298862        3.99931505077254
H           -3.92710685308260       -1.24123114500501        3.38464226758594
H           -4.34017639830332        2.91490071359288        1.39147772062351
H           -2.63412403900643        4.74860054193811        1.14562890113356
H            0.06153456476292        5.14564176740202        0.46584452423823
H            2.73778198649226        4.70318108369501       -0.28230622964150
H            4.28048533446746        2.83396371594533       -0.90377636677308
H            2.82083951759239       -1.56841394955198        0.95064639945201
H            1.62769354027970       -3.72573874327385        0.86679759773827
H            1.38547044173011       -4.91911183006023       -1.27669532882549
H            2.33362161435698       -3.95994721233168       -3.34171857076536
H            3.51604353178733       -1.77206959564750       -3.24943471913441
H            3.77668712071254        0.61223597304226        1.72518231647458
H            5.42317732351630        0.51123833457259        3.56179322722347
H            7.76873597066427       -0.07220031212925        3.08632153339997
H            8.48126757340498       -0.55390994299791        0.77444494512392
H            6.81517572965617       -0.45000914723882       -1.06980246127507
H            1.14398062490627       -0.06639096353687       -0.52747970418510
H           -1.47907153714730       -0.04746338390703        0.20476409866151
