$hessian                                                                        
        0.3433078613  -0.1376434530  -0.2629051467  -0.3264948651   0.1251649758
        0.2374377336   0.0045569573  -0.0013235745   0.0017059760  -0.0007562145
       -0.0009150239   0.0014478487   0.0010308889   0.0002633743  -0.0000176317
        0.0001863185   0.0000612665  -0.0004518057  -0.0006161585  -0.0001516959
       -0.0004168282   0.0004039723   0.0009376753   0.0008813768  -0.0056422051
        0.0060287930   0.0099920535  -0.0019944560   0.0031884023  -0.0023435070
       -0.0001957931   0.0003486023   0.0008027222   0.0001052673  -0.0003820072
        0.0000414040   0.0002141932  -0.0004068323   0.0002815996   0.0002475418
       -0.0000549578   0.0024469756  -0.0137506140   0.0076449048   0.0142494135
       -0.0004208554   0.0032006076   0.0005733143  -0.0012550720   0.0003545559
       -0.0006711975   0.0014777037  -0.0000060204  -0.0004320340  -0.0003663694
       -0.0007316911   0.0002154494  -0.0004557440   0.0002679185   0.0001186801
        0.0008057381  -0.0004140249  -0.0001791519  -0.0003695110   0.0008514001
        0.0001214266   0.0000204303  -0.0000807263  -0.0000480842   0.0007334580
       -0.0005399539  -0.0001662537  -0.0003038735   0.0001560014   0.0002318919
       -0.0001605741   0.0000063184   0.0000042615   0.0000032738   0.0000492662
       -0.0000047855  -0.0000454771  -0.0000039122   0.0000288170  -0.0000248212
       -0.0000289567  -0.0000358141  -0.0000300604  -0.0000759670  -0.0000218185
        0.0000346426   0.0000651761  -0.0000513575  -0.0000262594   0.0000870783
        0.0000688559  -0.0000134502   0.0000336840  -0.0000113259   0.0000114915
        0.0000077781   0.0000510701  -0.0000099392   0.0000102918   0.0000215877
        0.0000421968  -0.0000197947   0.0000044706  -0.0000678837   0.0000130622
       -0.0001253736  -0.0006689492   0.0004140647   0.0001860710   0.0006504459
       -0.0011351850  -0.0003502659  -0.0019046250   0.0008692436  -0.0002180320
       -0.0011859232  -0.0053395038   0.0009335891   0.0015662402   0.0005206015
       -0.0013921206   0.0002322978   0.0000952866   0.0001466408   0.0001323556
        0.0000254392  -0.0002041275   0.0001475328   0.0000017323  -0.0000157451
        0.0006714137   0.0000875706  -0.0007917915   0.0001847805  -0.0003225322
       -0.0005589307  -0.0002226285   0.0003314542  -0.0001340479  -0.0000231670
       -0.0000100783  -0.0001007023  -0.0000294696   0.0000272918  -0.0001700651
       -0.0003188631   0.0000173031  -0.0007263132  -0.0000303469  -0.0008916769
        0.0004593377  -0.0000133988  -0.0002402531  -0.0000206053  -0.0000414328
        0.0000776967   0.0000191130  -0.0000389634  -0.0000754343   0.0000085264
       -0.0000393373  -0.0000133095  -0.0000245530   0.0000197325  -0.0000020636
        0.0000266617   0.0000285804  -0.0000112834   0.0000159080   0.0000239314
        0.0000171659   0.0000017321   0.0000085039   0.0000185630   0.0000431296
       -0.0000056826  -0.0000169142   0.0000016920  -0.0000300578   0.0000111339
        0.0000521057   0.0000071191  -0.0000062707  -0.0000325842  -0.0000286228
        0.0000074361  -0.0000349129  -0.0000460844   0.0000090629  -0.0000010889
        0.0000081806  -0.0000040702  -0.0000088697   0.0000925119  -0.0000391432
       -0.0000228054   0.0006721877  -0.0003858691   0.0000682412
       -0.1376434530   0.1046966450   0.1201370040   0.1240272616  -0.1114801368
       -0.1086634606   0.0044987221   0.0035860690  -0.0040663724   0.0009727549
        0.0006631977   0.0003074847   0.0004063558  -0.0002699636   0.0002011827
       -0.0000381234   0.0000157478   0.0002271475   0.0006359552  -0.0002415048
       -0.0000568185  -0.0009408651  -0.0002965296  -0.0019924838   0.0156517302
       -0.0022902712  -0.0129776909   0.0020124905  -0.0025652072   0.0031895127
       -0.0004449238  -0.0015428084  -0.0001715859  -0.0000769043   0.0002415715
       -0.0004187677  -0.0009894694   0.0000588337  -0.0010110426   0.0003599541
        0.0007531821  -0.0024448875  -0.0068064963   0.0091915701   0.0068152885
        0.0010841294   0.0004124894   0.0005722373  -0.0009918353   0.0012980351
        0.0003723753   0.0011471460  -0.0007111347  -0.0004228828  -0.0002856020
       -0.0007097640   0.0000389233  -0.0008002036   0.0000453873   0.0002338922
        0.0010707461  -0.0005094568  -0.0002549602  -0.0004232423   0.0009378615
        0.0001461407   0.0001776777   0.0001105316  -0.0000664611   0.0001450853
       -0.0007162885  -0.0000430880  -0.0000761010   0.0002388741   0.0000527111
       -0.0000534641   0.0000304737   0.0000001286   0.0000247014   0.0000312478
       -0.0000085732   0.0000029139  -0.0000616523   0.0000979545   0.0000306125
       -0.0000221733  -0.0000184930  -0.0000060227  -0.0000244125   0.0000327704
        0.0000418344   0.0000592015  -0.0000455214   0.0000314159   0.0001143931
        0.0000549905  -0.0000237795   0.0000508082  -0.0000087027   0.0000166916
        0.0000018023   0.0000216370  -0.0000178035   0.0000170550  -0.0000066591
        0.0000082648  -0.0000102565   0.0000039924  -0.0000473759   0.0000223990
       -0.0000527458  -0.0009609180   0.0005333871   0.0002456670   0.0013475431
       -0.0008515182  -0.0004013776  -0.0020888093   0.0002852278   0.0002291373
        0.0002313524  -0.0013370632  -0.0005057314   0.0000481145  -0.0002276173
       -0.0001949028  -0.0000509394  -0.0000277203   0.0000131072  -0.0000477816
        0.0000628021  -0.0000544673  -0.0000570319  -0.0000917226  -0.0001874679
       -0.0002591685   0.0000362908   0.0000840419   0.0003464054   0.0002709155
        0.0002659519   0.0001656269  -0.0004910985   0.0000273681   0.0002646783
       -0.0000038553   0.0000948359   0.0000203135   0.0000094300   0.0001278721
        0.0005582846  -0.0007145125   0.0000427719  -0.0015747832   0.0007955245
        0.0003128249   0.0000319137   0.0001805003  -0.0000652969   0.0000129719
        0.0001149360  -0.0000119033   0.0000075228   0.0000007994  -0.0000034116
       -0.0000159032   0.0000141702  -0.0000059589  -0.0000171746  -0.0000087495
        0.0000232119  -0.0000038132   0.0000500433  -0.0000880041   0.0000101151
        0.0000778814   0.0000144616   0.0000050070   0.0000128391   0.0000040335
       -0.0000000731  -0.0000035246  -0.0000386729  -0.0000191302  -0.0000061817
        0.0000267178   0.0000108984  -0.0000110035  -0.0000034116   0.0000109136
        0.0000006460  -0.0000085811   0.0000043002  -0.0000041122   0.0000113935
        0.0000031723  -0.0000081241  -0.0000205310  -0.0000045786   0.0000476106
        0.0000282601  -0.0006598071   0.0001679834   0.0002638855
       -0.2629051467   0.1201370040   0.2717576550   0.2378767618  -0.1081223425
       -0.2621605283   0.0178489630  -0.0083784210  -0.0123614273   0.0034546042
        0.0007190148   0.0002295565   0.0006597597   0.0011049074   0.0004275208
        0.0004576734   0.0001494204   0.0004718431  -0.0000483726   0.0010734392
       -0.0013868013  -0.0036189733  -0.0022925966  -0.0036894830   0.0000753706
       -0.0017846108   0.0042457359   0.0009359957  -0.0001460797   0.0005732879
       -0.0002902457   0.0002004662  -0.0002531714  -0.0001022717   0.0003835776
        0.0001223134  -0.0001970993  -0.0003192004   0.0009979136   0.0003164285
       -0.0013010869  -0.0010589478   0.0059958394  -0.0024604325   0.0008464054
        0.0005606795  -0.0018817713   0.0003138205  -0.0002925872   0.0000529727
       -0.0002079494  -0.0000351465  -0.0002437098  -0.0001372204  -0.0002991157
        0.0000966013   0.0002861363   0.0003571119  -0.0001884470  -0.0002151731
       -0.0003373737   0.0001793609   0.0000971511   0.0002856558  -0.0002322956
       -0.0000496835  -0.0000962527  -0.0000501441   0.0000571294  -0.0003919057
        0.0002644564  -0.0001172782   0.0001534454  -0.0001057369  -0.0000052469
        0.0000821042  -0.0000055012   0.0000183904  -0.0000188085  -0.0000452467
       -0.0000081050   0.0000326204   0.0000366063  -0.0000678098   0.0000140553
        0.0000148703   0.0000111175   0.0000180065   0.0000154644   0.0000081477
       -0.0000025727  -0.0000254758   0.0000242915   0.0000129868  -0.0000313143
       -0.0000168700   0.0000427978  -0.0000297028   0.0000171569  -0.0000091365
       -0.0000119272  -0.0000371676   0.0000034237  -0.0000041670  -0.0000123660
       -0.0000189736   0.0000076559   0.0000051100   0.0000309542  -0.0000089752
        0.0000662526   0.0002690145  -0.0001464618  -0.0000185018  -0.0001459446
        0.0004136022   0.0001038183   0.0003185768  -0.0005201050  -0.0001530712
        0.0021164934   0.0021488278  -0.0004377805  -0.0004034420  -0.0005204905
       -0.0007150790  -0.0001687472  -0.0000952524  -0.0000084900  -0.0000492650
       -0.0002687353  -0.0000651206  -0.0001627758   0.0000052682  -0.0006008032
       -0.0003247169  -0.0005868360   0.0003149325  -0.0003941860   0.0006567546
        0.0007115268  -0.0000628393  -0.0000056265   0.0001300403  -0.0000659788
        0.0001777332   0.0001552580   0.0000734681  -0.0001508761   0.0002335277
       -0.0005751030   0.0009954558   0.0017096069  -0.0004147736   0.0005567253
       -0.0000792898  -0.0000283079   0.0001642998  -0.0000596966   0.0000166911
       -0.0000012647  -0.0000940144   0.0000226035   0.0000285448   0.0000016016
       -0.0000084657   0.0000113430   0.0000102143   0.0000080990   0.0000200783
        0.0000009255  -0.0000117532  -0.0000179910   0.0000194472  -0.0000106978
       -0.0000082861  -0.0000143716  -0.0000098453   0.0000080215  -0.0000009142
       -0.0000093092   0.0000117762   0.0000031727   0.0000068577   0.0000068790
       -0.0000397077   0.0000041453   0.0000084465   0.0000387133   0.0000171318
       -0.0000026570   0.0000202262   0.0000188931  -0.0000020290   0.0000073435
       -0.0000124705   0.0000081522   0.0000081648  -0.0000480661   0.0000374374
       -0.0000311873  -0.0005165422   0.0003006329   0.0000578015
       -0.3264948651   0.1240272616   0.2378767618   0.5776169682  -0.0976161505
       -0.1862697019  -0.0541800110  -0.0019501304  -0.0362112983  -0.0122104532
       -0.0045446087  -0.0208339537  -0.0048401832  -0.0031644481  -0.0002367651
       -0.0018587081  -0.0004997610   0.0003264364   0.0018802796  -0.0010275574
        0.0042791783   0.0074226878   0.0007780436   0.0051577025  -0.0594903321
        0.0416981663  -0.0174613218  -0.0065464826   0.0099545302   0.0012307811
        0.0037894516   0.0032272433   0.0022285373  -0.0002958668   0.0006660375
       -0.0002747010   0.0045389893   0.0021187774   0.0007088085  -0.0009833462
        0.0020739239  -0.0088205572  -0.1003335140  -0.0614750299   0.0083509285
        0.0024437875  -0.0148319487  -0.0016430489   0.0045577675   0.0019698857
        0.0016573044  -0.0034520708  -0.0007178493   0.0010538321   0.0017933929
        0.0016982230  -0.0008847886  -0.0001465265  -0.0004086432   0.0003118694
       -0.0010637533   0.0003643308   0.0001560979   0.0005732092  -0.0014139845
       -0.0001600022  -0.0000779217   0.0001489063   0.0001475692  -0.0015427146
        0.0014549503   0.0004431998   0.0006480793  -0.0004200256  -0.0005942430
        0.0003723544  -0.0000420823  -0.0000303454   0.0000020395  -0.0001165522
        0.0000180771   0.0000732526   0.0000396460  -0.0000443912   0.0000260868
        0.0000708252   0.0001006312   0.0000697723   0.0001701576   0.0000039405
       -0.0001147750  -0.0001765730   0.0001484885   0.0000726385  -0.0002923409
       -0.0001685461   0.0000450156  -0.0000552466   0.0000228567  -0.0000593364
        0.0000287283  -0.0001101787   0.0000026108   0.0000138921  -0.0000573586
       -0.0000733029   0.0000459948  -0.0000730694   0.0001619805  -0.0000197928
        0.0002723029   0.0013185512  -0.0007518956  -0.0003394488  -0.0019305659
        0.0011220253   0.0006381514  -0.0005897131   0.0019616205   0.0006211852
       -0.0220520422  -0.0064584373   0.0042790131  -0.0031631540  -0.0000920779
        0.0008059278  -0.0005618630  -0.0003648919  -0.0009974214  -0.0002035724
        0.0005082253   0.0003920138  -0.0002386080   0.0002301855   0.0011461387
       -0.0016584175   0.0004895768   0.0016862600  -0.0012043627  -0.0010091388
        0.0002009649  -0.0000338509   0.0002529473  -0.0000862127  -0.0010868421
       -0.0006266659   0.0000060847   0.0000931193  -0.0001267748   0.0003222737
       -0.0009651326  -0.0012017123   0.0018776313  -0.0007261481   0.0026525093
       -0.0011973988   0.0002115152   0.0008243930  -0.0000551473   0.0001057320
       -0.0001486691  -0.0000135647   0.0000486400   0.0001703975  -0.0000469921
        0.0001524822   0.0000446209   0.0001008129  -0.0000389667   0.0000025468
       -0.0000751298  -0.0000373423   0.0000254667  -0.0000310186  -0.0000442856
       -0.0000688116  -0.0000069139  -0.0000163423  -0.0001037015  -0.0001064576
        0.0000237434   0.0000583042  -0.0000331604   0.0000227808   0.0000129737
       -0.0000946226   0.0000303750   0.0000140559   0.0000860030   0.0001174990
       -0.0000210052   0.0000720197   0.0001560450  -0.0000232526   0.0000410131
       -0.0000183712  -0.0000004247  -0.0000367142  -0.0001874087  -0.0000541619
        0.0000643505   0.0001503058   0.0009049736   0.0001593261
        0.1251649758  -0.1114801368  -0.1081223425  -0.0976161505   0.4021780232
        0.0857142478  -0.0073583540  -0.0414748415  -0.0208921194  -0.0053935351
       -0.0027978813  -0.0053672558  -0.0024736524   0.0051365759  -0.0011525531
       -0.0005774044  -0.0001751571  -0.0001891957  -0.0010719751   0.0057477479
       -0.0002633201   0.0022760674  -0.0007408367  -0.0012073551   0.0383675330
       -0.1202084571   0.0359658689   0.0094165925  -0.0156114724  -0.0038477483
        0.0032155309   0.0022777713  -0.0035793459   0.0005391218  -0.0011961919
        0.0006514243   0.0017582934   0.0034113620   0.0019349467   0.0027588111
       -0.0087493525   0.0169573065  -0.0502633235  -0.0943234737   0.0009652283
       -0.0174595641  -0.0243245174   0.0011834606   0.0091065320  -0.0038202227
       -0.0026528754  -0.0085442231   0.0033246051   0.0025011041   0.0031063680
        0.0029663131  -0.0005705366   0.0016773457   0.0000879349  -0.0004086066
       -0.0043878040   0.0024626541   0.0010714779   0.0019212108  -0.0045291896
       -0.0006269121   0.0000478651   0.0002880544   0.0001294034  -0.0009527331
        0.0027245576   0.0001174315   0.0004161080  -0.0008762997  -0.0002419504
        0.0003199918  -0.0001360895  -0.0000138209  -0.0000740453  -0.0001387746
       -0.0000079553   0.0000172423   0.0002414968  -0.0003078120  -0.0000900138
        0.0000744002   0.0000741555   0.0000515771   0.0001288170  -0.0000978903
       -0.0001748155  -0.0002305795   0.0002280591  -0.0000650800  -0.0005061067
       -0.0002153870   0.0001153973  -0.0001334948   0.0000537045  -0.0000913570
        0.0000441707  -0.0001061996   0.0000418853  -0.0000095838  -0.0000205761
       -0.0000619379   0.0000593764  -0.0000782066   0.0002036143  -0.0000520202
        0.0002583323   0.0031432015  -0.0024545453  -0.0007421887  -0.0051123125
        0.0034641812   0.0014642079   0.0078154117  -0.0017627831  -0.0020202992
       -0.0102374395   0.0083517910   0.0049765950   0.0006460480  -0.0013015823
        0.0006099907  -0.0000438052   0.0000356957  -0.0002030184   0.0003824548
       -0.0013066883   0.0002323193  -0.0000797845   0.0001561247   0.0002742385
        0.0004653919  -0.0015297608   0.0005867278  -0.0015046226   0.0002816744
        0.0001250033  -0.0000948577   0.0002109032   0.0004332884  -0.0010112787
       -0.0001019075  -0.0003509368   0.0000064959   0.0001170744  -0.0005156411
       -0.0014268064  -0.0001928220  -0.0013924986   0.0013860200  -0.0015453294
       -0.0010304854  -0.0005183995  -0.0006585617   0.0004596589   0.0000319787
       -0.0003945828  -0.0000648341  -0.0000157024   0.0000760240  -0.0000693137
        0.0001341458  -0.0000300532   0.0000776604   0.0000449932   0.0000505054
       -0.0000796537  -0.0000364306  -0.0001611277   0.0002622290  -0.0000594955
       -0.0002360802  -0.0000232879  -0.0000380062  -0.0001070795  -0.0000282002
       -0.0000036706   0.0000507039   0.0000727023  -0.0000114814   0.0000530420
       -0.0001065645   0.0000133478   0.0000490389   0.0000755692   0.0000552331
       -0.0000066770   0.0000561262   0.0000933287  -0.0000028967   0.0000233468
       -0.0000274147   0.0000096574  -0.0000067394  -0.0000514124  -0.0002477629
       -0.0000965716   0.0021887746  -0.0005053569  -0.0008356166
        0.2374377336  -0.1086634606  -0.2621605283  -0.1862697019   0.0857142478
        0.5248618340  -0.0426622072  -0.0190793278  -0.1342485536  -0.0188943966
       -0.0057638740  -0.0064331276  -0.0005407967  -0.0009440263   0.0028503142
       -0.0007128249  -0.0004363777  -0.0017868778   0.0046505607  -0.0000485180
       -0.0002374404   0.0024019239  -0.0020964275  -0.0231427221  -0.0107615165
        0.0317096283  -0.0495884380   0.0012812572  -0.0070649956   0.0070434850
        0.0023080017  -0.0033813850   0.0005812677   0.0001957489  -0.0002510055
       -0.0019119890   0.0000694475   0.0018162698  -0.0052686189  -0.0094720743
        0.0192138814  -0.0103902845   0.0093509852   0.0095418766  -0.0394727633
       -0.0014926349   0.0016301128  -0.0006314720  -0.0000820344  -0.0020586421
        0.0066052543   0.0019047195  -0.0007413954   0.0002104434  -0.0001548375
       -0.0005985780  -0.0014228780  -0.0009639510   0.0000474458   0.0006590404
        0.0011211603  -0.0004864712  -0.0004347093  -0.0006429526   0.0007797291
        0.0001683388   0.0001086687   0.0000629123  -0.0001673159   0.0004287256
       -0.0005383248   0.0002855033  -0.0001302155   0.0001756194  -0.0001553801
       -0.0001033660   0.0000659835  -0.0000368066   0.0000285215   0.0000633182
        0.0000464356  -0.0000422095  -0.0001252173   0.0001859666   0.0000042385
       -0.0000171991   0.0000041502  -0.0000295343   0.0000159650   0.0000318177
       -0.0000038406   0.0000233790  -0.0000569541  -0.0000216926   0.0000999914
        0.0000075085  -0.0000893533   0.0000467817  -0.0000184039   0.0000386090
        0.0000045664   0.0000494545  -0.0000106949  -0.0000023408   0.0000010046
        0.0000103575  -0.0000085779   0.0000114317  -0.0000331546   0.0000045906
       -0.0000858527  -0.0006018609   0.0005450503   0.0000421390   0.0013349489
       -0.0001867530   0.0000167637   0.0007633885   0.0005092067   0.0030178320
        0.0059760761   0.0018271624  -0.0020267522   0.0018942047   0.0013911263
        0.0003709185   0.0005890790   0.0002160564   0.0001895021   0.0001969337
        0.0004176683   0.0002273106  -0.0003323811  -0.0001369375  -0.0000716874
        0.0000395076   0.0006311933   0.0009033405   0.0010316419  -0.0012852230
       -0.0017076905   0.0007865780  -0.0009271230  -0.0001622531   0.0002277290
       -0.0003643238  -0.0001419186  -0.0005674901   0.0009268151  -0.0006056778
        0.0006406030  -0.0003848613  -0.0030530321  -0.0003480433  -0.0013767936
       -0.0023360054  -0.0001466771  -0.0001843877  -0.0001647526   0.0000329566
        0.0000510705   0.0001473939  -0.0000059778  -0.0000232573  -0.0000206392
       -0.0000419767  -0.0000328436   0.0000273094  -0.0000342497  -0.0000391413
       -0.0000140371   0.0000085296   0.0000707637  -0.0001016270   0.0000030877
        0.0000348551   0.0000410447   0.0000111239  -0.0000177463  -0.0000372667
        0.0000226905  -0.0000159148  -0.0000187482   0.0000224486  -0.0000309528
        0.0000446745  -0.0000164636  -0.0000188255  -0.0000707954  -0.0000258211
        0.0000020566  -0.0000291967  -0.0000294174  -0.0000017262  -0.0000338687
        0.0000160393  -0.0000112819  -0.0000041236   0.0000872689  -0.0000066187
        0.0001360745   0.0002388538  -0.0002884677  -0.0005163653
        0.0045569573   0.0044987221   0.0178489630  -0.0541800110  -0.0073583540
       -0.0426622072   0.5862330569   0.1074601507  -0.0644872432  -0.3043647169
       -0.0617244567   0.0134203132  -0.0230816586  -0.0169797655  -0.0833070074
       -0.0498024808  -0.0075431912   0.0255658390   0.0504612721   0.0170895576
        0.0393145844  -0.1672459674  -0.0214384681   0.0865711993   0.0005774260
       -0.0005534564  -0.0047211463   0.0002007472  -0.0005663532  -0.0007910608
       -0.0000141931  -0.0002223181  -0.0001008104   0.0000208374  -0.0000754778
        0.0000926770   0.0001790171  -0.0000053342  -0.0003572657  -0.0006855949
        0.0009169322   0.0000457177  -0.0042175553  -0.0022834893  -0.0086044789
       -0.0011929157   0.0003505937  -0.0000224066  -0.0000464057  -0.0002377965
        0.0006312342   0.0003717035   0.0003935416  -0.0000394745  -0.0005105198
       -0.0002344134   0.0000255572   0.0003035351  -0.0000257672  -0.0001848965
       -0.0001501963   0.0001042587   0.0000310601   0.0001363359  -0.0000706170
       -0.0000442170   0.0000856783   0.0000804666  -0.0000444785   0.0001297065
       -0.0000785754  -0.0000194080  -0.0000654658   0.0000242350   0.0000369247
       -0.0000304513   0.0000016162   0.0000012376  -0.0000056225   0.0000089490
        0.0000044073  -0.0000102793  -0.0000100234   0.0000110270  -0.0000046844
       -0.0000120678  -0.0000054862  -0.0000069847  -0.0000137122  -0.0000018396
        0.0000053128   0.0000085753  -0.0000179442  -0.0000135914   0.0000254565
        0.0000142353  -0.0000047948  -0.0000022642  -0.0000058786   0.0000028186
       -0.0000043844   0.0000049463  -0.0000001779  -0.0000027454   0.0000046768
        0.0000057753  -0.0000044927   0.0000080548  -0.0000213418  -0.0000003177
       -0.0000263900  -0.0001710319  -0.0000157983   0.0000160478   0.0002376788
       -0.0001913136   0.0000629842  -0.0001539709  -0.0002911296   0.0010678659
        0.0013011677  -0.0006511092   0.0000424427  -0.0190373001  -0.0044412488
        0.0026747242   0.0002867475  -0.0023972417  -0.0025372992  -0.0004634857
        0.0000646640   0.0005833453   0.0008148948  -0.0021907056  -0.0024296000
       -0.0195122281  -0.0019784818   0.0232426381  -0.0005971923   0.0006328181
       -0.0001962948   0.0000280880  -0.0000549092   0.0000310155   0.0000362453
       -0.0000061019   0.0000212370  -0.0000581602   0.0000890984  -0.0000411006
       -0.0001652805   0.0000854081  -0.0000533461  -0.0000070255  -0.0001172603
       -0.0002650313  -0.0000287657  -0.0000933124   0.0000381379  -0.0000023879
        0.0000187938  -0.0000057329  -0.0000107964  -0.0000205742   0.0000070030
       -0.0000331878  -0.0000065508  -0.0000020067   0.0000033346  -0.0000014222
        0.0000057428   0.0000034886  -0.0000014303   0.0000016363   0.0000028482
        0.0000075174   0.0000016658  -0.0000020718   0.0000119986   0.0000108224
       -0.0000052447  -0.0000063586   0.0000057779   0.0000045038  -0.0000039031
        0.0000053428  -0.0000048946  -0.0000005240  -0.0000094924  -0.0000134079
        0.0000023878  -0.0000097160  -0.0000204993   0.0000029709  -0.0000110494
        0.0000002307   0.0000015632   0.0000073974   0.0000228413  -0.0000027474
        0.0000041408  -0.0000697085   0.0000396895  -0.0004583137
       -0.0013235745   0.0035860690  -0.0083784210  -0.0019501304  -0.0414748415
       -0.0190793278   0.1074601507   0.1380004735   0.0375462048  -0.0689721831
       -0.0623390646  -0.0036422850  -0.0103745994  -0.0009138200  -0.0195293949
       -0.0075217835  -0.0078212883   0.0061245093   0.0092932086   0.0065792562
        0.0008908965  -0.0144106900  -0.0482591500  -0.0024217664   0.0041551699
        0.0047502042   0.0104446489  -0.0000038404   0.0004040665   0.0009940247
       -0.0007266784   0.0001405778   0.0000099439  -0.0000728467   0.0002070805
        0.0000956990  -0.0006183460  -0.0007342281   0.0006813951   0.0022449127
       -0.0025471696  -0.0003073444  -0.0078047399   0.0017789030  -0.0073855061
       -0.0002582349   0.0003411951  -0.0000388965  -0.0017805092  -0.0004265466
        0.0014433803   0.0023291736  -0.0007247002  -0.0005837554  -0.0009206195
       -0.0007035961   0.0000438604  -0.0001357104   0.0001600265   0.0000167480
        0.0006071643  -0.0002381408  -0.0001512584  -0.0000608012   0.0009056402
        0.0000740918  -0.0002251560  -0.0002759265   0.0000056509   0.0002380113
       -0.0006118577  -0.0000351652  -0.0000772319   0.0001583030   0.0000278419
       -0.0000820248   0.0000553756  -0.0000017809   0.0000084700   0.0000274510
        0.0000176815  -0.0000098466  -0.0000623554   0.0000693596   0.0000144500
       -0.0000200350  -0.0000146281  -0.0000114158  -0.0000285291   0.0000168476
        0.0000387120   0.0000411335  -0.0000645937  -0.0000017760   0.0001359523
        0.0000373909  -0.0000280251   0.0000215727   0.0000017707   0.0000234324
       -0.0000154801   0.0000293618  -0.0000035647  -0.0000054264   0.0000044630
        0.0000123768  -0.0000154594   0.0000258312  -0.0000339104   0.0000009361
       -0.0000602311  -0.0003355500   0.0003014150   0.0000523652   0.0007044998
       -0.0006915557  -0.0001257019  -0.0013251135   0.0006512086   0.0010444095
        0.0017765335  -0.0022923219  -0.0012073846  -0.0015731319  -0.0004376989
        0.0008375340  -0.0022277057   0.0071110102  -0.0022351673   0.0001507222
       -0.0006781902   0.0003540514  -0.0021212915   0.0072674769  -0.0021760195
       -0.0048046088  -0.0011958433   0.0063239643   0.0006020035  -0.0002623719
        0.0004696319   0.0000746227  -0.0001371015  -0.0000476524   0.0001886005
        0.0000118012   0.0000688348   0.0001118543  -0.0003346361   0.0002292629
        0.0002259739   0.0002885561   0.0000537617  -0.0001668329   0.0002279356
       -0.0003487095  -0.0000667416  -0.0000936366  -0.0000087965   0.0000289179
        0.0000831718  -0.0000033649  -0.0000052920  -0.0000426551   0.0000084412
       -0.0000848000  -0.0000081184  -0.0000070394  -0.0000085492  -0.0000122374
        0.0000134450   0.0000101890   0.0000364855  -0.0000546424   0.0000155570
        0.0000520415   0.0000056033   0.0000095394   0.0000312237   0.0000083000
        0.0000002398  -0.0000110565  -0.0000065489   0.0000146589  -0.0000137421
        0.0000163769  -0.0000082042  -0.0000120784  -0.0000254474  -0.0000232266
        0.0000017955  -0.0000159003  -0.0000328317   0.0000026219  -0.0000128453
        0.0000028868   0.0000030434   0.0000118082   0.0000402029   0.0000679759
        0.0000239045  -0.0001901158   0.0000088801  -0.0001537217
        0.0017059760  -0.0040663724  -0.0123614273  -0.0362112983  -0.0208921194
       -0.1342485536  -0.0644872432   0.0375462048   0.5412182241  -0.0369604670
       -0.0161423305  -0.0892219950  -0.0288198719  -0.0057318204   0.0149978324
        0.0261284502   0.0067442992  -0.0075878968  -0.0170768924  -0.0132086757
       -0.0674225863   0.1394710267   0.0125153591  -0.2382824083  -0.0036924863
       -0.0000011121  -0.0048569384   0.0000009374   0.0000725128  -0.0008878136
        0.0002861053   0.0001750692  -0.0001421118   0.0000758779  -0.0001883950
       -0.0000044639   0.0002837787   0.0003962243  -0.0001407378  -0.0011681842
        0.0007934590   0.0001697753   0.0003327048  -0.0011615694   0.0033116932
       -0.0004602111   0.0011008185   0.0000060218   0.0008595064   0.0003916359
       -0.0006941791  -0.0009864464   0.0007105508   0.0002355936  -0.0000015896
        0.0003457230   0.0000982699   0.0008195673   0.0000811612  -0.0003289196
       -0.0009151577   0.0004091256   0.0002374687   0.0004421026  -0.0006828954
       -0.0001507171   0.0000558050   0.0000497344  -0.0000067333  -0.0001659623
        0.0003075501   0.0000359486   0.0000481544  -0.0000672034  -0.0000202961
        0.0000434515  -0.0000346091   0.0000006428  -0.0000006817  -0.0000057525
       -0.0000107996   0.0000058776   0.0000214623  -0.0000275296  -0.0000058776
        0.0000002330   0.0000034732   0.0000085682   0.0000095062  -0.0000182404
       -0.0000088336  -0.0000125787   0.0000206355   0.0000036801  -0.0000535397
       -0.0000088543   0.0000156605  -0.0000158887  -0.0000106558  -0.0000081928
        0.0000004460  -0.0000236169   0.0000064962  -0.0000010115   0.0000057799
       -0.0000016721   0.0000065936  -0.0000056183   0.0000051133  -0.0000003920
        0.0000263514   0.0003046909  -0.0004132763  -0.0001103822  -0.0007574538
        0.0002028986   0.0003279404   0.0008980165  -0.0003900347   0.0001241860
       -0.0007646549  -0.0001712263  -0.0007166360   0.0231090330   0.0057019670
        0.0019697084  -0.0026633909  -0.0022597412  -0.0043470320   0.0005803641
        0.0002929981   0.0007289999  -0.0020342745  -0.0022395469  -0.0047534815
        0.0016957102   0.0003117131   0.0015302136   0.0000817665  -0.0004389731
        0.0008931403  -0.0000355914   0.0000316356   0.0000768844  -0.0000904051
       -0.0000028817  -0.0000113461   0.0000030796   0.0001011051  -0.0000607582
       -0.0001886258  -0.0002229034   0.0003137811   0.0002179640   0.0000287032
        0.0001484381   0.0000537838   0.0000105007   0.0000376171  -0.0000204090
       -0.0000391452   0.0000039481  -0.0000015336   0.0000135959   0.0000090898
        0.0000266604   0.0000055416  -0.0000029019   0.0000025905   0.0000012558
       -0.0000060868  -0.0000062096  -0.0000175191   0.0000249488  -0.0000019752
       -0.0000223719  -0.0000034144  -0.0000025013  -0.0000064349  -0.0000021429
        0.0000004352  -0.0000001650   0.0000065755  -0.0000011320  -0.0000015171
       -0.0000108428  -0.0000018799   0.0000064158   0.0000139763   0.0000064320
        0.0000003627   0.0000079243   0.0000093405   0.0000001566   0.0000007992
        0.0000019293   0.0000009811   0.0000024845  -0.0000104719  -0.0000159568
        0.0000026128  -0.0000390598   0.0001204597  -0.0001028613
       -0.0007562145   0.0009727549   0.0034546042  -0.0122104532  -0.0053935351
       -0.0188943966  -0.3043647169  -0.0689721831  -0.0369604670   0.6083808037