$hessian                                                                        
        0.4942063568  -0.0292214310   0.0269042268  -0.1016667219  -0.0402970224
        0.0468561546  -0.0159212105  -0.0080480963   0.0154787798   0.0062184502
        0.0075964059  -0.0072560079  -0.0153736806  -0.0172267601   0.0028479949
        0.0006743456  -0.0005954650   0.0001866642  -0.0007838392  -0.0003249155
       -0.0018775135   0.0001571754   0.0000460288  -0.0000596230  -0.0000394381
       -0.0000811171  -0.0000115850  -0.0000155530  -0.0000025782  -0.0000055115
        0.0000312146   0.0000024570   0.0000046761   0.0000000405  -0.0000159972
       -0.0000000817  -0.0000183988   0.0000272304  -0.0000234349   0.0000032709
       -0.0000078667  -0.0000072325  -0.0000544088  -0.0000152384   0.0000068779
        0.0000320218  -0.0000408340  -0.0000088154  -0.0000207011   0.0000330671
       -0.0000029233  -0.0000283229   0.0000121040   0.0000224894  -0.0000002786
       -0.0000075553   0.0000020233  -0.0000083789   0.0000009031  -0.0000041838
       -0.0000163033   0.0000143923  -0.0000067623   0.0000132207  -0.0000020417
        0.0000059838  -0.0000073156  -0.0000062165   0.0000076375  -0.0000140044
        0.0000238602  -0.0000111386   0.0000022302  -0.0000008162  -0.0000103303
       -0.0000016064   0.0000114052   0.0000079222  -0.0000131803   0.0000155070
        0.0000020576  -0.0000017949  -0.0000082599  -0.0000075190   0.0000053753
        0.0000104227  -0.0000201844   0.0000143304   0.0000319628  -0.0000097965
        0.0000387365   0.0000156194  -0.0000274022   0.0000348272  -0.0000218589
        0.0000266399   0.0000109868  -0.0000233194   0.0000042323   0.0000278905
        0.0000279476  -0.0000073022  -0.0000151266  -0.0000237374   0.0000022518
        0.0000114713   0.0000084388  -0.0000067827  -0.0000156179  -0.0000007770
       -0.0000052843   0.0000145101   0.0000008269  -0.0000047549  -0.0000246238
       -0.0000105874   0.0000091978  -0.0000172940   0.0000025733   0.0000092410
        0.0000077767  -0.0000091274  -0.0000058124   0.0000006090  -0.0000186231
        0.0000189927  -0.0000162584   0.0000059920   0.0000132005   0.0000038702
       -0.0000160872  -0.0000148628  -0.0000167522  -0.0000142442  -0.0000009649
       -0.0000038628   0.0000157413  -0.0000023567   0.0000061002  -0.0000151340
        0.0000150714  -0.0000442982   0.0000174253   0.0000075415   0.0000034972
       -0.0000068191   0.0000127893  -0.0000202914   0.0000050910   0.0000271705
        0.0000182366  -0.0000502246  -0.0000346209  -0.0000430712   0.0000356376
        0.0000470801  -0.0000002715  -0.0000043162  -0.0000191220  -0.0000195497
        0.0000821509   0.0000288683   0.0001444898   0.0003424597   0.0006371482
        0.0001532477  -0.0000960367  -0.0008414942  -0.0000169457   0.0000837176
        0.0001646872   0.0000639977  -0.0000042972  -0.0000047774  -0.0000026732
       -0.0000507901  -0.0000273048   0.0000429903  -0.0000343284   0.0000232690
       -0.0015227990   0.0003886855   0.0016416977  -0.1203434569   0.0749931980
       -0.0839812076  -0.1154147677  -0.0783026053  -0.0762474122  -0.1290570411
        0.0870605346   0.0768617572   0.0006416199  -0.0006395850  -0.0007650514
       -0.0027412092   0.0019049147   0.0026937548   0.0003673554  -0.0008729189
        0.0003307718   0.0005919105   0.0003222406  -0.0007297213  -0.0009030585
        0.0022798833  -0.0025757520   0.0006899916   0.0007231614  -0.0002792642
       -0.0000373766  -0.0000036043   0.0000047971   0.0000113763   0.0000165340
        0.0000110112   0.0000280666  -0.0000312443  -0.0000161090  -0.0000016294
       -0.0000149309  -0.0000019157  -0.0000032097  -0.0000252473   0.0000250221
        0.0000248056  -0.0000238553   0.0000236466   0.0000230544   0.0000214306
        0.0000220942  -0.0000272814   0.0000027149  -0.0000236457  -0.0000014712
       -0.0000253977  -0.0000025174   0.0000240521   0.0000011800  -0.0000238869
        0.0000202371  -0.0000271546  -0.0000257511  -0.0000247241  -0.0000246603
       -0.0000205107  -0.0000028697   0.0000252676   0.0000235764   0.0000239293
       -0.0000013008   0.0000254655   0.0000124010  -0.0000218629   0.0000220788
        0.0000152336   0.0000228337  -0.0000205862  -0.0000011480   0.0000259221
        0.0000278658  -0.0000018644  -0.0000020885   0.0000266886  -0.0000033278
       -0.0000206774  -0.0000221426   0.0000244492   0.0000234203  -0.0000267588
       -0.0000024759   0.0000268621  -0.0000251473   0.0000237050  -0.0000004107
       -0.0000001548   0.0000227736   0.0000011704   0.0000020265  -0.0000251211
        0.0000257833   0.0000243046  -0.0000051579  -0.0000261032  -0.0000227714
        0.0000232674  -0.0000002148  -0.0000232907  -0.0000011996   0.0000237823
        0.0000013249   0.0000222881   0.0000284238   0.0000256337   0.0000184614
       -0.0000428024   0.0000010862  -0.0000224978   0.0000099797  -0.0000188473
       -0.0001039245   0.0000438465   0.0000684976  -0.0000017011  -0.0000413458
        0.0000032502  -0.0000416208   0.0000234309   0.0000208481   0.0000258432
        0.0000037687  -0.0000299815   0.0000290318  -0.0000356954   0.0000271066
       -0.0000101761   0.0000041953  -0.0000337756  -0.0000126694  -0.0000082562
        0.0000252627  -0.0000495708   0.0000219493  -0.0000787512
       -0.0292214310   0.5015540998   0.0288801794  -0.0397407823  -0.1012203461
        0.0425790971   0.0082320837   0.0064037045  -0.0073922340  -0.0074209011
       -0.0138506593   0.0154537501  -0.0169870217  -0.0168514668   0.0051276722
        0.0002226716  -0.0010547556   0.0002958538  -0.0011196748  -0.0003461450
       -0.0020187139   0.0003300921   0.0001245766  -0.0000148053  -0.0002117389
       -0.0001399451  -0.0000448627   0.0001077396  -0.0000772282  -0.0000331248
       -0.0001139762  -0.0000314635  -0.0000353242   0.0000092220   0.0000073837
        0.0000228567   0.0000590923  -0.0000183892  -0.0000205616  -0.0000005524
        0.0000284352  -0.0000073170  -0.0000037063  -0.0000049036   0.0000246851
       -0.0000365368   0.0000519693  -0.0000233146   0.0000186028  -0.0000216812
        0.0000071568  -0.0000314100   0.0000019905   0.0000057680   0.0000082098
       -0.0000104618   0.0000048724  -0.0000115352  -0.0000051500  -0.0000042117
       -0.0000175062   0.0000149241  -0.0000041068   0.0000084681  -0.0000037126
       -0.0000006381  -0.0000172420  -0.0000010938   0.0000114317  -0.0000006624
        0.0000311333   0.0000023387   0.0000078256  -0.0000118144  -0.0000101282
        0.0000043901   0.0000096500   0.0000061178  -0.0000156640   0.0000163325
        0.0000007866  -0.0000003825  -0.0000036508  -0.0000002259   0.0000011082
        0.0000189240  -0.0000246003   0.0000218069  -0.0000421372  -0.0000154291
       -0.0000436347   0.0000297598  -0.0000270174  -0.0000347711  -0.0000334623
        0.0000325109   0.0000212004   0.0000348825   0.0000067225  -0.0000226440
       -0.0000375443   0.0000044935   0.0000178110   0.0000153681  -0.0000023177
        0.0000151435   0.0000147059   0.0000006200  -0.0000222219  -0.0000011020
       -0.0000057817   0.0000140367   0.0000021670  -0.0000011013  -0.0000283499
       -0.0000106942   0.0000101808  -0.0000197649   0.0000077468   0.0000084909
        0.0000132627  -0.0000074879  -0.0000073327   0.0000108480  -0.0000237669
        0.0000086736  -0.0000164861   0.0000125169   0.0000137728   0.0000064832
       -0.0000179157  -0.0000168482  -0.0000189022  -0.0000148817   0.0000001499
       -0.0000027119   0.0000151092  -0.0000065105   0.0000032737  -0.0000218711
        0.0000182957  -0.0000177301   0.0000043697  -0.0000018813  -0.0000020062
       -0.0000172288   0.0000160797   0.0000453553   0.0000271710   0.0000156865
        0.0000767220   0.0000978827   0.0000733995   0.0000275375  -0.0000639539
       -0.0000708432  -0.0000449439   0.0000631552   0.0000685772  -0.0001083520
       -0.0000101935  -0.0000133504  -0.0004477129   0.0005864134   0.0008494650
        0.0001761944   0.0006349242   0.0001391743   0.0000647417   0.0001028656
        0.0002030743   0.0000317980   0.0000258808  -0.0000099337   0.0000196303
       -0.0000143188  -0.0000291445   0.0000601083   0.0000069384  -0.0000011171
       -0.0009181677  -0.0007947525  -0.0000107539   0.0745112177  -0.1155940527
        0.0790721286  -0.0783055673  -0.1297480859  -0.0831424554   0.0867863513
       -0.1287124255  -0.0784185580   0.0007682983   0.0006105728  -0.0003246174
        0.0026242051  -0.0010213851  -0.0023937474   0.0003281540   0.0005282970
       -0.0007675791  -0.0009262498   0.0003552824   0.0001750711   0.0016593223
       -0.0020907448   0.0027588635  -0.0004583185   0.0006856175  -0.0008667378
       -0.0000237636   0.0000087807   0.0000027256   0.0000060011   0.0000253772
        0.0000041446   0.0000328858  -0.0000372014  -0.0000279322   0.0000006332
       -0.0000177286  -0.0000074866  -0.0000054618  -0.0000319571   0.0000305225
        0.0000284054  -0.0000260638   0.0000267834   0.0000273997   0.0000243878
        0.0000239759  -0.0000291037   0.0000022443  -0.0000267455   0.0000017858
       -0.0000290942  -0.0000064299   0.0000293662   0.0000047726  -0.0000305496
        0.0000237405  -0.0000296938  -0.0000290599  -0.0000278206  -0.0000275081
       -0.0000230677  -0.0000030455   0.0000289523   0.0000270214   0.0000271700
       -0.0000017644   0.0000327000   0.0000067202  -0.0000243993   0.0000306523
        0.0000117610   0.0000254052  -0.0000274834  -0.0000005533   0.0000294419
        0.0000345980  -0.0000022600  -0.0000023851   0.0000309225  -0.0000039852
       -0.0000236655  -0.0000250848   0.0000276095   0.0000273977  -0.0000302094
       -0.0000042282   0.0000306970  -0.0000304568   0.0000292603  -0.0000027274
        0.0000010926   0.0000256481   0.0000012342   0.0000029812  -0.0000293851
        0.0000297974   0.0000281845  -0.0000060879  -0.0000295716  -0.0000261495
        0.0000265981   0.0000007450  -0.0000284585  -0.0000001022   0.0000260981
        0.0000043606   0.0000290575   0.0000334529   0.0000300786   0.0000000665
       -0.0000382898  -0.0000407114  -0.0000191285   0.0000229798  -0.0000380578
       -0.0000359675  -0.0000959419   0.0000001835  -0.0000084042  -0.0000426575
        0.0000052305  -0.0000403879   0.0000091329   0.0000112489   0.0000327639
        0.0000020527  -0.0000294552   0.0000253044  -0.0000338326   0.0000246773
        0.0000122430   0.0000336131  -0.0000468882  -0.0000141733  -0.0000343085
        0.0000235584  -0.0000743105  -0.0000316511  -0.0000321856
        0.0269042268   0.0288801794   0.4970743107   0.0401321129   0.0355908177
       -0.1010156302   0.0144362451   0.0069685174  -0.0131738934   0.0088705597
        0.0162829840  -0.0160570180  -0.0061757142  -0.0057870222   0.0082903186
       -0.0012994543  -0.0013286848  -0.0016322158  -0.0009646725   0.0001718893
       -0.0011752722   0.0001287546   0.0001090533   0.0000675086  -0.0001152749
       -0.0000793365  -0.0000074546   0.0000623217   0.0000238098  -0.0000156793
        0.0000240896  -0.0000726187  -0.0000682979   0.0001523013  -0.0000464144
       -0.0000259657  -0.0001814949   0.0001829479  -0.0000370430   0.0000234876
       -0.0001331440   0.0000193475  -0.0001582013  -0.0000010345  -0.0000631891
        0.0002314505  -0.0004383638   0.0000577142  -0.0002073312   0.0002592218
       -0.0000377408  -0.0000145221   0.0000093632   0.0000618279  -0.0000413500
        0.0000170779  -0.0000126976   0.0000003092   0.0000049275  -0.0000147653
        0.0000039995   0.0000227782   0.0000045631   0.0000125540   0.0000027203
        0.0000143279   0.0000417079  -0.0000247341   0.0000092189  -0.0000267186
       -0.0000019007  -0.0000574116  -0.0000172840   0.0000464668   0.0000015411
        0.0000001309   0.0000029089   0.0000037211  -0.0000245511   0.0000004150
       -0.0000065575  -0.0000004939  -0.0000073558  -0.0000119859   0.0000228153
       -0.0000384640  -0.0000061220  -0.0000450939   0.0003619631   0.0000230205
        0.0002026972  -0.0002301260   0.0000438044   0.0001908550   0.0002140025
       -0.0000535310  -0.0000547086  -0.0003099393  -0.0000243167   0.0002302320
        0.0004130772  -0.0000857048  -0.0002004885  -0.0002329925   0.0000435565
       -0.0000221997  -0.0000106738  -0.0000514400   0.0000304344  -0.0000109740
       -0.0000023195   0.0000179212  -0.0000018569  -0.0000314748   0.0000001924
        0.0000060938   0.0000033962  -0.0000049180  -0.0000317573   0.0000198523
       -0.0000242803  -0.0000156610  -0.0000110659  -0.0000314038   0.0000051263
        0.0000646999  -0.0000189732  -0.0000321665   0.0000201549  -0.0000288719
       -0.0000114411  -0.0000082391   0.0000039759  -0.0000064366  -0.0000059007
       -0.0000002344   0.0000250854   0.0000338367   0.0000037462   0.0000305141
       -0.0000026841  -0.0000984629   0.0000042710   0.0000745300   0.0000286960
        0.0001275176  -0.0000289705  -0.0001525191  -0.0001529595   0.0000504858
        0.0000231075   0.0001046954   0.0001615321   0.0000609593  -0.0001497733
       -0.0001850183   0.0000212730   0.0001084148   0.0001407057  -0.0000206201
       -0.0000990497  -0.0001060832   0.0001064252   0.0012704958   0.0013626345
        0.0007739192   0.0003683031   0.0002933111   0.0001074606   0.0000472651
        0.0000582541   0.0000028695  -0.0000034733   0.0000311199   0.0000417537
        0.0000531725   0.0000566744  -0.0000211159   0.0000041121  -0.0000918485
       -0.0007871375  -0.0019624595  -0.0011840512  -0.0839711482   0.0796827357
       -0.1340064752  -0.0770037784  -0.0838236637  -0.1219043531   0.0768078697
       -0.0785445126  -0.1141711306   0.0002428311   0.0008418929   0.0003614425
        0.0027625532  -0.0014933271  -0.0020320253  -0.0008228344   0.0004479967
        0.0006388205   0.0005394521  -0.0007166134   0.0006689907  -0.0017161564
        0.0030284993  -0.0028395534   0.0010842277   0.0002350924   0.0005657675
       -0.0000020733  -0.0000317498  -0.0000233068  -0.0000026737  -0.0000018353
        0.0000063071  -0.0000041053  -0.0000000190   0.0000160938  -0.0000047582
        0.0000084872   0.0000031305   0.0000031734   0.0000013139  -0.0000157018
        0.0000000061   0.0000076473   0.0000046126  -0.0000034504   0.0000040473
        0.0000008454  -0.0000013853   0.0000075717   0.0000028408  -0.0000092492
        0.0000000582   0.0000104846  -0.0000094106  -0.0000108442   0.0000145962
       -0.0000057753  -0.0000030106   0.0000005884  -0.0000004610   0.0000000690
        0.0000023528  -0.0000064519  -0.0000005080  -0.0000020451  -0.0000016317
        0.0000064045  -0.0000094968   0.0000098254   0.0000002015  -0.0000147586
        0.0000091901  -0.0000031960   0.0000111242  -0.0000076515   0.0000031722
       -0.0000106533  -0.0000048810  -0.0000072487   0.0000020533  -0.0000003302
       -0.0000069528  -0.0000019032   0.0000022696  -0.0000032033  -0.0000046460
        0.0000035637  -0.0000033795   0.0000159026  -0.0000104323   0.0000072362
       -0.0000162491  -0.0000027609   0.0000071461   0.0000029867  -0.0000048823
        0.0000016339   0.0000011040  -0.0000067434  -0.0000014442   0.0000004877
        0.0000030060  -0.0000037760   0.0000104142  -0.0000063018  -0.0000033190
       -0.0000037813  -0.0000056253  -0.0000054788  -0.0000160901   0.0000050355
        0.0000032317  -0.0000009174  -0.0000037542  -0.0000138377  -0.0000220458
       -0.0000127282  -0.0000232676  -0.0000577150   0.0000150573  -0.0000104956
        0.0000223652  -0.0000082560  -0.0000184281  -0.0000123595  -0.0000170190
       -0.0000308684   0.0000063360  -0.0000079339   0.0000093550  -0.0000233727
        0.0000076364   0.0000028177   0.0000029278   0.0000188378  -0.0000198210
        0.0000106474  -0.0000053859  -0.0000251847   0.0000109765
       -0.1016667219  -0.0397407823   0.0401321129   0.4808370721  -0.0116498342
       -0.0104812129  -0.1138155846   0.0462038264   0.0420804647  -0.0982846912
        0.0365378167  -0.0414508991  -0.0781333409  -0.0307688367  -0.0291442831
       -0.0348092081  -0.0190086224  -0.0184649607   0.0004841295   0.0016291644
        0.0014994719  -0.0016308800  -0.0008579339  -0.0008682358  -0.0003333784
        0.0000082861   0.0000249540   0.0000755311  -0.0001748773  -0.0000244650
       -0.0002510127  -0.0000882352  -0.0001042183   0.0000593491   0.0000280057
        0.0000163911   0.0001346441  -0.0000543679   0.0000620884   0.0000189367
        0.0000214503   0.0000140779   0.0001583622   0.0000743544  -0.0000265208
       -0.0000946980   0.0000666239   0.0000221645   0.0000743494  -0.0000971569
        0.0000023205   0.0000759382   0.0000587209  -0.0000071530  -0.0000037553
       -0.0000115569  -0.0000072057   0.0000281711   0.0000067568   0.0000297994
        0.0000387610  -0.0000064870   0.0000263285  -0.0000366094   0.0000383539
       -0.0000283850   0.0000114158  -0.0000059524  -0.0000264333  -0.0000563729
       -0.0000690413  -0.0000150759   0.0000130045   0.0000057577   0.0000210509
       -0.0000058274  -0.0000349858  -0.0000377712   0.0000047963  -0.0000358085
       -0.0000174573  -0.0000336002   0.0000272493   0.0000244346   0.0000058831
       -0.0000159910   0.0000547221  -0.0000675218  -0.0000623702   0.0000244388
       -0.0001862323  -0.0001275490   0.0000806521  -0.0001797064   0.0001420357
       -0.0000763511  -0.0000675259   0.0000542456  -0.0000076478  -0.0001236004
       -0.0000719352   0.0000174569   0.0000686454   0.0001173313  -0.0000027958
       -0.0000033434  -0.0001002605  -0.0000182683   0.0000219623   0.0000231541
        0.0000200551  -0.0000380278  -0.0000216410   0.0000264390   0.0000479633
        0.0000016838  -0.0000303620   0.0000395124  -0.0000104421  -0.0000440261
       -0.0000161640   0.0000455905   0.0000134961  -0.0000522709   0.0000621829
       -0.0000027736   0.0000529414  -0.0000069693  -0.0000284492  -0.0000004502
        0.0000425834   0.0000458368   0.0000039868   0.0000349526   0.0000171531
       -0.0000166604  -0.0000425943  -0.0000059938  -0.0000010123   0.0000156587
       -0.0000488950   0.0001530626  -0.0000950208  -0.0000186496   0.0000309690
       -0.0000145371  -0.0000281681   0.0001306365  -0.0000092200  -0.0000677402
       -0.0000097453   0.0003002370   0.0001799048   0.0002974753  -0.0003216382
       -0.0002914519  -0.0001418276   0.0001869704   0.0001771192   0.0003064019
       -0.0001136827  -0.0001039026  -0.0026017035  -0.0010517434  -0.0010329609
        0.0043828460   0.0023409532   0.0021659541  -0.0004347292   0.0004814374
        0.0004412099  -0.0000489694  -0.0001136050  -0.0000590700   0.0000483744
        0.0000745069   0.0000746450  -0.0000485640  -0.0000644417  -0.0001052510
        0.0024565541   0.0024979606   0.0024415994   0.0085365181   0.0078756362
       -0.0079845279  -0.0133412261  -0.0130381090   0.0088802710  -0.0141849711
       -0.0085340841   0.0135211926   0.0086035913  -0.0077787523  -0.0070711199
       -0.0146050164   0.0091743004   0.0122283014  -0.0140583217   0.0126855995
        0.0076858058  -0.0136509250   0.0130704220  -0.0097781717   0.0085575854
       -0.0080695333   0.0091494251  -0.0127442122   0.0081694624  -0.0137812266
        0.0000527968   0.0000498613   0.0000192755  -0.0000902439  -0.0000365963
       -0.0000705395  -0.0000631053   0.0000324529   0.0000403025  -0.0000042577
        0.0000259332  -0.0000005912   0.0000058073   0.0000443276  -0.0000458897
       -0.0000504998   0.0000384084  -0.0000507972  -0.0000468315  -0.0000479254
       -0.0000452149   0.0000508940  -0.0000123657   0.0000480088   0.0000034857
        0.0000481561   0.0000057131  -0.0000444642  -0.0000006787   0.0000461113
       -0.0000370165   0.0000553373   0.0000553898   0.0000525702   0.0000474858
        0.0000422320   0.0000117292  -0.0000503806  -0.0000482542  -0.0000451936
       -0.0000016161  -0.0000495982  -0.0000311980   0.0000447200  -0.0000364269
       -0.0000372667  -0.0000456939   0.0000325089   0.0000056490  -0.0000496193
       -0.0000525067   0.0000057508   0.0000118175  -0.0000533282   0.0000038980
        0.0000491020   0.0000459832  -0.0000501309  -0.0000393647   0.0000603097
        0.0000030355  -0.0000503847   0.0000475370  -0.0000438907  -0.0000019573
        0.0000010758  -0.0000404958  -0.0000080723  -0.0000100887   0.0000530975
       -0.0000512086  -0.0000500745   0.0000160090   0.0000502790   0.0000447126
       -0.0000452568   0.0000036792   0.0000467081   0.0000001876  -0.0000316026
        0.0000017036  -0.0000542003  -0.0000296264  -0.0000494431  -0.0000486871
       -0.0001045278  -0.0000697874   0.0000922624  -0.0000097765  -0.0000198987
        0.0001282708   0.0000886519  -0.0000042593   0.0000162748   0.0000458042
        0.0000152724   0.0000549175  -0.0000354544  -0.0000355644  -0.0000183321
        0.0000950146   0.0000483418  -0.0000197478   0.0000543897   0.0000533986
        0.0000156583   0.0000121522   0.0000458314   0.0000901064  -0.0000194952
       -0.0000071138   0.0001274558  -0.0000058978   0.0000897031
       -0.0402970224  -0.1012203461   0.0355908177  -0.0116498342   0.4768054831
        0.0196050017   0.0457567101  -0.1057903170  -0.0390132017   0.0431077572
       -0.0971465709   0.0439933813  -0.0355830301  -0.0997590733  -0.0419586769
       -0.0111088539  -0.0035236873  -0.0053252391   0.0016186749   0.0068709351
       -0.0017425434  -0.0004724318  -0.0004463600  -0.0005943903   0.0001037386
       -0.0000419785   0.0002589098  -0.0000817677  -0.0001402258   0.0000316470
       -0.0000762375   0.0000035818  -0.0000041773  -0.0001517172   0.0000500966
        0.0000077169   0.0002042996  -0.0001841332   0.0000525096  -0.0000030941
        0.0001387691  -0.0000175985   0.0001993235   0.0000365849   0.0000356010
       -0.0002089505   0.0003383091  -0.0000286655   0.0001650880  -0.0002382877
        0.0000187655   0.0000570120   0.0000297352  -0.0000411260   0.0000266526
       -0.0000190510  -0.0000049749   0.0000239379  -0.0000218629   0.0000393602
        0.0000212653  -0.0000022368   0.0000168884  -0.0000368974   0.0000174797
       -0.0000401489  -0.0000250714  -0.0000022761  -0.0000205851   0.0000077334
       -0.0000354694   0.0000392339   0.0000205325  -0.0000295300   0.0000188400
        0.0000205938  -0.0000274992  -0.0000276829   0.0000016559  -0.0000226125
       -0.0000110244  -0.0000097139   0.0000318143   0.0000396699  -0.0000044517
        0.0000211748   0.0000319211  -0.0000173870  -0.0002564878  -0.0000114064
       -0.0002369411   0.0000622890   0.0000156406  -0.0002047949  -0.0000649839
       -0.0000036033   0.0000041522   0.0002365335   0.0000070380  -0.0001946724
       -0.0002739214   0.0000594029   0.0001597971   0.0001978582  -0.0000326489
        0.0000113364  -0.0000513655   0.0000228209  -0.0000117244  -0.0000029055
        0.0000219893  -0.0000186302  -0.0000104149   0.0000119871   0.0000228503
        0.0000221905  -0.0000071774   0.0000151154  -0.0000081514  -0.0000224369
        0.0000168329   0.0000317631  -0.0000082935  -0.0000216524   0.0000316132
       -0.0000351039   0.0000427088   0.0000277519  -0.0000102727  -0.0000037685
        0.0000220960   0.0000252281   0.0000251106   0.0000157044  -0.0000014885
       -0.0000065982  -0.0000229909  -0.0000055807  -0.0000224231  -0.0000139086
       -0.0000294266   0.0001696067  -0.0000490025  -0.0000554760  -0.0000084311
       -0.0000734850   0.0000049588   0.0001653025   0.0000900380  -0.0000644647
        0.0000244338   0.0000613351  -0.0000119403   0.0000808583   0.0000031273
        0.0000491976  -0.0000669356  -0.0000429962  -0.0000719122   0.0001550386
        0.0000544678  -0.0000166353  -0.0016018743  -0.0035105758  -0.0010702383
        0.0022304292   0.0029510639  -0.0026250474  -0.0004828307  -0.0013415894
       -0.0007418380  -0.0002021824   0.0000732166   0.0001836005   0.0001090665
       -0.0001768210  -0.0000921427  -0.0001138295   0.0000890931   0.0000453399
       -0.0045628041  -0.0207905007  -0.0208734034  -0.0086898576  -0.0125104254
        0.0124686326  -0.0152379383  -0.0145569204   0.0100628936   0.0088645029
        0.0084105460  -0.0087887123   0.0107332820  -0.0145694072  -0.0132816075
       -0.0090774898   0.0087073316   0.0078739425   0.0133067631  -0.0125447473
       -0.0071151608   0.0128675457  -0.0127218993   0.0097453779   0.0085082716
       -0.0113407302   0.0129746398  -0.0084155687   0.0081209041  -0.0095603085
        0.0000614592   0.0000922010   0.0000623337  -0.0000464167   0.0000030038
       -0.0000483894  -0.0000413850   0.0000174596   0.0000111117   0.0000044144
        0.0000048432  -0.0000016162   0.0000044084   0.0000248998  -0.0000108073
       -0.0000287409   0.0000156365  -0.0000365691  -0.0000213582  -0.0000353775
       -0.0000271758   0.0000313921  -0.0000141754   0.0000244366   0.0000087224
        0.0000284074  -0.0000061538  -0.0000186289   0.0000047036   0.0000121136
       -0.0000160744   0.0000333060   0.0000303844   0.0000335789   0.0000263772
        0.0000225082   0.0000134423  -0.0000281044  -0.0000250639  -0.0000248472
       -0.0000046858  -0.0000201952  -0.0000169003   0.0000194676  -0.0000076526
       -0.0000214060  -0.0000234536   0.0000114570   0.0000088450  -0.0000262302
       -0.0000245318   0.0000038097   0.0000099454  -0.0000263194   0.0000027708
        0.0000248062   0.0000228966  -0.0000261932  -0.0000167675   0.0000315815
       -0.0000019157  -0.0000269097   0.0000192144  -0.0000186392  -0.0000075692
        0.0000079683  -0.0000164704  -0.0000073856  -0.0000063772   0.0000288566
       -0.0000269131  -0.0000245636   0.0000128036   0.0000255238   0.0000209851
       -0.0000229161   0.0000055331   0.0000193017   0.0000007484  -0.0000141416
        0.0000015754  -0.0000235684  -0.0000165775  -0.0000188600   0.0000238910
        0.0000094409   0.0000314658  -0.0000027778  -0.0000755292   0.0000045412
        0.0000286310   0.0000733780  -0.0000291177   0.0000148921   0.0000297373
        0.0000142468   0.0000575187  -0.0000867050  -0.0000767427  -0.0000242122
        0.0000633513   0.0000134229   0.0000012748   0.0000130894   0.0000533602
       -0.0000089549  -0.0000338881   0.0000398867   0.0000169626  -0.0000185058
       -0.0000510168   0.0000824112  -0.0000293313  -0.0000002325
        0.0468561546   0.0425790971  -0.1010156302  -0.0104812129   0.0196050017
        0.4738576379   0.0416787022  -0.0390187432  -0.0984937634  -0.0426173505
        0.0368243594  -0.1084756165  -0.0332826433  -0.0418966779  -0.0955095283
       -0.0111374182  -0.0053485280  -0.0033147240   0.0013621492  -0.0020764321
        0.0072123720  -0.0003259211  -0.0005573218  -0.0002999786  -0.0000048221
        0.0002557496  -0.0001571380   0.0000252136  -0.0001095286  -0.0000819246
       -0.0002468031  -0.0000048307  -0.0000276092  -0.0000252735   0.0000262156
        0.0000237882   0.0001767871  -0.0001465608   0.0000537245  -0.0000048342
        0.0001100480  -0.0000133286   0.0001717487   0.0000363520   0.0000290634
       -0.0001971062   0.0003328085  -0.0000253916   0.0001713993  -0.0002294050
        0.0000179354   0.0000558994   0.0000326856  -0.0000369793   0.0000193282
       -0.0000177145  -0.0000098835   0.0000232573  -0.0000196241   0.0000355998
        0.0000211924  -0.0000018197   0.0000146622  -0.0000332590   0.0000161863
       -0.0000363310  -0.0000160556  -0.0000073840  -0.0000179666  -0.0000065559
       -0.0000387265   0.0000337140   0.0000181184  -0.0000187827   0.0000227017
        0.0000165409  -0.0000249053  -0.0000255575   0.0000026125  -0.0000221141
       -0.0000111150  -0.0000102650   0.0000295919   0.0000356562   0.0000016243
        0.0000139995   0.0000295577  -0.0000100259  -0.0002530767  -0.0000078943
       -0.0002251465   0.0000837513   0.0000122344  -0.0001993009  -0.0000835141
       -0.0000033300   0.0000059680   0.0002501924   0.0000045099  -0.0001974709
       -0.0002911583   0.0000645862   0.0001726243   0.0002138594  -0.0000377877
        0.0000154097  -0.0000656589   0.0000226775  -0.0000101255  -0.0000006307
        0.0000199353  -0.0000189070  -0.0000100675   0.0000112892   0.0000220419
        0.0000230187  -0.0000073905   0.0000140707  -0.0000124411  -0.0000228426
        0.0000125399   0.0000340822  -0.0000048623  -0.0000337471   0.0000344239
       -0.0000306175   0.0000451614   0.0000255842  -0.0000125218  -0.0000073384
        0.0000229762   0.0000267168   0.0000259127   0.0000154802  -0.0000021271
       -0.0000056461  -0.0000219599  -0.0000046168  -0.0000198162  -0.0000106893
       -0.0000281928   0.0001686169  -0.0000517044  -0.0000582973  -0.0000008855
       -0.0000707736  -0.0000003452   0.0001352119   0.0000641872  -0.0000616376
        0.0001264546   0.0001536301   0.0000423650   0.0000891275  -0.0000302961
        0.0000349220  -0.0000684443  -0.0000186809  -0.0000660964   0.0000589107
        0.0000050617   0.0000460844  -0.0015371978  -0.0009336565  -0.0034736449
        0.0019849314  -0.0026398163   0.0034111268  -0.0004371399  -0.0007252859
       -0.0012496054  -0.0001034470   0.0000418588   0.0000662959   0.0001065745
       -0.0000938210  -0.0001594792  -0.0001964436   0.0001887805   0.0000482469
       -0.0044052377  -0.0206174895  -0.0178842329   0.0098023291   0.0130344754
       -0.0130931071  -0.0079935788  -0.0080597160   0.0080832664   0.0124575237
        0.0078334682  -0.0122605026   0.0101691490  -0.0136345137  -0.0126161236
        0.0137862523  -0.0086860591  -0.0120673534  -0.0103286136   0.0098041638
        0.0086068255   0.0073486225  -0.0072195407   0.0083180287  -0.0086139928
        0.0123832104  -0.0142827994  -0.0144420344   0.0089421779  -0.0152175168
        0.0000814899   0.0000819132   0.0000707329  -0.0000472870  -0.0000326129
       -0.0000072264  -0.0000359363   0.0000171800   0.0000140650   0.0000031696
        0.0000083852  -0.0000001196   0.0000040087   0.0000258286  -0.0000114298