$hessian                                                                        
        0.4940723319  -0.0271432275   0.0291902474  -0.1021763347  -0.0381622498
        0.0497036649  -0.0158259100  -0.0069467783   0.0156821308   0.0061955442
        0.0071138692  -0.0074368874  -0.0153039307  -0.0164460809   0.0046639480
        0.0001566924  -0.0014820484  -0.0011024650  -0.0009339348   0.0001879746
       -0.0015562306   0.0000478645  -0.0001256181  -0.0000541455  -0.0000784180
       -0.0000476915  -0.0000172222   0.0000018149  -0.0000264102  -0.0000222513
       -0.0000629053   0.0000052826   0.0000120161   0.0000474859  -0.0000002425
       -0.0000053825  -0.0000006517   0.0000061659   0.0000104573  -0.0000053711
        0.0000000680  -0.0000006098   0.0000019520  -0.0000026558  -0.0000004112
       -0.0000102160   0.0000197249  -0.0000007548   0.0000129675  -0.0000122783
       -0.0000016304   0.0000021651   0.0000082868   0.0000034488  -0.0000006005
       -0.0000020551  -0.0000025465   0.0000018920   0.0000008672   0.0000030355
        0.0000007289   0.0000014191   0.0000004228  -0.0000004011   0.0000030020
       -0.0000008757   0.0000012009  -0.0000040834  -0.0000006101  -0.0000067120
       -0.0000019968   0.0000016026   0.0000014884   0.0000025275   0.0000019849
       -0.0000004504  -0.0000004620  -0.0000018208  -0.0000016563  -0.0000002796
       -0.0000013007  -0.0000009118   0.0000018895   0.0000015035   0.0000011967
        0.0000003414  -0.0000001218  -0.0000040184  -0.0000081868  -0.0000012440
        0.0000016925   0.0000113010  -0.0000018465   0.0000016720  -0.0000128110
        0.0000023794  -0.0000028906   0.0000097108   0.0000003620  -0.0000134993
       -0.0000161106   0.0000032590   0.0000158360   0.0000137486  -0.0000050962
        0.0000033135  -0.0000086392   0.0000009986   0.0000008879   0.0000020176
       -0.0000006134  -0.0000003787  -0.0000000924   0.0000014048   0.0000009520
       -0.0000003616  -0.0000006627   0.0000007026  -0.0000020509  -0.0000012218
       -0.0000007948   0.0000030301   0.0000026664  -0.0000102199   0.0000037501
        0.0000039990   0.0000031341  -0.0000006532  -0.0000021501  -0.0000011317
        0.0000011143   0.0000017034  -0.0000005847   0.0000002364  -0.0000000490
       -0.0000021825  -0.0000000017   0.0000002667   0.0000035196   0.0000006562
       -0.0000011087   0.0000028724  -0.0000014739  -0.0000014822   0.0000052937
       -0.0000026344  -0.0000012383  -0.0000119791  -0.0000095656  -0.0000044577
        0.0000418602  -0.0000000686  -0.0000189471   0.0000000272   0.0000143126
        0.0000320487  -0.0000133725  -0.0000050012  -0.0000243602  -0.0000192143
        0.0000759217   0.0000321106  -0.0001843636  -0.0001146512   0.0006752853
        0.0000425243   0.0007237902  -0.0006006404   0.0000425000  -0.0000026714
        0.0000776922   0.0000339419   0.0000084480   0.0000286678  -0.0000214188
       -0.0000352061   0.0000049641   0.0000191139  -0.0000020280   0.0000310026
       -0.0011950541   0.0001536334   0.0016141835  -0.1184726718   0.0703837221
       -0.0870620079  -0.1177573866  -0.0832615485  -0.0733547535  -0.1273567048
        0.0914365678   0.0710536750   0.0006667912  -0.0006849517  -0.0007445946
       -0.0026824053   0.0020297548   0.0025546011   0.0003314912  -0.0007990025
        0.0003220360   0.0005872009   0.0003020600  -0.0007188972  -0.0008585987
        0.0020808449  -0.0026473312   0.0007543274   0.0007254083  -0.0003476060
       -0.0000033563   0.0000061385   0.0000102245  -0.0000066568  -0.0000013220
       -0.0000022051   0.0000040564  -0.0000019841   0.0000036224  -0.0000023144
        0.0000029037   0.0000013723   0.0000004606   0.0000002903   0.0000019877
       -0.0000006857  -0.0000004525  -0.0000004049  -0.0000010417  -0.0000002846
        0.0000003027  -0.0000009159   0.0000003868   0.0000003336  -0.0000014786
        0.0000008047  -0.0000008248   0.0000016191  -0.0000012196  -0.0000006121
        0.0000000934  -0.0000000990   0.0000001551   0.0000013630   0.0000002419
        0.0000005471   0.0000008452  -0.0000007615  -0.0000008819  -0.0000000010
       -0.0000006924  -0.0000002312   0.0000009347   0.0000012346  -0.0000001762
       -0.0000000659  -0.0000006045   0.0000012631   0.0000009740  -0.0000000233
       -0.0000001678   0.0000012087   0.0000007774  -0.0000007909   0.0000007374
        0.0000011606   0.0000005809   0.0000010392   0.0000001759   0.0000005740
        0.0000016302   0.0000009970  -0.0000004218   0.0000009255   0.0000005821
        0.0000011756   0.0000004805  -0.0000005309  -0.0000007242   0.0000007592
       -0.0000005451  -0.0000008298   0.0000006994   0.0000001221   0.0000002610
        0.0000001110  -0.0000003219  -0.0000003031  -0.0000001980   0.0000022249
        0.0000000345   0.0000015052   0.0000031311   0.0000016470   0.0000273537
       -0.0000340521   0.0000192537  -0.0000066725  -0.0000240693  -0.0000107078
       -0.0000770148   0.0000782376   0.0000849708   0.0000015413  -0.0000090020
       -0.0000059043   0.0000012107  -0.0000030886  -0.0000046654  -0.0000007332
        0.0000029297  -0.0000046538  -0.0000013973  -0.0000071914  -0.0000045705
       -0.0000034721   0.0000018653  -0.0000037685   0.0000036106  -0.0000069699
       -0.0000088692  -0.0000348601   0.0000294320  -0.0000487868
       -0.0271432275   0.5064889341   0.0287223014  -0.0378541718  -0.0963166127
        0.0411676388   0.0093142586   0.0062750166  -0.0086713346  -0.0070010924
       -0.0118830373   0.0153935792  -0.0163497917  -0.0152319876   0.0082595660
       -0.0005506962  -0.0017676036  -0.0006223397  -0.0005953176   0.0003573277
       -0.0016259658  -0.0000143881  -0.0000909160  -0.0000770391  -0.0000536619
       -0.0000044138   0.0000224371  -0.0000321330   0.0000129170   0.0000030612
        0.0000227413  -0.0000072086  -0.0000082250  -0.0000286509   0.0000005336
        0.0000060235   0.0000088631  -0.0000182206  -0.0000027744   0.0000005178
        0.0000045893   0.0000013420  -0.0000021441  -0.0000002277   0.0000005594
        0.0000050735  -0.0000121475   0.0000009746  -0.0000122729   0.0000130483
        0.0000002781  -0.0000024130  -0.0000084165  -0.0000014094   0.0000007244
        0.0000033193   0.0000018929  -0.0000021416  -0.0000027311  -0.0000033519
       -0.0000006263   0.0000009428   0.0000005137  -0.0000007944   0.0000007126
        0.0000001258  -0.0000016194   0.0000016042  -0.0000002454   0.0000056723
        0.0000024576  -0.0000002493  -0.0000017909  -0.0000008105  -0.0000010966
        0.0000018852   0.0000004425   0.0000012786  -0.0000006309   0.0000000168
       -0.0000000085  -0.0000001424  -0.0000002904  -0.0000003405  -0.0000005079
       -0.0000001293  -0.0000006111  -0.0000021621   0.0000097411   0.0000011662
       -0.0000017855  -0.0000055837   0.0000005136  -0.0000012515   0.0000054246
       -0.0000004444  -0.0000016873  -0.0000065975  -0.0000001278   0.0000053409
        0.0000132633  -0.0000025333  -0.0000134603  -0.0000141805   0.0000022374
       -0.0000019937   0.0000085339   0.0000022175   0.0000005681  -0.0000008518
       -0.0000017118  -0.0000001455   0.0000025945   0.0000019845   0.0000005675
       -0.0000016207   0.0000000180   0.0000010090   0.0000023999  -0.0000000471
        0.0000009011   0.0000001607  -0.0000006324   0.0000083275  -0.0000030132
       -0.0000024786  -0.0000011738   0.0000011554   0.0000013369   0.0000021662
       -0.0000001101  -0.0000011587  -0.0000017872   0.0000001825   0.0000007921
        0.0000002463  -0.0000004920  -0.0000006467  -0.0000004145  -0.0000000891
        0.0000009706  -0.0000041615   0.0000009183   0.0000014832   0.0000052732
       -0.0000023225   0.0000015295   0.0000099504   0.0000182665   0.0000015499
       -0.0000201853  -0.0000046061  -0.0000042805  -0.0000001240  -0.0000203164
       -0.0000244909  -0.0000023232   0.0000217991   0.0000249549  -0.0000028855
       -0.0000279693  -0.0000169545  -0.0005201209  -0.0002626732   0.0006608520
        0.0002672891   0.0012918304   0.0000542649   0.0000573285   0.0000173511
        0.0000874798  -0.0000319069   0.0000021951   0.0000293264   0.0000312873
        0.0000055468   0.0000066240   0.0000029323   0.0000343675  -0.0000291103
       -0.0015404183  -0.0013598732  -0.0004863337   0.0698532262  -0.1088872138
        0.0788054801  -0.0831338349  -0.1377022835  -0.0820848409   0.0911512058
       -0.1398351774  -0.0779397618   0.0007912828   0.0006665971  -0.0003123867
        0.0027468279  -0.0013690424  -0.0024683808   0.0002746640   0.0005097286
       -0.0007799607  -0.0008746064   0.0003075267   0.0001880245   0.0015296683
       -0.0018174915   0.0026874314  -0.0003413388   0.0006927482  -0.0009034387
        0.0000089422   0.0000224803   0.0000218738  -0.0000109713   0.0000027691
       -0.0000044958   0.0000006197  -0.0000033392  -0.0000013726  -0.0000018082
        0.0000016840  -0.0000007528  -0.0000002149  -0.0000008235  -0.0000006549
       -0.0000002453   0.0000012939   0.0000015057  -0.0000009968   0.0000017620
       -0.0000002013  -0.0000008379   0.0000007555  -0.0000004282  -0.0000002966
        0.0000001618   0.0000001785  -0.0000001237  -0.0000002080   0.0000003317
       -0.0000000576  -0.0000007617  -0.0000004775  -0.0000010766  -0.0000002570
       -0.0000005612  -0.0000013535   0.0000004361   0.0000002467  -0.0000007581
        0.0000006839   0.0000003202  -0.0000022680   0.0000010066  -0.0000002848
       -0.0000024067  -0.0000001024  -0.0000002176  -0.0000001145   0.0000001558
        0.0000010105   0.0000002778  -0.0000008511   0.0000007521   0.0000007944
       -0.0000001866  -0.0000000891   0.0000012218   0.0000002432   0.0000003344
        0.0000010081  -0.0000005058   0.0000005866   0.0000007835   0.0000005433
       -0.0000005307  -0.0000003367   0.0000007917   0.0000007348  -0.0000007876
        0.0000001185   0.0000002352  -0.0000006797  -0.0000001860  -0.0000000334
        0.0000003253  -0.0000002174  -0.0000002198   0.0000006396  -0.0000003172
        0.0000005514   0.0000035468   0.0000029443  -0.0000003769  -0.0000074494
       -0.0000451424  -0.0000461261   0.0000080316  -0.0000078365  -0.0000362842
        0.0000163496  -0.0000389917  -0.0000018403   0.0000058464  -0.0000083000
        0.0000079903   0.0000083841  -0.0000267289  -0.0000215300   0.0000068023
        0.0000233680  -0.0000033079  -0.0000011600  -0.0000015291   0.0000112111
        0.0000216445   0.0000343972  -0.0000156222   0.0000138551  -0.0000371633
       -0.0000036975  -0.0000189464  -0.0000300798   0.0000241440
        0.0291902474   0.0287223014   0.4937952101   0.0422731037   0.0335892189
       -0.1048089117   0.0140094492   0.0058137641  -0.0130000156   0.0096082748
        0.0161573532  -0.0177106193  -0.0042355642  -0.0031014628   0.0092769639
       -0.0029450096  -0.0009542885  -0.0017625046   0.0004746372   0.0009215636
       -0.0006077869  -0.0003851759  -0.0001367533  -0.0000365553   0.0000729252
        0.0001176314   0.0001168294  -0.0001204596   0.0001107202   0.0000277552
        0.0002914002  -0.0000191092  -0.0000032021  -0.0002822234   0.0000107279
        0.0000032883   0.0000671952  -0.0000945694  -0.0000297788  -0.0000135412
        0.0000021336  -0.0000038026  -0.0000102736  -0.0000099884  -0.0000029532
        0.0000450010  -0.0000852220   0.0000132004  -0.0000579651   0.0000835128
       -0.0000036950  -0.0000180697  -0.0000549305  -0.0000098895   0.0000084934
        0.0000068047   0.0000105229  -0.0000006072  -0.0000084259  -0.0000069302
        0.0000016519   0.0000035487  -0.0000000583   0.0000010421  -0.0000071664
       -0.0000016250   0.0000000448   0.0000120005   0.0000024507   0.0000326398
        0.0000122296   0.0000022183  -0.0000044628  -0.0000031087  -0.0000071634
        0.0000051353   0.0000013651   0.0000033255  -0.0000013121   0.0000012695
        0.0000001301   0.0000048545  -0.0000005688   0.0000004524  -0.0000058715
        0.0000001516  -0.0000033036   0.0000001246   0.0000531174   0.0000043838
       -0.0000064711  -0.0000552565   0.0000061564  -0.0000000165   0.0000541799
       -0.0000091357  -0.0000070122  -0.0000498900  -0.0000044028   0.0000405489
        0.0000738556  -0.0000125527  -0.0000655639  -0.0000580375   0.0000139034
       -0.0000102696   0.0000336806   0.0000020107  -0.0000017672  -0.0000073802
       -0.0000015923   0.0000008482   0.0000035068  -0.0000015384  -0.0000013044
       -0.0000005184   0.0000002705  -0.0000013820   0.0000057860   0.0000036960
        0.0000027606  -0.0000066819  -0.0000088642   0.0000367525  -0.0000149294
       -0.0000107351  -0.0000059917   0.0000054638   0.0000088340   0.0000048525
       -0.0000023387  -0.0000053015  -0.0000014124  -0.0000006519  -0.0000003227
        0.0000055810   0.0000004691  -0.0000014663  -0.0000096900  -0.0000005441
        0.0000035637  -0.0000011351   0.0000121820   0.0000021495  -0.0000041141
       -0.0000137690   0.0000059695   0.0000589395   0.0000888782   0.0000323991
       -0.0001854482  -0.0000390028   0.0000111200   0.0000439922  -0.0001147384
       -0.0001073933  -0.0000133366   0.0000711058   0.0000712647   0.0001007123
       -0.0001618167  -0.0001360612  -0.0006511295  -0.0004958539   0.0003009227
        0.0006194663   0.0012734670   0.0005100433   0.0000357781   0.0000415617
       -0.0000094947   0.0000005524  -0.0000441311   0.0000160143   0.0000621643
       -0.0000003573   0.0000230049  -0.0000296260  -0.0000284852  -0.0001133549
       -0.0000698828  -0.0026204355  -0.0014859574  -0.0869418647   0.0795547213
       -0.1429355053  -0.0740002039  -0.0825952833  -0.1133641280   0.0710464863
       -0.0781165193  -0.1052852559   0.0001805383   0.0008498488   0.0003502385
        0.0025917803  -0.0016401913  -0.0018711783  -0.0008196228   0.0004556940
        0.0006459205   0.0005374802  -0.0006902125   0.0006973689  -0.0017749927
        0.0030068903  -0.0032093753   0.0011989718   0.0001690891   0.0006439724
        0.0000343738   0.0000079203   0.0000275212  -0.0000167010  -0.0000017683
       -0.0000064814   0.0000043201  -0.0000061548   0.0000008712  -0.0000009373
        0.0000079592  -0.0000023566  -0.0000007329   0.0000000836  -0.0000035679
        0.0000005551   0.0000008161   0.0000039270   0.0000004188   0.0000040156
        0.0000018955  -0.0000000050   0.0000031437  -0.0000002516  -0.0000006206
       -0.0000007022   0.0000005239  -0.0000009290  -0.0000005892   0.0000027350
       -0.0000000325  -0.0000007150  -0.0000008298  -0.0000017945  -0.0000002246
       -0.0000004011  -0.0000019685   0.0000004832   0.0000007877   0.0000002068
        0.0000005932   0.0000009228  -0.0000023050   0.0000007649   0.0000029135
       -0.0000040001  -0.0000005049  -0.0000022761  -0.0000012913   0.0000000724
        0.0000003050  -0.0000012602  -0.0000025426   0.0000008089  -0.0000004195
       -0.0000027842  -0.0000008838   0.0000000574  -0.0000003464  -0.0000010039
       -0.0000000265  -0.0000018480   0.0000029660  -0.0000021101  -0.0000011075
       -0.0000036386  -0.0000009015   0.0000007851   0.0000014349  -0.0000028032
        0.0000006119   0.0000008655  -0.0000027672  -0.0000002452  -0.0000008404
        0.0000003536  -0.0000002223  -0.0000000346  -0.0000002360  -0.0000042598
        0.0000006892  -0.0000013080   0.0000043808  -0.0000025829   0.0000167816
       -0.0000212281  -0.0000245447   0.0000126738  -0.0000200574  -0.0000393096
       -0.0000179564  -0.0000107900  -0.0000406253   0.0000035724  -0.0000039359
        0.0000227897   0.0000126299  -0.0000342447  -0.0000238225  -0.0000063005
        0.0000194616   0.0000039248  -0.0000020189   0.0000134608   0.0000206723
       -0.0000000422   0.0000174105   0.0000029618   0.0000316234  -0.0000394039
        0.0000036298  -0.0000197511  -0.0000154633   0.0000171623
       -0.1021763347  -0.0378541718   0.0422731037   0.4837506305  -0.0104030149
       -0.0089936066  -0.1134763035   0.0483420496   0.0388590094  -0.0969818626
        0.0334193425  -0.0433005755  -0.0871489017  -0.0363393518  -0.0308309704
       -0.0302904913  -0.0209384968  -0.0180714672  -0.0049680589   0.0017013496
        0.0012084963  -0.0010036199  -0.0010541261  -0.0008520859  -0.0002582429
        0.0001535203   0.0001310710  -0.0002152632   0.0000778695   0.0000001650
        0.0003419226  -0.0000364400  -0.0000252260  -0.0003198884   0.0000230919
        0.0000118072   0.0000981683  -0.0001371338  -0.0000284362  -0.0000162543
        0.0000071241  -0.0000001346  -0.0000140033  -0.0000135734  -0.0000015664
        0.0000590800  -0.0001058526   0.0000163819  -0.0000717733   0.0001188883
        0.0000033278  -0.0000259700  -0.0000831466  -0.0000180583   0.0000114230
        0.0000132220   0.0000144816  -0.0000042179  -0.0000135376  -0.0000139932
        0.0000012183   0.0000058847   0.0000012319  -0.0000030697  -0.0000081872
       -0.0000055789  -0.0000042905   0.0000178462   0.0000022522   0.0000366709
        0.0000160503  -0.0000023042  -0.0000051000  -0.0000036732  -0.0000076357
        0.0000096250  -0.0000006729   0.0000026433  -0.0000055964   0.0000015496
        0.0000000426   0.0000044535  -0.0000004662   0.0000011474  -0.0000052136
       -0.0000009842  -0.0000053255  -0.0000000724   0.0000640287   0.0000066966
       -0.0000134011  -0.0000644009   0.0000068599  -0.0000071505   0.0000598364
       -0.0000099677  -0.0000041657  -0.0000535345  -0.0000041913   0.0000438788
        0.0000883151  -0.0000154655  -0.0000883183  -0.0000713446   0.0000231647
       -0.0000128966   0.0000372218   0.0000024488   0.0000009335  -0.0000073710
       -0.0000047260   0.0000019376   0.0000077828   0.0000010319  -0.0000002820
       -0.0000032025   0.0000012203   0.0000021387   0.0000075201   0.0000003966
        0.0000045451  -0.0000025049  -0.0000092547   0.0000534876  -0.0000189522
       -0.0000183945  -0.0000087553   0.0000075264   0.0000108143   0.0000091067
       -0.0000033602  -0.0000085572  -0.0000030248  -0.0000000296   0.0000012615
        0.0000063522  -0.0000007186  -0.0000028613  -0.0000101266  -0.0000014668
        0.0000045868  -0.0000017431   0.0000118213   0.0000056572   0.0000020062
       -0.0000167553   0.0000099342   0.0000860913   0.0001311435   0.0000272237
       -0.0001919817  -0.0000279902   0.0000333227   0.0000751417  -0.0001806086
       -0.0001823805  -0.0000189489   0.0001238101   0.0001306672   0.0001535440
       -0.0002333536  -0.0001953481  -0.0009194851  -0.0005414424  -0.0004037991
        0.0000812513   0.0044942194   0.0036835417   0.0006048633   0.0006682109
        0.0005521481   0.0000408234  -0.0000667091  -0.0000503412  -0.0001025628
        0.0001571216   0.0001314638   0.0000429071  -0.0000594196  -0.0000359952
        0.0103050517   0.0037372951   0.0033120804   0.0084425000   0.0070901950
       -0.0080086670  -0.0138132214  -0.0124639382   0.0099271426  -0.0143014884
       -0.0075359858   0.0139203413   0.0087298847  -0.0085834414  -0.0068743905
       -0.0145758661   0.0101774271   0.0118060332  -0.0138404719   0.0132170720
        0.0070097857  -0.0134620465   0.0125324834  -0.0103883292   0.0084790707
       -0.0074799471   0.0095868972  -0.0129491173   0.0078451148  -0.0143771446
        0.0000610849   0.0000595893   0.0000670598  -0.0000466119  -0.0000076916
       -0.0000153475   0.0000074583  -0.0000100299  -0.0000004852  -0.0000027780
        0.0000129007  -0.0000051101  -0.0000012273   0.0000011679  -0.0000044821
        0.0000012375   0.0000023160   0.0000079513  -0.0000013314   0.0000074058
        0.0000025855  -0.0000017360   0.0000037057  -0.0000009559  -0.0000013201
        0.0000000840   0.0000017101  -0.0000034649   0.0000008052   0.0000044991
       -0.0000004507  -0.0000004991  -0.0000000255  -0.0000019887  -0.0000007439
       -0.0000008240  -0.0000039302   0.0000007394   0.0000009322  -0.0000007997
        0.0000016825   0.0000018959  -0.0000065197   0.0000013502   0.0000025956
       -0.0000084586  -0.0000003867  -0.0000030058  -0.0000006233   0.0000006830
        0.0000022172   0.0000002050  -0.0000034982   0.0000020336   0.0000016965
       -0.0000015475  -0.0000003982   0.0000015375   0.0000004844   0.0000013858
        0.0000011175  -0.0000037881   0.0000045828  -0.0000006605   0.0000004337
       -0.0000040242  -0.0000006112   0.0000025286   0.0000034268  -0.0000034199
        0.0000009205   0.0000018266  -0.0000025748  -0.0000005049  -0.0000005471
        0.0000013126  -0.0000002784   0.0000003860  -0.0000002923  -0.0000042164
        0.0000012601   0.0000012130   0.0000093188  -0.0000052656  -0.0000858260
       -0.0000463434  -0.0000495465   0.0000115094  -0.0000189876  -0.0000462416
       -0.0000524633  -0.0000116204   0.0000747320  -0.0000057100  -0.0000115643
       -0.0000015413   0.0000655403   0.0000238247   0.0000183904  -0.0000166484
        0.0000200238  -0.0000038470  -0.0000162668   0.0000006718   0.0000198881
       -0.0000062903  -0.0000035140  -0.0000123782   0.0000105259  -0.0000484233
       -0.0000129769  -0.0000515596   0.0000763737  -0.0000254599
       -0.0381622498  -0.0963166127   0.0335892189  -0.0104030149   0.4840445934
        0.0260714363   0.0482927530  -0.1117429495  -0.0392345531   0.0407005664
       -0.0929262333   0.0428870535  -0.0431464803  -0.1127135711  -0.0462020782
       -0.0081969046   0.0010328123  -0.0039149256   0.0006148053   0.0051879675
       -0.0041609787   0.0002486211  -0.0002729604   0.0004159095   0.0000244417
       -0.0001125800   0.0000288493   0.0000268734   0.0000007297  -0.0000354032
       -0.0001019068  -0.0000039102  -0.0000046839   0.0000789782  -0.0000265287
        0.0000057932  -0.0000151874   0.0000146543   0.0000170674   0.0000099919
        0.0000061425  -0.0000034800   0.0000072368  -0.0000001950  -0.0000005242
       -0.0000106530   0.0000225278  -0.0000044036  -0.0000010562  -0.0000304811
       -0.0000087892   0.0000074530   0.0000242072   0.0000099736  -0.0000045303
       -0.0000013362  -0.0000023106   0.0000000614  -0.0000000580   0.0000052383
       -0.0000025245   0.0000000573  -0.0000002707   0.0000000234   0.0000059068
        0.0000024627  -0.0000010287  -0.0000079002  -0.0000020442   0.0000069532
        0.0000008534   0.0000080211  -0.0000006921  -0.0000018856  -0.0000001014
        0.0000025383  -0.0000002698   0.0000002169  -0.0000015242  -0.0000008640
       -0.0000009785   0.0000008148   0.0000013109   0.0000014084  -0.0000018014
        0.0000015994   0.0000003858  -0.0000030391  -0.0000122814  -0.0000021393
        0.0000056507   0.0000153381  -0.0000012863  -0.0000099139  -0.0000171726
        0.0000034551   0.0000071287   0.0000161539  -0.0000000235   0.0000008189
       -0.0000089052   0.0000005348   0.0000054692  -0.0000054548  -0.0000044827
       -0.0000003873   0.0000050875   0.0000043280   0.0000011351  -0.0000009714
       -0.0000014269   0.0000003347   0.0000034035   0.0000027740   0.0000016228
       -0.0000021521   0.0000001546   0.0000028035   0.0000016900  -0.0000022419
        0.0000026437   0.0000030386  -0.0000000810  -0.0000035975   0.0000022479
        0.0000025171   0.0000018335  -0.0000004489  -0.0000008182   0.0000018186
        0.0000009001   0.0000008616  -0.0000003224  -0.0000001394   0.0000003242
       -0.0000015493  -0.0000001785   0.0000003063   0.0000039304  -0.0000003640
       -0.0000009440  -0.0000062713  -0.0000063037   0.0000015921   0.0000087118
        0.0000068955  -0.0000023934   0.0000030440   0.0000013589  -0.0000147961
        0.0001082570   0.0000152804  -0.0000732360  -0.0000110159   0.0000864278
        0.0000830873  -0.0000218829  -0.0000456832  -0.0000448324  -0.0000584060
        0.0001404736   0.0001230069  -0.0000495620  -0.0023893456   0.0026176387
        0.0033918372   0.0015443489  -0.0063033010  -0.0006739255  -0.0007334500
       -0.0004660301  -0.0000736867  -0.0000050923   0.0000890899   0.0001439163
       -0.0002208604  -0.0000761212   0.0000026649   0.0000192993   0.0000424779
       -0.0063465737  -0.0233214324  -0.0197255773  -0.0084044848  -0.0109588212
        0.0124139795  -0.0160191458  -0.0140666501   0.0115357247   0.0098578000
        0.0082149433  -0.0100855497   0.0112623098  -0.0162174773  -0.0130642411
       -0.0079178341   0.0088003420   0.0065546507   0.0126859790  -0.0125401212
       -0.0058435599   0.0132286490  -0.0127891412   0.0110649707   0.0078146772
       -0.0097052594   0.0124273086  -0.0090440685   0.0080565754  -0.0106556261
        0.0000104541   0.0000047486   0.0000165437   0.0000070494   0.0000079249
       -0.0000124921  -0.0000050369  -0.0000001680   0.0000050780  -0.0000002790
       -0.0000009277   0.0000024035   0.0000012893   0.0000024204   0.0000009443
       -0.0000006522  -0.0000004086  -0.0000030864  -0.0000003088  -0.0000001859
       -0.0000007357  -0.0000009983   0.0000005432  -0.0000008123  -0.0000004360
        0.0000007301  -0.0000014110  -0.0000004777   0.0000009067   0.0000002080
        0.0000000811  -0.0000001034  -0.0000005296  -0.0000004064  -0.0000001183
       -0.0000005279  -0.0000008279   0.0000002000   0.0000000485   0.0000000664
       -0.0000002038  -0.0000005679  -0.0000031530   0.0000005163  -0.0000004767
       -0.0000011885   0.0000002356   0.0000008837   0.0000010683   0.0000003762
        0.0000001014   0.0000013220  -0.0000000594   0.0000000251   0.0000013197
        0.0000013017   0.0000002597   0.0000008790   0.0000006401   0.0000014581
        0.0000004251  -0.0000015833   0.0000009915  -0.0000001523   0.0000009648
        0.0000002836   0.0000004868  -0.0000001543  -0.0000006910   0.0000005902
       -0.0000000604  -0.0000004061   0.0000008531   0.0000001203   0.0000001216
        0.0000005128   0.0000003223  -0.0000002496   0.0000001724   0.0000002532
        0.0000005882   0.0000015513   0.0000022515   0.0000005987   0.0000579427
       -0.0000518098   0.0000037224   0.0000121448   0.0000071923   0.0000124882
        0.0000068140   0.0000310936  -0.0000163573   0.0000131016  -0.0000072859
        0.0000130165  -0.0000231620  -0.0000710283  -0.0000548314   0.0000052702
        0.0000353963   0.0000031737   0.0000148762   0.0000086239   0.0000150211
       -0.0000002586   0.0000078988  -0.0000108254   0.0000076213  -0.0000114206
        0.0000005350   0.0000215187  -0.0000402686  -0.0000420787
        0.0497036649   0.0411676388  -0.1048089117  -0.0089936066   0.0260714363
        0.4733256507   0.0388180671  -0.0392264172  -0.0943485142  -0.0452229038
        0.0347902723  -0.1128359193  -0.0363213317  -0.0458255156  -0.0972323867
       -0.0074387074  -0.0040256487   0.0022057898   0.0004530074  -0.0040969471
        0.0066947969   0.0001572079   0.0004014638  -0.0004558670   0.0000404787
        0.0000474020  -0.0001070480  -0.0000158842  -0.0000429049   0.0000464967
       -0.0000399123   0.0000002550  -0.0000010244   0.0000300389   0.0000030493
       -0.0000227246   0.0000027235  -0.0000067343   0.0000133093   0.0000063517
        0.0000023111  -0.0000044830   0.0000017470  -0.0000015903  -0.0000018511
       -0.0000022575   0.0000060191   0.0000000505  -0.0000079872  -0.0000072164
       -0.0000077715   0.0000014026   0.0000064820   0.0000056736  -0.0000015209
        0.0000002872  -0.0000002461   0.0000006813  -0.0000022832   0.0000037029
       -0.0000014970   0.0000016085  -0.0000004645  -0.0000000071   0.0000035728
        0.0000011039  -0.0000007309  -0.0000049146  -0.0000013963   0.0000089944
        0.0000029303   0.0000074676  -0.0000003494  -0.0000007971  -0.0000004635
        0.0000016988  -0.0000004300  -0.0000003412  -0.0000027947  -0.0000005248
       -0.0000013878   0.0000016044   0.0000018723   0.0000022680  -0.0000025254
        0.0000012559  -0.0000011380  -0.0000014300  -0.0000056791  -0.0000016162
       -0.0000007097   0.0000045695   0.0000000208  -0.0000044750  -0.0000065701
        0.0000019312   0.0000043171   0.0000059559  -0.0000004230   0.0000005190
       -0.0000002696   0.0000007101   0.0000000187  -0.0000070090  -0.0000049841
        0.0000001323   0.0000048218   0.0000042046   0.0000000445  -0.0000016997
       -0.0000004423   0.0000007300   0.0000027014   0.0000014215   0.0000012733
       -0.0000001392   0.0000001121   0.0000013323   0.0000004728  -0.0000003372
        0.0000020508   0.0000018666  -0.0000008856  -0.0000009893   0.0000013083
        0.0000032899   0.0000006881   0.0000014104   0.0000007372   0.0000026353
        0.0000005720  -0.0000003699   0.0000009201  -0.0000003155  -0.0000006020
       -0.0000009575   0.0000009205   0.0000014464   0.0000027029  -0.0000001288
       -0.0000012184  -0.0000001120  -0.0000038851   0.0000016540   0.0000049439
        0.0000013666  -0.0000019687   0.0000054265   0.0000076479  -0.0000106277
        0.0000778811  -0.0000639653   0.0000138753  -0.0000051744   0.0000618126
        0.0000671773  -0.0000198362  -0.0000298089  -0.0000360580  -0.0000375624
        0.0001063673   0.0000960484  -0.0000885549   0.0025904844  -0.0033264143
        0.0028357892  -0.0061544358   0.0039066145  -0.0005419746  -0.0004537284
       -0.0005507372   0.0000150004   0.0000116555  -0.0000107852   0.0001190261
       -0.0000731739  -0.0001960221  -0.0000754483   0.0000864623  -0.0000118601
       -0.0050788253  -0.0197170540  -0.0165532169   0.0104681380   0.0126543976
       -0.0143065393  -0.0072060513  -0.0066563887   0.0078718607   0.0119773344
        0.0065755322  -0.0121515198   0.0095302026  -0.0135245784  -0.0110810810
        0.0141832929  -0.0099427212  -0.0120069458  -0.0108340299   0.0111032520
        0.0086038441   0.0065878294  -0.0060875000   0.0080301658  -0.0090189481
        0.0121888226  -0.0155876223  -0.0141910362   0.0081009684  -0.0151741682
        0.0000085222   0.0000236018  -0.0000040442   0.0000050534  -0.0000174631
        0.0000101572   0.0000003981   0.0000009603   0.0000050953   0.0000001800
        0.0000023351   0.0000019946   0.0000000391   0.0000035204   0.0000000889