$hessian                                                                        
        0.0877247443   0.0724903907   0.0000128788  -0.0629464672  -0.0595671494
        0.0000245733   0.0034641473   0.0301812946  -0.0000220860  -0.0004785790
        0.0025865006  -0.0000015184   0.0011581458   0.0014416795   0.0000063766
       -0.0003585998  -0.0003416421  -0.0000003214   0.0001862357   0.0018043787
        0.0000044128  -0.0041337730   0.0011001902  -0.0000190269  -0.0020088989
        0.0053110493   0.0000125899  -0.0003185731  -0.0037443497  -0.0000092328
        0.0005108567  -0.0050421231  -0.0000042496  -0.0049496425   0.0000722178
       -0.0000106248   0.0019847859  -0.0004961193   0.0000019502  -0.0008879730
       -0.0020659238   0.0000004266   0.0005502856   0.0001707778  -0.0000016354
        0.0009637691  -0.0009038640   0.0000030427  -0.0011628881   0.0009212516
       -0.0000019991   0.0005277134   0.0001702336   0.0000021360  -0.0001788337
       -0.0000486421  -0.0000003431   0.0003249824  -0.0001748164  -0.0000005895
       -0.0004590355  -0.0001663356  -0.0000009660   0.0002255970   0.0006100535
        0.0000013995  -0.0010327742  -0.0009130780  -0.0000068481   0.0067110711
       -0.0065816133  -0.0000037091  -0.0256974877  -0.0382275901   0.0000159594
        0.0006377305   0.0009574838   0.0000005185   0.0000145424   0.0000003509
       -0.0000005753   0.0000432530   0.0001578491  -0.0000012332  -0.0005634203
        0.0003366131  -0.0000021576   0.0000577870  -0.0000432998  -0.0000000433
        0.0001459339  -0.0000140754   0.0000002969   0.0000241183   0.0000074870
        0.0000000654  -0.0000654723  -0.0000093967  -0.0000000627  -0.0000510398
       -0.0000022410   0.0000001950   0.0000377585   0.0000224582   0.0000004008
        0.0724903907   0.6528984862  -0.0003095633  -0.0352381116  -0.5140775526
        0.0002514592   0.0261477121  -0.0680041438   0.0000861104  -0.0095069283
       -0.0021739948  -0.0000137756   0.0023626155  -0.0009577318   0.0000001580
       -0.0019464079   0.0016491389  -0.0000056679   0.0010929879  -0.0026374388
        0.0000010269   0.0051578505  -0.0007415751   0.0000072425  -0.0063857284
        0.0295211635   0.0000497581  -0.0037146980  -0.0196388257  -0.0000468423
        0.0203127509  -0.0194396901  -0.0000156014  -0.0273184536   0.0080206862
       -0.0000223750   0.0107316067  -0.0164657373  -0.0000149802  -0.0083186265
        0.0066251502   0.0000442810   0.0024683585  -0.0019125276  -0.0000192731
        0.0042886920  -0.0044034397   0.0000192375  -0.0064931910   0.0055458739
       -0.0000076812   0.0003243689  -0.0001878919   0.0000000499   0.0004796252
        0.0021118871   0.0000072706   0.0016311439  -0.0031920561  -0.0000128726
       -0.0036317357  -0.0003255147  -0.0000022590   0.0024089013   0.0029981188
        0.0000115386  -0.0038894859  -0.0017203954  -0.0000158579   0.0289577177
       -0.0092946756  -0.0000318408  -0.0750527391  -0.0445681134   0.0000353260
        0.0015433838   0.0008093909   0.0000062368  -0.0001897804   0.0000745700
       -0.0000013544   0.0000896730   0.0001129780   0.0000004542   0.0004351909
       -0.0002841224   0.0000012559  -0.0001801703  -0.0002205006  -0.0000039290
        0.0008992389  -0.0001880333   0.0000008828   0.0001775714   0.0000224678
        0.0000003426  -0.0001784974  -0.0000016012   0.0000002192  -0.0000591971
        0.0000587770   0.0000000679   0.0001039712  -0.0000131267   0.0000009558
        0.0000128788  -0.0003095633   0.0203802856   0.0000286204   0.0002236221
       -0.0458066209  -0.0000208013   0.0000788386   0.0120043461  -0.0000012995
        0.0000050546  -0.0000077750   0.0000061726   0.0000017166  -0.0008868340
       -0.0000000879  -0.0000006410  -0.0000369868   0.0000031683   0.0000046093
       -0.0008792272  -0.0000173635  -0.0000007695   0.0031212067  -0.0000019738
        0.0000023387   0.0008307600   0.0000011386  -0.0000016458  -0.0005909187
        0.0000085991  -0.0000041238   0.0026047564  -0.0000082097   0.0000078640
        0.0003582428   0.0000076004  -0.0000019031  -0.0003371043  -0.0000147452
       -0.0000041207  -0.0001037083   0.0000039680  -0.0000016274   0.0002621928
       -0.0000004051  -0.0000019446  -0.0000701911  -0.0000017070   0.0000016119
        0.0000520393   0.0000016824   0.0000004133   0.0000324771  -0.0000007114
       -0.0000005438   0.0000600221   0.0000008664  -0.0000002665  -0.0000084142
       -0.0000014346  -0.0000004516   0.0000543535   0.0000007965   0.0000018316
       -0.0000840504  -0.0000036592  -0.0000010269  -0.0003268960   0.0000303630
       -0.0000061092   0.0003986701  -0.0000328315   0.0000045348   0.0088514240
        0.0000010451   0.0000008554   0.0000202248   0.0000000064  -0.0000001676
        0.0000823968  -0.0000006220   0.0000003795   0.0002336149  -0.0000005862
        0.0000007627  -0.0000901559  -0.0000007047   0.0000002399  -0.0000557502
        0.0000002878   0.0000002087  -0.0000461977   0.0000000491   0.0000000473
       -0.0000092866  -0.0000000074   0.0000000985  -0.0000197984  -0.0000000344
       -0.0000001372   0.0000161624  -0.0000000580   0.0000000145  -0.0000032596
       -0.0629464672  -0.0352381116   0.0000286204   0.4463277419  -0.0035481877
        0.0002833240  -0.1353481676   0.0579815949  -0.0001694412  -0.0566870844
        0.0136785465  -0.0001166392  -0.0002988275  -0.0161013983  -0.0000138918
        0.0033057802   0.0069651462   0.0000081155  -0.0007532231  -0.0029457519
       -0.0000184915   0.0175474014   0.0225849207   0.0000550261  -0.0033302292
       -0.0296332968  -0.0000579794   0.0036723971   0.0221652311   0.0000409473
       -0.0388281965  -0.0123476089  -0.0000378701   0.0352784603  -0.0042660867
        0.0000419380  -0.0190810771   0.0020004119  -0.0000282417   0.0247589414
        0.0123682312  -0.0000010592  -0.0071316057   0.0003222720   0.0000143532
       -0.0012189289   0.0054680401   0.0000040370   0.0049570770  -0.0040042166
       -0.0000031125  -0.0044253817  -0.0019663028  -0.0000100910   0.0018404729
        0.0009030109   0.0000040014  -0.0021130058   0.0003791395   0.0000003851
        0.0030965947   0.0009015886   0.0000050538  -0.0023587206  -0.0041372779
       -0.0000163480   0.0087438390   0.0051243708   0.0000349594  -0.1047664077
        0.0210914495   0.0000691542  -0.1089996170  -0.0577994511  -0.0001213707
       -0.0013068212   0.0007539559   0.0000006859  -0.0005311025   0.0005644556
       -0.0000029179   0.0000351567  -0.0001661354   0.0000044504   0.0011455659
       -0.0006610934   0.0000049371   0.0002343413  -0.0001701065   0.0000000440
       -0.0006890256  -0.0002067515  -0.0000021925  -0.0002073390   0.0000219125
        0.0000003043   0.0001590164   0.0000256532   0.0000002507   0.0000883541
       -0.0000644101  -0.0000002569  -0.0001699117  -0.0000437438  -0.0000006842
       -0.0595671494  -0.5140775526   0.0002236221  -0.0035481877   0.7062438391
       -0.0002862280   0.0564204377  -0.1134408558   0.0000759585   0.0170545381
        0.0110270286   0.0000175698  -0.0088856921   0.0045236610  -0.0000230463
        0.0018688172  -0.0040875289   0.0000054621  -0.0035185637  -0.0032321634
       -0.0000142665   0.0185732712  -0.0309707271   0.0000470079   0.0088180409
       -0.0381649010  -0.0000488611   0.0053470660   0.0267721680   0.0000580386
       -0.0527566560   0.0080668675  -0.0000100734   0.0386404561  -0.0192598531
        0.0000106002  -0.0175767138   0.0261515844   0.0000254444   0.0164222572
       -0.0145962624  -0.0000852012  -0.0026399853   0.0040773346   0.0000275645
       -0.0048133029   0.0057107533  -0.0000160695   0.0088188405  -0.0072354468
        0.0000010816  -0.0007851904   0.0001577938   0.0000019484  -0.0005144308
       -0.0026715528  -0.0000095559  -0.0023811635   0.0042641324   0.0000169458
        0.0052630013   0.0003304264   0.0000026541  -0.0036094197  -0.0043991005
       -0.0000192273   0.0063384864   0.0018469196   0.0000180141  -0.0281158504
        0.0279239527   0.0000783483   0.0097163098  -0.0748482124  -0.0001006432
       -0.0029749850  -0.0003023583  -0.0000047955  -0.0007797273   0.0003920206
       -0.0000002878  -0.0001814230  -0.0000380248   0.0000006736   0.0006039196
       -0.0007934161   0.0000020238   0.0000871319   0.0004237060   0.0000067126
       -0.0011438844   0.0001270564  -0.0000013758  -0.0002711518  -0.0000044661
       -0.0000003489   0.0001722820   0.0000135657  -0.0000002053   0.0000032337
       -0.0000800229   0.0000004797  -0.0000846124   0.0001496346   0.0000000354
        0.0000245733   0.0002514592  -0.0458066209   0.0002833240  -0.0002862280
        0.1362146861  -0.0001455136   0.0000742246  -0.0563533577  -0.0001183542
        0.0000389084   0.0011333465  -0.0000265712  -0.0000234787   0.0072439203
        0.0000025966   0.0000089121  -0.0002495198  -0.0000185819  -0.0000075672
        0.0067083982   0.0000354349   0.0000329079  -0.0018645027   0.0000008317
       -0.0000248237  -0.0039219822   0.0000010621   0.0000172717   0.0008423568
       -0.0000731736  -0.0000477956   0.0010612938   0.0000392753  -0.0000240957
        0.0017392419  -0.0000289994   0.0000122994   0.0000237871   0.0000345437
       -0.0000051359   0.0045953047  -0.0000049520  -0.0000027640   0.0009315236
       -0.0000001570   0.0000018072  -0.0000447173   0.0000034225  -0.0000015759
       -0.0001748832  -0.0000047339   0.0000008379  -0.0000489652   0.0000011751
        0.0000002505  -0.0000365925  -0.0000033698   0.0000015271   0.0000063783
        0.0000053489   0.0000012089  -0.0000696015  -0.0000032611  -0.0000068775
        0.0002990177   0.0000138734   0.0000075626  -0.0000573957  -0.0000316368
        0.0000499213  -0.0040018705   0.0000039752  -0.0000712676  -0.0441827879
        0.0000061327   0.0000025223  -0.0024603709  -0.0000023537   0.0000020217
       -0.0000376079   0.0000052533  -0.0000004028  -0.0017862880   0.0000010864
       -0.0000013887   0.0002677939   0.0000003824  -0.0000000986   0.0000821014
       -0.0000004967  -0.0000003091  -0.0000255511  -0.0000002395  -0.0000000702
        0.0000289958   0.0000000969  -0.0000000756   0.0000285467   0.0000000709
        0.0000001054  -0.0000430198  -0.0000000649   0.0000002064  -0.0000410581
        0.0034641473   0.0261477121  -0.0000208013  -0.1353481676   0.0564204377
       -0.0001455136   0.5961473321   0.0233817979   0.0010843156  -0.2486003067
       -0.1027927571  -0.0005139210  -0.0665048495   0.0496779804  -0.0001702313
       -0.0187992566  -0.0336230901  -0.0000361345   0.0298580541   0.0189082870
        0.0000831124  -0.0937288124  -0.0174233270  -0.0001060638   0.0023335272
       -0.0223866676   0.0000045791  -0.0067183990  -0.0073759087  -0.0000382736
        0.0026784568   0.0091174223   0.0000155489  -0.0006437612  -0.0018489535
       -0.0000045224   0.0033076283   0.0072543978   0.0000195887  -0.0079965652
       -0.0070781505  -0.0000106720   0.0000778859   0.0007528130   0.0000043624
       -0.0006117820   0.0004587802  -0.0000005524   0.0006907622  -0.0007438113
       -0.0000015466   0.0017349965   0.0002886385   0.0000026363  -0.0008747253
       -0.0011004119  -0.0000043678   0.0002218487   0.0010492878   0.0000044408
        0.0002044783  -0.0001966238  -0.0000011355  -0.0000462430   0.0005116470
        0.0000020307  -0.0021410442  -0.0015422985  -0.0000076908   0.0079608948
       -0.0045007174  -0.0000203186  -0.0545342144   0.0067586929  -0.0000584785
       -0.0049127031  -0.0061803368  -0.0000209461  -0.0032662229   0.0032100865
       -0.0000327964   0.0002734826  -0.0008423701   0.0000021147  -0.0040458940
        0.0033465674  -0.0000312692  -0.0001073982   0.0001501394   0.0000014009
       -0.0001233657   0.0001471490   0.0000005824   0.0000232339  -0.0000226010
       -0.0000002483  -0.0000064076   0.0000050231   0.0000000418  -0.0000285862
        0.0000109832   0.0000003688   0.0000619763   0.0000601819   0.0000003600
        0.0301812946  -0.0680041438   0.0000788386   0.0579815949  -0.1134408558
        0.0000742246   0.0233817979   0.6318846185   0.0001759652  -0.0592601677
       -0.1220451727  -0.0001232987  -0.0029670417   0.0374609109   0.0000008923
       -0.0242262352  -0.0241226547  -0.0000679454   0.0517256267  -0.0400757896
        0.0001340946  -0.0323700215  -0.2726049799  -0.0001525018  -0.0317716792
       -0.0234154637  -0.0000774037   0.0014302119   0.0053595151   0.0000042904
        0.0015669420  -0.0101715042  -0.0000106270   0.0018922498   0.0018138786
        0.0000066232  -0.0017150700  -0.0058902575  -0.0000201506   0.0065009433
        0.0092712719   0.0000176225  -0.0013252646  -0.0007882661  -0.0000010298
        0.0003572395   0.0005155421   0.0000024154  -0.0000608849   0.0001455037
        0.0000005336  -0.0016374359  -0.0007100404  -0.0000042012   0.0009074612
        0.0009666249   0.0000039389  -0.0003660636  -0.0008803525  -0.0000040919
       -0.0000488666   0.0003498688   0.0000017538   0.0000008399  -0.0006500612
       -0.0000020138   0.0019264176   0.0017581715   0.0000105957  -0.0173874330
        0.0004749317   0.0000066820   0.0172923580   0.0103647947   0.0000190165
       -0.0277582165  -0.0144636185  -0.0000825465   0.0036872653  -0.0015487934
        0.0000066599  -0.0007271936   0.0000922212  -0.0000034092   0.0028239508
       -0.0013215507   0.0000070773   0.0000351712  -0.0001650053  -0.0000013185
       -0.0000011967  -0.0001398284  -0.0000009116  -0.0000450673   0.0000235085
        0.0000002732   0.0000163942   0.0000036139   0.0000001693   0.0000373527
       -0.0000105758  -0.0000000854  -0.0000772735  -0.0000360620  -0.0000001319
       -0.0000220860   0.0000861104   0.0120043461  -0.0001694412   0.0000759585
       -0.0563533577   0.0010843156   0.0001759652   0.1196071441  -0.0005166169
       -0.0002557374  -0.0506045168  -0.0001766901   0.0001159654   0.0020881030
       -0.0000296167  -0.0000755041  -0.0059528140   0.0000580966   0.0000437452
        0.0028874780  -0.0000758226  -0.0000942442  -0.0488569563  -0.0000175453
       -0.0000983112  -0.0018442826  -0.0000252168  -0.0000036693   0.0031466148
       -0.0000110441   0.0000158518  -0.0004960857   0.0000227182  -0.0000035996
       -0.0001912102  -0.0000058054   0.0000112057   0.0001993131   0.0000065278
       -0.0000028931   0.0004570676  -0.0000038573   0.0000041536  -0.0005854803
       -0.0000017256   0.0000050263  -0.0001212878   0.0000046701  -0.0000043618
        0.0000810789  -0.0000003280  -0.0000011107   0.0000061448   0.0000000653
       -0.0000009287   0.0000232833  -0.0000009314   0.0000014924   0.0000003282
        0.0000020165   0.0000001631   0.0000307319  -0.0000015408  -0.0000016258
       -0.0000349467   0.0000019330   0.0000009848  -0.0001874511  -0.0000279320
       -0.0000043132   0.0036589144  -0.0000178714   0.0000098512   0.0045961329
       -0.0000176451  -0.0000152821   0.0014305772  -0.0000325050   0.0000095652
        0.0087564985   0.0000025836  -0.0000021899  -0.0005802645  -0.0000279476
        0.0000074799   0.0067829957  -0.0000000860   0.0000001241   0.0000327845
       -0.0000005748  -0.0000000014   0.0000332883  -0.0000001048   0.0000000564
       -0.0000092759   0.0000000639   0.0000000697  -0.0000091526  -0.0000000234
       -0.0000000708   0.0000042470  -0.0000000324   0.0000000744   0.0000000098
       -0.0004785790  -0.0095069283  -0.0000012995  -0.0566870844   0.0170545381
       -0.0001183542  -0.2486003067  -0.0592601677  -0.0005166169   0.6389892801
       -0.0356755472   0.0013563680  -0.2550608932   0.0863059866  -0.0005769367
        0.0388896967   0.0707186767   0.0001047755  -0.0537304166   0.0060109400
       -0.0001315525   0.0068527960  -0.0643582733   0.0000012075   0.0009387789
       -0.0028629580  -0.0000199854  -0.0000502939   0.0016749978   0.0000045735
       -0.0032998029  -0.0025875468  -0.0000058846   0.0043762486   0.0001382408
        0.0000076439  -0.0036281940  -0.0022743037  -0.0000118785   0.0038532167
        0.0045663567   0.0000105841  -0.0006279277  -0.0003285888   0.0000000979
        0.0002388128  -0.0001981902   0.0000019118  -0.0002117732   0.0002899997
       -0.0000011607  -0.0013010608   0.0000278641  -0.0000004806   0.0005438942
        0.0005324777   0.0000020809  -0.0003555809  -0.0004183436  -0.0000019539
        0.0002959199   0.0001688464   0.0000010369  -0.0002689736  -0.0008041135
       -0.0000032974   0.0021599981   0.0013224556   0.0000067016  -0.0111070350
        0.0018826185   0.0000063198   0.0101506763   0.0036644483  -0.0000039877
       -0.0463230697  -0.0310408814  -0.0000191972  -0.0262187772   0.0161893674
       -0.0000704021   0.0011159520  -0.0009965874  -0.0000159162  -0.0004598499
        0.0000497206  -0.0000027521   0.0000615419  -0.0001300579  -0.0000009179
        0.0000382613  -0.0001455733  -0.0000007663  -0.0000451946   0.0000245070
        0.0000002188  -0.0000154441  -0.0000062850  -0.0000000126   0.0000067219
       -0.0000213488  -0.0000002036  -0.0000415380  -0.0000063468   0.0000000364
        0.0025865006  -0.0021739948   0.0000050546   0.0136785465   0.0110270286
        0.0000389084  -0.1027927571  -0.1220451727  -0.0002557374  -0.0356755472
        0.6778477400  -0.0001135833   0.1640181064  -0.1908604599   0.0004426882
        0.0150431880  -0.0510435613   0.0000435871   0.0100414253   0.0018331782
        0.0000298674  -0.0322914690  -0.0162753709  -0.0000819454   0.0022056129
       -0.0041325797   0.0000042925  -0.0026575055  -0.0020076672  -0.0000113903
       -0.0006885197  -0.0005124389  -0.0000021280  -0.0012442032   0.0009666024
        0.0000009424   0.0008629374  -0.0012267524  -0.0000006034   0.0002705602
       -0.0000690965   0.0000003421   0.0003436244  -0.0000491323  -0.0000009326
       -0.0003859101   0.0002643242   0.0000011260   0.0002820433  -0.0002818222
       -0.0000009143   0.0001539328  -0.0001465979  -0.0000007630  -0.0000910686
        0.0000430967   0.0000002909   0.0000889603  -0.0000541441  -0.0000001860
       -0.0002109172  -0.0000794073  -0.0000004063   0.0001823158   0.0002330104
        0.0000009573  -0.0005705302  -0.0002801195  -0.0000017917   0.0017489739
       -0.0004291733  -0.0000024498   0.0038571122  -0.0008765874   0.0000062324
       -0.0311627761  -0.3003045930  -0.0000814832  -0.0072308762   0.0060549306
       -0.0000220898  -0.0006966396  -0.0061878073   0.0000002968   0.0002264738
        0.0007291025   0.0000018235   0.0000377523  -0.0000165644  -0.0000002818
       -0.0000257968   0.0000727760   0.0000003308   0.0000395593  -0.0000344016
       -0.0000001995   0.0000329071   0.0000094050   0.0000000599   0.0000180079
        0.0000298078   0.0000001684   0.0000059761  -0.0000235579  -0.0000000829
       -0.0000015184  -0.0000137756  -0.0000077750  -0.0001166392   0.0000175698
        0.0011333465  -0.0005139210  -0.0001232987  -0.0506045168   0.0013563680
       -0.0001135833   0.1153565731  -0.0005688526   0.0002369342  -0.0460382493
        0.0001014699   0.0001916918   0.0012824696  -0.0001306805   0.0000147109
       -0.0051920112   0.0000079262  -0.0001874562   0.0031354498  -0.0000175674
       -0.0000042879   0.0069427654   0.0000058387   0.0000025669  -0.0009993542
       -0.0000021012  -0.0000004084  -0.0010419882   0.0000060697   0.0000006907
       -0.0005954111  -0.0000065492  -0.0000061200   0.0002854789   0.0000075924
        0.0000115593  -0.0005611517  -0.0000011356  -0.0000002972  -0.0001190601
        0.0000012697  -0.0000011411   0.0000202436  -0.0000012074   0.0000012553
        0.0000247611  -0.0000026908   0.0000001762  -0.0000242697   0.0000011216
        0.0000014492  -0.0000261012  -0.0000007783  -0.0000010622   0.0000070868
        0.0000006052   0.0000003388  -0.0000142449  -0.0000005211  -0.0000015242
        0.0000015782   0.0000045056   0.0000019783   0.0001899472  -0.0000269103
        0.0000030215   0.0000835163   0.0000166815   0.0000067080   0.0037304112
       -0.0000256331  -0.0000803986  -0.0350859487  -0.0000740143   0.0000436347
        0.0011300427  -0.0000179134  -0.0000005395   0.0071951699  -0.0000008340
        0.0000001647  -0.0002021157   0.0000000651  -0.0000000801  -0.0000204666
        0.0000001364  -0.0000003460   0.0000070700  -0.0000000999   0.0000000489
       -0.0000031260  -0.0000000316  -0.0000000346   0.0000052381  -0.0000000079
       -0.0000000644  -0.0000028411  -0.0000000424  -0.0000000812   0.0000074833
        0.0011581458   0.0023626155   0.0000061726  -0.0002988275  -0.0088856921
       -0.0000265712  -0.0665048495  -0.0029670417  -0.0001766901  -0.2550608932
        0.1640181064  -0.0005688526   0.6824217939  -0.0027920192   0.0015322693
       -0.0982137596  -0.0690346782  -0.0001337992   0.0093987671  -0.0322856703
        0.0000220572  -0.0040749280   0.0182697917   0.0000109037   0.0001000759
       -0.0019098199  -0.0000010470   0.0003568042   0.0017642030   0.0000031111
       -0.0008405538   0.0013106958  -0.0000002416   0.0011800430  -0.0003682172
        0.0000010672   0.0001289605   0.0016491433   0.0000031944  -0.0007160336
       -0.0012109493  -0.0000027995  -0.0001343392   0.0002723137   0.0000010728
       -0.0003420577   0.0004814834   0.0000029002   0.0005052695  -0.0004616958
       -0.0000028401   0.0002370856  -0.0000977445  -0.0000000720  -0.0001947972
       -0.0001595717  -0.0000007302  -0.0000557384   0.0002132974   0.0000008441
        0.0001394386  -0.0000444901  -0.0000001628  -0.0000295918  -0.0000563245
       -0.0000004470  -0.0002645658  -0.0001509390  -0.0000005619   0.0007342791
       -0.0001575232   0.0000014470  -0.0030925885  -0.0002846505  -0.0000043569
        0.0019626541  -0.0003818576  -0.0000037786  -0.2654120872  -0.0900153101
       -0.0006230765   0.0017530996   0.0234254298  -0.0000017243  -0.0048295387
       -0.0026100549  -0.0000379000  -0.0000211528   0.0000217511   0.0000001729
       -0.0000491672   0.0000386735   0.0000001820   0.0000271183  -0.0000274662
       -0.0000001642   0.0000285319   0.0000187536   0.0000000925   0.0000075146
        0.0000301623   0.0000001884  -0.0000041118   0.0000252953   0.0000001403
        0.0014416795  -0.0009577318   0.0000017166  -0.0161013983   0.0045236610
       -0.0000234787   0.0496779804   0.0374609109   0.0001159654   0.0863059866
       -0.1908604599   0.0002369342  -0.0027920192   0.6346033034  -0.0000523973
        0.0116970125  -0.3027833254   0.0000720999  -0.0883018263  -0.0217475261
       -0.0002383965   0.0287914362  -0.0387671007   0.0000718084  -0.0079693676
       -0.0065160204  -0.0000261673   0.0014651323   0.0042545506   0.0000082018
       -0.0006425756  -0.0028790625  -0.0000023707   0.0028373828  -0.0002427696
        0.0000025361  -0.0025373634  -0.0019978263  -0.0000099685   0.0035578166
        0.0040735652   0.0000064621  -0.0003569575  -0.0002983294   0.0000004877
        0.0002273901  -0.0000971322  -0.0000007161  -0.0001222036   0.0001990229
        0.0000014080  -0.0010945319  -0.0000744608  -0.0000011314   0.0005274140
        0.0005085073   0.0000021119  -0.0003568154  -0.0003753951  -0.0000019452
        0.0002405190   0.0001619597   0.0000009851  -0.0001893928  -0.0006180314
       -0.0000025345   0.0017953139   0.0010862350   0.0000065060  -0.0088933462
        0.0020654748   0.0000069648   0.0101722899   0.0007018031   0.0000028486
        0.0227878391  -0.0204502836   0.0000658779  -0.0899500440  -0.0800456425
       -0.0002350354  -0.0000523734  -0.0208290879   0.0000004685  -0.0022131974
        0.0000453855  -0.0000081343   0.0000423441  -0.0000614314  -0.0000005254
        0.0000532386  -0.0001118350  -0.0000008770  -0.0000380086   0.0000326440
        0.0000002151   0.0000082454   0.0000097373   0.0000000869   0.0000178587
       -0.0000092850  -0.0000000843  -0.0000354585  -0.0000040238   0.0000000775
        0.0000063766   0.0000001580  -0.0008868340  -0.0000138918  -0.0000230463
        0.0072439203  -0.0001702313   0.0000008923   0.0020881030  -0.0005769367
        0.0004426882  -0.0460382493   0.0015322693  -0.0000523973   0.1149365064
       -0.0001322533  -0.0001485796  -0.0483464050   0.0000200691  -0.0000884082
        0.0012728198   0.0000011703   0.0000459453  -0.0059569532   0.0000002194
        0.0000034536  -0.0002737508   0.0000010590  -0.0000018955  -0.0000246899
        0.0000037379   0.0000025923   0.0001334306  -0.0000024254  -0.0000013606
        0.0000228571   0.0000029679   0.0000042230  -0.0000211080  -0.0000053041
       -0.0000040481  -0.0000288078   0.0000004566   0.0000003597   0.0000640589
       -0.0000009860   0.0000006605   0.0000101499   0.0000008529  -0.0000008068
       -0.0000059434   0.0000012135   0.0000000135  -0.0000016602  -0.0000007867
       -0.0000006244   0.0000002696   0.0000001948   0.0000005477   0.0000016909
       -0.0000001210  -0.0000001355  -0.0000011241   0.0000002051   0.0000003327
        0.0000062241  -0.0000018823  -0.0000010394   0.0000081307   0.0000091655
       -0.0000019681  -0.0003301424  -0.0000184533   0.0000015079  -0.0003336555
        0.0000015425  -0.0000016257   0.0014285461  -0.0006207532  -0.0002397824
       -0.0348578810   0.0000011232   0.0000696207   0.0014745548  -0.0000387576
       -0.0000076229   0.0084295276  -0.0000000879   0.0000000604  -0.0000073693
       -0.0000000064   0.0000001581  -0.0000051044   0.0000001185  -0.0000000918
        0.0000016171   0.0000000510   0.0000000436   0.0000003955   0.0000000269
        0.0000000849  -0.0000018653   0.0000000569   0.0000000904  -0.0000012586
       -0.0003585998  -0.0019464079  -0.0000000879   0.0033057802   0.0018688172
        0.0000025966  -0.0187992566  -0.0242262352  -0.0000296167   0.0388896967
        0.0150431880   0.0001014699  -0.0982137596   0.0116970125  -0.0001322533
        0.6806083422  -0.0107929978   0.0016443932  -0.3160702139  -0.1284712330
       -0.0007924511  -0.0716450607   0.0336708607  -0.0002064288   0.0061348856
        0.0121625785   0.0000047219  -0.0005223127  -0.0051844264  -0.0000032944
       -0.0008339114   0.0007741104  -0.0000016769  -0.0025958325   0.0011478069
       -0.0000000153   0.0020904492   0.0004434387   0.0000057790  -0.0016225298
       -0.0023795929  -0.0000032399  -0.0000565818   0.0001853497  -0.0000003109
        0.0000383827   0.0002328245   0.0000012652   0.0000153519  -0.0001021577
       -0.0000007882   0.0007312391  -0.0001193203  -0.0000002675  -0.0003415166
       -0.0002468414  -0.0000008925   0.0002669183   0.0001729111   0.0000007993
       -0.0002754610  -0.0001395655  -0.0000007424   0.0002224120   0.0005053762
        0.0000021106  -0.0014383520  -0.0007701532  -0.0000051132   0.0053857184
       -0.0016859391  -0.0000054067  -0.0056179574   0.0005655951   0.0000003706
       -0.0031824639   0.0035041964  -0.0000336069  -0.0060194949  -0.0275382721
       -0.0000205529  -0.2046178567   0.1252472765  -0.0005116278  -0.0055507590
       -0.0037520033  -0.0000157036  -0.0000103111   0.0000225396   0.0000000332
       -0.0000124790   0.0000936340   0.0000005555   0.0000480398  -0.0000319511
       -0.0000002385   0.0000129852   0.0000087000  -0.0000000090   0.0000017089
        0.0000295158   0.0000001614   0.0000328001   0.0000113650   0.0000000682
       -0.0003416421   0.0016491389  -0.0000006410   0.0069651462  -0.0040875289
        0.0000089121  -0.0336230901  -0.0241226547  -0.0000755041   0.0707186767
       -0.0510435613   0.0001916918  -0.0690346782  -0.3027833254  -0.0001485796
       -0.0107929978   0.6365892656  -0.0000912242  -0.0507158899  -0.1297963963
       -0.0001625650  -0.0191860318   0.0418394414  -0.0000430079   0.0148563320
        0.0018195858   0.0000376975  -0.0021827514  -0.0025908923  -0.0000078011
       -0.0021114420   0.0038589490   0.0000005871   0.0019636429  -0.0004572780
        0.0000008541   0.0001042774   0.0031454869   0.0000087245  -0.0019539439
       -0.0033940204  -0.0000072556  -0.0000922247   0.0003729782   0.0000005311
       -0.0003084246   0.0002835317   0.0000016352   0.0004732591  -0.0004395084
       -0.0000027283   0.0006244047   0.0001683779   0.0000015232  -0.0003815964
       -0.0004978594  -0.0000022048   0.0000863606   0.0005191961   0.0000023799
        0.0002426492  -0.0000450270  -0.0000004167  -0.0001254744   0.0000057177
        0.0000000182  -0.0005379451  -0.0003611012  -0.0000022942   0.0038398913
       -0.0002506565  -0.0000015399  -0.0054493297  -0.0021183410  -0.0000060225
        0.0031087060  -0.0014601313   0.0000041535  -0.0041043990  -0.0130698847
       -0.0000143693   0.1251668063  -0.1410390003   0.0003810904  -0.0270656644
       -0.0128187751  -0.0000746999  -0.0000545192   0.0000708785   0.0000007359
       -0.0000863656   0.0000706173   0.0000006432   0.0000043403  -0.0000085498
       -0.0000000950  -0.0000218208  -0.0000054014  -0.0000001096  -0.0000131497
       -0.0000006080  -0.0000000453   0.0000288879  -0.0000026635  -0.0000000738
       -0.0000003214  -0.0000056679  -0.0000369868   0.0000081155   0.0000054621
       -0.0002495198  -0.0000361345  -0.0000679454  -0.0059528140   0.0001047755
        0.0000435871   0.0012824696  -0.0001337992   0.0000720999  -0.0483464050
        0.0016443932  -0.0000912242   0.1142842498  -0.0007813061  -0.0003694128
       -0.0461008997  -0.0002085618   0.0000893084   0.0024307786  -0.0000055408
        0.0000350878   0.0074200944   0.0000047750  -0.0000127712  -0.0009679203
       -0.0000053102   0.0000030669  -0.0006189396  -0.0000044547   0.0000044647
       -0.0003907548   0.0000044711   0.0000017785   0.0001085098  -0.0000048617
       -0.0000071615  -0.0000169386  -0.0000003598   0.0000007921  -0.0000181849
       -0.0000008406   0.0000013024  -0.0000044316   0.0000009340  -0.0000012132
        0.0000068458   0.0000019469  -0.0000001107  -0.0000069248  -0.0000010037
       -0.0000007978  -0.0000090130   0.0000007170   0.0000006681   0.0000005365