 Entering Gaussian System
 *********************************************
 Gaussian 98:
 frequency output generated by the xtb code
 *********************************************
                         Standard orientation:
 --------------------------------------------------------------------
  Center     Atomic     Atomic              Coordinates (Angstroms)
  Number     Number      Type              X           Y           Z
 --------------------------------------------------------------------
    1          6             0       -7.791455    2.286205   -1.692012
    2          6             0       -8.200467    1.837803   -0.289836
    3          7             0       -7.544127    0.595558    0.070221
    4          6             0       -8.296987   -0.488552    0.507157
    5          6             0       -9.488258   -0.302273    1.214235
    6          6             0      -10.252156   -1.377452    1.625027
    7          6             0       -9.840475   -2.673631    1.361498
    8          6             0       -8.645672   -2.881805    0.699310
    9          6             0       -7.880593   -1.805561    0.277445
   10         16             0       -6.390921   -2.143467   -0.606334
   11          6             0       -5.480708   -0.676083   -0.205760
   12          6             0       -4.109173   -0.748139   -0.226815
   13          6             0       -3.305966    0.388719   -0.009217
   14          6             0       -1.876944    0.326347   -0.022185
   15          6             0       -1.181279   -0.916543    0.057920
   16          6             0        0.175182   -1.015858    0.077206
   17          6             0        1.046088    0.107985   -0.018552
   18          6             0        2.471234   -0.043559   -0.001484
   19          6             0        3.088424   -1.206612    0.506692
   20          6             0        4.451780   -1.351749    0.520990
   21          6             0        5.285987   -0.343832    0.020497
   22          7             0        6.668973   -0.493403    0.032412
   23          6             0        7.241969   -1.757231   -0.147129
   24          6             0        8.379578   -2.125040    0.572247
   25          6             0        8.943073   -3.372577    0.389970
   26          6             0        8.383060   -4.272080   -0.502991
   27          6             0        7.252539   -3.911865   -1.218785
   28          6             0        6.684387   -2.664789   -1.048474
   29          6             0        7.496758    0.618595    0.226919
   30          6             0        8.701493    0.730077   -0.467818
   31          6             0        9.517968    1.826147   -0.269687
   32          6             0        9.147196    2.826543    0.614455
   33          6             0        7.950444    2.721051    1.304968
   34          6             0        7.129408    1.626327    1.119128
   35          6             0        4.690040    0.819697   -0.484447
   36          6             0        3.327360    0.965255   -0.490513
   37          6             0        0.397030    1.365888   -0.131827
   38          7             0        0.992054    2.548535   -0.232427
   39         16             0       -0.147673    3.723184   -0.298424
   40          7             0       -1.453671    2.737526   -0.195292
   41          6             0       -1.046118    1.477266   -0.105093
   42          6             0       -3.994836    1.597095    0.236488
   43          6             0       -5.363382    1.660554    0.264938
   44          6             0       -6.160325    0.527750    0.041099
   45          1             0       -8.024772    1.506518   -2.413669
   46          1             0       -8.341123    3.184494   -1.960410
   47          1             0       -6.727514    2.498574   -1.747644
   48          1             0       -9.275862    1.658682   -0.290694
   49          1             0       -7.986168    2.625761    0.441402
   50          1             0       -9.812742    0.695826    1.464032
   51          1             0      -11.170557   -1.198499    2.163123
   52          1             0      -10.437535   -3.514238    1.677803
   53          1             0       -8.294562   -3.880436    0.489644
   54          1             0       -3.666642   -1.701169   -0.467581
   55          1             0       -1.757601   -1.824283    0.140269
   56          1             0        0.613185   -2.000414    0.131063
   57          1             0        2.487546   -1.988836    0.943462
   58          1             0        4.895228   -2.241682    0.944708
   59          1             0        8.810166   -1.428995    1.277162
   60          1             0        9.821074   -3.647490    0.955526
   61          1             0        8.825069   -5.247067   -0.640475
   62          1             0        6.814195   -4.604518   -1.921878
   63          1             0        5.811077   -2.379423   -1.616225
   64          1             0        8.985740   -0.043360   -1.166326
   65          1             0       10.446263    1.903658   -0.816122
   66          1             0        9.786779    3.682933    0.764091
   67          1             0        7.656872    3.493586    1.999905
   68          1             0        6.202496    1.539305    1.666305
   69          1             0        5.317409    1.600084   -0.890248
   70          1             0        2.886169    1.862782   -0.891183
   71          1             0       -3.415255    2.487595    0.415604
   72          1             0       -5.832882    2.604712    0.490610
 --------------------------------------------------------------------
     1 basis functions        1 primitive gaussians
     1 alpha electrons        1 beta electrons
 
 Harmonic frequencies (cm**-1), IR intensities (km*mol⁻¹),
 Raman scattering activities (A**4/amu), Raman depolarization ratios,
 reduced masses (AMU), force constants (mDyne/A) and normal coordinates:
                      1                      2                      3
                        a                      a                      a 
 Frequencies --     8.2034                10.9167                17.4297
 Red. masses --    12.3561                12.9600                12.3477
 Frc consts  --     0.0000                 0.0000                 0.0000
 IR Inten    --     4.1813                 0.6150                 0.2992
 Raman Activ --     0.0000                 0.0000                 0.0000
 Depolar     --     0.0000                 0.0000                 0.0000
 Atom AN      X      Y      Z        X      Y      Z        X      Y      Z
   1   6     0.08   0.00  -0.06     0.06  -0.20  -0.32     0.14   0.06  -0.01
   2   6     0.02  -0.01  -0.08     0.00  -0.06  -0.29     0.07   0.08  -0.03
   3   7     0.00  -0.01  -0.06    -0.01  -0.02  -0.14     0.01   0.06   0.01
   4   6    -0.02  -0.01  -0.11    -0.02   0.02  -0.05    -0.05   0.09  -0.02
   5   6    -0.06  -0.02  -0.17    -0.05   0.09  -0.12    -0.08   0.13  -0.08
   6   6    -0.08  -0.02  -0.22    -0.06   0.13  -0.04    -0.13   0.16  -0.11
   7   6    -0.07  -0.02  -0.21    -0.04   0.11   0.12    -0.16   0.15  -0.08
   8   6    -0.03  -0.02  -0.15    -0.02   0.04   0.18    -0.14   0.10  -0.02
   9   6    -0.01  -0.01  -0.10    -0.00   0.00   0.10    -0.08   0.07   0.01
  10  16     0.06  -0.01  -0.03     0.05  -0.14   0.31    -0.09   0.01   0.13
  11   6     0.01  -0.01   0.03     0.01  -0.04   0.06    -0.02  -0.01   0.07
  12   6     0.02  -0.00   0.08     0.01  -0.03   0.10    -0.02  -0.05   0.08
  13   6     0.00   0.00   0.12    -0.00  -0.01   0.02     0.01  -0.06   0.08
  14   6     0.00   0.01   0.15    -0.00   0.00   0.05     0.00  -0.08   0.05
  15   6     0.01   0.01   0.18     0.01   0.01   0.09    -0.01  -0.09   0.01
  16   6     0.01   0.02   0.18     0.01   0.01   0.10    -0.00  -0.11  -0.03
  17   6     0.00   0.02   0.15     0.01   0.02   0.08     0.00  -0.11  -0.05
  18   6     0.00   0.02   0.12     0.01   0.02   0.08     0.00  -0.12  -0.09
  19   6     0.02   0.04   0.14     0.01   0.00   0.04     0.02  -0.11  -0.11
  20   6     0.02   0.03   0.10     0.01   0.00   0.01     0.03  -0.09  -0.10
  21   6     0.00   0.01   0.03     0.01   0.01   0.03     0.01  -0.06  -0.08
  22   7     0.00   0.00  -0.03     0.01   0.01  -0.00     0.02  -0.01  -0.04
  23   6    -0.01  -0.01  -0.00    -0.00   0.01  -0.08     0.08   0.02  -0.01
  24   6     0.02   0.02  -0.04     0.01  -0.03  -0.13     0.09   0.10   0.01
  25   6     0.00   0.01  -0.01     0.00  -0.02  -0.22     0.17   0.13   0.03
  26   6    -0.04  -0.03   0.05    -0.03   0.03  -0.25     0.24   0.08   0.03
  27   6    -0.07  -0.05   0.09    -0.05   0.07  -0.20     0.23   0.01   0.01
  28   6    -0.06  -0.04   0.06    -0.03   0.06  -0.12     0.15  -0.02  -0.01
  29   6     0.02   0.01  -0.12     0.01  -0.01   0.03    -0.05   0.04  -0.02
  30   6    -0.02  -0.03  -0.19     0.01   0.02   0.02    -0.04   0.11   0.00
  31   6     0.00  -0.03  -0.28     0.01   0.01   0.07    -0.11   0.15   0.02
  32   6     0.05   0.01  -0.31     0.03  -0.03   0.12    -0.18   0.13   0.02
  33   6     0.09   0.05  -0.24     0.04  -0.06   0.13    -0.18   0.06   0.00
  34   6     0.07   0.05  -0.15     0.03  -0.05   0.09    -0.12   0.01  -0.02
  35   6    -0.01  -0.00   0.01     0.00   0.03   0.07    -0.01  -0.08  -0.10
  36   6    -0.01   0.00   0.06     0.00   0.03   0.09    -0.01  -0.11  -0.10
  37   6    -0.00   0.01   0.15    -0.00   0.01   0.07     0.01  -0.11  -0.01
  38   7    -0.00   0.02   0.15    -0.01   0.01   0.06     0.02  -0.12  -0.00
  39  16    -0.01   0.02   0.23    -0.01   0.01   0.04     0.05  -0.16   0.09
  40   7    -0.01   0.01   0.16    -0.00   0.00   0.02     0.03  -0.09   0.08
  41   6    -0.00   0.01   0.15    -0.00   0.00   0.04     0.01  -0.09   0.04
  42   6    -0.01  -0.00   0.10    -0.02   0.01  -0.10     0.03  -0.05   0.09
  43   6    -0.01  -0.01   0.05    -0.02   0.01  -0.16     0.03  -0.01   0.07
  44   6     0.00  -0.01   0.01    -0.01  -0.02  -0.08     0.01   0.01   0.05
  45   1     0.03   0.00  -0.02     0.03  -0.08  -0.07     0.04   0.02  -0.01
  46   1     0.03   0.00  -0.02     0.02  -0.07  -0.12     0.05   0.02  -0.01
  47   1     0.03   0.00  -0.00     0.02  -0.06  -0.08     0.04   0.01   0.01
  48   1     0.01  -0.00  -0.04     0.00  -0.02  -0.09     0.02   0.03  -0.02
  49   1    -0.00  -0.00  -0.02    -0.01   0.01  -0.10     0.02   0.02  -0.01
  50   1    -0.02  -0.01  -0.05    -0.02   0.03  -0.07    -0.02   0.04  -0.03
  51   1    -0.03  -0.01  -0.08    -0.02   0.05  -0.03    -0.04   0.06  -0.05
  52   1    -0.03  -0.01  -0.07    -0.01   0.04   0.05    -0.06   0.05  -0.03
  53   1    -0.01  -0.00  -0.04    -0.00   0.01   0.09    -0.05   0.02   0.00
  54   1     0.01   0.00   0.03     0.00  -0.02   0.06    -0.01  -0.02   0.03
  55   1     0.00   0.00   0.06     0.00   0.00   0.03    -0.00  -0.03   0.00
  56   1     0.00   0.01   0.06     0.00   0.00   0.04    -0.00  -0.03  -0.02
  57   1     0.01   0.02   0.06     0.01  -0.00   0.01     0.01  -0.04  -0.03
  58   1     0.01   0.01   0.03     0.01  -0.00  -0.01     0.01  -0.02  -0.03
  59   1     0.02   0.01  -0.03     0.01  -0.02  -0.03     0.01   0.04   0.00
  60   1     0.01   0.01  -0.01     0.00  -0.02  -0.07     0.05   0.05   0.01
  61   1    -0.02  -0.01   0.02    -0.01   0.01  -0.09     0.09   0.03   0.02
  62   1    -0.03  -0.02   0.04    -0.02   0.03  -0.06     0.08  -0.01   0.00
  63   1    -0.02  -0.02   0.03    -0.01   0.03  -0.02     0.04  -0.02  -0.01
  64   1    -0.02  -0.02  -0.05    -0.00   0.02  -0.00     0.00   0.04   0.00
  65   1    -0.01  -0.02  -0.10     0.00   0.01   0.02    -0.03   0.06   0.01
  66   1     0.02   0.00  -0.11     0.01  -0.01   0.04    -0.07   0.05   0.01
  67   1     0.04   0.03  -0.08     0.01  -0.03   0.05    -0.07   0.01   0.00
  68   1     0.03   0.02  -0.03     0.01  -0.02   0.03    -0.04  -0.01  -0.01
  69   1    -0.01  -0.01  -0.01    -0.00   0.01   0.03    -0.01  -0.02  -0.03
  70   1    -0.01  -0.00   0.01    -0.00   0.01   0.04    -0.01  -0.03  -0.03
  71   1    -0.01  -0.00   0.04    -0.01   0.01  -0.05     0.02  -0.02   0.03
  72   1    -0.01  -0.00   0.01    -0.01   0.01  -0.07     0.02  -0.00   0.02
                      4                      5                      6
                        a                      a                      a 
 Frequencies --    20.7165                30.3984                40.9584
 Red. masses --    18.5472                13.0654                11.8773
 Frc consts  --     0.0000                 0.0000                 0.0000
 IR Inten    --     4.3481                 1.6492                 5.3378
 Raman Activ --     0.0000                 0.0000                 0.0000
 Depolar     --     0.0000                 0.0000                 0.0000
 Atom AN      X      Y      Z        X      Y      Z        X      Y      Z
   1   6    -0.08  -0.08  -0.14     0.11  -0.06   0.01     0.08   0.07   0.08
   2   6    -0.04  -0.03  -0.11     0.04  -0.03   0.00     0.05   0.04   0.07
   3   7    -0.02  -0.01  -0.09     0.01  -0.03   0.07     0.00   0.01   0.04
   4   6     0.01   0.00   0.00    -0.03  -0.02   0.01    -0.04   0.03   0.03
   5   6     0.04   0.02   0.05    -0.09  -0.01  -0.10    -0.04   0.07   0.02
   6   6     0.08   0.03   0.14    -0.15  -0.00  -0.17    -0.09   0.10  -0.00
   7   6     0.09   0.03   0.19    -0.14  -0.01  -0.13    -0.14   0.09  -0.01
   8   6     0.06   0.01   0.14    -0.08  -0.02  -0.02    -0.14   0.05   0.00
   9   6     0.02  -0.00   0.04    -0.03  -0.03   0.05    -0.09   0.02   0.02
  10  16    -0.03  -0.02  -0.03     0.06  -0.11   0.28    -0.15  -0.06   0.06
  11   6    -0.01   0.00  -0.08     0.01  -0.04   0.13    -0.04  -0.06  -0.01
  12   6    -0.01   0.00  -0.10     0.01  -0.03   0.10    -0.04  -0.08  -0.08
  13   6    -0.01   0.01  -0.12     0.01  -0.02   0.06    -0.00  -0.10  -0.11
  14   6    -0.01   0.01  -0.10     0.01   0.00  -0.01    -0.00  -0.10  -0.17
  15   6    -0.01   0.00  -0.22     0.03   0.01  -0.11     0.02  -0.09  -0.27
  16   6    -0.01  -0.01  -0.21     0.04   0.03  -0.17     0.03  -0.06  -0.21
  17   6    -0.01  -0.00  -0.07     0.02   0.05  -0.14     0.01  -0.03  -0.06
  18   6    -0.01  -0.01  -0.07     0.02   0.06  -0.14     0.01   0.01   0.06
  19   6    -0.02  -0.02  -0.10     0.01   0.06  -0.14     0.01   0.00   0.04
  20   6    -0.02  -0.02  -0.08     0.01   0.07  -0.12     0.01   0.02   0.10
  21   6    -0.01  -0.01  -0.05     0.02   0.08  -0.10     0.02   0.06   0.18
  22   7    -0.02  -0.01  -0.03     0.02   0.07  -0.07     0.02   0.04   0.16
  23   6    -0.00  -0.01   0.03    -0.03   0.03  -0.01     0.01   0.04   0.08
  24   6    -0.02   0.02   0.08    -0.14  -0.04   0.12     0.05   0.03   0.01
  25   6    -0.01   0.02   0.13    -0.20  -0.08   0.19     0.06   0.05  -0.07
  26   6     0.03  -0.01   0.14    -0.15  -0.04   0.11     0.03   0.07  -0.07
  27   6     0.05  -0.04   0.09    -0.04   0.04  -0.02    -0.02   0.08   0.01
  28   6     0.04  -0.04   0.03     0.02   0.07  -0.09    -0.03   0.06   0.08
  29   6    -0.02  -0.00  -0.04     0.05   0.02  -0.03     0.06   0.02   0.06
  30   6    -0.02  -0.02  -0.05     0.13  -0.08   0.10    -0.03   0.01  -0.10
  31   6    -0.01  -0.02  -0.07     0.19  -0.14   0.15     0.02  -0.01  -0.20
  32   6    -0.01   0.00  -0.09     0.17  -0.08   0.08     0.15  -0.02  -0.14
  33   6    -0.01   0.02  -0.09     0.09   0.03  -0.05     0.24  -0.00   0.02
  34   6    -0.01   0.01  -0.06     0.03   0.08  -0.10     0.19   0.02   0.12
  35   6    -0.01  -0.00  -0.03     0.02   0.08  -0.10     0.03   0.09   0.25
  36   6    -0.01   0.00  -0.04     0.02   0.07  -0.12     0.02   0.07   0.19
  37   6    -0.00   0.01   0.06    -0.01   0.04  -0.07    -0.02  -0.04  -0.04
  38   7     0.02   0.02   0.25    -0.02   0.05  -0.06    -0.04  -0.02   0.04
  39  16     0.05   0.06   0.58    -0.07   0.06   0.07    -0.11  -0.08   0.02
  40   7     0.02   0.04   0.21    -0.03   0.02   0.07    -0.05  -0.09  -0.11
  41   6    -0.00   0.02   0.04    -0.01   0.02  -0.00    -0.02  -0.08  -0.11
  42   6    -0.02   0.01  -0.15     0.00  -0.03   0.09     0.03  -0.10  -0.03
  43   6    -0.02   0.01  -0.15     0.00  -0.04   0.11     0.03  -0.07   0.03
  44   6    -0.01   0.00  -0.11     0.01  -0.04   0.11    -0.00  -0.04   0.02
  45   1    -0.03  -0.03  -0.03     0.04  -0.02   0.01     0.02   0.03   0.02
  46   1    -0.03  -0.03  -0.04     0.04  -0.02  -0.01     0.03   0.03   0.03
  47   1    -0.02  -0.02  -0.05     0.03  -0.02   0.02     0.02   0.01   0.03
  48   1    -0.01  -0.01  -0.02     0.01  -0.00  -0.01     0.01   0.02   0.01
  49   1    -0.01   0.00  -0.04     0.00  -0.00  -0.00     0.02   0.00   0.03
  50   1     0.01   0.01   0.00    -0.03  -0.00  -0.03    -0.00   0.02   0.01
  51   1     0.03   0.01   0.05    -0.06   0.00  -0.07    -0.03   0.04  -0.00
  52   1     0.03   0.01   0.08    -0.05  -0.00  -0.06    -0.05   0.03  -0.01
  53   1     0.02   0.00   0.05    -0.02  -0.01   0.00    -0.05   0.01  -0.00
  54   1    -0.01  -0.00  -0.02     0.00  -0.01   0.03    -0.02  -0.03  -0.03
  55   1    -0.00  -0.00  -0.10     0.02  -0.00  -0.04     0.01  -0.03  -0.11
  56   1    -0.00  -0.00  -0.09     0.02   0.01  -0.07     0.01  -0.01  -0.08
  57   1    -0.01  -0.01  -0.04     0.00   0.02  -0.05    -0.00  -0.01  -0.01
  58   1    -0.01  -0.01  -0.03     0.00   0.02  -0.03    -0.00   0.00   0.02
  59   1    -0.02   0.01   0.02    -0.05  -0.02   0.05     0.02   0.01   0.00
  60   1    -0.01   0.01   0.05    -0.08  -0.04   0.08     0.03   0.01  -0.04
  61   1     0.01  -0.00   0.05    -0.06  -0.02   0.05     0.01   0.02  -0.04
  62   1     0.02  -0.02   0.03     0.00   0.02  -0.02    -0.01   0.03   0.00
  63   1     0.02  -0.02  -0.00     0.03   0.04  -0.05    -0.02   0.02   0.04
  64   1    -0.00  -0.01  -0.01     0.04  -0.04   0.04    -0.04   0.00  -0.04
  65   1    -0.00  -0.01  -0.02     0.07  -0.06   0.07    -0.02  -0.01  -0.09
  66   1    -0.00   0.00  -0.03     0.06  -0.04   0.03     0.06  -0.01  -0.06
  67   1    -0.00   0.01  -0.03     0.02   0.02  -0.03     0.10  -0.00   0.02
  68   1    -0.00   0.01  -0.02    -0.01   0.05  -0.05     0.08   0.01   0.07
  69   1    -0.00   0.00  -0.00     0.01   0.02  -0.02     0.01   0.04   0.09
  70   1    -0.00   0.00  -0.01     0.01   0.02  -0.03     0.01   0.03   0.07
  71   1    -0.01   0.01  -0.05    -0.00  -0.01   0.02     0.01  -0.03  -0.01
  72   1    -0.01   0.01  -0.05    -0.00  -0.01   0.03     0.02  -0.02   0.02
                      7                      8                      9
                        a                      a                      a 
 Frequencies --    45.6505                49.1912                57.8386
 Red. masses --    13.0452                11.1644                12.0000
 Frc consts  --     0.0000                 0.0000                 0.0000
 IR Inten    --     1.2152                22.0689                 2.3741
 Raman Activ --     0.0000                 0.0000                 0.0000
 Depolar     --     0.0000                 0.0000                 0.0000
 Atom AN      X      Y      Z        X      Y      Z        X      Y      Z
   1   6     0.06   0.12  -0.01    -0.10  -0.01  -0.04     0.28   0.16  -0.01
   2   6     0.03   0.04  -0.04    -0.08  -0.01  -0.03     0.05  -0.00  -0.13
   3   7     0.01   0.02  -0.11    -0.06   0.00  -0.04     0.01  -0.03  -0.17
   4   6     0.01   0.04  -0.03    -0.04  -0.01  -0.01     0.01   0.01  -0.08
   5   6     0.06   0.08   0.05    -0.03  -0.02   0.01     0.03   0.05  -0.06
   6   6     0.09   0.09   0.14     0.00  -0.03   0.03     0.09   0.06   0.08
   7   6     0.06   0.08   0.14     0.02  -0.03   0.03     0.12   0.05   0.20
   8   6     0.01   0.05   0.05     0.00  -0.01   0.00     0.08   0.01   0.13
   9   6    -0.02   0.03  -0.04    -0.02   0.00  -0.02     0.02  -0.00  -0.01
  10  16    -0.14   0.05  -0.25    -0.06   0.05  -0.08    -0.06  -0.00  -0.20
  11   6    -0.02  -0.03  -0.09    -0.04   0.03  -0.01     0.00  -0.04  -0.05
  12   6    -0.02  -0.07  -0.05    -0.04   0.03   0.04     0.01  -0.06   0.00
  13   6    -0.00  -0.09   0.01    -0.05   0.03   0.06    -0.00  -0.07   0.10
  14   6    -0.00  -0.11   0.05    -0.05   0.03   0.09    -0.00  -0.06   0.08
  15   6    -0.00  -0.10   0.10    -0.05   0.04   0.15     0.02  -0.04   0.02
  16   6     0.00  -0.10   0.12    -0.05   0.03   0.13     0.03  -0.01  -0.03
  17   6    -0.01  -0.09   0.08    -0.04   0.02   0.07    -0.00   0.02  -0.04
  18   6    -0.00  -0.06   0.05    -0.04  -0.00   0.02    -0.00   0.05  -0.05
  19   6     0.05  -0.03   0.07    -0.02  -0.09  -0.18     0.01   0.05  -0.06
  20   6     0.05   0.02   0.06    -0.02  -0.10  -0.23     0.01   0.05  -0.08
  21   6     0.01   0.05   0.04    -0.01  -0.02  -0.06    -0.00   0.05  -0.10
  22   7     0.02   0.09   0.04    -0.02  -0.01  -0.06    -0.00   0.05  -0.16
  23   6    -0.01   0.07   0.00     0.03   0.01  -0.01    -0.02   0.03  -0.07
  24   6    -0.11  -0.04   0.10    -0.05   0.05   0.15     0.02   0.08  -0.11
  25   6    -0.16  -0.06   0.06     0.05   0.09   0.19    -0.02   0.05   0.01
  26   6    -0.10   0.05  -0.08     0.24   0.10   0.07    -0.11  -0.05   0.16
  27   6     0.00   0.16  -0.18     0.33   0.05  -0.08    -0.14  -0.10   0.18
  28   6     0.04   0.18  -0.14     0.22   0.01  -0.12    -0.09  -0.06   0.05
  29   6     0.03   0.07   0.01     0.01  -0.03  -0.05     0.00   0.03  -0.07
  30   6     0.12  -0.06   0.15    -0.02  -0.06  -0.11    -0.03   0.10  -0.12
  31   6     0.14  -0.07   0.12     0.07  -0.13  -0.09    -0.01   0.07  -0.01
  32   6     0.08   0.05  -0.05     0.18  -0.16  -0.00     0.05  -0.05   0.15
  33   6    -0.02   0.19  -0.19     0.21  -0.13   0.05     0.08  -0.12   0.18
  34   6    -0.04   0.19  -0.15     0.12  -0.06   0.02     0.05  -0.08   0.07
  35   6    -0.04   0.01   0.00    -0.03   0.06   0.13    -0.01   0.07  -0.05
  36   6    -0.04  -0.05   0.01    -0.03   0.06   0.16    -0.01   0.06  -0.03
  37   6    -0.01  -0.10   0.06    -0.04   0.02   0.04    -0.04   0.00  -0.02
  38   7    -0.02  -0.10   0.05    -0.06   0.02  -0.02    -0.08   0.02  -0.07
  39  16    -0.04  -0.17   0.00    -0.09   0.02  -0.12    -0.18  -0.02  -0.02
  40   7    -0.02  -0.12   0.00    -0.05   0.02  -0.01    -0.08  -0.05   0.07
  41   6    -0.01  -0.11   0.04    -0.04   0.02   0.05    -0.04  -0.04   0.05
  42   6     0.02  -0.08   0.03    -0.06   0.03   0.03     0.01  -0.09   0.22
  43   6     0.02  -0.04  -0.01    -0.07   0.03  -0.01     0.01  -0.08   0.15
  44   6     0.01  -0.01  -0.07    -0.06   0.02  -0.02     0.02  -0.05  -0.03
  45   1     0.02   0.05  -0.02    -0.03  -0.01  -0.01     0.13   0.07  -0.04
  46   1     0.02   0.04   0.01    -0.03  -0.01  -0.01     0.08   0.05  -0.00
  47   1     0.02   0.03   0.01    -0.03  -0.00  -0.01     0.08   0.06   0.06
  48   1     0.01   0.01  -0.02    -0.02  -0.01  -0.01     0.02  -0.01  -0.09
  49   1     0.00   0.00   0.00    -0.02  -0.00  -0.01    -0.03  -0.02  -0.00
  50   1     0.03   0.02   0.01    -0.01  -0.01   0.00     0.00   0.02  -0.05
  51   1     0.04   0.03   0.06     0.00  -0.01   0.02     0.03   0.02   0.03
  52   1     0.02   0.03   0.06     0.01  -0.01   0.01     0.05   0.02   0.09
  53   1    -0.01   0.01   0.01     0.00  -0.00  -0.00     0.03   0.00   0.06
  54   1    -0.01  -0.02  -0.02    -0.01   0.01   0.01     0.00  -0.01  -0.01
  55   1    -0.00  -0.03   0.04    -0.02   0.01   0.06     0.01  -0.02   0.01
  56   1     0.00  -0.03   0.05    -0.02   0.01   0.05     0.02   0.00  -0.02
  57   1     0.02  -0.01   0.02    -0.00  -0.05  -0.09     0.01   0.01  -0.01
  58   1     0.03   0.01   0.02    -0.01  -0.05  -0.11     0.00   0.02  -0.02
  59   1    -0.05  -0.04   0.06    -0.06   0.02   0.07     0.02   0.04  -0.06
  60   1    -0.07  -0.05   0.04    -0.00   0.04   0.09     0.00   0.03  -0.00
  61   1    -0.04   0.01  -0.03     0.09   0.04   0.03    -0.04  -0.02   0.08
  62   1     0.01   0.07  -0.09     0.14   0.01  -0.05    -0.06  -0.05   0.08
  63   1     0.03   0.08  -0.06     0.08  -0.01  -0.07    -0.03  -0.03   0.02
  64   1     0.05  -0.04   0.08    -0.03  -0.01  -0.05    -0.02   0.05  -0.07
  65   1     0.06  -0.05   0.07     0.01  -0.04  -0.04    -0.01   0.04  -0.01
  66   1     0.03   0.01  -0.02     0.07  -0.06   0.01     0.02  -0.02   0.07
  67   1    -0.02   0.08  -0.09     0.09  -0.04   0.03     0.04  -0.06   0.09
  68   1    -0.03   0.09  -0.07     0.04  -0.01   0.02     0.02  -0.04   0.03
  69   1    -0.02   0.00  -0.01    -0.01   0.04   0.07    -0.00   0.02  -0.01
  70   1    -0.02  -0.02  -0.01    -0.01   0.04   0.09    -0.01   0.02  -0.00
  71   1     0.01  -0.03   0.02    -0.02   0.01   0.01     0.00  -0.04   0.10
  72   1     0.01  -0.01   0.00    -0.02   0.01  -0.01    -0.00  -0.03   0.07
                     10                     11                     12
                        a                      a                      a 
 Frequencies --    67.2020                73.8196                76.0641
 Red. masses --    10.9688                10.6368                12.7228
 Frc consts  --     0.0000                 0.0000                 0.0000
 IR Inten    --     0.1655                 2.9461                 0.4970
 Raman Activ --     0.0000                 0.0000                 0.0000
 Depolar     --     0.0000                 0.0000                 0.0000
 Atom AN      X      Y      Z        X      Y      Z        X      Y      Z
   1   6    -0.24  -0.08   0.00     0.06   0.03  -0.02     0.07   0.46   0.28
   2   6    -0.03   0.03   0.10    -0.05  -0.02  -0.07    -0.01   0.03   0.12
   3   7    -0.02   0.03   0.07    -0.05  -0.01  -0.05    -0.02  -0.06  -0.16
   4   6    -0.02   0.03   0.06    -0.04  -0.01  -0.04    -0.02  -0.04  -0.08
   5   6     0.02   0.03   0.12    -0.05  -0.02  -0.06    -0.06  -0.02  -0.16
   6   6    -0.04   0.04   0.05    -0.01  -0.03  -0.00    -0.05  -0.01  -0.10
   7   6    -0.13   0.04  -0.09     0.05  -0.03   0.08     0.00  -0.02   0.05
   8   6    -0.15   0.03  -0.12     0.05  -0.02   0.07     0.04  -0.04   0.14
   9   6    -0.08   0.02  -0.03    -0.00  -0.01   0.01     0.02  -0.05   0.06
  10  16    -0.13   0.00  -0.02    -0.03   0.03  -0.05     0.09  -0.22   0.25
  11   6    -0.04  -0.02  -0.02    -0.03   0.01  -0.00     0.01  -0.05  -0.05
  12   6    -0.04  -0.05  -0.02    -0.03   0.03   0.01     0.01  -0.02  -0.07
  13   6    -0.01  -0.05  -0.07    -0.04   0.03   0.06    -0.01   0.00  -0.14
  14   6    -0.01  -0.06  -0.02    -0.04   0.04   0.03    -0.01   0.02  -0.09
  15   6     0.01  -0.05   0.07    -0.04   0.03  -0.04    -0.00   0.03  -0.00
  16   6     0.01  -0.04   0.12    -0.04   0.03  -0.10    -0.00   0.04   0.10
  17   6     0.01  -0.03   0.09    -0.04   0.03  -0.10    -0.01   0.04   0.12
  18   6     0.02  -0.00   0.04    -0.04   0.02  -0.06    -0.01   0.03   0.09
  19   6     0.07   0.06   0.10    -0.07   0.08   0.11    -0.00   0.02   0.07
  20   6     0.07   0.09   0.03    -0.07   0.06   0.17    -0.00  -0.01  -0.00
  21   6     0.03   0.06  -0.11    -0.04  -0.02   0.06    -0.01  -0.02  -0.05
  22   7     0.04   0.09  -0.21    -0.04  -0.04   0.12    -0.01  -0.02  -0.09
  23   6     0.04   0.07  -0.10    -0.02  -0.03   0.10     0.01  -0.02  -0.04
  24   6     0.10   0.15  -0.15     0.10   0.06  -0.04    -0.01   0.01  -0.00
  25   6     0.08   0.13  -0.06     0.25   0.15  -0.19     0.02   0.02   0.02
  26   6     0.00   0.02   0.10     0.27   0.13  -0.18     0.07  -0.00   0.01
  27   6    -0.06  -0.06   0.16     0.10   0.01   0.02     0.08  -0.03  -0.02
  28   6    -0.04  -0.04   0.05    -0.04  -0.07   0.16     0.04  -0.04  -0.04
  29   6     0.04   0.06  -0.12    -0.01  -0.05   0.04    -0.02  -0.02  -0.05
  30   6     0.10   0.05  -0.04     0.05  -0.18   0.13     0.02  -0.03   0.01
  31   6     0.18  -0.05   0.14     0.13  -0.24   0.13     0.02  -0.03   0.06
  32   6     0.20  -0.11   0.22     0.14  -0.15   0.02    -0.02  -0.03   0.03
  33   6     0.13  -0.06   0.09     0.05   0.01  -0.10    -0.06  -0.02  -0.03
  34   6     0.05   0.03  -0.08    -0.02   0.07  -0.09    -0.06  -0.02  -0.07
  35   6    -0.02   0.01  -0.16    -0.01  -0.08  -0.11    -0.02  -0.02  -0.03
  36   6    -0.03  -0.03  -0.10    -0.01  -0.06  -0.17    -0.01   0.01   0.04
  37   6    -0.00  -0.04   0.06    -0.04   0.03  -0.08    -0.01   0.04   0.08
  38   7    -0.00  -0.04   0.11    -0.04   0.03  -0.12    -0.01   0.05   0.16
  39  16    -0.00  -0.08   0.06    -0.06   0.06   0.03    -0.02   0.05   0.01
  40   7    -0.00  -0.06  -0.04    -0.04   0.04   0.11    -0.02   0.02  -0.14
  41   6    -0.01  -0.05  -0.01    -0.04   0.04   0.03    -0.01   0.03  -0.06
  42   6     0.01  -0.02  -0.17    -0.06   0.01   0.11    -0.03  -0.00  -0.19
  43   6     0.01   0.01  -0.16    -0.06  -0.00   0.09    -0.03  -0.03  -0.16
  44   6    -0.02   0.00  -0.04    -0.04   0.00   0.01    -0.02  -0.05  -0.12
  45   1    -0.12  -0.03   0.03     0.04   0.01  -0.02     0.04   0.19   0.01
  46   1    -0.06  -0.02   0.01     0.01   0.00  -0.01     0.01   0.15   0.15
  47   1    -0.07  -0.05  -0.05     0.02   0.02   0.02     0.02   0.15   0.11
  48   1    -0.01   0.02   0.08    -0.01  -0.01  -0.05    -0.00  -0.00  -0.01
  49   1     0.04   0.02   0.00    -0.04  -0.01  -0.01    -0.03  -0.05   0.11
  50   1     0.02   0.01   0.07    -0.03  -0.01  -0.03    -0.03  -0.01  -0.07
  51   1    -0.00   0.02   0.03    -0.01  -0.01  -0.00    -0.03   0.01  -0.05
  52   1    -0.05   0.01  -0.05     0.03  -0.01   0.04     0.00  -0.00   0.03
  53   1    -0.06   0.01  -0.06     0.02  -0.00   0.03     0.03  -0.01   0.07
  54   1    -0.02  -0.02   0.01    -0.01   0.01  -0.00     0.01  -0.01   0.00
  55   1     0.00  -0.01   0.02    -0.01   0.01  -0.01     0.00   0.01  -0.00
  56   1     0.01  -0.01   0.05    -0.01   0.01  -0.04    -0.00   0.01   0.05
  57   1     0.03   0.02   0.06    -0.03   0.04   0.06     0.00   0.01   0.03
  58   1     0.03   0.04   0.03    -0.03   0.03   0.09     0.00  -0.00  -0.01
  59   1     0.04   0.06  -0.07     0.03   0.02  -0.01    -0.01   0.01   0.00
  60   1     0.04   0.06  -0.03     0.11   0.07  -0.09     0.00   0.01   0.02
  61   1    -0.00  -0.00   0.05     0.12   0.06  -0.09     0.03   0.00   0.01
  62   1    -0.04  -0.04   0.08     0.03  -0.00   0.01     0.03  -0.01  -0.01
  63   1    -0.02  -0.03   0.02    -0.04  -0.05   0.08     0.01  -0.02  -0.02
  64   1     0.03   0.03  -0.03     0.01  -0.07   0.06     0.01  -0.01   0.01
  65   1     0.07  -0.02   0.06     0.05  -0.11   0.06     0.01  -0.01   0.03
  66   1     0.08  -0.05   0.11     0.06  -0.06   0.01    -0.01  -0.01   0.02
  67   1     0.04  -0.03   0.04     0.01   0.03  -0.06    -0.03  -0.00  -0.01
  68   1    -0.00   0.02  -0.05    -0.02   0.05  -0.05    -0.02  -0.00  -0.03
  69   1    -0.02  -0.00  -0.07     0.00  -0.04  -0.06    -0.01  -0.01  -0.02
  70   1    -0.02  -0.02  -0.04     0.00  -0.03  -0.09    -0.00   0.00   0.02
  71   1     0.01  -0.00  -0.07    -0.02   0.00   0.05    -0.01   0.00  -0.06
  72   1     0.01   0.01  -0.07    -0.02  -0.01   0.04    -0.01  -0.01  -0.04
                     13                     14                     15
                        a                      a                      a 
 Frequencies --    88.7043               101.8701               105.9750
 Red. masses --    12.4688                10.5639                12.8121
 Frc consts  --     0.0000                 0.0000                 0.0000
 IR Inten    --     3.0803                21.1622                 0.0145
 Raman Activ --     0.0000                 0.0000                 0.0000
 Depolar     --     0.0000                 0.0000                 0.0000
 Atom AN      X      Y      Z        X      Y      Z        X      Y      Z
   1   6     0.21  -0.22  -0.08    -0.14   0.07   0.00     0.10  -0.08  -0.02
   2   6     0.08  -0.04  -0.06    -0.04   0.01   0.01    -0.03   0.01  -0.03
   3   7     0.05  -0.00   0.13    -0.03  -0.01  -0.08    -0.04   0.04   0.12
   4   6     0.02   0.01   0.07    -0.02   0.00  -0.03    -0.04   0.00   0.01
   5   6     0.03   0.03   0.08     0.01   0.01   0.01    -0.15  -0.07  -0.14
   6   6    -0.00   0.04   0.05     0.01   0.02   0.03    -0.09  -0.11  -0.14
   7   6    -0.04   0.04  -0.01    -0.02   0.01   0.00     0.09  -0.09   0.06
   8   6    -0.06   0.02  -0.03    -0.04   0.00  -0.02     0.15  -0.03   0.15
   9   6    -0.02   0.01   0.01    -0.03  -0.00  -0.03     0.05   0.02   0.09
  10  16    -0.09   0.04  -0.10    -0.03  -0.02  -0.01     0.02   0.12   0.01
  11   6     0.01  -0.02  -0.03    -0.02  -0.01   0.02    -0.02   0.09  -0.02
  12   6     0.01  -0.02  -0.14    -0.01  -0.03   0.10    -0.03   0.12  -0.13
  13   6     0.01  -0.02  -0.09    -0.01  -0.02   0.08    -0.03   0.10  -0.08
  14   6     0.01   0.01  -0.15    -0.00  -0.01   0.08    -0.03   0.04  -0.11
  15   6     0.04   0.03  -0.13     0.03   0.00   0.03    -0.10   0.00  -0.04
  16   6     0.04   0.08   0.03     0.03   0.03  -0.04    -0.11  -0.08   0.03
  17   6     0.01   0.12   0.17     0.03   0.04  -0.02    -0.05  -0.12   0.05
  18   6     0.01   0.11   0.18     0.03   0.03  -0.02    -0.05  -0.14   0.02
  19   6    -0.00   0.07   0.12     0.03  -0.08  -0.27    -0.00  -0.18  -0.12
  20   6    -0.01  -0.00  -0.01     0.03  -0.09  -0.24     0.01  -0.09  -0.11
  21   6    -0.00  -0.04  -0.06     0.08  -0.01   0.00    -0.03   0.00   0.01
  22   7    -0.00  -0.06  -0.13     0.09  -0.03   0.02    -0.02   0.08  -0.02
  23   6     0.01  -0.06  -0.06     0.07  -0.04  -0.00    -0.00   0.08  -0.03
  24   6    -0.00  -0.02  -0.02     0.17  -0.02  -0.14     0.04   0.11  -0.10
  25   6     0.05  -0.00   0.02     0.13  -0.04  -0.15     0.01   0.08  -0.06
  26   6     0.11  -0.03   0.01    -0.02  -0.10   0.02    -0.09   0.03   0.05
  27   6     0.11  -0.08  -0.02    -0.11  -0.13   0.15    -0.13   0.01   0.10
  28   6     0.06  -0.10  -0.06    -0.04  -0.09   0.12    -0.07   0.04   0.05
  29   6    -0.02  -0.06  -0.07     0.08  -0.03   0.04    -0.02   0.08  -0.03
  30   6     0.05  -0.06   0.05     0.16  -0.06   0.18     0.01   0.02   0.01
  31   6     0.01  -0.04   0.10     0.10  -0.01   0.14     0.08  -0.03   0.06
  32   6    -0.10  -0.01   0.02    -0.05   0.11  -0.06     0.10  -0.02   0.05
  33   6    -0.16  -0.01  -0.09    -0.12   0.14  -0.17     0.05   0.07  -0.03
  34   6    -0.11  -0.04  -0.12    -0.03   0.06  -0.10    -0.01   0.11  -0.07
  35   6     0.01   0.00   0.01     0.08   0.10   0.23    -0.08   0.01   0.11
  36   6     0.02   0.09   0.15     0.08   0.13   0.25    -0.09  -0.07   0.11
  37   6    -0.01   0.10   0.13    -0.01   0.03   0.00     0.02  -0.09   0.06
  38   7    -0.06   0.14   0.25    -0.05   0.05  -0.07     0.10  -0.13   0.16
  39  16    -0.17   0.12  -0.04    -0.14   0.02  -0.05     0.27  -0.10  -0.02
  40   7    -0.08   0.01  -0.26    -0.05  -0.02   0.07     0.10   0.01  -0.19
  41   6    -0.02   0.03  -0.10    -0.01  -0.01   0.06     0.03  -0.01  -0.10
  42   6     0.04  -0.05   0.10    -0.02  -0.01  -0.01    -0.02   0.08   0.05
  43   6     0.04  -0.06   0.19    -0.02  -0.00  -0.07    -0.03   0.05   0.15
  44   6     0.04  -0.04   0.10    -0.03  -0.00  -0.05    -0.03   0.06   0.10
  45   1     0.09  -0.10   0.00    -0.07   0.03  -0.01     0.07  -0.05   0.01
  46   1     0.06  -0.08  -0.08    -0.03   0.03   0.03     0.02  -0.04  -0.05
  47   1     0.06  -0.05   0.01    -0.04   0.01  -0.02     0.03  -0.00   0.03
  48   1     0.02  -0.01  -0.03    -0.01   0.00   0.02    -0.01  -0.00  -0.03
  49   1     0.01   0.01  -0.04     0.00  -0.01   0.01    -0.03   0.02  -0.02
  50   1     0.02   0.01   0.03     0.01   0.00   0.01    -0.08  -0.02  -0.07
  51   1     0.00   0.01   0.02     0.01   0.01   0.02    -0.05  -0.04  -0.08
  52   1    -0.02   0.01  -0.01    -0.01   0.01   0.00     0.05  -0.04   0.03
  53   1    -0.03   0.00  -0.02    -0.01   0.00  -0.01     0.08  -0.00   0.07
  54   1     0.00   0.00  -0.07    -0.00  -0.01   0.05    -0.01   0.04  -0.07
  55   1     0.02   0.00  -0.07     0.02  -0.00   0.01    -0.04   0.01  -0.01
  56   1     0.02   0.03   0.01     0.01   0.01  -0.02    -0.05  -0.03   0.03
  57   1    -0.00   0.03   0.05     0.01  -0.06  -0.14     0.01  -0.08  -0.07
  58   1    -0.00  -0.01  -0.02    -0.00  -0.05  -0.11     0.01  -0.03  -0.05
  59   1    -0.01  -0.00  -0.00     0.08   0.00  -0.07     0.03   0.04  -0.05
  60   1     0.01   0.01   0.02     0.06  -0.00  -0.07     0.01   0.03  -0.03
  61   1     0.04  -0.00   0.01    -0.02  -0.04   0.01    -0.04   0.00   0.03
  62   1     0.05  -0.03  -0.01    -0.07  -0.05   0.08    -0.06  -0.01   0.05
  63   1     0.02  -0.04  -0.02    -0.03  -0.03   0.05    -0.03   0.01   0.02
  64   1     0.04  -0.02   0.03     0.08  -0.04   0.08    -0.00   0.00   0.01
  65   1     0.02  -0.01   0.05     0.05  -0.02   0.07     0.03  -0.03   0.03
  66   1    -0.04   0.00   0.01    -0.03   0.05  -0.03     0.04  -0.02   0.03
  67   1    -0.07   0.00  -0.04    -0.07   0.06  -0.09     0.02   0.03  -0.01
  68   1    -0.04  -0.01  -0.06    -0.02   0.03  -0.04    -0.01   0.05  -0.03
  69   1     0.00  -0.01  -0.01     0.02   0.05   0.11    -0.04   0.02   0.05
  70   1     0.01   0.04   0.06     0.03   0.07   0.13    -0.03  -0.02   0.05
  71   1     0.01  -0.02   0.05    -0.01  -0.00  -0.01    -0.01   0.02   0.03
  72   1     0.01  -0.03   0.09    -0.01   0.00  -0.04    -0.01   0.01   0.07
                     16                     17                     18
                        a                      a                      a 
 Frequencies --   122.6689               133.0464               146.1005
 Red. masses --    11.4525                12.4913                10.8982
 Frc consts  --     0.0000                 0.0000                 0.0000
 IR Inten    --     6.7610                 6.1868                 1.1613
 Raman Activ --     0.0000                 0.0000                 0.0000
 Depolar     --     0.0000                 0.0000                 0.0000
 Atom AN      X      Y      Z        X      Y      Z        X      Y      Z
   1   6     0.27   0.04   0.03     0.17  -0.01   0.06    -0.05   0.15  -0.04
   2   6     0.04  -0.10  -0.08    -0.11  -0.12  -0.06    -0.24  -0.10  -0.18
   3   7     0.09  -0.06  -0.03    -0.09  -0.08   0.05    -0.11  -0.03  -0.17
   4   6     0.12  -0.04   0.06    -0.10  -0.05   0.07    -0.05  -0.04  -0.05
   5   6     0.24   0.03   0.24    -0.09  -0.02   0.08     0.04  -0.04   0.10
   6   6     0.15   0.08   0.18    -0.12  -0.00   0.07     0.07  -0.04   0.15
   7   6    -0.08   0.07  -0.14    -0.15  -0.01   0.05    -0.02  -0.04  -0.02
   8   6    -0.15  -0.00  -0.23    -0.16  -0.04   0.03    -0.09  -0.04  -0.14
   9   6     0.01  -0.05  -0.07    -0.12  -0.05   0.04    -0.07  -0.03  -0.09
  10  16     0.15  -0.15   0.13    -0.26  -0.04  -0.08     0.02   0.05   0.05
  11   6     0.06  -0.04   0.00    -0.07  -0.03  -0.12    -0.06   0.04   0.16
  12   6     0.06  -0.00  -0.01    -0.06   0.03  -0.23    -0.06   0.04   0.29
  13   6     0.01   0.03  -0.04    -0.07   0.04  -0.14    -0.05   0.06   0.16
  14   6    -0.00   0.05   0.00    -0.04   0.09  -0.03    -0.04   0.04  -0.01
  15   6    -0.05   0.03   0.10    -0.02   0.11   0.16    -0.03   0.01  -0.24
  16   6    -0.06  -0.01   0.07    -0.02   0.08   0.19    -0.03  -0.03  -0.22
  17   6    -0.06  -0.02  -0.01     0.03   0.03  -0.01     0.01  -0.04   0.02
  18   6    -0.07  -0.05  -0.07     0.05   0.00  -0.08     0.02  -0.03   0.10
  19   6    -0.09  -0.09  -0.16     0.07   0.01  -0.07     0.05   0.01   0.16
  20   6    -0.09  -0.06  -0.11     0.07   0.01  -0.03     0.06   0.01   0.12
  21   6    -0.10   0.00   0.01     0.11  -0.01  -0.01     0.05  -0.02   0.03
  22   7    -0.12   0.03   0.06     0.13  -0.02   0.08     0.06   0.01  -0.08
  23   6    -0.10   0.04   0.04     0.11  -0.02   0.03     0.07   0.01  -0.07
  24   6    -0.05   0.08  -0.01     0.11  -0.09   0.00     0.04  -0.01  -0.04
  25   6    -0.00   0.12  -0.05     0.03  -0.12  -0.01    -0.01  -0.04   0.03
  26   6    -0.01   0.10  -0.02    -0.03  -0.09  -0.00    -0.02  -0.05   0.05
  27   6    -0.08   0.04   0.05    -0.00  -0.01  -0.01     0.04  -0.02  -0.02
  28   6    -0.11   0.02   0.08     0.08   0.02   0.01     0.08   0.01  -0.08
  29   6    -0.10   0.03   0.01     0.12  -0.01   0.07     0.04   0.02  -0.06
  30   6    -0.10  -0.05   0.01     0.10   0.04   0.04     0.06   0.05  -0.03
  31   6    -0.02  -0.11   0.01     0.04   0.10  -0.03     0.04   0.06   0.01
  32   6     0.04  -0.08   0.01     0.01   0.11  -0.05     0.01   0.03   0.03
  33   6     0.01   0.01  -0.02     0.06   0.03   0.03    -0.00   0.00   0.00
  34   6    -0.06   0.07  -0.02     0.12  -0.02   0.08     0.02  -0.00  -0.04
  35   6    -0.09   0.02   0.05     0.10  -0.04  -0.08     0.02  -0.04   0.02
  36   6    -0.09  -0.01   0.01     0.09  -0.04  -0.13     0.02  -0.04   0.07
  37   6    -0.01  -0.00  -0.00     0.02   0.03  -0.05     0.02  -0.03   0.05
  38   7     0.03  -0.02   0.02     0.05   0.01  -0.08     0.06  -0.05   0.11
  39  16     0.10   0.03   0.02     0.14   0.09   0.07     0.16  -0.04  -0.09
  40   7     0.03   0.05  -0.02     0.05   0.10   0.07     0.06   0.02  -0.12
  41   6     0.00   0.04  -0.01     0.00   0.07  -0.00     0.01   0.01  -0.03
  42   6     0.02   0.04  -0.07    -0.10   0.00  -0.06    -0.09   0.06   0.11
  43   6     0.02  -0.00  -0.05    -0.11  -0.06   0.04    -0.10   0.05   0.05
  44   6     0.07  -0.04  -0.03    -0.09  -0.07   0.00    -0.10   0.05   0.01
  45   1     0.19  -0.00  -0.01     0.19  -0.03   0.00     0.13   0.03  -0.05
  46   1     0.03  -0.03  -0.02    -0.01  -0.06  -0.04    -0.10  -0.02  -0.03
  47   1     0.07   0.09   0.08     0.03   0.10   0.11    -0.04   0.17   0.07
  48   1     0.02  -0.07  -0.09    -0.03  -0.07  -0.09    -0.06  -0.09  -0.12
  49   1    -0.06  -0.03   0.00    -0.11  -0.03   0.01    -0.15  -0.04  -0.02
  50   1     0.12   0.02   0.11    -0.02  -0.00   0.02     0.03  -0.01   0.05
  51   1     0.07   0.03   0.10    -0.03   0.00   0.02     0.05  -0.01   0.09
  52   1    -0.06   0.03  -0.08    -0.05   0.00   0.01    -0.01  -0.01  -0.01
  53   1    -0.09  -0.01  -0.12    -0.06  -0.01   0.00    -0.04  -0.01  -0.07
  54   1     0.03   0.00   0.00    -0.01   0.02  -0.09    -0.02   0.00   0.12
  55   1    -0.02   0.02   0.05    -0.01   0.04   0.09    -0.01  -0.00  -0.12
  56   1    -0.02  -0.00   0.04    -0.02   0.02   0.11    -0.01  -0.01  -0.11
  57   1    -0.02  -0.04  -0.07     0.02   0.00  -0.02     0.01   0.01   0.06
  58   1    -0.02  -0.02  -0.05     0.01   0.00  -0.00     0.02   0.01   0.04
  59   1    -0.01   0.03  -0.01     0.05  -0.03   0.00     0.01  -0.00  -0.01
  60   1     0.01   0.04  -0.03     0.01  -0.05  -0.01    -0.01  -0.02   0.02
  61   1     0.01   0.03  -0.02    -0.03  -0.03  -0.00    -0.02  -0.02   0.03
  62   1    -0.03   0.01   0.02    -0.01   0.01  -0.00     0.01  -0.01  -0.01
  63   1    -0.04  -0.00   0.03     0.03   0.02   0.00     0.03   0.01  -0.03
  64   1    -0.04  -0.02   0.00     0.04   0.01   0.01     0.03   0.02  -0.01
  65   1    -0.00  -0.05   0.01     0.00   0.04  -0.02     0.01   0.02   0.01
  66   1     0.03  -0.04   0.01    -0.01   0.05  -0.03     0.00   0.01   0.02
  67   1     0.02   0.01  -0.01     0.01   0.01   0.01    -0.01  -0.01   0.01
  68   1    -0.02   0.04  -0.01     0.04  -0.02   0.03     0.00  -0.01  -0.02
  69   1    -0.03   0.02   0.03     0.03  -0.01  -0.02    -0.00  -0.01  -0.01
  70   1    -0.03   0.00   0.01     0.03  -0.01  -0.05     0.00  -0.02   0.01
  71   1     0.00   0.01  -0.03    -0.03   0.00  -0.01    -0.03   0.02   0.02
  72   1    -0.01  -0.01  -0.01    -0.04  -0.03   0.04    -0.04   0.02  -0.00
                     19                     20                     21
                        a                      a                      a 
 Frequencies --   149.2758               164.0682               174.1350
 Red. masses --    12.5933                11.9899                15.1472
 Frc consts  --     0.0000                 0.0000                 0.0000
 IR Inten    --     3.4741                21.4905                 6.9795
 Raman Activ --     0.0000                 0.0000                 0.0000
 Depolar     --     0.0000                 0.0000                 0.0000
 Atom AN      X      Y      Z        X      Y      Z        X      Y      Z
   1   6     0.06  -0.03   0.03     0.30  -0.02   0.09    -0.12   0.04  -0.03
   2   6    -0.00  -0.02   0.01     0.02   0.00   0.01    -0.13  -0.00  -0.05
   3   7     0.01  -0.00   0.06     0.02   0.06   0.21     0.01   0.11   0.04
   4   6     0.02  -0.00   0.05    -0.00   0.02   0.09     0.09   0.05   0.06
   5   6    -0.00   0.00   0.02    -0.07  -0.06   0.00     0.08   0.02   0.05
   6   6    -0.03   0.01  -0.02    -0.03  -0.11  -0.06     0.04  -0.00  -0.07
   7   6    -0.04   0.01  -0.02     0.07  -0.09  -0.01     0.04   0.01  -0.13
   8   6    -0.01   0.00   0.02     0.10  -0.02   0.02     0.10   0.04  -0.03
   9   6     0.01  -0.00   0.05     0.03   0.04   0.04     0.12   0.06   0.07
  10  16    -0.00  -0.04   0.05    -0.09   0.24  -0.19     0.23   0.01   0.25
  11   6     0.00   0.02  -0.12    -0.01   0.02   0.18     0.00   0.14  -0.14
  12   6     0.01   0.05  -0.21    -0.02  -0.07   0.29    -0.01   0.12  -0.24
  13   6     0.00   0.03  -0.10     0.01  -0.04   0.01    -0.00   0.05  -0.07
  14   6     0.00   0.02   0.02    -0.00  -0.07   0.02    -0.02  -0.09  -0.01
  15   6    -0.02  -0.00  -0.09     0.02  -0.05   0.04    -0.02  -0.09   0.01
  16   6    -0.02  -0.03  -0.06     0.02  -0.02  -0.02    -0.01  -0.04   0.03
  17   6    -0.01  -0.04  -0.02    -0.00  -0.00  -0.04    -0.02  -0.03   0.01
  18   6    -0.01  -0.01   0.18     0.00   0.02  -0.01    -0.01  -0.04  -0.02
  19   6     0.00   0.02   0.21    -0.00   0.03   0.01     0.02  -0.02  -0.00
  20   6     0.01   0.01   0.13    -0.00   0.03   0.01     0.03  -0.01   0.00
  21   6    -0.02  -0.00   0.05    -0.00   0.02  -0.00     0.03  -0.02  -0.01
  22   7    -0.02   0.01  -0.17    -0.00  -0.01  -0.02     0.05  -0.01   0.03
  23   6    -0.01   0.01  -0.12    -0.01  -0.01  -0.00     0.05  -0.00   0.01
  24   6    -0.03   0.05  -0.06    -0.02  -0.01   0.01     0.06  -0.03  -0.01
  25   6    -0.03   0.04   0.04     0.00   0.00   0.00     0.02  -0.05  -0.01
  26   6     0.01  -0.00   0.06     0.02   0.00  -0.01    -0.01  -0.04   0.00
  27   6     0.05  -0.04  -0.02     0.01  -0.01  -0.00     0.01  -0.00  -0.00
  28   6     0.03  -0.03  -0.11    -0.01  -0.02   0.00     0.04   0.01   0.00
  29   6    -0.03   0.01  -0.13     0.01  -0.02  -0.00     0.05   0.00   0.03
  30   6     0.01   0.02  -0.05     0.01  -0.01   0.01     0.04   0.02   0.02
  31   6     0.02  -0.01   0.05    -0.00  -0.00   0.00     0.02   0.04  -0.01
  32   6    -0.02  -0.03   0.06    -0.02   0.00  -0.01     0.02   0.04  -0.02
  33   6    -0.08  -0.02  -0.04    -0.02  -0.01  -0.01     0.04   0.01   0.01
  34   6    -0.08  -0.01  -0.12    -0.00  -0.02   0.00     0.05  -0.00   0.03
  35   6    -0.04   0.05   0.20     0.00   0.03   0.02     0.01  -0.05  -0.05
  36   6    -0.03   0.05   0.27     0.00   0.04   0.02    -0.00  -0.06  -0.06
  37   6     0.01  -0.04  -0.15    -0.02  -0.02  -0.04    -0.04  -0.03   0.01
  38   7     0.02  -0.07  -0.44    -0.06   0.00  -0.03    -0.15   0.02   0.01
  39  16     0.11  -0.02  -0.05    -0.15  -0.05   0.06    -0.40  -0.10   0.04
  40   7     0.06   0.05   0.44    -0.05  -0.07   0.01    -0.16  -0.16   0.01
  41   6     0.02   0.02   0.16    -0.02  -0.06  -0.02    -0.04  -0.11   0.02
  42   6    -0.00   0.02  -0.05     0.02   0.06  -0.39     0.03   0.04   0.10
  43   6    -0.00   0.00  -0.04     0.03   0.10  -0.27     0.02   0.09   0.03
  44   6     0.01  -0.00  -0.03     0.00   0.05   0.07     0.01   0.13  -0.07
  45   1     0.07  -0.03   0.01     0.28  -0.08   0.04     0.20  -0.09   0.02
  46   1    -0.01  -0.04  -0.02    -0.02  -0.10  -0.08    -0.23  -0.14  -0.10
  47   1     0.01   0.04   0.03     0.06   0.15   0.11    -0.08   0.26   0.06
  48   1     0.00  -0.02  -0.01     0.01  -0.02  -0.06    -0.03  -0.05  -0.04
  49   1    -0.02  -0.00   0.00    -0.06   0.01   0.01    -0.09   0.02  -0.02
  50   1     0.00   0.00   0.01    -0.04  -0.02  -0.01     0.02   0.00   0.03
  51   1    -0.01   0.00  -0.02    -0.03  -0.05  -0.04     0.00  -0.01  -0.03
  52   1    -0.02   0.00  -0.02     0.03  -0.04  -0.01     0.00  -0.00  -0.07
  53   1    -0.01  -0.00   0.01     0.05   0.00   0.00     0.04   0.02  -0.01
  54   1     0.00   0.02  -0.08    -0.02  -0.04   0.14    -0.01   0.04  -0.10
  55   1    -0.01   0.00  -0.05     0.01  -0.02   0.01    -0.00  -0.03   0.01
  56   1    -0.01  -0.01  -0.02     0.01  -0.00  -0.01     0.00  -0.01   0.02
  57   1     0.00   0.00   0.07    -0.00   0.01   0.00     0.01  -0.01   0.00
  58   1     0.01  -0.00   0.02    -0.00   0.01   0.00     0.01   0.00   0.01
  59   1    -0.02   0.03  -0.02    -0.01  -0.00   0.00     0.02  -0.01  -0.00
  60   1    -0.02   0.02   0.03     0.00   0.00   0.00     0.00  -0.02  -0.00
  61   1     0.00  -0.00   0.04     0.01   0.00  -0.00    -0.01  -0.02   0.00
  62   1     0.03  -0.02  -0.00     0.01  -0.01  -0.00    -0.00   0.00  -0.00
  63   1     0.01  -0.02  -0.04    -0.00  -0.01   0.00     0.02   0.01  -0.00
  64   1     0.01   0.01  -0.02     0.01  -0.00   0.00     0.01   0.00   0.01
  65   1     0.02  -0.00   0.04     0.00   0.00   0.00     0.00   0.01  -0.01
  66   1    -0.00  -0.02   0.04    -0.01   0.00  -0.01    -0.00   0.02  -0.01
  67   1    -0.03  -0.01  -0.01    -0.01  -0.00  -0.00     0.01   0.00   0.00
  68   1    -0.03  -0.00  -0.05     0.00  -0.01   0.00     0.02  -0.00   0.01
  69   1    -0.02   0.02   0.06     0.00   0.01   0.01    -0.00  -0.01  -0.02
  70   1    -0.01   0.02   0.10     0.00   0.01   0.01    -0.00  -0.02  -0.02
  71   1    -0.00   0.00  -0.00     0.01   0.03  -0.21     0.01  -0.00   0.09
  72   1    -0.00  -0.00   0.00     0.02   0.05  -0.12     0.01   0.02   0.04
                     22                     23                     24
                        a                      a                      a 
 Frequencies --   191.2191               195.3517               207.2946
 Red. masses --    11.3514                13.0801                11.9979
 Frc consts  --     0.0000                 0.0000                 0.0000
 IR Inten    --     0.7401                 2.8081                 0.9826
 Raman Activ --     0.0000                 0.0000                 0.0000
 Depolar     --     0.0000                 0.0000                 0.0000
 Atom AN      X      Y      Z        X      Y      Z        X      Y      Z
   1   6    -0.21  -0.00   0.05    -0.15   0.04  -0.03     0.16  -0.00  -0.02
   2   6    -0.06  -0.09   0.06    -0.06  -0.02  -0.03    -0.01   0.04  -0.05
   3   7     0.05  -0.05   0.00    -0.00   0.00  -0.06    -0.06   0.04   0.04
   4   6     0.04  -0.01   0.06     0.00   0.00  -0.03    -0.04   0.01   0.02
   5   6    -0.01   0.05  -0.03     0.01   0.01  -0.03    -0.03  -0.05   0.05
   6   6    -0.11   0.09  -0.13     0.00   0.02  -0.01     0.03  -0.09   0.07
   7   6    -0.09   0.07  -0.00     0.00   0.02   0.00     0.03  -0.07  -0.02
   8   6    -0.00   0.01   0.15     0.00   0.01   0.01    -0.00  -0.01  -0.07
   9   6     0.03  -0.02   0.11     0.00   0.00  -0.01    -0.02   0.02  -0.01
  10  16    -0.13  -0.01  -0.16     0.02   0.01   0.01     0.04   0.01   0.14
  11   6     0.04  -0.06  -0.07     0.00  -0.00   0.03    -0.04   0.07  -0.07
  12   6     0.05  -0.07  -0.02     0.00  -0.02   0.04    -0.05   0.08  -0.13
  13   6     0.06  -0.08   0.07     0.01  -0.02   0.01    -0.03   0.04  -0.04
  14   6     0.07  -0.00   0.13     0.02  -0.03  -0.11    -0.03  -0.03   0.09
  15   6     0.10  -0.01  -0.06     0.01  -0.02   0.19    -0.03  -0.05  -0.07
  16   6     0.09  -0.00  -0.10     0.01  -0.04   0.13    -0.03  -0.07  -0.07
  17   6     0.05   0.03   0.09     0.01  -0.06  -0.17    -0.02  -0.06   0.08
  18   6     0.04   0.06  -0.01     0.01   0.06  -0.06    -0.00   0.04  -0.03
  19   6     0.00   0.03  -0.07     0.03   0.11   0.02     0.05   0.07  -0.04
  20   6    -0.01   0.02  -0.08     0.02   0.16   0.05     0.05   0.15  -0.05
  21   6    -0.03   0.04  -0.05    -0.00   0.15   0.01     0.02   0.16  -0.09
  22   7    -0.06   0.01   0.01    -0.02   0.01  -0.14     0.01   0.03  -0.12
  23   6    -0.10  -0.01   0.06    -0.14  -0.05  -0.02    -0.14  -0.06   0.03
  24   6    -0.10   0.01   0.07    -0.16  -0.00   0.04    -0.17  -0.03   0.09
  25   6    -0.02   0.06  -0.01    -0.03   0.07   0.02    -0.02   0.05   0.00
  26   6     0.03   0.08  -0.06     0.10   0.06  -0.06     0.11   0.07  -0.10
  27   6    -0.04   0.02   0.01     0.03  -0.06  -0.00    -0.00  -0.05   0.02
  28   6    -0.11  -0.02   0.07    -0.11  -0.12   0.02    -0.14  -0.12   0.09
  29   6    -0.04  -0.01   0.01     0.07  -0.08  -0.03     0.14  -0.09   0.04
  30   6    -0.05  -0.04   0.00     0.10  -0.06   0.03     0.18  -0.06   0.10
  31   6    -0.04  -0.05  -0.01     0.01   0.01   0.02     0.04   0.06   0.00
  32   6    -0.03  -0.04  -0.01    -0.10   0.03  -0.05    -0.09   0.12  -0.11
  33   6    -0.02  -0.02   0.00    -0.07  -0.06  -0.01     0.01  -0.04   0.02
  34   6    -0.04  -0.01   0.01     0.03  -0.13   0.01     0.14  -0.15   0.10
  35   6     0.01   0.06  -0.06     0.00   0.20   0.12    -0.02   0.15  -0.07
  36   6     0.02   0.07  -0.03    -0.00   0.14   0.06    -0.04   0.07  -0.05
  37   6     0.06   0.03   0.21     0.01  -0.08  -0.28    -0.03  -0.06   0.21
  38   7     0.10   0.00   0.13     0.05  -0.09  -0.07     0.00  -0.10   0.12
  39  16     0.20   0.00  -0.24     0.15  -0.06   0.31     0.05  -0.15  -0.21
  40   7     0.10   0.04   0.05     0.05  -0.03  -0.19     0.01  -0.04   0.10
  41   6     0.06   0.03   0.19     0.02  -0.05  -0.30    -0.02  -0.04   0.21
  42   6     0.05  -0.09   0.06     0.02  -0.03   0.10    -0.03   0.05  -0.04
  43   6     0.05  -0.07  -0.03     0.02  -0.02   0.11    -0.04   0.06  -0.05
  44   6     0.05  -0.05  -0.07     0.00   0.01   0.02    -0.05   0.06  -0.02
  45   1     0.19  -0.11   0.05     0.04  -0.02   0.00    -0.07   0.06  -0.03
  46   1    -0.29  -0.17  -0.07    -0.13  -0.05  -0.03     0.18   0.09   0.03
  47   1    -0.12   0.28   0.05    -0.06   0.12   0.00     0.08  -0.15  -0.01
  48   1    -0.01  -0.06   0.02    -0.02  -0.02  -0.00    -0.01   0.02  -0.04
  49   1    -0.04  -0.02   0.02    -0.03  -0.00  -0.01    -0.01   0.01  -0.01
  50   1     0.00   0.02  -0.02     0.00   0.00  -0.01    -0.02  -0.02   0.02
  51   1    -0.05   0.04  -0.08     0.00   0.01  -0.00     0.02  -0.04   0.04
  52   1    -0.04   0.03  -0.01     0.00   0.01   0.00     0.01  -0.03  -0.01
  53   1    -0.00  -0.00   0.07     0.00   0.00   0.01     0.01   0.00  -0.04
  54   1     0.01  -0.02  -0.01     0.00  -0.00   0.01    -0.02   0.02  -0.05
  55   1     0.03  -0.01  -0.07    -0.00   0.01   0.15    -0.01  -0.02  -0.07
  56   1     0.03  -0.00  -0.09    -0.00  -0.01   0.12    -0.01  -0.02  -0.07
  57   1    -0.01   0.01  -0.02     0.01   0.03   0.01     0.02   0.02  -0.01
  58   1    -0.00   0.01  -0.03     0.01   0.05   0.02     0.03   0.05  -0.01
  59   1    -0.04   0.00   0.03    -0.07   0.01   0.02    -0.07  -0.01   0.04
  60   1     0.00   0.02  -0.01    -0.01   0.04   0.01     0.00   0.03  -0.00
  61   1     0.03   0.04  -0.04     0.07   0.04  -0.04     0.08   0.05  -0.07
  62   1    -0.01   0.00   0.00     0.03  -0.03   0.00     0.01  -0.02   0.01
  63   1    -0.04  -0.01   0.03    -0.04  -0.06   0.01    -0.06  -0.06   0.04
  64   1    -0.02  -0.01   0.00     0.05  -0.02   0.02     0.08  -0.02   0.05
  65   1    -0.01  -0.02  -0.01     0.01   0.02   0.02     0.01   0.04  -0.00
  66   1    -0.01  -0.01  -0.01    -0.05   0.03  -0.03    -0.07   0.07  -0.08
  67   1    -0.00  -0.00   0.00    -0.04  -0.02  -0.01    -0.01  -0.02   0.01
  68   1    -0.01  -0.00   0.00     0.01  -0.06   0.01     0.05  -0.07   0.04
  69   1     0.01   0.01  -0.02    -0.00   0.07   0.06    -0.02   0.05  -0.02
  70   1     0.00   0.02  -0.00    -0.00   0.04   0.03    -0.02   0.02  -0.01
  71   1     0.02  -0.03   0.03     0.01  -0.01   0.04    -0.01   0.01  -0.01
  72   1     0.01  -0.02  -0.01     0.01  -0.01   0.04    -0.01   0.02  -0.01
                     25                     26                     27
                        a                      a                      a 
 Frequencies --   226.1040               232.6010               247.6962
 Red. masses --     9.8838                10.5169                11.8714
 Frc consts  --     0.0000                 0.0000                 0.0000
 IR Inten    --    26.7862                25.7586                22.2098
 Raman Activ --     0.0000                 0.0000                 0.0000
 Depolar     --     0.0000                 0.0000                 0.0000
 Atom AN      X      Y      Z        X      Y      Z        X      Y      Z
   1   6    -0.01  -0.05  -0.01    -0.01  -0.03   0.03    -0.04   0.13  -0.10
   2   6     0.16   0.22   0.13     0.06  -0.00   0.06    -0.16  -0.03  -0.18
   3   7    -0.03   0.11   0.09     0.05  -0.02   0.00    -0.08   0.05  -0.04
   4   6    -0.16   0.05  -0.26     0.05  -0.01  -0.00    -0.08   0.04   0.04
   5   6    -0.15  -0.02  -0.21     0.05   0.03  -0.02    -0.09  -0.06   0.06
   6   6     0.11  -0.05   0.19     0.00   0.06  -0.04    -0.01  -0.14   0.06
   7   6     0.16  -0.04   0.21    -0.00   0.05  -0.01     0.01  -0.12  -0.02
   8   6    -0.08   0.03  -0.22     0.01   0.01   0.04    -0.00  -0.02  -0.06
   9   6    -0.17   0.06  -0.32     0.04  -0.02   0.01    -0.05   0.06   0.03
  10  16     0.07  -0.16   0.16     0.02  -0.05  -0.07    -0.07   0.17   0.14
  11   6    -0.04  -0.03   0.04     0.02  -0.04   0.00    -0.02   0.07   0.05
  12   6    -0.03  -0.03  -0.02     0.01  -0.02   0.04    -0.01  -0.03  -0.03
  13   6    -0.00  -0.04  -0.06    -0.02   0.00   0.03     0.08  -0.08  -0.10
  14   6    -0.00   0.00  -0.04    -0.03   0.03   0.02     0.10  -0.09  -0.14
  15   6     0.01   0.01  -0.04    -0.06   0.01  -0.00     0.17  -0.06  -0.10
  16   6     0.01   0.02   0.06    -0.07  -0.01  -0.04     0.17   0.03   0.18
  17   6     0.00   0.02   0.06    -0.07  -0.01  -0.02     0.13   0.06   0.14
  18   6     0.00   0.02   0.02    -0.07  -0.01  -0.01     0.11   0.09   0.09
  19   6     0.00  -0.00  -0.01    -0.06   0.03   0.07     0.05   0.03   0.01
  20   6    -0.00  -0.01  -0.05    -0.05   0.03   0.04     0.03  -0.06  -0.14
  21   6    -0.00  -0.00  -0.03    -0.05   0.02   0.01    -0.02  -0.03  -0.11
  22   7    -0.00   0.00   0.01    -0.04   0.01  -0.02    -0.06  -0.01   0.06
  23   6    -0.00   0.00   0.01     0.03   0.09  -0.23    -0.01   0.06  -0.01
  24   6    -0.00   0.00   0.01     0.09   0.20  -0.26     0.01   0.11  -0.03
  25   6     0.00   0.01  -0.01     0.02   0.15  -0.01    -0.00   0.11  -0.02
  26   6    -0.00   0.01  -0.01    -0.10  -0.02   0.23    -0.08   0.08   0.06
  27   6    -0.01   0.01   0.01     0.05  -0.01   0.01    -0.06   0.08   0.02
  28   6    -0.01   0.01   0.01     0.12   0.07  -0.27    -0.01   0.10  -0.04
  29   6    -0.00   0.00   0.02     0.04  -0.10   0.22    -0.11  -0.02   0.12
  30   6    -0.01  -0.01   0.01     0.08  -0.21   0.26    -0.14  -0.13   0.07
  31   6    -0.00  -0.01  -0.00     0.01  -0.13   0.02    -0.09  -0.17  -0.03
  32   6     0.00   0.00  -0.01    -0.10   0.06  -0.24    -0.06  -0.11  -0.08
  33   6     0.01   0.00   0.00     0.04  -0.01  -0.01    -0.03  -0.02  -0.01
  34   6     0.00   0.00   0.02     0.13  -0.13   0.27    -0.08  -0.01   0.11
  35   6    -0.00  -0.01  -0.03    -0.07   0.00  -0.00     0.06   0.01  -0.12
  36   6    -0.00   0.00  -0.01    -0.07  -0.04  -0.07     0.08   0.07  -0.01
  37   6    -0.00   0.01   0.02    -0.05  -0.00   0.02     0.10   0.01  -0.04
  38   7     0.01  -0.00  -0.04    -0.01  -0.02   0.03     0.06   0.02  -0.14
  39  16     0.05   0.02  -0.03     0.04   0.02  -0.02     0.01  -0.04   0.04
  40   7     0.02   0.03   0.07    -0.01   0.05  -0.02     0.06  -0.08   0.10
  41   6    -0.00   0.02   0.04    -0.04   0.03   0.01     0.10  -0.07  -0.02
  42   6     0.00  -0.04  -0.03    -0.01   0.01   0.01     0.08  -0.09  -0.01
  43   6     0.01  -0.05   0.04    -0.00  -0.01  -0.01     0.06  -0.01   0.07
  44   6    -0.03  -0.03   0.06     0.03  -0.03  -0.01    -0.04   0.06   0.05
  45   1     0.17  -0.15   0.09     0.02  -0.03   0.03    -0.05   0.09  -0.08
  46   1    -0.18  -0.16  -0.13    -0.04  -0.03  -0.01     0.04   0.08   0.02
  47   1    -0.04   0.19   0.00    -0.01   0.03  -0.00     0.00  -0.02  -0.01
  48   1     0.03   0.13   0.10     0.02   0.01   0.03    -0.04  -0.05  -0.09
  49   1     0.13   0.07   0.00     0.04  -0.00   0.01    -0.10  -0.00  -0.04
  50   1    -0.06  -0.01  -0.07     0.02   0.01  -0.01    -0.05  -0.03   0.02
  51   1     0.08  -0.02   0.14    -0.00   0.02  -0.02     0.00  -0.06   0.03
  52   1     0.11  -0.02   0.16    -0.01   0.02  -0.00     0.01  -0.04  -0.02
  53   1    -0.02   0.01  -0.08    -0.00  -0.00   0.02     0.02   0.01  -0.04
  54   1    -0.02  -0.01  -0.00     0.01  -0.00   0.01    -0.03  -0.02  -0.01
  55   1     0.00   0.00  -0.03    -0.02   0.01  -0.00     0.06  -0.03  -0.06
  56   1     0.00   0.01   0.02    -0.02  -0.00  -0.02     0.06   0.01   0.09
  57   1     0.00  -0.00  -0.00    -0.02   0.02   0.04     0.01   0.02   0.01
  58   1    -0.00  -0.01  -0.02    -0.01   0.01   0.01     0.01  -0.02  -0.06
  59   1     0.00  -0.00   0.00     0.02   0.08  -0.10     0.00   0.04  -0.02
  60   1     0.00   0.00  -0.00    -0.00   0.06   0.02     0.00   0.03  -0.01
  61   1    -0.00   0.00  -0.00    -0.07  -0.04   0.15    -0.04   0.02   0.04
  62   1    -0.00   0.00   0.00     0.02  -0.03   0.02    -0.02   0.02   0.02
  63   1    -0.00   0.00   0.00     0.05   0.01  -0.11     0.00   0.04  -0.02
  64   1    -0.00  -0.00   0.01     0.03  -0.08   0.10    -0.07  -0.05   0.03
  65   1    -0.00  -0.00  -0.00    -0.01  -0.05  -0.01    -0.03  -0.06  -0.02
  66   1    -0.00   0.00  -0.01    -0.07   0.06  -0.16    -0.01  -0.03  -0.05
  67   1     0.00   0.00   0.00     0.02   0.02  -0.02     0.01   0.01  -0.01
  68   1     0.00   0.00   0.01     0.05  -0.04   0.11    -0.02   0.01   0.04
  69   1    -0.00  -0.00  -0.01    -0.02   0.00   0.00     0.03  -0.01  -0.04
  70   1    -0.00   0.00   0.00    -0.02  -0.02  -0.04     0.02   0.02   0.01
  71   1     0.00  -0.01  -0.02    -0.00   0.00  -0.00     0.03  -0.03  -0.00
  72   1     0.02  -0.01   0.02    -0.01  -0.00  -0.01     0.04   0.01   0.03
                     28                     29                     30
                        a                      a                      a 
 Frequencies --   251.4992               280.4220               288.7538
 Red. masses --    11.6737                12.8964                12.6008
 Frc consts  --     0.0000                 0.0000                 0.0000
 IR Inten    --     3.6346                 5.1499                 2.1239
 Raman Activ --     0.0000                 0.0000                 0.0000
 Depolar     --     0.0000                 0.0000                 0.0000
 Atom AN      X      Y      Z        X      Y      Z        X      Y      Z
   1   6     0.08  -0.01  -0.01     0.01   0.03  -0.05     0.06   0.11  -0.15
   2   6    -0.01   0.06  -0.01     0.05   0.09  -0.01     0.17   0.22  -0.06
   3   7    -0.06   0.05   0.06     0.00   0.06  -0.02    -0.05   0.09  -0.11
   4   6    -0.07   0.04   0.02     0.06   0.05   0.05    -0.03   0.14   0.14
   5   6    -0.09  -0.05   0.03     0.09   0.01   0.09    -0.03  -0.08   0.23
   6   6    -0.01  -0.09   0.07     0.04  -0.02  -0.06     0.01  -0.22   0.01
   7   6     0.01  -0.08   0.02     0.04  -0.01  -0.12     0.02  -0.19  -0.17
   8   6    -0.02   0.00  -0.06     0.12   0.02   0.03     0.13   0.01   0.00
   9   6    -0.05   0.04  -0.00     0.09   0.05   0.06     0.02   0.14   0.18
  10  16    -0.04  -0.02   0.12     0.01  -0.06   0.01    -0.22  -0.03   0.13
  11   6    -0.03   0.05  -0.16    -0.06  -0.03   0.02    -0.03  -0.05  -0.11
  12   6    -0.02   0.05  -0.16    -0.07  -0.09   0.07    -0.02  -0.13   0.03
  13   6     0.01  -0.02   0.06    -0.08  -0.08  -0.01    -0.00  -0.14   0.09
  14   6     0.03  -0.04   0.23    -0.10  -0.02  -0.09     0.01   0.03   0.04
  15   6     0.06  -0.02   0.26    -0.09  -0.02  -0.10     0.01   0.04   0.01
  16   6     0.08  -0.03  -0.19    -0.09  -0.05   0.11    -0.00   0.04  -0.03
  17   6     0.05  -0.01  -0.22    -0.12  -0.01   0.10    -0.01   0.04  -0.02
  18   6     0.06   0.12  -0.19    -0.09   0.23   0.06    -0.03  -0.09   0.02
  19   6    -0.03   0.15  -0.03    -0.07   0.25   0.01    -0.03  -0.11   0.02
  20   6    -0.04   0.10   0.15    -0.09   0.13  -0.16    -0.01  -0.09   0.03
  21   6    -0.00   0.04   0.13    -0.02   0.07  -0.15    -0.01  -0.07   0.05
  22   7    -0.02  -0.04   0.09    -0.00  -0.02   0.09     0.00   0.01  -0.05
  23   6     0.05   0.01  -0.05     0.10  -0.03   0.08    -0.04  -0.00  -0.04
  24   6     0.10   0.03  -0.10     0.15  -0.14  -0.02    -0.07   0.02   0.01
  25   6     0.02  -0.02   0.00     0.07  -0.19  -0.04    -0.03   0.04   0.01
  26   6    -0.05  -0.07   0.10     0.03  -0.19  -0.01     0.01   0.05  -0.01
  27   6     0.06  -0.00  -0.03     0.07  -0.06  -0.01    -0.02  -0.01   0.00
  28   6     0.11   0.04  -0.11     0.14  -0.03   0.04    -0.06  -0.02  -0.01
  29   6    -0.09  -0.00  -0.02    -0.06   0.05   0.08     0.05  -0.00  -0.03
  30   6    -0.14  -0.03  -0.08    -0.10   0.04   0.02     0.08   0.03   0.02
  31   6    -0.07  -0.10  -0.00    -0.04  -0.00  -0.02     0.05   0.06   0.02
  32   6    -0.02  -0.14   0.06     0.06  -0.01   0.02     0.02   0.08  -0.01
  33   6    -0.09  -0.02  -0.04     0.04   0.07   0.01     0.04   0.01   0.01
  34   6    -0.14   0.03  -0.07    -0.04   0.11   0.02     0.07  -0.02  -0.00
  35   6     0.10   0.11   0.14    -0.03   0.11  -0.09    -0.03  -0.10   0.03
  36   6     0.11   0.15  -0.03    -0.05   0.20   0.01    -0.03  -0.11   0.01
  37   6     0.02  -0.02   0.07    -0.18  -0.09  -0.00     0.00   0.06  -0.04
  38   7     0.05  -0.03   0.22    -0.03  -0.20  -0.04     0.01   0.07  -0.02
  39  16     0.07  -0.09  -0.05     0.25  -0.13  -0.00     0.06   0.17   0.03
  40   7     0.03  -0.06  -0.14    -0.01   0.09   0.05     0.01   0.10  -0.06
  41   6     0.02  -0.04   0.04    -0.15   0.02  -0.01    -0.02   0.08  -0.05
  42   6    -0.00  -0.02   0.03    -0.02  -0.06   0.03     0.00  -0.17   0.14
  43   6    -0.01   0.02  -0.11    -0.01  -0.02   0.03     0.01  -0.09  -0.11
  44   6    -0.04   0.03  -0.10    -0.01  -0.00  -0.02    -0.03  -0.03  -0.19
  45   1     0.02  -0.00   0.00     0.01  -0.01  -0.00     0.06  -0.01  -0.01
  46   1     0.05   0.01  -0.02    -0.01  -0.00  -0.03    -0.04  -0.01  -0.08
  47   1     0.03  -0.02   0.01    -0.00   0.03  -0.02     0.01   0.09  -0.06
  48   1    -0.01   0.03  -0.01     0.01   0.04   0.02     0.04   0.13   0.05
  49   1    -0.00   0.02  -0.01     0.04   0.03  -0.01     0.13   0.06  -0.04
  50   1    -0.04  -0.02   0.01     0.03  -0.00   0.04    -0.05  -0.04   0.08
  51   1     0.00  -0.04   0.03     0.00  -0.01  -0.04    -0.01  -0.10  -0.01
  52   1     0.02  -0.03   0.01    -0.00  -0.01  -0.07    -0.01  -0.07  -0.12
  53   1     0.00   0.01  -0.03     0.05   0.01   0.01     0.08   0.03  -0.03
  54   1    -0.00   0.02  -0.06    -0.03  -0.03   0.03    -0.02  -0.05   0.02
  55   1     0.02  -0.00   0.14    -0.03  -0.01  -0.05    -0.00   0.02   0.01
  56   1     0.02  -0.01  -0.11    -0.03  -0.01   0.06     0.00   0.01  -0.01
  57   1    -0.03   0.06  -0.01    -0.02   0.08   0.02    -0.00  -0.04   0.00
  58   1    -0.03   0.03   0.07    -0.04   0.02  -0.06    -0.01  -0.03   0.01
  59   1     0.04   0.02  -0.04     0.08  -0.05  -0.01    -0.03   0.01   0.01
  60   1     0.00  -0.01   0.01     0.02  -0.06  -0.02    -0.01   0.02   0.01
  61   1    -0.04  -0.04   0.07    -0.01  -0.06  -0.00     0.02   0.02  -0.01
  62   1     0.02  -0.00  -0.01     0.01   0.00  -0.02     0.00  -0.01   0.01
  63   1     0.04   0.02  -0.04     0.05   0.00   0.00    -0.02  -0.01   0.00
  64   1    -0.06  -0.00  -0.03    -0.05   0.01  -0.00     0.04   0.01   0.01
  65   1    -0.01  -0.04   0.01    -0.02  -0.01  -0.02     0.02   0.02   0.01
  66   1     0.02  -0.06   0.04     0.04  -0.02   0.01    -0.01   0.03  -0.01
  67   1    -0.02   0.00  -0.02     0.02   0.03  -0.00     0.00  -0.01   0.01
  68   1    -0.04   0.02  -0.03    -0.01   0.06   0.00     0.02  -0.01   0.00
  69   1     0.05   0.02   0.06    -0.01   0.04  -0.03    -0.01  -0.03   0.00
  70   1     0.05   0.05  -0.02     0.00   0.07   0.01    -0.01  -0.04  -0.00
  71   1    -0.00  -0.01   0.04     0.01  -0.03   0.01     0.00  -0.06   0.08
  72   1     0.00   0.01  -0.03     0.00  -0.01   0.01     0.02  -0.02  -0.04
                     31                     32                     33
                        a                      a                      a 
 Frequencies --   303.6310               311.2256               329.1610
 Red. masses --    11.7489                10.8939                12.6328
 Frc consts  --     0.0000                 0.0000                 0.0000
 IR Inten    --     3.1383                 0.3268                 6.9335
 Raman Activ --     0.0000                 0.0000                 0.0000
 Depolar     --     0.0000                 0.0000                 0.0000
 Atom AN      X      Y      Z        X      Y      Z        X      Y      Z
   1   6    -0.12   0.14  -0.12     0.01  -0.03   0.05    -0.04  -0.01   0.05
   2   6    -0.02  -0.05  -0.14    -0.05  -0.06   0.01    -0.34  -0.05  -0.06
   3   7     0.05   0.01  -0.02     0.01  -0.02   0.04    -0.02   0.24   0.40
   4   6    -0.00   0.03   0.00    -0.03  -0.02  -0.01     0.04   0.10   0.03
   5   6    -0.01   0.00  -0.00    -0.07  -0.01  -0.06    -0.02   0.08  -0.06
   6   6     0.03  -0.03  -0.00    -0.03  -0.01   0.04     0.02   0.07  -0.06
   7   6     0.04  -0.03  -0.02    -0.02  -0.01   0.08     0.16   0.10   0.01
   8   6     0.03   0.00  -0.03    -0.08  -0.02  -0.03     0.11   0.14  -0.08
   9   6    -0.00   0.04   0.01    -0.06  -0.02  -0.02     0.07   0.13  -0.12
  10  16    -0.03   0.11   0.04    -0.00   0.06   0.03     0.10  -0.27  -0.04
  11   6     0.04  -0.05   0.18     0.04   0.05  -0.06    -0.09  -0.05  -0.09
  12   6     0.03  -0.11  -0.03     0.04   0.04  -0.06    -0.08  -0.15   0.03
  13   6     0.04  -0.09  -0.21     0.07   0.00   0.08    -0.02  -0.19   0.03
  14   6     0.03  -0.02  -0.12     0.07  -0.02   0.10    -0.01  -0.02   0.06
  15   6    -0.00  -0.02  -0.00     0.06  -0.03   0.07     0.03   0.00   0.07
  16   6    -0.02  -0.00   0.12     0.06  -0.02  -0.10     0.02   0.01  -0.06
  17   6    -0.05   0.01  -0.01     0.02   0.01  -0.03    -0.03   0.04  -0.03
  18   6    -0.06  -0.06  -0.21    -0.01   0.01   0.10    -0.03   0.02   0.03
  19   6    -0.08  -0.03  -0.12    -0.04   0.00   0.11    -0.06  -0.00   0.02
  20   6    -0.06   0.07   0.16    -0.05  -0.08  -0.09    -0.06  -0.08  -0.01
  21   6    -0.03   0.08   0.24    -0.08  -0.06  -0.11    -0.02  -0.09   0.01
  22   7    -0.03  -0.01   0.06    -0.07   0.01  -0.05     0.00  -0.01  -0.03
  23   6    -0.08  -0.05  -0.11    -0.11  -0.06  -0.15     0.01   0.01   0.01
  24   6    -0.06  -0.03  -0.13    -0.16  -0.10  -0.09    -0.00   0.02   0.03
  25   6    -0.02  -0.03   0.01    -0.04  -0.06  -0.01    -0.01   0.03   0.01
  26   6     0.07  -0.11   0.04     0.14  -0.14  -0.04    -0.02   0.05  -0.01
  27   6     0.11  -0.13  -0.04     0.09  -0.22  -0.00    -0.03   0.03   0.00
  28   6     0.01  -0.14  -0.10    -0.04  -0.24  -0.06    -0.02   0.03   0.01
  29   6     0.01   0.01  -0.01    -0.13   0.11   0.19     0.03  -0.01  -0.05
  30   6     0.00   0.08  -0.02    -0.13   0.13   0.17     0.07   0.01   0.00
  31   6     0.02   0.07   0.03    -0.02   0.08   0.01     0.04   0.04   0.01
  32   6     0.07   0.06   0.06     0.19   0.16  -0.01     0.00   0.05  -0.01
  33   6     0.02   0.06  -0.02     0.21   0.22   0.04     0.02  -0.01   0.01
  34   6     0.03   0.06  -0.04     0.05   0.28   0.13     0.05  -0.03  -0.02
  35   6    -0.04   0.06   0.18    -0.06  -0.04  -0.06    -0.00  -0.10   0.00
  36   6    -0.05  -0.05  -0.16    -0.05   0.00   0.04     0.01  -0.02   0.03
  37   6    -0.01   0.04   0.13     0.05   0.02  -0.06    -0.06   0.03  -0.01
  38   7    -0.01   0.04   0.10     0.03   0.04  -0.04    -0.01   0.01   0.00
  39  16    -0.03   0.06  -0.15    -0.00   0.02   0.06     0.11   0.10   0.00
  40   7    -0.01   0.05   0.16     0.03  -0.04  -0.09     0.00   0.09  -0.03
  41   6    -0.01   0.04   0.13     0.06  -0.02  -0.05    -0.06   0.05  -0.01
  42   6     0.09  -0.09  -0.16     0.05   0.00   0.06     0.03  -0.16  -0.03
  43   6     0.10  -0.07   0.20     0.04   0.04  -0.10     0.05  -0.08   0.00
  44   6     0.06  -0.04   0.23     0.02   0.03  -0.06    -0.04  -0.01  -0.01
  45   1    -0.04   0.08  -0.07    -0.01   0.01   0.00    -0.06   0.05  -0.03
  46   1    -0.06   0.05   0.03     0.02   0.01   0.02     0.09   0.06   0.03
  47   1    -0.04   0.06  -0.04     0.01  -0.03   0.02     0.01  -0.10   0.06
  48   1    -0.00  -0.05  -0.05    -0.01  -0.04  -0.02    -0.08  -0.14  -0.12
  49   1    -0.04  -0.00  -0.04    -0.04  -0.02   0.01    -0.26   0.04  -0.02
  50   1    -0.01  -0.00  -0.00    -0.03  -0.00  -0.03    -0.00   0.02  -0.02
  51   1     0.01  -0.02   0.00    -0.00   0.00   0.02     0.00   0.00  -0.02
  52   1     0.01  -0.01  -0.01     0.00  -0.00   0.04     0.07   0.02   0.03
  53   1     0.01   0.01  -0.02    -0.03  -0.01  -0.02     0.04   0.04  -0.02
  54   1    -0.01  -0.04  -0.02     0.01   0.01  -0.03    -0.04  -0.06   0.03
  55   1    -0.01  -0.00  -0.00     0.02  -0.01   0.03     0.01   0.00   0.03
  56   1    -0.00   0.00   0.06     0.03  -0.00  -0.06     0.01   0.01  -0.04
  57   1    -0.03  -0.02  -0.06    -0.01   0.02   0.06    -0.02   0.01   0.01
  58   1    -0.03   0.02   0.06    -0.01  -0.03  -0.04    -0.03  -0.03  -0.01
  59   1    -0.03   0.00  -0.04    -0.07  -0.02  -0.02    -0.01   0.01   0.01
  60   1    -0.01   0.01   0.03    -0.02   0.02   0.02    -0.00   0.00  -0.00
  61   1     0.02  -0.03   0.04     0.07  -0.03  -0.01    -0.00   0.02  -0.01
  62   1     0.05  -0.05  -0.01     0.03  -0.08   0.01    -0.01   0.01   0.00
  63   1    -0.00  -0.08  -0.04    -0.02  -0.12  -0.03    -0.00   0.02   0.01
  64   1     0.01   0.03  -0.01    -0.06   0.03   0.05     0.04   0.01   0.01
  65   1     0.01   0.02   0.01    -0.02  -0.02  -0.04     0.01   0.02   0.01
  66   1     0.03   0.01   0.03     0.07   0.04  -0.03    -0.01   0.02  -0.00
  67   1    -0.00   0.02  -0.01     0.08   0.08   0.01    -0.00  -0.01   0.01
  68   1     0.01   0.02  -0.01     0.01   0.15   0.05     0.02  -0.02  -0.00
  69   1    -0.01   0.03   0.08    -0.01  -0.02  -0.02     0.01  -0.04  -0.00
  70   1    -0.01  -0.03  -0.08    -0.02   0.00   0.02     0.01  -0.00   0.01
  71   1     0.04  -0.03  -0.09     0.01  -0.00   0.04     0.03  -0.06  -0.02
  72   1     0.04  -0.02   0.07     0.01   0.02  -0.05     0.01  -0.02   0.02
                     34                     35                     36
                        a                      a                      a 
 Frequencies --   333.2068               347.2903               360.4387
 Red. masses --    11.2755                12.2747                11.7844
 Frc consts  --     0.0000                 0.0000                 0.0000
 IR Inten    --     0.2327                 8.2442                 0.7761
 Raman Activ --     0.0000                 0.0000                 0.0000
 Depolar     --     0.0000                 0.0000                 0.0000
 Atom AN      X      Y      Z        X      Y      Z        X      Y      Z
   1   6     0.10  -0.14   0.11    -0.02   0.07  -0.10    -0.02   0.04  -0.03
   2   6    -0.09   0.08   0.12     0.05   0.14  -0.04    -0.04   0.01  -0.04
   3   7    -0.10   0.06   0.03    -0.09   0.06  -0.02     0.01   0.07   0.12
   4   6     0.01   0.00  -0.01    -0.01   0.03  -0.02    -0.01   0.05   0.05
   5   6     0.05   0.02   0.05     0.09   0.03   0.15    -0.04   0.01   0.01
   6   6    -0.01   0.05  -0.04     0.01   0.03  -0.04    -0.01  -0.02   0.00
   7   6     0.01   0.06  -0.04     0.02   0.05  -0.13     0.04  -0.00   0.01
   8   6     0.06   0.04   0.05     0.13   0.06   0.09     0.02   0.05  -0.03
   9   6     0.05   0.01  -0.03     0.08   0.05  -0.01     0.01   0.06  -0.01
  10  16     0.07  -0.16  -0.07     0.04  -0.24  -0.11    -0.04  -0.13  -0.04
  11   6    -0.10   0.04  -0.12    -0.08  -0.08   0.04     0.02  -0.06  -0.03
  12   6    -0.09   0.04   0.17    -0.07   0.05   0.04     0.03  -0.01   0.03
  13   6    -0.05   0.03   0.08    -0.09   0.11  -0.15     0.03   0.01   0.04
  14   6    -0.03  -0.00  -0.14    -0.06   0.03   0.04     0.04   0.05   0.02
  15   6     0.04   0.02  -0.25    -0.00   0.06   0.16    -0.04   0.02  -0.01
  16   6     0.05   0.08   0.26     0.02   0.04  -0.15    -0.05  -0.02  -0.04
  17   6     0.10   0.03   0.15     0.11  -0.01  -0.11     0.00  -0.06  -0.02
  18   6     0.10  -0.02  -0.10     0.13   0.00   0.03    -0.02  -0.27   0.00
  19   6     0.08  -0.05  -0.13     0.10  -0.01   0.05     0.18  -0.18  -0.00
  20   6     0.07   0.03   0.08     0.09  -0.06   0.02     0.22   0.25   0.06
  21   6     0.04   0.09   0.20     0.05  -0.08  -0.08     0.04   0.28  -0.12
  22   7    -0.00  -0.01   0.11     0.02  -0.00  -0.07     0.01   0.09  -0.08
  23   6    -0.11  -0.04  -0.12    -0.03   0.00  -0.08     0.06   0.03   0.07
  24   6    -0.11   0.02  -0.10    -0.10   0.01   0.01     0.09  -0.09  -0.00
  25   6    -0.04   0.05   0.02    -0.03   0.05   0.01     0.04  -0.14  -0.03
  26   6     0.04  -0.02   0.04     0.03   0.05  -0.03     0.04  -0.14  -0.03
  27   6     0.06  -0.09  -0.02    -0.03  -0.04   0.02     0.06  -0.03   0.01
  28   6    -0.06  -0.11  -0.10    -0.06  -0.04  -0.03     0.10  -0.01   0.08
  29   6    -0.02  -0.00   0.05    -0.07   0.04   0.09    -0.06   0.05   0.09
  30   6    -0.08   0.03  -0.04    -0.10   0.01   0.06    -0.12  -0.08   0.02
  31   6    -0.03  -0.02   0.00    -0.04  -0.03  -0.02    -0.08  -0.13  -0.05
  32   6     0.03  -0.04   0.05     0.03  -0.01  -0.02    -0.07  -0.13  -0.04
  33   6    -0.03   0.05  -0.04     0.04   0.05   0.01    -0.05  -0.01   0.02
  34   6    -0.04   0.05  -0.01    -0.04   0.09   0.07    -0.11   0.03   0.08
  35   6     0.09   0.08   0.10     0.12  -0.06  -0.08    -0.15   0.24  -0.06
  36   6     0.09  -0.03  -0.16     0.13   0.04   0.10    -0.19  -0.10   0.07
  37   6     0.06  -0.00   0.01     0.06  -0.02   0.02     0.11   0.05  -0.01
  38   7     0.03   0.01  -0.04     0.02  -0.00   0.06     0.02   0.12  -0.02
  39  16    -0.02  -0.04   0.01    -0.06  -0.09  -0.03    -0.09   0.18  -0.01
  40   7     0.02  -0.05   0.04     0.01  -0.07   0.04     0.03   0.01  -0.01
  41   6     0.04  -0.04  -0.01     0.04  -0.05   0.03     0.09   0.03  -0.01
  42   6    -0.09   0.01   0.13    -0.16   0.10  -0.24     0.01  -0.01   0.01
  43   6    -0.10   0.02  -0.08    -0.15  -0.11   0.29     0.01  -0.06  -0.03
  44   6    -0.11   0.04  -0.22    -0.10  -0.11   0.18     0.01  -0.06  -0.02
  45   1     0.03  -0.07   0.07     0.00   0.00  -0.01    -0.01   0.03  -0.02
  46   1     0.07  -0.04  -0.04    -0.03   0.00  -0.04     0.00   0.02   0.01
  47   1     0.04  -0.08   0.06    -0.01   0.04  -0.04    -0.00   0.00  -0.01
  48   1    -0.03   0.04   0.02     0.01   0.08   0.03    -0.01  -0.03  -0.03
  49   1    -0.01   0.02   0.03     0.06   0.04  -0.03    -0.05   0.02  -0.02
  50   1     0.04   0.01   0.03     0.05   0.01   0.07    -0.02  -0.00  -0.00
  51   1    -0.01   0.01  -0.02    -0.01  -0.00  -0.02    -0.01  -0.02  -0.00
  52   1    -0.00   0.01  -0.02    -0.01   0.01  -0.07     0.02  -0.01   0.00
  53   1     0.02   0.01   0.04     0.06   0.02   0.06     0.01   0.02  -0.02
  54   1    -0.02  -0.00   0.11     0.00   0.02   0.04     0.02  -0.00   0.01
  55   1     0.03  -0.01  -0.14     0.01   0.01   0.08    -0.02   0.01   0.00
[...]
  58   1    -0.00   0.01  -0.00     0.00  -0.00   0.00     0.08  -0.17   0.08
  59   1     0.04   0.06   0.06     0.00   0.00   0.00    -0.01  -0.01  -0.01
  60   1     0.06  -0.02   0.04     0.00  -0.00   0.00    -0.02   0.01  -0.01
  61   1     0.00  -0.00  -0.00    -0.00   0.00   0.00    -0.01   0.03   0.00
  62   1     0.03   0.04   0.04     0.00   0.00   0.00     0.00   0.00   0.00
  63   1     0.07  -0.02   0.05     0.00  -0.00   0.00    -0.02   0.01  -0.01
  64   1     0.08  -0.21  -0.19    -0.00   0.00   0.00     0.00  -0.00  -0.00
  65   1     0.35   0.03  -0.20    -0.00  -0.00   0.00    -0.00  -0.00   0.00
  66   1     0.17   0.23   0.04    -0.00  -0.00  -0.00    -0.01  -0.01  -0.00
  67   1     0.09  -0.25  -0.22    -0.00   0.00   0.00     0.00  -0.01  -0.01
  68   1     0.57   0.05  -0.34    -0.00  -0.00   0.00     0.01   0.00  -0.01
  69   1    -0.04  -0.05   0.03     0.00   0.00  -0.00     0.00   0.00  -0.00
  70   1    -0.00   0.01  -0.00    -0.00   0.00  -0.00     0.00  -0.00   0.00
  71   1    -0.00  -0.00  -0.00    -0.00  -0.00  -0.00    -0.01  -0.01  -0.00
  72   1     0.00  -0.00  -0.00    -0.01   0.01   0.00    -0.01   0.02   0.01
                    202                    203                    204
                        a                      a                      a 
 Frequencies --  3099.6599              3099.7755              3100.3389
 Red. masses --     1.8373                 1.9189                 1.8593
 Frc consts  --     0.0000                 0.0000                 0.0000
 IR Inten    --    41.6416               121.0835               139.2132
 Raman Activ --     0.0000                 0.0000                 0.0000
 Depolar     --     0.0000                 0.0000                 0.0000
 Atom AN      X      Y      Z        X      Y      Z        X      Y      Z
   1   6    -0.00   0.00  -0.00     0.00   0.00   0.00    -0.00  -0.00   0.00
   2   6    -0.00  -0.00  -0.00     0.00   0.00   0.00    -0.00   0.00   0.00
   3   7    -0.00  -0.00   0.00     0.00  -0.00   0.00    -0.00   0.00  -0.00
   4   6     0.00   0.00  -0.00    -0.00  -0.00   0.00     0.00   0.00  -0.00
   5   6    -0.05   0.15   0.04     0.01  -0.03  -0.01    -0.03   0.09   0.02
   6   6    -0.08   0.02   0.05     0.02  -0.00  -0.01    -0.05   0.01   0.03
   7   6     0.02   0.03  -0.01    -0.00  -0.00   0.00     0.01   0.02  -0.01
   8   6    -0.03   0.10   0.02     0.00  -0.01  -0.00    -0.02   0.06   0.01
   9   6    -0.00  -0.00   0.00     0.00   0.00  -0.00    -0.00  -0.00   0.00
  10  16     0.00   0.00  -0.00    -0.00  -0.00   0.00     0.00   0.00  -0.00
  11   6    -0.00   0.00   0.00     0.00  -0.00  -0.00     0.00  -0.00  -0.00
  12   6    -0.00  -0.00  -0.00     0.00  -0.00  -0.00     0.00  -0.01  -0.00
  13   6     0.00   0.00   0.00     0.00  -0.00  -0.00    -0.00  -0.00  -0.00
  14   6     0.00  -0.00  -0.00     0.00   0.00  -0.00    -0.00  -0.00   0.00
  15   6    -0.00  -0.00   0.00     0.00   0.01  -0.00    -0.00  -0.00   0.00
  16   6     0.00  -0.00   0.00    -0.00   0.00  -0.00    -0.00   0.01  -0.00
  17   6     0.00  -0.00   0.00    -0.00   0.00  -0.00    -0.00   0.00  -0.00
  18   6    -0.00  -0.00   0.00     0.00   0.00  -0.00     0.00   0.00  -0.00
  19   6    -0.00  -0.00   0.00    -0.00  -0.00   0.00     0.01   0.01  -0.01
  20   6     0.00  -0.00   0.00     0.00  -0.00   0.00    -0.00   0.01  -0.00
  21   6     0.00   0.00  -0.00    -0.00  -0.00   0.00     0.00  -0.00   0.00
  22   7    -0.00  -0.00  -0.00     0.00  -0.00  -0.00    -0.00  -0.00   0.00
  23   6    -0.00   0.00   0.00    -0.00   0.00   0.00     0.00  -0.00  -0.00
  24   6     0.00   0.00   0.00     0.02   0.04   0.04    -0.00  -0.01  -0.01
  25   6     0.01  -0.00   0.01     0.09  -0.03   0.06    -0.01   0.00  -0.01
  26   6     0.01  -0.02  -0.00     0.08  -0.18  -0.02    -0.01   0.03   0.00
  27   6    -0.01  -0.01  -0.01    -0.05  -0.08  -0.08     0.01   0.01   0.01
  28   6    -0.01   0.00  -0.00    -0.06   0.02  -0.04     0.01  -0.00   0.01
  29   6     0.00   0.00   0.00     0.00   0.00   0.00     0.00   0.00   0.00
  30   6    -0.00   0.00   0.00    -0.00   0.01   0.01    -0.01   0.02   0.02
  31   6    -0.00  -0.00   0.00    -0.03  -0.00   0.02    -0.05  -0.00   0.03
  32   6    -0.00  -0.00  -0.00    -0.04  -0.05  -0.01    -0.07  -0.09  -0.02
  33   6     0.00  -0.00  -0.00     0.01  -0.03  -0.03     0.02  -0.06  -0.06
  34   6     0.00   0.00  -0.00     0.02   0.00  -0.01     0.05   0.01  -0.03
  35   6     0.00   0.00  -0.00     0.00   0.00  -0.00    -0.00  -0.00   0.00
  36   6    -0.00   0.00  -0.00    -0.00   0.00  -0.00     0.00  -0.00   0.00
  37   6    -0.00   0.00   0.00     0.00  -0.00   0.00     0.00   0.00  -0.00
  38   7     0.00   0.00  -0.00    -0.00  -0.00   0.00    -0.00  -0.00   0.00
  39  16     0.00   0.00  -0.00     0.00   0.00  -0.00    -0.00  -0.00   0.00
  40   7     0.00   0.00  -0.00    -0.00  -0.00   0.00    -0.00  -0.00   0.00
  41   6    -0.00  -0.00   0.00    -0.00   0.00   0.00     0.00   0.00  -0.00
  42   6     0.02   0.03   0.01    -0.00  -0.00  -0.00    -0.02  -0.03  -0.01
  43   6     0.07  -0.14  -0.03    -0.00   0.01   0.00    -0.07   0.14   0.03
  44   6     0.00  -0.00  -0.00    -0.00   0.00   0.00    -0.01   0.00   0.00
  45   1     0.00   0.00   0.00    -0.00  -0.00  -0.00    -0.00  -0.00  -0.00
  46   1     0.00  -0.01   0.00    -0.00   0.00  -0.00    -0.00   0.00  -0.00
  47   1     0.01   0.00  -0.00    -0.00  -0.00   0.00     0.01   0.00   0.00
  48   1     0.02   0.00  -0.00    -0.00  -0.00   0.00     0.01   0.00   0.00
  49   1     0.00   0.01   0.01    -0.00  -0.00  -0.00    -0.00  -0.01  -0.01
  50   1     0.17  -0.51  -0.13    -0.03   0.09   0.02     0.11  -0.33  -0.08
  51   1     0.28  -0.05  -0.16    -0.05   0.01   0.03     0.17  -0.03  -0.10
  52   1    -0.07  -0.10   0.04     0.00   0.01  -0.00    -0.04  -0.06   0.02
  53   1     0.12  -0.34  -0.07    -0.02   0.05   0.01     0.07  -0.20  -0.04
  54   1    -0.00   0.00   0.00    -0.01   0.01   0.00    -0.01   0.03   0.01
  55   1     0.00   0.00  -0.00    -0.02  -0.02   0.00     0.00   0.01  -0.00
  56   1    -0.00   0.01  -0.00     0.01  -0.02   0.00     0.01  -0.03   0.00
  57   1     0.01   0.01  -0.01     0.00   0.00  -0.00    -0.04  -0.05   0.03
  58   1    -0.00   0.00  -0.00    -0.00   0.01  -0.00     0.01  -0.02   0.01
  59   1    -0.01  -0.02  -0.02    -0.08  -0.12  -0.12     0.01   0.02   0.02
  60   1    -0.04   0.01  -0.03    -0.29   0.09  -0.19     0.05  -0.01   0.03
  61   1    -0.04   0.08   0.01    -0.27   0.60   0.08     0.04  -0.10  -0.01
  62   1     0.02   0.03   0.03     0.16   0.25   0.25    -0.03  -0.04  -0.04
  63   1     0.02  -0.01   0.02     0.19  -0.06   0.12    -0.03   0.01  -0.02
  64   1     0.00  -0.00  -0.00     0.01  -0.03  -0.03     0.03  -0.07  -0.07
  65   1     0.01   0.00  -0.00     0.09   0.01  -0.05     0.18   0.01  -0.11
  66   1     0.01   0.01   0.00     0.12   0.16   0.03     0.24   0.32   0.06
  67   1    -0.00   0.01   0.01    -0.04   0.11   0.10    -0.08   0.21   0.18
  68   1    -0.01  -0.00   0.00    -0.08  -0.01   0.05    -0.17  -0.01   0.10
  69   1    -0.00  -0.00   0.00    -0.00  -0.00   0.00     0.01   0.01  -0.00
  70   1     0.00  -0.00   0.00     0.00  -0.00   0.00    -0.00   0.00  -0.00
  71   1    -0.08  -0.13  -0.03     0.00   0.01   0.00     0.09   0.14   0.03
  72   1    -0.25   0.50   0.12     0.02  -0.03  -0.01     0.25  -0.49  -0.11
                    205                    206                    207
                        a                      a                      a 
 Frequencies --  3100.5224              3102.8085              3107.3389
 Red. masses --     1.8810                 1.8438                 1.9149
 Frc consts  --     0.0000                 0.0000                 0.0000
 IR Inten    --   114.5332                49.9852                12.8768
 Raman Activ --     0.0000                 0.0000                 0.0000
 Depolar     --     0.0000                 0.0000                 0.0000
 Atom AN      X      Y      Z        X      Y      Z        X      Y      Z
   1   6     0.00   0.00  -0.00     0.00   0.00   0.00    -0.00  -0.00  -0.00
   2   6     0.00  -0.00  -0.00    -0.00   0.00   0.00    -0.00   0.00  -0.00
   3   7     0.00  -0.00   0.00    -0.00   0.00  -0.00    -0.00   0.00  -0.00
   4   6    -0.00  -0.00   0.00     0.00   0.00  -0.00     0.00   0.00  -0.00
   5   6     0.02  -0.07  -0.02    -0.00   0.01   0.00    -0.02   0.07   0.02
   6   6     0.03  -0.01  -0.02    -0.00   0.00   0.00    -0.10   0.02   0.06
   7   6    -0.01  -0.02   0.01     0.01   0.01  -0.00    -0.12  -0.17   0.06
   8   6     0.02  -0.05  -0.01    -0.00   0.01   0.00     0.04  -0.12  -0.03
   9   6     0.00   0.00  -0.00    -0.00  -0.00   0.00     0.00   0.00  -0.00
  10  16    -0.00  -0.00   0.00    -0.00  -0.00  -0.00    -0.00  -0.00   0.00
  11   6    -0.00   0.00   0.00     0.00   0.00   0.00     0.00   0.00   0.00
  12   6    -0.01   0.01   0.00    -0.05   0.10   0.03    -0.01   0.01   0.00
  13   6     0.00   0.00   0.00    -0.00   0.00   0.00    -0.00   0.00   0.00
  14   6     0.00  -0.00  -0.00    -0.00   0.00  -0.00    -0.00   0.00  -0.00
  15   6    -0.01  -0.01   0.00    -0.06  -0.10   0.01     0.00   0.00  -0.00
  16   6     0.01  -0.01   0.00     0.06  -0.14   0.01     0.00  -0.00   0.00
  17   6     0.00  -0.00   0.00     0.00  -0.00   0.00     0.00  -0.00  -0.00
  18   6    -0.00  -0.00   0.00    -0.00  -0.00   0.00    -0.00  -0.00   0.00
  19   6    -0.01  -0.01   0.01    -0.08  -0.11   0.06    -0.00  -0.00   0.00
  20   6     0.00  -0.00   0.00     0.01  -0.03   0.01     0.00  -0.00   0.00
  21   6     0.00   0.00  -0.00     0.00   0.00  -0.00     0.00   0.00  -0.00
  22   7    -0.00  -0.00   0.00    -0.00  -0.00  -0.00    -0.00   0.00  -0.00
  23   6     0.00  -0.00  -0.00     0.00  -0.00   0.00    -0.00  -0.00  -0.00
  24   6    -0.01  -0.01  -0.01     0.00   0.00   0.00     0.00   0.00   0.00
  25   6    -0.03   0.01  -0.02     0.00  -0.00   0.00     0.00  -0.00   0.00
  26   6    -0.02   0.05   0.01     0.00  -0.01  -0.00     0.00  -0.00  -0.00
  27   6     0.01   0.02   0.02    -0.00  -0.00  -0.00    -0.00  -0.00  -0.00
  28   6     0.02  -0.01   0.01    -0.00   0.00  -0.00    -0.00   0.00  -0.00
  29   6     0.00   0.00   0.00    -0.00   0.00   0.00    -0.00  -0.00   0.00
  30   6    -0.01   0.03   0.02     0.00  -0.00  -0.00     0.00  -0.00  -0.00
  31   6    -0.07  -0.00   0.04     0.00   0.00  -0.00     0.00   0.00  -0.00
  32   6    -0.09  -0.11  -0.02     0.00   0.00   0.00     0.00   0.00   0.00
  33   6     0.03  -0.08  -0.07    -0.00   0.00   0.00    -0.00   0.00   0.00
  34   6     0.06   0.01  -0.04     0.00   0.00  -0.00    -0.00  -0.00   0.00
  35   6    -0.00  -0.00   0.00     0.00   0.00  -0.00     0.00   0.00  -0.00
  36   6    -0.00   0.00  -0.00    -0.00   0.00  -0.00     0.00  -0.00   0.00
  37   6    -0.00   0.00   0.00    -0.00   0.00   0.00    -0.00   0.00   0.00
  38   7     0.00   0.00   0.00     0.00   0.00  -0.00     0.00  -0.00  -0.00
  39  16     0.00   0.00   0.00    -0.00   0.00   0.00    -0.00   0.00  -0.00
  40   7     0.00   0.00  -0.00    -0.00  -0.00  -0.00    -0.00  -0.00   0.00
  41   6    -0.00  -0.00   0.00     0.00   0.00  -0.00    -0.00   0.00   0.00
  42   6     0.02   0.03   0.01    -0.00  -0.00  -0.00    -0.00  -0.00  -0.00
  43   6     0.06  -0.11  -0.03    -0.01   0.02   0.01    -0.00   0.00   0.00
  44   6     0.00  -0.00  -0.00    -0.00  -0.00  -0.00     0.00   0.00   0.00
  45   1     0.00   0.00   0.00    -0.00  -0.00  -0.00     0.00   0.00   0.00
  46   1     0.00  -0.00   0.00     0.00  -0.00   0.00     0.00  -0.00   0.00
  47   1    -0.00  -0.00  -0.00    -0.00  -0.00   0.00     0.00   0.00  -0.00
  48   1    -0.01  -0.00  -0.00     0.00   0.00   0.00     0.01   0.00  -0.00
  49   1     0.00   0.01   0.01    -0.00  -0.00  -0.00    -0.00  -0.00  -0.00
  50   1    -0.08   0.24   0.06     0.01  -0.03  -0.01     0.07  -0.22  -0.05
  51   1    -0.11   0.02   0.06     0.01  -0.00  -0.00     0.32  -0.06  -0.19
  52   1     0.05   0.07  -0.03    -0.02  -0.02   0.01     0.40   0.56  -0.21
  53   1    -0.06   0.17   0.03     0.01  -0.04  -0.01    -0.14   0.40   0.08
  54   1     0.02  -0.04  -0.01     0.18  -0.37  -0.09     0.02  -0.04  -0.01
  55   1     0.02   0.03  -0.00     0.21   0.32  -0.03    -0.01  -0.01   0.00
  56   1    -0.02   0.05  -0.00    -0.22   0.49  -0.03    -0.00   0.01  -0.00
  57   1     0.03   0.03  -0.02     0.30   0.38  -0.21     0.01   0.01  -0.01
  58   1    -0.00   0.00  -0.00    -0.05   0.10  -0.05    -0.00   0.01  -0.00
  59   1     0.02   0.04   0.04    -0.00  -0.00  -0.00    -0.00  -0.00  -0.00
  60   1     0.09  -0.03   0.06    -0.01   0.00  -0.01    -0.01   0.00  -0.01
  61   1     0.08  -0.17  -0.02    -0.01   0.02   0.00    -0.01   0.02   0.00
  62   1    -0.04  -0.07  -0.07     0.01   0.01   0.01     0.00   0.01   0.01
  63   1    -0.06   0.02  -0.04     0.01  -0.00   0.01     0.01  -0.00   0.00
  64   1     0.03  -0.09  -0.08    -0.00   0.00   0.00    -0.00   0.01   0.01
  65   1     0.22   0.02  -0.13    -0.01  -0.00   0.01    -0.01  -0.00   0.01
  66   1     0.29   0.39   0.07    -0.01  -0.01  -0.00    -0.01  -0.01  -0.00
  67   1    -0.09   0.25   0.22     0.00  -0.01  -0.01     0.00  -0.01  -0.01
  68   1    -0.20  -0.02   0.12    -0.00  -0.00   0.00     0.01   0.00  -0.00
  69   1     0.01   0.01  -0.01     0.00   0.00   0.00    -0.00  -0.00   0.00
  70   1     0.00  -0.00   0.00     0.00  -0.01   0.01    -0.00   0.01  -0.00
  71   1    -0.07  -0.11  -0.02     0.01   0.02   0.00     0.00   0.00   0.00
  72   1    -0.20   0.40   0.09     0.04  -0.08  -0.02     0.01  -0.02  -0.00
                    208                    209                    210
                        a                      a                      a 
 Frequencies --  3110.5385              3118.2536              3120.7088
 Red. masses --     1.8140                 1.8560                 1.8424
 Frc consts  --     0.0000                 0.0000                 0.0000
 IR Inten    --    31.5919                14.9444                78.3380
 Raman Activ --     0.0000                 0.0000                 0.0000
 Depolar     --     0.0000                 0.0000                 0.0000
 Atom AN      X      Y      Z        X      Y      Z        X      Y      Z
   1   6    -0.00   0.00   0.00     0.00   0.00  -0.00    -0.00  -0.00  -0.00
   2   6    -0.00  -0.00  -0.00    -0.00  -0.00  -0.00     0.00  -0.00  -0.00
   3   7     0.00  -0.00   0.00    -0.00  -0.00   0.00     0.00  -0.00   0.00
   4   6    -0.00  -0.00   0.00    -0.00  -0.00  -0.00     0.00   0.00  -0.00
   5   6     0.00   0.00   0.00     0.00  -0.00  -0.00     0.00  -0.00  -0.00
   6   6    -0.00   0.00   0.00     0.00  -0.00  -0.00     0.00  -0.00  -0.00
   7   6    -0.00  -0.01   0.00    -0.00  -0.00   0.00     0.00   0.00  -0.00
   8   6     0.00  -0.01  -0.00     0.00  -0.00  -0.00    -0.00   0.00   0.00
   9   6     0.00   0.00  -0.00     0.00   0.00  -0.00     0.00  -0.00  -0.00
  10  16     0.00   0.00  -0.00     0.00   0.00   0.00    -0.00   0.00   0.00
  11   6    -0.00  -0.01  -0.00     0.00  -0.00  -0.00     0.00  -0.00  -0.00
  12   6     0.09  -0.20  -0.05     0.00   0.00  -0.00    -0.00  -0.00  -0.00
  13   6     0.01  -0.00  -0.00    -0.01  -0.00  -0.00    -0.00  -0.00  -0.00
  14   6    -0.00  -0.00   0.00    -0.00  -0.00   0.00    -0.00   0.00   0.00
  15   6    -0.07  -0.11   0.01    -0.00  -0.00   0.00    -0.00  -0.00   0.00
  16   6     0.02  -0.06   0.00    -0.00  -0.00   0.00     0.00  -0.00   0.00
  17   6     0.00   0.00  -0.00     0.00   0.00  -0.00     0.00  -0.00  -0.00
  18   6    -0.00  -0.00   0.00    -0.00   0.00   0.00     0.01  -0.00   0.00
  19   6    -0.01  -0.02   0.01     0.00  -0.00  -0.00    -0.00   0.00  -0.00
  20   6     0.00  -0.00   0.00    -0.00  -0.00   0.00     0.00  -0.00   0.00
  21   6     0.00   0.00  -0.00    -0.00  -0.00   0.00    -0.00   0.00  -0.00
  22   7    -0.00   0.00   0.00     0.00   0.00   0.00     0.00  -0.00  -0.00
  23   6     0.00  -0.00   0.00     0.00  -0.00  -0.00     0.00   0.00   0.00
  24   6    -0.00  -0.00  -0.00     0.00   0.00   0.00     0.00   0.00   0.00
  25   6     0.00  -0.00   0.00     0.00  -0.00   0.00    -0.00   0.00  -0.00
  26   6     0.00  -0.00  -0.00     0.00  -0.00  -0.00    -0.00   0.00   0.00
  27   6    -0.00  -0.00  -0.00    -0.00  -0.00  -0.00    -0.00  -0.00  -0.00
  28   6    -0.00   0.00  -0.00    -0.00   0.00  -0.00    -0.00   0.00  -0.00
  29   6     0.00   0.00  -0.00     0.00   0.00   0.00    -0.00  -0.00   0.00
  30   6    -0.00   0.00   0.00     0.00  -0.00  -0.00     0.00  -0.00  -0.00
  31   6     0.00   0.00  -0.00     0.00   0.00  -0.00     0.00   0.00  -0.00
  32   6     0.00   0.00   0.00     0.00   0.00   0.00     0.00   0.00   0.00
  33   6    -0.00   0.00   0.00    -0.00   0.00   0.00     0.00  -0.00  -0.00
  34   6     0.00   0.00  -0.00    -0.00  -0.00   0.00     0.00   0.00  -0.00
  35   6     0.00   0.00  -0.00     0.00   0.00  -0.00    -0.02  -0.03   0.01
  36   6    -0.00   0.00  -0.00    -0.00   0.01  -0.00     0.11  -0.23   0.10
  37   6    -0.00   0.00   0.00     0.00  -0.00  -0.00    -0.00   0.00  -0.00
  38   7     0.00   0.00  -0.00    -0.00  -0.00   0.00     0.00  -0.00  -0.00
  39  16     0.00   0.00  -0.00    -0.00  -0.00  -0.00     0.00  -0.00   0.00
  40   7    -0.00   0.00   0.00    -0.00  -0.00   0.00    -0.00  -0.00   0.00
  41   6     0.00  -0.00  -0.00     0.00   0.00  -0.00    -0.00   0.00   0.00
  42   6     0.00   0.00   0.00    -0.14  -0.22  -0.04    -0.01  -0.01  -0.00
  43   6    -0.00  -0.00  -0.00     0.04  -0.07  -0.02     0.00  -0.00  -0.00
  44   6    -0.00   0.00   0.00     0.00   0.00   0.00    -0.00   0.00   0.00
  45   1    -0.00  -0.00  -0.00     0.00   0.00   0.00     0.00   0.00   0.00
  46   1     0.00  -0.00   0.00     0.00  -0.00   0.00    -0.00   0.00  -0.00
  47   1     0.00   0.00  -0.00    -0.01  -0.00  -0.00     0.00   0.00  -0.00
  48   1     0.00   0.00   0.00     0.00   0.00  -0.00    -0.00  -0.00  -0.00
  49   1    -0.00   0.00   0.00     0.00   0.00   0.00     0.00   0.00   0.00
  50   1     0.00  -0.00  -0.00    -0.00   0.00   0.00    -0.00   0.00   0.00
  51   1     0.01  -0.00  -0.01    -0.00   0.00   0.00    -0.00   0.00   0.00
  52   1     0.01   0.02  -0.01     0.00   0.00  -0.00    -0.00  -0.00   0.00
  53   1    -0.01   0.03   0.01    -0.00   0.00   0.00     0.00  -0.00  -0.00
  54   1    -0.34   0.71   0.17    -0.00   0.00   0.00    -0.00   0.00   0.00
  55   1     0.26   0.40  -0.03     0.01   0.01  -0.00     0.00   0.01  -0.00
  56   1    -0.08   0.18  -0.01    -0.00   0.00  -0.00    -0.01   0.01  -0.00
  57   1     0.05   0.06  -0.03    -0.00  -0.00   0.00     0.00   0.00  -0.00
  58   1    -0.01   0.01  -0.01    -0.00   0.00  -0.00    -0.00   0.01  -0.00
  59   1     0.00   0.00   0.00    -0.00  -0.00  -0.00    -0.00  -0.00  -0.00
  60   1    -0.00   0.00  -0.00    -0.00   0.00  -0.00     0.00  -0.00   0.00
  61   1    -0.00   0.00   0.00    -0.00   0.00   0.00     0.00  -0.00  -0.00
  62   1     0.00   0.00   0.00     0.00   0.00   0.00     0.00   0.00   0.00
  63   1     0.00  -0.00   0.00     0.00  -0.00   0.00     0.00  -0.00   0.00
  64   1     0.00  -0.00  -0.00    -0.00   0.00   0.00    -0.00   0.00   0.00
  65   1    -0.00  -0.00   0.00    -0.00  -0.00   0.00    -0.00  -0.00   0.00
  66   1    -0.00  -0.00  -0.00    -0.00  -0.00  -0.00    -0.00  -0.00  -0.00
  67   1     0.00  -0.00  -0.00     0.00  -0.00  -0.00    -0.00   0.00   0.00
  68   1    -0.00  -0.00   0.00     0.00   0.00  -0.00    -0.00  -0.00   0.00
  69   1    -0.00  -0.00   0.00    -0.00  -0.00   0.00     0.06   0.08  -0.04
  70   1     0.00  -0.01   0.00     0.01  -0.03   0.01    -0.39   0.79  -0.36
  71   1    -0.01  -0.01  -0.00     0.49   0.77   0.16     0.02   0.03   0.01
  72   1    -0.00   0.00   0.00    -0.11   0.23   0.05    -0.01   0.01   0.00
