      -----------------------------------------------------------      
     |                   =====================                   |     
     |                           x T B                           |     
     |                   =====================                   |     
     |                         S. Grimme                         |     
     |          Mulliken Center for Theoretical Chemistry        |     
     |                    University of Bonn                     |     
      -----------------------------------------------------------      

   * xtb version 6.7.1 (edcfbbe) compiled by 'albert@albert-system' on 2024-07-22

   xtb is free software: you can redistribute it and/or modify it under
   the terms of the GNU Lesser General Public License as published by
   the Free Software Foundation, either version 3 of the License, or
   (at your option) any later version.
   
   xtb is distributed in the hope that it will be useful,
   but WITHOUT ANY WARRANTY; without even the implied warranty of
   MERCHANTABILITY or FITNESS FOR A PARTICULAR PURPOSE.  See the
   GNU Lesser General Public License for more details.
   
   Cite this work as:
   * C. Bannwarth, E. Caldeweyher, S. Ehlert, A. Hansen, P. Pracht,
     J. Seibert, S. Spicher, S. Grimme, WIREs Comput. Mol. Sci., 2020, 11,
     e01493. DOI: 10.1002/wcms.1493
   
   for GFN2-xTB:
   * C. Bannwarth, S. Ehlert and S. Grimme., J. Chem. Theory Comput., 2019,
     15, 1652-1671. DOI: 10.1021/acs.jctc.8b01176
   for GFN1-xTB:
   * S. Grimme, C. Bannwarth, P. Shushkov, J. Chem. Theory Comput., 2017,
     13, 1989-2009. DOI: 10.1021/acs.jctc.7b00118
   for GFN0-xTB:
   * P. Pracht, E. Caldeweyher, S. Ehlert, S. Grimme, ChemRxiv, 2019, preprint.
     DOI: 10.26434/chemrxiv.8326202.v1
   for GFN-FF:
   * S. Spicher and S. Grimme, Angew. Chem. Int. Ed., 2020, 59, 15665-15673.
     DOI: 10.1002/anie.202004239
   
   for ALPB and GBSA implicit solvation:
   * S. Ehlert, M. Stahn, S. Spicher, S. Grimme, J. Chem. Theory Comput.,
     2021, 17, 4250-4261. DOI: 10.1021/acs.jctc.1c00471
   
   for ddCOSMO and CPCM-X implicit solvation:
   * M. Stahn, S. Ehlert, S. Grimme, J. Phys. Chem. A,
     2023, XX, XXXX-XXXX. DOI: 10.1021/acs.jpca.3c04382
   
   for DFT-D4:
   * E. Caldeweyher, C. Bannwarth and S. Grimme, J. Chem. Phys., 2017,
     147, 034112. DOI: 10.1063/1.4993215
   * E. Caldeweyher, S. Ehlert, A. Hansen, H. Neugebauer, S. Spicher,
     C. Bannwarth and S. Grimme, J. Chem. Phys., 2019, 150, 154122.
     DOI: 10.1063/1.5090222
   * E. Caldeweyher, J.-M. Mewes, S. Ehlert and S. Grimme, Phys. Chem. Chem. Phys.
     2020, 22, 8499-8512. DOI: 10.1039/D0CP00502A
   
   for sTDA-xTB:
   * S. Grimme and C. Bannwarth, J. Chem. Phys., 2016, 145, 054103.
     DOI: 10.1063/1.4959605
   
   in the mass-spec context:
   * V. Asgeirsson, C. Bauer and S. Grimme, Chem. Sci., 2017, 8, 4879.
     DOI: 10.1039/c7sc00601b
   * J. Koopman and S. Grimme, ACS Omega 2019, 4, 12, 15120-15133.
     DOI: 10.1021/acsomega.9b02011
   
   for metadynamics refer to:
   * S. Grimme, J. Chem. Theory Comput., 2019, 155, 2847-2862
     DOI: 10.1021/acs.jctc.9b00143
   
   for SPH calculations refer to:
   * S. Spicher and S. Grimme, J. Chem. Theory Comput., 2021, 17, 1701-1714
     DOI: 10.1021/acs.jctc.0c01306
   
   for ONIOM refer to:
   * C. Plett, A. Katbashev, S. Ehlert, S. Grimme, M. Bursch,
     Phys. Chem. Chem. Phys., 2023, 25, 17860-17868. DOI: 10.1039/D3CP02178E
   
   for DIPRO refer to:
   * J. Kohn, N. Gildemeister, S. Grimme, D. Fazzi, A. Hansen,
     J. Chem. Phys., 2023, just accepted.
   
   for PTB refer to:
   * S. Grimme, M. Mueller, A. Hansen, J. Chem. Phys., 2023, 158, 124111.
     DOI: 10.1063/5.0137838
   
   with help from (in alphabetical order)
   P. Atkinson, C. Bannwarth, F. Bohle, G. Brandenburg, E. Caldeweyher
   M. Checinski, S. Dohm, S. Ehlert, S. Ehrlich, I. Gerasimov, C. Hölzer
   A. Katbashev, J. Kohn, J. Koopman, C. Lavigne, S. Lehtola, F. März, M. Müller,
   F. Musil, H. Neugebauer, J. Pisarek, C. Plett, P. Pracht, F. Pultar,
   J. Seibert, P. Shushkov, S. Spicher, M. Stahn, M. Steiner, T. Strunk,
   J. Stückrath, T. Rose, and J. Unsleber
   
 * started run on 2025/09/13 at 06:29:36.894     
   ID    Z sym.   atoms
    1    6 C      1-5, 7-11, 13-29, 31-39, 41-48, 50-60, 62-68, 70, 71
    2    7 N      6, 12, 30, 40, 69
    3    8 O      49
    4   16 S      61
    5    1 H      72-108

           -------------------------------------------------
          |                Calculation Setup                |
           -------------------------------------------------

          program call               : xtb data2507/gas/BTPBFCz-D3/BTPBFCz-D3_gas_S0_finalOpt.xtbopt.xyz --gfn 2 --spinpol --tblite --uhf 2 --ohess vtight --parallel 40 --molden --ceasefiles --namespace data2507/gas/BTPBFCz-D3/BTPBFCz-D3_gas_T1_preOpt
          calculation namespace      : data2507/gas/BTPBFCz-D3/BTPBFCz-D3_gas_T1_preOpt
          coordinate file            : data2507/gas/BTPBFCz-D3/BTPBFCz-D3_gas_S0_finalOpt.xtbopt.xyz
          omp threads                :                    40

repulsion energy          3.2302255111723E+00 Eh
dispersion energy         3.8691890444340E-03 Eh
interaction energy        0.0000000000000E+00 Eh
number of electrons       3.3000000000000E+02 e
integral cutoff           1.8403572253217E+01 bohr

------------------------------------------------------------
  cycle        total energy    energy error   density error
------------------------------------------------------------
      1     -177.6841100049  -1.8091820E+02   1.0325237E-01
      2     -177.5547127555   1.2939725E-01   6.2310223E-02
      3     -175.4572585595   2.0974542E+00   6.4892409E-02
      4     -177.3742028436  -1.9169443E+00   3.4324089E-02
      5     -177.8825529947  -5.0835015E-01   2.4345775E-02
      6     -177.9432902169  -6.0737222E-02   1.5786188E-02
      7     -177.9510145595  -7.7243426E-03   1.4618346E-02
      8     -177.9476532185   3.3613410E-03   1.1987661E-02
      9     -177.9589212508  -1.1268032E-02   7.5847476E-03
     10     -177.9612234271  -2.3021763E-03   4.0757318E-03
     11     -177.9600488924   1.1745348E-03   3.9296952E-03
     12     -177.9629687775  -2.9198851E-03   1.8694136E-03
     13     -177.9626012945   3.6748299E-04   1.9390273E-03
     14     -177.9633995400  -7.9824549E-04   9.5463126E-04
     15     -177.9635880368  -1.8849680E-04   4.6836451E-04
     16     -177.9636110035  -2.2966641E-05   3.2730336E-04
     17     -177.9636248135  -1.3810028E-05   1.9237525E-04
     18     -177.9636304365  -5.6230391E-06   8.0917629E-05
     19     -177.9636312395  -8.0300080E-07   4.8919134E-05
     20     -177.9636316888  -4.4931011E-07   1.6202701E-05
------------------------------------------------------------

electronic energy        -1.8119772638905E+02 Eh
total energy             -1.7796363168883E+02 Eh

 total:                                   0.529 sec
 - repulsion                              0.000 sec (  0%)
 - dispersion                             0.022 sec (  4%)
 - coulomb                                0.010 sec (  1%)
 - hamiltonian                            0.023 sec (  4%)
 - scc                                    0.473 sec ( 89%)

      ----------------------------------------------------------- 
     |                   =====================                   |
     |                        A N C O P T                        |
     |                   =====================                   |
     |               Approximate Normal Coordinate               |
     |                Rational Function Optimizer                |
      ----------------------------------------------------------- 

Optimization log is written to '/dev/null'
      ----------------------------------------------------------- 
     |                   =====================                   |
     |                        A N C O P T                        |
     |                   =====================                   |
     |               Approximate Normal Coordinate               |
     |                Rational Function Optimizer                |
      ----------------------------------------------------------- 

          ...................................................
          :                      SETUP                      :
          :.................................................:
          :   optimization level         verytight          :
          :   max. optcycles                  2160          :
          :   ANC micro-cycles                  20          :
          :   degrees of freedom               318          :
          :.................................................:
          :   RF solver                   davidson          :
          :   write xtbopt.log                true          :
          :   linear?                        false          :
          :   energy convergence         0.1000000E-06 Eh   :
          :   grad. convergence          0.2000000E-03 Eh/α :
          :   maxmium RF displ.          1.0000000          :
          :   Hlow (freq-cutoff)         0.1000000E-01      :
          :   Hmax (freq-cutoff)         5.0000000          :
          :   S6 in model hess.         20.0000000          :
          ...................................................

generating ANC from exact Hessian ...
Using Lindh-Hessian (1995)
 Shifting diagonal of input Hessian by   9.953792884947622E-003
 Lowest  eigenvalues of input Hessian
    0.000000    0.000000    0.000000    0.000000    0.000000    0.000000
    0.010000    0.010042    0.010097    0.010170    0.010314    0.010581
    0.010625    0.010757    0.010852    0.011186    0.011302    0.011420
 Highest eigenvalues
    2.193056    2.199065    2.207334    2.223656    2.232676    2.239692
 

........................................................................
.............................. CYCLE    1 ..............................
........................................................................
------------------------------------------------------------
  cycle        total energy    energy error   density error
------------------------------------------------------------
      1     -177.9636293576  -1.8119772E+02   9.5166322E-05
      2     -177.9635616471   6.7710434E-05   5.0031941E-04
      3     -177.9636118693  -5.0222201E-05   2.2703984E-04
      4     -177.9636316764  -1.9807127E-05   1.2402804E-05
      5     -177.9636317193  -4.2819380E-08   4.5748400E-06
------------------------------------------------------------

 total:                                   0.156 sec
 * total energy  :  -177.9636317 Eh     change       -0.3043837E-07 Eh
   gradient norm :     0.0883322 Eh/α   predicted     0.0000000E+00 (-100.00%)
   displ. norm   :     0.1676387 α      lambda       -0.6064992E-02
   maximum displ.:     0.0582026 α      in ANC's #55, #45, #24, ...

........................................................................
.............................. CYCLE    2 ..............................
........................................................................
------------------------------------------------------------
  cycle        total energy    energy error   density error
------------------------------------------------------------
      1     -177.9671267941  -1.8119399E+02   2.5503836E-03
      2     -177.8965428355   7.0583959E-02   1.3838940E-02
      3     -177.9643905983  -6.7847763E-02   3.3980241E-03
      4     -177.9667105031  -2.3199047E-03   2.1060834E-03
      5     -177.9672416552  -5.3115215E-04   1.4394871E-03
      6     -177.9676718761  -4.3022094E-04   9.3593308E-04
      7     -177.9679207326  -2.4885642E-04   3.5978558E-04
      8     -177.9679499553  -2.9222700E-05   1.8304694E-04
      9     -177.9679526869  -2.7316019E-06   9.6965488E-05
     10     -177.9679553045  -2.6175939E-06   4.6768471E-05
     11     -177.9679557482  -4.4373968E-07   2.2282193E-05
     12     -177.9679558577  -1.0954793E-07   9.2481425E-06
------------------------------------------------------------

 total:                                   0.322 sec
 * total energy  :  -177.9679559 Eh     change       -0.4324138E-02 Eh
   gradient norm :     0.0394652 Eh/α   predicted    -0.3118204E-02 ( -27.89%)
   displ. norm   :     0.1967389 α      lambda       -0.2402267E-02
   maximum displ.:     0.0674451 α      in ANC's #25, #24, #55, ...

........................................................................
.............................. CYCLE    3 ..............................
........................................................................
------------------------------------------------------------
  cycle        total energy    energy error   density error
------------------------------------------------------------
      1     -177.9678708320  -1.8119329E+02   2.8245872E-03
      2     -177.8718550024   9.6015830E-02   1.6193670E-02
      3     -177.9673072061  -9.5452204E-02   2.4359175E-03
      4     -177.9679896581  -6.8245192E-04   2.2798163E-03
      5     -177.9689755410  -9.8588295E-04   1.0284406E-03
      6     -177.9691791120  -2.0357102E-04   6.1096217E-04
      7     -177.9692933997  -1.1428764E-04   2.7231425E-04
      8     -177.9693120329  -1.8633193E-05   9.8099124E-05
      9     -177.9693134638  -1.4309660E-06   4.8125696E-05
     10     -177.9693138440  -3.8019633E-07   3.8428219E-05
     11     -177.9693141189  -2.7492297E-07   1.9480870E-05
------------------------------------------------------------

 total:                                   0.283 sec
 * total energy  :  -177.9693141 Eh     change       -0.1358261E-02 Eh
   gradient norm :     0.0070359 Eh/α   predicted    -0.1247729E-02 (  -8.14%)
   displ. norm   :     0.1227303 α      lambda       -0.2475572E-03
   maximum displ.:     0.0474144 α      in ANC's #24, #25, #17, ...

........................................................................
.............................. CYCLE    4 ..............................
........................................................................
------------------------------------------------------------
  cycle        total energy    energy error   density error
------------------------------------------------------------
      1     -177.9694814728  -1.8119471E+02   7.1171582E-04
      2     -177.9672563919   2.2250808E-03   2.6375517E-03
      3     -177.9693308555  -2.0744635E-03   8.3886408E-04
      4     -177.9694822915  -1.5143608E-04   3.2440341E-04
      5     -177.9695046100  -2.2318472E-05   1.3550398E-04
      6     -177.9695069962  -2.3862134E-06   9.1280118E-05
      7     -177.9695095857  -2.5894804E-06   3.3541041E-05
      8     -177.9695097139  -1.2814562E-07   2.1131000E-05
      9     -177.9695098049  -9.1034167E-08   1.0538436E-05
------------------------------------------------------------

 total:                                   0.236 sec
 * total energy  :  -177.9695098 Eh     change       -0.1956859E-03 Eh
   gradient norm :     0.0058365 Eh/α   predicted    -0.1256434E-03 ( -35.79%)
   displ. norm   :     0.2578713 α      lambda       -0.3411176E-03
   maximum displ.:     0.1061662 α      in ANC's #17, #24, #25, ...

........................................................................
.............................. CYCLE    5 ..............................
........................................................................
------------------------------------------------------------
  cycle        total energy    energy error   density error
------------------------------------------------------------
      1     -177.9696349832  -1.8119408E+02   1.3078869E-03
      2     -177.9606132044   9.0217788E-03   5.2263535E-03
      3     -177.9695233498  -8.9101454E-03   1.0656909E-03
      4     -177.9695055026   1.7847232E-05   8.3403372E-04
      5     -177.9696931880  -1.8768546E-04   3.7801663E-04
      6     -177.9697280757  -3.4887657E-05   1.7248637E-04
      7     -177.9697333428  -5.2670912E-06   1.1056688E-04
      8     -177.9697369511  -3.6082974E-06   3.7195906E-05
      9     -177.9697372200  -2.6892980E-07   1.5658570E-05
------------------------------------------------------------

 total:                                   0.235 sec
 * total energy  :  -177.9697372 Eh     change       -0.2274151E-03 Eh
   gradient norm :     0.0054102 Eh/α   predicted    -0.1819020E-03 ( -20.01%)
   displ. norm   :     0.1989090 α      lambda       -0.1442571E-03
   maximum displ.:     0.0879946 α      in ANC's #17, #8, #24, ...

........................................................................
.............................. CYCLE    6 ..............................
........................................................................
------------------------------------------------------------
  cycle        total energy    energy error   density error
------------------------------------------------------------
      1     -177.9698304361  -1.8119387E+02   8.9157976E-04
      2     -177.9695350146   2.9542150E-04   1.1248528E-03
      3     -177.9679316815   1.6033331E-03   2.4776447E-03
      4     -177.9695858627  -1.6541812E-03   8.3507638E-04
      5     -177.9698170237  -2.3116103E-04   2.9166635E-04
      6     -177.9698407071  -2.3683384E-05   1.2189563E-04
      7     -177.9698436101  -2.9030373E-06   6.9913339E-05
      8     -177.9698451994  -1.5893108E-06   1.2698999E-05
      9     -177.9698452140  -1.4535942E-08   6.1411355E-06
------------------------------------------------------------

 total:                                   0.244 sec
 * total energy  :  -177.9698452 Eh     change       -0.1079940E-03 Eh
   gradient norm :     0.0044406 Eh/α   predicted    -0.7499325E-04 ( -30.56%)
   displ. norm   :     0.2319688 α      lambda       -0.1371648E-03
   maximum displ.:     0.1041606 α      in ANC's #17, #8, #19, ...

........................................................................
.............................. CYCLE    7 ..............................
........................................................................
------------------------------------------------------------
  cycle        total energy    energy error   density error
------------------------------------------------------------
      1     -177.9699263045  -1.8119400E+02   9.8700651E-04
      2     -177.9695437654   3.8253908E-04   1.2741814E-03
      3     -177.9676778083   1.8659571E-03   2.6967541E-03
      4     -177.9696159727  -1.9381645E-03   9.3043450E-04
      5     -177.9698994348  -2.8346203E-04   3.6696807E-04
      6     -177.9699386791  -3.9244330E-05   1.4978032E-04
      7     -177.9699434460  -4.7669228E-06   8.1024895E-05
      8     -177.9699456188  -2.1727378E-06   1.5115668E-05
      9     -177.9699456361  -1.7360321E-08   8.4453172E-06
------------------------------------------------------------

 total:                                   0.235 sec
 * total energy  :  -177.9699456 Eh     change       -0.1004222E-03 Eh
   gradient norm :     0.0032870 Eh/α   predicted    -0.7229887E-04 ( -28.01%)
   displ. norm   :     0.2191163 α      lambda       -0.1015174E-03
   maximum displ.:     0.0962831 α      in ANC's #8, #17, #19, ...

........................................................................
.............................. CYCLE    8 ..............................
........................................................................
------------------------------------------------------------
  cycle        total energy    energy error   density error
------------------------------------------------------------
      1     -177.9699969198  -1.8119450E+02   8.9325134E-04
      2     -177.9691707199   8.2619991E-04   1.7327924E-03
      3     -177.9690090836   1.6163634E-04   1.8144248E-03
      4     -177.9697276261  -7.1854258E-04   8.6661828E-04
      5     -177.9699808608  -2.5323464E-04   3.3937607E-04
      6     -177.9700141278  -3.3266979E-05   1.4322722E-04
      7     -177.9700191246  -4.9968172E-06   6.8313949E-05
      8     -177.9700206794  -1.5548269E-06   1.1365249E-05
      9     -177.9700206861  -6.6690689E-09   6.6287550E-06
------------------------------------------------------------

 total:                                   0.235 sec
 * total energy  :  -177.9700207 Eh     change       -0.7504996E-04 Eh
   gradient norm :     0.0029846 Eh/α   predicted    -0.5321488E-04 ( -29.09%)
   displ. norm   :     0.2055752 α      lambda       -0.7875148E-04
   maximum displ.:     0.0913211 α      in ANC's #8, #17, #9, ...

........................................................................
.............................. CYCLE    9 ..............................
........................................................................
------------------------------------------------------------
  cycle        total energy    energy error   density error
------------------------------------------------------------
      1     -177.9700589777  -1.8119516E+02   7.7741710E-04
      2     -177.9692172062   8.4177152E-04   1.7258312E-03
      3     -177.9696449417  -4.2773555E-04   1.2124303E-03
      4     -177.9698548278  -2.0988605E-04   7.5162471E-04
      5     -177.9700616902  -2.0686245E-04   2.2618027E-04
      6     -177.9700764464  -1.4756230E-05   9.3613727E-05
      7     -177.9700789130  -2.4665190E-06   3.3678245E-05
      8     -177.9700792604  -3.4741274E-07   9.3242148E-06
------------------------------------------------------------

 total:                                   0.212 sec
 * total energy  :  -177.9700793 Eh     change       -0.5857430E-04 Eh
   gradient norm :     0.0028267 Eh/α   predicted    -0.4104038E-04 ( -29.93%)
   displ. norm   :     0.2155024 α      lambda       -0.7203431E-04
   maximum displ.:     0.0944627 α      in ANC's #8, #9, #2, ...

........................................................................
.............................. CYCLE   10 ..............................
........................................................................
------------------------------------------------------------
  cycle        total energy    energy error   density error
------------------------------------------------------------
      1     -177.9701315342  -1.8119567E+02   7.2137700E-04
      2     -177.9701053961   2.6138130E-05   5.3222875E-04
      3     -177.9685533831   1.5520129E-03   2.2584526E-03
      4     -177.9699585919  -1.4052088E-03   6.6611631E-04
      5     -177.9701300851  -1.7149316E-04   1.0795422E-04
      6     -177.9701333310  -3.2458805E-06   4.2985106E-05
      7     -177.9701338575  -5.2652763E-07   1.2136181E-05
------------------------------------------------------------

 total:                                   0.188 sec
 * total energy  :  -177.9701339 Eh     change       -0.5459712E-04 Eh
   gradient norm :     0.0026478 Eh/α   predicted    -0.3769083E-04 ( -30.97%)
   displ. norm   :     0.2133085 α      lambda       -0.6303261E-04
   maximum displ.:     0.0910791 α      in ANC's #8, #3, #2, ...

........................................................................
.............................. CYCLE   11 ..............................
........................................................................
------------------------------------------------------------
  cycle        total energy    energy error   density error
------------------------------------------------------------
      1     -177.9701773490  -1.8119587E+02   6.9214424E-04
      2     -177.9698818058   2.9554322E-04   1.0613395E-03
      3     -177.9697736727   1.0813306E-04   1.1723229E-03
      4     -177.9701699810  -3.9630827E-04   2.1156708E-04
      5     -177.9701832900  -1.3308954E-05   4.9340372E-05
      6     -177.9701831907   9.9269698E-08   4.7847804E-05
      7     -177.9701839152  -7.2447935E-07   1.4928305E-05
------------------------------------------------------------

 total:                                   0.191 sec
 * total energy  :  -177.9701839 Eh     change       -0.5005767E-04 Eh
   gradient norm :     0.0024686 Eh/α   predicted    -0.3295192E-04 ( -34.17%)
   displ. norm   :     0.2182964 α      lambda       -0.5768406E-04
   maximum displ.:     0.0893738 α      in ANC's #8, #3, #2, ...

........................................................................
.............................. CYCLE   12 ..............................
........................................................................
------------------------------------------------------------
  cycle        total energy    energy error   density error
------------------------------------------------------------
      1     -177.9702270658  -1.8119587E+02   6.5879645E-04
      2     -177.9701963218   3.0743963E-05   5.0652408E-04
      3     -177.9682154104   1.9809114E-03   2.4875301E-03
      4     -177.9701990028  -1.9835924E-03   2.7901379E-04
      5     -177.9702279113  -2.8908475E-05   3.7879798E-05
      6     -177.9702281071  -1.9578934E-07   2.9503867E-05
      7     -177.9702283719  -2.6486171E-07   6.6473026E-06
------------------------------------------------------------

 total:                                   0.188 sec
 * total energy  :  -177.9702284 Eh     change       -0.4445677E-04 Eh
   gradient norm :     0.0022196 Eh/α   predicted    -0.3022123E-04 ( -32.02%)
   displ. norm   :     0.2263472 α      lambda       -0.5388535E-04
   maximum displ.:     0.0966792 α      in ANC's #3, #2, #8, ...

........................................................................
.............................. CYCLE   13 ..............................
........................................................................
------------------------------------------------------------
  cycle        total energy    energy error   density error
------------------------------------------------------------
      1     -177.9702612492  -1.8119579E+02   6.4984919E-04
      2     -177.9696610432   6.0020600E-04   1.3983656E-03
      3     -177.9700502289  -3.8918572E-04   9.0365845E-04
      4     -177.9702301525  -1.7992359E-04   3.2753200E-04
      5     -177.9702695506  -3.9398094E-05   7.0496152E-05
      6     -177.9702702417  -6.9112878E-07   4.7176790E-05
      7     -177.9702707634  -5.2168778E-07   2.3662975E-05
      8     -177.9702709341  -1.7066392E-07   4.5676912E-06
------------------------------------------------------------

 total:                                   0.211 sec
 * total energy  :  -177.9702709 Eh     change       -0.4256215E-04 Eh
   gradient norm :     0.0020440 Eh/α   predicted    -0.2832432E-04 ( -33.45%)
   displ. norm   :     0.2450620 α      lambda       -0.5537174E-04
   maximum displ.:     0.1103330 α      in ANC's #3, #2, #8, ...

........................................................................
.............................. CYCLE   14 ..............................
........................................................................
------------------------------------------------------------
  cycle        total energy    energy error   density error
------------------------------------------------------------
      1     -177.9702989203  -1.8119574E+02   6.5646370E-04
      2     -177.9691664577   1.1324627E-03   1.8810832E-03
      3     -177.9702162621  -1.0498044E-03   6.6202657E-04
      4     -177.9702410070  -2.4744936E-05   4.4106495E-04
      5     -177.9703134091  -7.2402046E-05   9.8395443E-05
      6     -177.9703159449  -2.5358331E-06   4.4125643E-05
      7     -177.9703163593  -4.1440970E-07   2.2706342E-05
      8     -177.9703165226  -1.6331614E-07   4.1271721E-06
------------------------------------------------------------

 total:                                   0.210 sec
 * total energy  :  -177.9703165 Eh     change       -0.4558854E-04 Eh
   gradient norm :     0.0021859 Eh/α   predicted    -0.2935322E-04 ( -35.61%)
   displ. norm   :     0.2725186 α      lambda       -0.5966842E-04
   maximum displ.:     0.1276029 α      in ANC's #3, #2, #6, ...

........................................................................
.............................. CYCLE   15 ..............................
........................................................................
------------------------------------------------------------
  cycle        total energy    energy error   density error
------------------------------------------------------------
      1     -177.9703617779  -1.8119575E+02   6.5409425E-04
      2     -177.9703102868   5.1491131E-05   5.4168766E-04
      3     -177.9693612243   9.4906249E-04   1.7581968E-03
      4     -177.9702764939  -9.1526961E-04   5.0236668E-04
      5     -177.9703596297  -8.3135770E-05   1.2889403E-04
      6     -177.9703646423  -5.0125919E-06   4.0865087E-05
      7     -177.9703650387  -3.9639855E-07   1.6069815E-05
------------------------------------------------------------

 total:                                   0.187 sec
 * total energy  :  -177.9703650 Eh     change       -0.4851603E-04 Eh
   gradient norm :     0.0024494 Eh/α   predicted    -0.3205225E-04 ( -33.93%)
   displ. norm   :     0.2908820 α      lambda       -0.6155624E-04
   maximum displ.:     0.1412623 α      in ANC's #3, #2, #6, ...

........................................................................
.............................. CYCLE   16 ..............................
........................................................................
------------------------------------------------------------
  cycle        total energy    energy error   density error
------------------------------------------------------------
      1     -177.9703594197  -1.8119577E+02   8.0877567E-04
      2     -177.9683065203   2.0528993E-03   2.6165859E-03
      3     -177.9703137991  -2.0072788E-03   6.7462553E-04
      4     -177.9703338768  -2.0077627E-05   4.6714704E-04
      5     -177.9704130292  -7.9152436E-05   9.1781812E-05
      6     -177.9704147235  -1.6942945E-06   4.8541778E-05
      7     -177.9704154508  -7.2732743E-07   8.2995928E-06
------------------------------------------------------------

 total:                                   0.188 sec
 * total energy  :  -177.9704155 Eh     change       -0.5041215E-04 Eh
   gradient norm :     0.0024608 Eh/α   predicted    -0.3338502E-04 ( -33.78%)
   displ. norm   :     0.2916933 α      lambda       -0.5884402E-04
   maximum displ.:     0.1470577 α      in ANC's #3, #2, #6, ...

........................................................................
.............................. CYCLE   17 ..............................
........................................................................
------------------------------------------------------------
  cycle        total energy    energy error   density error
------------------------------------------------------------
      1     -177.9704479941  -1.8119595E+02   7.1518481E-04
      2     -177.9697750324   6.7296166E-04   1.5241621E-03
      3     -177.9701566284  -3.8159602E-04   1.0351181E-03
      4     -177.9703464952  -1.8986677E-04   5.4780170E-04
      5     -177.9704553587  -1.0886352E-04   1.6150986E-04
      6     -177.9704622566  -6.8978756E-06   7.2350310E-05
      7     -177.9704636339  -1.3773045E-06   3.1159037E-05
      8     -177.9704639330  -2.9905033E-07   7.5568553E-06
------------------------------------------------------------

 total:                                   0.211 sec
 * total energy  :  -177.9704639 Eh     change       -0.4848216E-04 Eh
   gradient norm :     0.0020365 Eh/α   predicted    -0.3192659E-04 ( -34.15%)
   displ. norm   :     0.2689587 α      lambda       -0.5067230E-04
   maximum displ.:     0.1409851 α      in ANC's #3, #2, #1, ...

........................................................................
.............................. CYCLE   18 ..............................
........................................................................
------------------------------------------------------------
  cycle        total energy    energy error   density error
------------------------------------------------------------
      1     -177.9705003378  -1.8119617E+02   6.2087886E-04
      2     -177.9703006408   1.9969709E-04   8.7518420E-04
      3     -177.9699882672   3.1237355E-04   1.2942984E-03
      4     -177.9704491453  -4.6087810E-04   3.7620901E-04
      5     -177.9705010983  -5.1952983E-05   1.0851942E-04
      6     -177.9705041328  -3.0345463E-06   5.0336075E-05
      7     -177.9705048609  -7.2801603E-07   1.9426935E-05
------------------------------------------------------------

 total:                                   0.187 sec
 * total energy  :  -177.9705049 Eh     change       -0.4092789E-04 Eh
   gradient norm :     0.0016444 Eh/α   predicted    -0.2717005E-04 ( -33.61%)
   displ. norm   :     0.3638385 α      lambda       -0.4338089E-04
   maximum displ.:     0.1974879 α      in ANC's #3, #2, #1, ...

........................................................................
.............................. CYCLE   19 ..............................
........................................................................
------------------------------------------------------------
  cycle        total energy    energy error   density error
------------------------------------------------------------
      1     -177.9704486668  -1.8119627E+02   9.6948538E-04
      2     -177.9672362086   3.2124582E-03   3.2607670E-03
      3     -177.9705206852  -3.2844766E-03   5.5586886E-04
      4     -177.9702590336   2.6165159E-04   8.6926196E-04
      5     -177.9705494212  -2.9038756E-04   1.2846451E-04
      6     -177.9705520883  -2.6671336E-06   8.6284609E-05
      7     -177.9705545444  -2.4560751E-06   1.4532669E-05
      8     -177.9705545760  -3.1623841E-08   5.8670970E-06
------------------------------------------------------------

 total:                                   0.211 sec
 * total energy  :  -177.9705546 Eh     change       -0.4971514E-04 Eh
   gradient norm :     0.0019211 Eh/α   predicted    -0.2296795E-04 ( -53.80%)
   displ. norm   :     0.2640598 α      lambda       -0.3132864E-04
   maximum displ.:     0.1486242 α      in ANC's #3, #2, #1, ...

........................................................................
.............................. CYCLE   20 ..............................
........................................................................
------------------------------------------------------------
  cycle        total energy    energy error   density error
------------------------------------------------------------
      1     -177.9705941598  -1.8119639E+02   5.4564180E-04
      2     -177.9705727818   2.1377934E-05   4.1653501E-04
      3     -177.9698555490   7.1723286E-04   1.5522583E-03
      4     -177.9705453769  -6.8982790E-04   3.5345636E-04
      5     -177.9705944903  -4.9113428E-05   5.1112365E-05
      6     -177.9705952498  -7.5954463E-07   1.9281846E-05
------------------------------------------------------------

 total:                                   0.164 sec
 * total energy  :  -177.9705952 Eh     change       -0.4067385E-04 Eh
   gradient norm :     0.0018861 Eh/α   predicted    -0.1615418E-04 ( -60.28%)
   displ. norm   :     0.3260453 α      lambda       -0.4479175E-04
   maximum displ.:     0.1867175 α      in ANC's #3, #2, #1, ...
 * RMSD in coord.:     0.3657495 α      energy gain  -0.6963561E-02 Eh

generating ANC from exact Hessian ...
Using Lindh-Hessian (1995)
 Shifting diagonal of input Hessian by   1.006024963544972E-002
 Lowest  eigenvalues of input Hessian
    0.010000    0.000000    0.000000    0.000000    0.000000    0.000000
    0.000000    0.010134    0.010198    0.010252    0.010426    0.010677
    0.010718    0.010872    0.010946    0.011279    0.011394    0.011512
 Highest eigenvalues
    2.190344    2.200920    2.205778    2.223544    2.234001    2.254127
 

........................................................................
.............................. CYCLE   21 ..............................
........................................................................
------------------------------------------------------------
  cycle        total energy    energy error   density error
------------------------------------------------------------
      1     -177.9706465173  -1.8119661E+02   6.5094232E-04
      2     -177.9704444526   2.0206476E-04   8.7634622E-04
      3     -177.9701084999   3.3595265E-04   1.3253072E-03
      4     -177.9706156850  -5.0718504E-04   3.1928336E-04
      5     -177.9706488849  -3.3199983E-05   1.0647335E-04
      6     -177.9706524137  -3.5287595E-06   3.8555614E-05
      7     -177.9706527506  -3.3688346E-07   1.5820624E-05
------------------------------------------------------------

 total:                                   0.196 sec
 * total energy  :  -177.9706528 Eh     change       -0.5750074E-04 Eh
   gradient norm :     0.0016028 Eh/α   predicted     0.0000000E+00 (-100.00%)
   displ. norm   :     0.0469262 α      lambda       -0.1505606E-04
   maximum displ.:     0.0195588 α      in ANC's #2, #17, #3, ...

........................................................................
.............................. CYCLE   22 ..............................
........................................................................
------------------------------------------------------------
  cycle        total energy    energy error   density error
------------------------------------------------------------
      1     -177.9706506523  -1.8119649E+02   3.1656345E-04
      2     -177.9697086454   9.4200686E-04   1.7367843E-03
      3     -177.9706721030  -9.6345762E-04   1.0531080E-04
      4     -177.9706692596   2.8434694E-06   9.4480153E-05
      5     -177.9706719987  -2.7391735E-06   3.9565097E-05
      6     -177.9706725435  -5.4478011E-07   1.3592082E-05
------------------------------------------------------------

 total:                                   0.166 sec
 * total energy  :  -177.9706725 Eh     change       -0.1979293E-04 Eh
   gradient norm :     0.0006634 Eh/α   predicted    -0.7781337E-05 ( -60.69%)
   displ. norm   :     0.1732022 α      lambda       -0.4006813E-04
   maximum displ.:     0.0749555 α      in ANC's #2, #3, #17, ...

........................................................................
.............................. CYCLE   23 ..............................
........................................................................
------------------------------------------------------------
  cycle        total energy    energy error   density error
------------------------------------------------------------
      1     -177.9707018276  -1.8119622E+02   5.9972239E-04
      2     -177.9706551007   4.6726922E-05   5.4634442E-04
      3     -177.9705144773   1.4062337E-04   8.4520841E-04
      4     -177.9702750145   2.3946280E-04   1.1202634E-03
      5     -177.9707119661  -4.3695157E-04   6.5665639E-05
      6     -177.9707131342  -1.1681110E-06   2.1891514E-05
      7     -177.9707131832  -4.8977142E-08   1.4485667E-05
------------------------------------------------------------

 total:                                   0.188 sec
 * total energy  :  -177.9707132 Eh     change       -0.4063964E-04 Eh
   gradient norm :     0.0015925 Eh/α   predicted    -0.2030273E-04 ( -50.04%)
   displ. norm   :     0.1475444 α      lambda       -0.1975648E-04
   maximum displ.:     0.0701718 α      in ANC's #2, #3, #17, ...

........................................................................
.............................. CYCLE   24 ..............................
........................................................................
------------------------------------------------------------
  cycle        total energy    energy error   density error
------------------------------------------------------------
      1     -177.9707209421  -1.8119618E+02   4.7009907E-04
      2     -177.9700341683   6.8677379E-04   1.4997852E-03
      3     -177.9707176790  -6.8351067E-04   3.3541123E-04
      4     -177.9707313208  -1.3641787E-05   1.2607851E-04
      5     -177.9707364292  -5.1084328E-06   3.5664089E-05
      6     -177.9707366999  -2.7073662E-07   2.6205327E-05
      7     -177.9707369436  -2.4368825E-07   4.8446722E-06
------------------------------------------------------------

 total:                                   0.187 sec
 * total energy  :  -177.9707369 Eh     change       -0.2376045E-04 Eh
   gradient norm :     0.0018405 Eh/α   predicted    -0.9973911E-05 ( -58.02%)
   displ. norm   :     0.1901072 α      lambda       -0.2528389E-04
   maximum displ.:     0.0951676 α      in ANC's #2, #3, #9, ...

........................................................................
.............................. CYCLE   25 ..............................
........................................................................
------------------------------------------------------------
  cycle        total energy    energy error   density error
------------------------------------------------------------
      1     -177.9707679671  -1.8119634E+02   4.8268573E-04
      2     -177.9707649717   2.9954075E-06   2.9916084E-04
      3     -177.9700446554   7.2031622E-04   1.4585379E-03
      4     -177.9707586950  -7.1403956E-04   1.7155765E-04
      5     -177.9707679442  -9.2492156E-06   3.8754593E-05
      6     -177.9707684216  -4.7741540E-07   9.5608742E-06
------------------------------------------------------------

 total:                                   0.164 sec
 * total energy  :  -177.9707684 Eh     change       -0.3147802E-04 Eh
   gradient norm :     0.0012810 Eh/α   predicted    -0.1288616E-04 ( -59.06%)
   displ. norm   :     0.2486469 α      lambda       -0.3117157E-04
   maximum displ.:     0.1303055 α      in ANC's #2, #3, #9, ...

........................................................................
.............................. CYCLE   26 ..............................
........................................................................
------------------------------------------------------------
  cycle        total energy    energy error   density error
------------------------------------------------------------
      1     -177.9708018195  -1.8119653E+02   5.7663801E-04
      2     -177.9707997299   2.0896330E-06   3.4959613E-04
      3     -177.9707213643   7.8365623E-05   5.0584569E-04
      4     -177.9707333089  -1.1944585E-05   4.6154766E-04
      5     -177.9707998441  -6.6535253E-05   9.7934637E-05
      6     -177.9708031874  -3.3432960E-06   1.5843107E-05
      7     -177.9708032289  -4.1423078E-08   6.2551910E-06
------------------------------------------------------------

 total:                                   0.187 sec
 * total energy  :  -177.9708032 Eh     change       -0.3480722E-04 Eh
   gradient norm :     0.0006486 Eh/α   predicted    -0.1601555E-04 ( -53.99%)
   displ. norm   :     0.2248766 α      lambda       -0.2255487E-04
   maximum displ.:     0.1239097 α      in ANC's #2, #3, #8, ...

........................................................................
.............................. CYCLE   27 ..............................
........................................................................
------------------------------------------------------------
  cycle        total energy    energy error   density error
------------------------------------------------------------
      1     -177.9708267315  -1.8119665E+02   4.7728146E-04
      2     -177.9708185419   8.1896187E-06   3.1679925E-04
      3     -177.9704918288   3.2671303E-04   9.6026149E-04
      4     -177.9706745320  -1.8270319E-04   7.2115299E-04
      5     -177.9708285163  -1.5398429E-04   4.1854797E-05
      6     -177.9708288462  -3.2983567E-07   2.2537801E-05
      7     -177.9708289893  -1.4310334E-07   7.2094348E-06
------------------------------------------------------------

 total:                                   0.198 sec
 * total energy  :  -177.9708290 Eh     change       -0.2576040E-04 Eh
   gradient norm :     0.0008718 Eh/α   predicted    -0.1153162E-04 ( -55.24%)
   displ. norm   :     0.1818533 α      lambda       -0.1736520E-04
   maximum displ.:     0.1049873 α      in ANC's #2, #3, #8, ...

........................................................................
.............................. CYCLE   28 ..............................
........................................................................
------------------------------------------------------------
  cycle        total energy    energy error   density error
------------------------------------------------------------
      1     -177.9708489512  -1.8119678E+02   3.5711568E-04
      2     -177.9708386832   1.0267993E-05   2.8530380E-04
      3     -177.9706609674   1.7771586E-04   7.9332486E-04
      4     -177.9707410833  -8.0115966E-05   5.4245257E-04
      5     -177.9708499677  -1.0888439E-04   4.3079970E-05
      6     -177.9708505328  -5.6506295E-07   1.0809837E-05
------------------------------------------------------------

 total:                                   0.166 sec
 * total energy  :  -177.9708505 Eh     change       -0.2154352E-04 Eh
   gradient norm :     0.0010079 Eh/α   predicted    -0.8810492E-05 ( -59.10%)
   displ. norm   :     0.1894031 α      lambda       -0.1958925E-04
   maximum displ.:     0.1121518 α      in ANC's #2, #3, #8, ...

........................................................................
.............................. CYCLE   29 ..............................
........................................................................
------------------------------------------------------------
  cycle        total energy    energy error   density error
------------------------------------------------------------
      1     -177.9708725137  -1.8119669E+02   3.7271861E-04
      2     -177.9707897027   8.2811059E-05   5.3848005E-04
      3     -177.9706903919   9.9310812E-05   7.8050473E-04
      4     -177.9708496357  -1.5924383E-04   2.6731879E-04
      5     -177.9708740896  -2.4453907E-05   6.8313587E-05
      6     -177.9708755203  -1.4307423E-06   1.7354105E-05
      7     -177.9708755761  -5.5753674E-08   7.9615595E-06
------------------------------------------------------------

 total:                                   0.187 sec
 * total energy  :  -177.9708756 Eh     change       -0.2504331E-04 Eh
   gradient norm :     0.0008546 Eh/α   predicted    -0.9951133E-05 ( -60.26%)
   displ. norm   :     0.2295129 α      lambda       -0.2291618E-04
   maximum displ.:     0.1382947 α      in ANC's #2, #3, #1, ...

........................................................................
.............................. CYCLE   30 ..............................
........................................................................
------------------------------------------------------------
  cycle        total energy    energy error   density error
------------------------------------------------------------
      1     -177.9708990818  -1.8119633E+02   4.5033785E-04
      2     -177.9706773020   2.2177980E-04   8.6005352E-04
      3     -177.9707791850  -1.0188295E-04   6.7157966E-04
      4     -177.9708926091  -1.1342414E-04   1.7858289E-04
      5     -177.9709024056  -9.7964972E-06   7.4543658E-05
      6     -177.9709040877  -1.6820899E-06   3.2803533E-05
      7     -177.9709044032  -3.1555194E-07   7.9642519E-06
------------------------------------------------------------

 total:                                   0.187 sec
 * total energy  :  -177.9709044 Eh     change       -0.2882714E-04 Eh
   gradient norm :     0.0005949 Eh/α   predicted    -0.1173040E-04 ( -59.31%)
   displ. norm   :     0.2492348 α      lambda       -0.2268434E-04
   maximum displ.:     0.1528959 α      in ANC's #2, #3, #1, ...

........................................................................
.............................. CYCLE   31 ..............................
........................................................................
------------------------------------------------------------
  cycle        total energy    energy error   density error
------------------------------------------------------------
      1     -177.9709316499  -1.8119613E+02   4.7144345E-04
      2     -177.9709099513   2.1698591E-05   3.8283120E-04
      3     -177.9703516258   5.5832549E-04   1.3645904E-03
      4     -177.9709226341  -5.7100822E-04   1.6293726E-04
      5     -177.9709309565  -8.3224688E-06   7.1064497E-05
      6     -177.9709327066  -1.7500341E-06   1.6571119E-05
      7     -177.9709327204  -1.3802435E-08   1.0970467E-05
------------------------------------------------------------

 total:                                   0.187 sec
 * total energy  :  -177.9709327 Eh     change       -0.2831713E-04 Eh
   gradient norm :     0.0005914 Eh/α   predicted    -0.1165590E-04 ( -58.84%)
   displ. norm   :     0.2589504 α      lambda       -0.2188987E-04
   maximum displ.:     0.1607616 α      in ANC's #2, #3, #1, ...

........................................................................
.............................. CYCLE   32 ..............................
........................................................................
------------------------------------------------------------
  cycle        total energy    energy error   density error
------------------------------------------------------------
      1     -177.9709496442  -1.8119602E+02   5.2289279E-04
      2     -177.9704661189   4.8352535E-04   1.2655671E-03
      3     -177.9708940153  -4.2789645E-04   5.3156487E-04
      4     -177.9709514760  -5.7460716E-05   1.5575647E-04
      5     -177.9709600634  -8.5873124E-06   3.8531161E-05
      6     -177.9709603238  -2.6042520E-07   2.3050970E-05
      7     -177.9709604344  -1.1066155E-07   1.2419302E-05
------------------------------------------------------------

 total:                                   0.187 sec
 * total energy  :  -177.9709604 Eh     change       -0.2771407E-04 Eh
   gradient norm :     0.0007639 Eh/α   predicted    -0.1127158E-04 ( -59.33%)
   displ. norm   :     0.2718624 α      lambda       -0.2251675E-04
   maximum displ.:     0.1705543 α      in ANC's #2, #3, #1, ...

........................................................................
.............................. CYCLE   33 ..............................
........................................................................
------------------------------------------------------------
  cycle        total energy    energy error   density error
------------------------------------------------------------
      1     -177.9709807313  -1.8119605E+02   5.5141490E-04
      2     -177.9705705664   4.1016496E-04   1.1425961E-03
      3     -177.9708196959  -2.4912953E-04   7.8790918E-04
      4     -177.9708921844  -7.2488530E-05   5.1152028E-04
      5     -177.9709886334  -9.6448954E-05   5.6273086E-05
      6     -177.9709891248  -4.9143071E-07   3.7856762E-05
      7     -177.9709895167  -3.9189166E-07   1.3177639E-05
------------------------------------------------------------

 total:                                   0.191 sec
 * total energy  :  -177.9709895 Eh     change       -0.2908225E-04 Eh
   gradient norm :     0.0008049 Eh/α   predicted    -0.1162898E-04 ( -60.01%)
   displ. norm   :     0.3036380 α      lambda       -0.2509485E-04
   maximum displ.:     0.1917683 α      in ANC's #2, #3, #1, ...

........................................................................
.............................. CYCLE   34 ..............................
........................................................................
------------------------------------------------------------
  cycle        total energy    energy error   density error
------------------------------------------------------------
      1     -177.9710027045  -1.8119621E+02   6.4312547E-04
      2     -177.9701690151   8.3368941E-04   1.6685341E-03
      3     -177.9709523569  -7.8334180E-04   5.6870553E-04
      4     -177.9710176651  -6.5308237E-05   1.0697458E-04
      5     -177.9710215121  -3.8469966E-06   3.8457178E-05
      6     -177.9710215313  -1.9159899E-08   3.4946022E-05
      7     -177.9710219141  -3.8277173E-07   8.8873678E-06
------------------------------------------------------------

 total:                                   0.187 sec
 * total energy  :  -177.9710219 Eh     change       -0.3239737E-04 Eh
   gradient norm :     0.0007026 Eh/α   predicted    -0.1306420E-04 ( -59.68%)
   displ. norm   :     0.3556285 α      lambda       -0.2859684E-04
   maximum displ.:     0.2257972 α      in ANC's #2, #3, #1, ...

........................................................................
.............................. CYCLE   35 ..............................
........................................................................
------------------------------------------------------------
  cycle        total energy    energy error   density error
------------------------------------------------------------
      1     -177.9710562458  -1.8119639E+02   6.9284514E-04
      2     -177.9710048527   5.1393135E-05   5.5547976E-04
      3     -177.9698676576   1.1371950E-03   1.9236162E-03
      4     -177.9709651047  -1.0974471E-03   5.0256372E-04
      5     -177.9710555282  -9.0423541E-05   1.0669732E-04
      6     -177.9710582385  -2.7102375E-06   4.7529025E-05
      7     -177.9710588191  -5.8059803E-07   1.8794319E-05
------------------------------------------------------------

 total:                                   0.188 sec
 * total energy  :  -177.9710588 Eh     change       -0.3690502E-04 Eh
   gradient norm :     0.0005891 Eh/α   predicted    -0.1510397E-04 ( -59.07%)
   displ. norm   :     0.4240106 α      lambda       -0.3320797E-04
   maximum displ.:     0.2693792 α      in ANC's #2, #3, #1, ...

........................................................................
.............................. CYCLE   36 ..............................
........................................................................
------------------------------------------------------------
  cycle        total energy    energy error   density error
------------------------------------------------------------
      1     -177.9710530211  -1.8119654E+02   8.8057067E-04
      2     -177.9691856631   1.8673580E-03   2.5012966E-03
      3     -177.9710150372  -1.8293741E-03   6.7934270E-04
      4     -177.9711009378  -8.5900596E-05   7.5931464E-05
      5     -177.9710995564   1.3813929E-06   9.6438541E-05
      6     -177.9711025081  -2.9517306E-06   3.1375626E-05
      7     -177.9711027173  -2.0920328E-07   1.5079641E-05
------------------------------------------------------------

 total:                                   0.187 sec
 * total energy  :  -177.9711027 Eh     change       -0.4389822E-04 Eh
   gradient norm :     0.0006955 Eh/α   predicted    -0.1793267E-04 ( -59.15%)
   displ. norm   :     0.5320320 α      lambda       -0.4125374E-04
   maximum displ.:     0.3374218 α      in ANC's #2, #3, #1, ...

........................................................................
.............................. CYCLE   37 ..............................
........................................................................
------------------------------------------------------------
  cycle        total energy    energy error   density error
------------------------------------------------------------
      1     -177.9711459726  -1.8119658E+02   9.5810936E-04
      2     -177.9706060210   5.3995164E-04   1.3940666E-03
      3     -177.9703886033   2.1741772E-04   1.6255512E-03
      4     -177.9710412010  -6.5259773E-04   5.5814785E-04
      5     -177.9711493801  -1.0817906E-04   1.5278703E-04
      6     -177.9711540299  -4.6498346E-06   8.5442976E-05
      7     -177.9711562795  -2.2496183E-06   2.7717711E-05
      8     -177.9711564722  -1.9265514E-07   9.1558952E-06
------------------------------------------------------------

 total:                                   0.210 sec
 * total energy  :  -177.9711565 Eh     change       -0.5375488E-04 Eh
   gradient norm :     0.0009720 Eh/α   predicted    -0.2322398E-04 ( -56.80%)
   displ. norm   :     0.6658275 α      lambda       -0.5045426E-04
   maximum displ.:     0.4213714 α      in ANC's #2, #3, #1, ...

........................................................................
.............................. CYCLE   38 ..............................
........................................................................
------------------------------------------------------------
  cycle        total energy    energy error   density error
------------------------------------------------------------
      1     -177.9712147896  -1.8119636E+02   1.1407700E-03
      2     -177.9709922816   2.2250800E-04   1.0503629E-03
      3     -177.9689008835   2.0913982E-03   2.7345073E-03
      4     -177.9709694157  -2.0685322E-03   8.0844099E-04
      5     -177.9711940593  -2.2464361E-04   2.9106004E-04
      6     -177.9712149239  -2.0864597E-05   1.4311287E-04
      7     -177.9712210066  -6.0826614E-06   4.0592336E-05
      8     -177.9712213447  -3.3812233E-07   2.0063526E-05
      9     -177.9712214732  -1.2854326E-07   8.7765396E-06
------------------------------------------------------------

 total:                                   0.235 sec
 * total energy  :  -177.9712215 Eh     change       -0.6500106E-04 Eh
   gradient norm :     0.0011649 Eh/α   predicted    -0.3020032E-04 ( -53.54%)
   displ. norm   :     0.7718142 α      lambda       -0.5447639E-04
   maximum displ.:     0.4879644 α      in ANC's #2, #3, #1, ...

........................................................................
.............................. CYCLE   39 ..............................
........................................................................
------------------------------------------------------------
  cycle        total energy    energy error   density error
------------------------------------------------------------
      1     -177.9712807518  -1.8119602E+02   1.2836913E-03
      2     -177.9711172047   1.6354703E-04   1.0492664E-03
      3     -177.9646477805   6.4694242E-03   4.4842568E-03
      4     -177.9710028650  -6.3550844E-03   8.6596009E-04
      5     -177.9712591513  -2.5628633E-04   3.0056925E-04
      6     -177.9712798805  -2.0729189E-05   1.6371338E-04
      7     -177.9712865502  -6.6696907E-06   7.9792061E-05
      8     -177.9712886193  -2.0691527E-06   1.3959256E-05
      9     -177.9712886271  -7.8022708E-09   9.9836681E-06
------------------------------------------------------------

 total:                                   0.234 sec
 * total energy  :  -177.9712886 Eh     change       -0.6715389E-04 Eh
   gradient norm :     0.0010839 Eh/α   predicted    -0.3445252E-04 ( -48.70%)
   displ. norm   :     0.7721777 α      lambda       -0.4570150E-04
   maximum displ.:     0.4886356 α      in ANC's #2, #3, #1, ...

........................................................................
.............................. CYCLE   40 ..............................
........................................................................
------------------------------------------------------------
  cycle        total energy    energy error   density error
------------------------------------------------------------
      1     -177.9713307479  -1.8119566E+02   1.2595651E-03
      2     -177.9711224613   2.0828660E-04   1.1033303E-03
      3     -177.9657020883   5.4203730E-03   4.1362394E-03
      4     -177.9710573788  -5.3552905E-03   8.7038746E-04
      5     -177.9713091880  -2.5180923E-04   3.1006240E-04
      6     -177.9713307789  -2.1590913E-05   1.7140939E-04
      7     -177.9713382661  -7.4871931E-06   8.0568578E-05
      8     -177.9713403424  -2.0762468E-06   1.4522630E-05
      9     -177.9713403467  -4.3322927E-09   1.1926011E-05
------------------------------------------------------------

 total:                                   0.235 sec
 * total energy  :  -177.9713403 Eh     change       -0.5171958E-04 Eh
   gradient norm :     0.0009184 Eh/α   predicted    -0.2891195E-04 ( -44.10%)
   displ. norm   :     0.6404599 α      lambda       -0.2834188E-04
   maximum displ.:     0.4060455 α      in ANC's #2, #3, #1, ...

........................................................................
.............................. CYCLE   41 ..............................
........................................................................
------------------------------------------------------------
  cycle        total energy    energy error   density error
------------------------------------------------------------
      1     -177.9713614301  -1.8119575E+02   1.0349103E-03
      2     -177.9710787854   2.8264469E-04   1.1227398E-03
      3     -177.9689252706   2.1535148E-03   2.7515033E-03
      4     -177.9711984750  -2.2732043E-03   6.8350173E-04
      5     -177.9713521327  -1.5365775E-04   2.4124304E-04
      6     -177.9713651212  -1.2988491E-05   1.3179387E-04
      7     -177.9713699722  -4.8509887E-06   5.0219444E-05
      8     -177.9713707035  -7.3131255E-07   1.3188679E-05
------------------------------------------------------------

 total:                                   0.214 sec
 * total energy  :  -177.9713707 Eh     change       -0.3035679E-04 Eh
   gradient norm :     0.0008024 Eh/α   predicted    -0.1675506E-04 ( -44.81%)
   displ. norm   :     0.4486480 α      lambda       -0.1618168E-04
   maximum displ.:     0.2852748 α      in ANC's #2, #3, #1, ...

........................................................................
.............................. CYCLE   42 ..............................
........................................................................
------------------------------------------------------------
  cycle        total energy    energy error   density error
------------------------------------------------------------
      1     -177.9713679228  -1.8119611E+02   7.4432242E-04
      2     -177.9701817192   1.1862036E-03   1.9281394E-03
      3     -177.9712738638  -1.0921446E-03   7.1091273E-04
      4     -177.9713201241  -4.6260310E-05   4.1730338E-04
      5     -177.9713822997  -6.2175574E-05   1.3320882E-04
      6     -177.9713867168  -4.4171665E-06   6.6262098E-05
      7     -177.9713880413  -1.3244671E-06   1.6372682E-05
      8     -177.9713880967  -5.5382827E-08   6.6265060E-06
------------------------------------------------------------

 total:                                   0.213 sec
 * total energy  :  -177.9713881 Eh     change       -0.1739318E-04 Eh
   gradient norm :     0.0007228 Eh/α   predicted    -0.8816856E-05 ( -49.31%)
   displ. norm   :     0.3824855 α      lambda       -0.1411347E-04
   maximum displ.:     0.2430640 α      in ANC's #2, #3, #1, ...
 * RMSD in coord.:     0.6841304 α      energy gain  -0.7928468E-03 Eh

generating ANC from exact Hessian ...
Using Lindh-Hessian (1995)
 Shifting diagonal of input Hessian by   9.956425185631718E-003
 Lowest  eigenvalues of input Hessian
    0.000000    0.000000    0.000000    0.000000    0.000000    0.000000
    0.010000    0.010022    0.010089    0.010138    0.010320    0.010554
    0.010620    0.010771    0.010841    0.011231    0.011301    0.011406
 Highest eigenvalues
    2.190159    2.200107    2.206288    2.223499    2.234422    2.253665
 

........................................................................
.............................. CYCLE   43 ..............................
........................................................................
------------------------------------------------------------
  cycle        total energy    energy error   density error
------------------------------------------------------------
      1     -177.9713990867  -1.8119651E+02   6.3897394E-04
      2     -177.9711336205   2.6546625E-04   9.6356601E-04
      3     -177.9710911157   4.2504761E-05   1.0354063E-03
      4     -177.9713463873  -2.5527155E-04   3.8525380E-04
      5     -177.9714000296  -5.3642340E-05   1.1662936E-04
      6     -177.9714036591  -3.6295109E-06   5.2426220E-05
      7     -177.9714044744  -8.1530786E-07   1.1678118E-05
------------------------------------------------------------

 total:                                   0.187 sec
 * total energy  :  -177.9714045 Eh     change       -0.1637775E-04 Eh
   gradient norm :     0.0007168 Eh/α   predicted     0.0000000E+00 (-100.00%)
   displ. norm   :     0.0290072 α      lambda       -0.5570128E-05
   maximum displ.:     0.0107291 α      in ANC's #17, #1, #7, ...

........................................................................
.............................. CYCLE   44 ..............................
........................................................................
------------------------------------------------------------
  cycle        total energy    energy error   density error
------------------------------------------------------------
      1     -177.9714040269  -1.8119678E+02   1.8102243E-04
      2     -177.9710996321   3.0439478E-04   9.7148246E-04
      3     -177.9714101245  -3.1049236E-04   8.9329687E-05
      4     -177.9714083316   1.7928905E-06   9.6651907E-05
      5     -177.9714109970  -2.6653544E-06   3.8746941E-05
      6     -177.9714115388  -5.4184122E-07   4.9233617E-06
------------------------------------------------------------

 total:                                   0.164 sec
 * total energy  :  -177.9714115 Eh     change       -0.7064364E-05 Eh
   gradient norm :     0.0003810 Eh/α   predicted    -0.2792065E-05 ( -60.48%)
   displ. norm   :     0.1194994 α      lambda       -0.1655503E-04
   maximum displ.:     0.0443101 α      in ANC's #1, #17, #7, ...

........................................................................
.............................. CYCLE   45 ..............................
........................................................................
------------------------------------------------------------
  cycle        total energy    energy error   density error
------------------------------------------------------------
      1     -177.9714257728  -1.8119709E+02   4.5560051E-04
      2     -177.9713787831   4.6989743E-05   4.6185936E-04
      3     -177.9710547361   3.2404698E-04   1.0950684E-03
      4     -177.9714243673  -3.6963119E-04   1.0821527E-04
      5     -177.9714271790  -2.8116674E-06   1.4615620E-05
      6     -177.9714271602   1.8762677E-08   1.5991096E-05
------------------------------------------------------------

 total:                                   0.165 sec
 * total energy  :  -177.9714272 Eh     change       -0.1562140E-04 Eh
   gradient norm :     0.0008497 Eh/α   predicted    -0.8331483E-05 ( -46.67%)
   displ. norm   :     0.0723347 α      lambda       -0.5320445E-05
   maximum displ.:     0.0316942 α      in ANC's #1, #7, #17, ...

........................................................................
.............................. CYCLE   46 ..............................
........................................................................
------------------------------------------------------------
  cycle        total energy    energy error   density error
------------------------------------------------------------
      1     -177.9714205803  -1.8119712E+02   3.0600364E-04
      2     -177.9709971103   4.2347006E-04   1.1487248E-03
      3     -177.9714260237  -4.2891345E-04   2.0309251E-04
      4     -177.9714194585   6.5652670E-06   2.0445931E-04
      5     -177.9714328026  -1.3344086E-05   2.6060114E-05
      6     -177.9714330263  -2.2379032E-07   6.5320010E-06
------------------------------------------------------------

 total:                                   0.165 sec
 * total energy  :  -177.9714330 Eh     change       -0.5866145E-05 Eh
   gradient norm :     0.0005707 Eh/α   predicted    -0.2667472E-05 ( -54.53%)
   displ. norm   :     0.0749992 α      lambda       -0.4880472E-05
   maximum displ.:     0.0365892 α      in ANC's #1, #7, #9, ...

........................................................................
.............................. CYCLE   47 ..............................
........................................................................
------------------------------------------------------------
  cycle        total energy    energy error   density error
------------------------------------------------------------
      1     -177.9714381469  -1.8119715E+02   2.4137532E-04
      2     -177.9714251123   1.3034682E-05   2.4591808E-04
      3     -177.9713153614   1.0975084E-04   6.2153694E-04
      4     -177.9714346110  -1.1924959E-04   1.0986729E-04
      5     -177.9714383308  -3.7198245E-06   3.3153988E-05
      6     -177.9714387228  -3.9199003E-07   8.0931894E-06
------------------------------------------------------------

 total:                                   0.165 sec
 * total energy  :  -177.9714387 Eh     change       -0.5696474E-05 Eh
   gradient norm :     0.0003879 Eh/α   predicted    -0.2449040E-05 ( -57.01%)
   displ. norm   :     0.0851893 α      lambda       -0.5402017E-05
   maximum displ.:     0.0449549 α      in ANC's #1, #7, #9, ...

........................................................................
.............................. CYCLE   48 ..............................
........................................................................
------------------------------------------------------------
  cycle        total energy    energy error   density error
------------------------------------------------------------
      1     -177.9714406568  -1.8119698E+02   2.7432875E-04
      2     -177.9712889550   1.5170177E-04   6.9473021E-04
      3     -177.9714267635  -1.3780855E-04   2.7604935E-04
      4     -177.9714311815  -4.4179199E-06   1.8582774E-04
      5     -177.9714441284  -1.2946965E-05   3.4409765E-05
      6     -177.9714444716  -3.4319908E-07   1.0258642E-05
------------------------------------------------------------

 total:                                   0.166 sec
 * total energy  :  -177.9714445 Eh     change       -0.5748798E-05 Eh
   gradient norm :     0.0005484 Eh/α   predicted    -0.2723629E-05 ( -52.62%)
   displ. norm   :     0.0887894 α      lambda       -0.4832244E-05
   maximum displ.:     0.0494772 α      in ANC's #1, #7, #9, ...

........................................................................
.............................. CYCLE   49 ..............................
........................................................................
------------------------------------------------------------
  cycle        total energy    energy error   density error
------------------------------------------------------------
      1     -177.9714393619  -1.8119688E+02   3.0062135E-04
      2     -177.9709988715   4.4049031E-04   1.1795827E-03
      3     -177.9714465911  -4.4771955E-04   1.7304474E-04
      4     -177.9714412110   5.3800779E-06   1.5421438E-04
      5     -177.9714493907  -8.1797208E-06   4.1456017E-05
      6     -177.9714499926  -6.0189438E-07   8.3164404E-06
------------------------------------------------------------

 total:                                   0.166 sec
 * total energy  :  -177.9714500 Eh     change       -0.5521019E-05 Eh
   gradient norm :     0.0005584 Eh/α   predicted    -0.2429080E-05 ( -56.00%)
   displ. norm   :     0.0758296 α      lambda       -0.3555043E-05
   maximum displ.:     0.0448663 α      in ANC's #1, #7, #2, ...

........................................................................
.............................. CYCLE   50 ..............................
........................................................................
------------------------------------------------------------
  cycle        total energy    energy error   density error
------------------------------------------------------------
      1     -177.9714491519  -1.8119684E+02   2.2098338E-04
      2     -177.9712282557   2.2089615E-04   8.3759532E-04
      3     -177.9714514449  -2.2318913E-04   1.3838740E-04
      4     -177.9714522022  -7.5734653E-07   8.4053005E-05
      5     -177.9714540320  -1.8298003E-06   2.0715918E-05
      6     -177.9714541808  -1.4876798E-07   7.9489797E-06
------------------------------------------------------------

 total:                                   0.168 sec
 * total energy  :  -177.9714542 Eh     change       -0.4188136E-05 Eh
   gradient norm :     0.0003781 Eh/α   predicted    -0.1786869E-05 ( -57.33%)
   displ. norm   :     0.0636873 α      lambda       -0.2955615E-05
   maximum displ.:     0.0397999 α      in ANC's #1, #7, #2, ...

........................................................................
.............................. CYCLE   51 ..............................
........................................................................
------------------------------------------------------------
  cycle        total energy    energy error   density error
------------------------------------------------------------
      1     -177.9714518729  -1.8119685E+02   1.8871864E-04
      2     -177.9712100872   2.4178570E-04   8.6425818E-04
      3     -177.9714565187  -2.4643146E-04   1.0103995E-04
      4     -177.9714524273   4.0914062E-06   1.2371642E-04
      5     -177.9714577323  -5.3050227E-06   1.9525085E-05
      6     -177.9714578347  -1.0242437E-07   4.5300179E-06
------------------------------------------------------------

 total:                                   0.167 sec
 * total energy  :  -177.9714578 Eh     change       -0.3653979E-05 Eh
   gradient norm :     0.0002607 Eh/α   predicted    -0.1481410E-05 ( -59.46%)
   displ. norm   :     0.0657361 α      lambda       -0.3107523E-05
   maximum displ.:     0.0419600 α      in ANC's #1, #2, #7, ...

........................................................................
.............................. CYCLE   52 ..............................
........................................................................
------------------------------------------------------------
  cycle        total energy    energy error   density error
------------------------------------------------------------
      1     -177.9714606587  -1.8119692E+02   1.5643447E-04
      2     -177.9714104573   5.0201331E-05   4.0425314E-04
      3     -177.9714572099  -4.6752605E-05   1.4209888E-04
      4     -177.9714612064  -3.9965108E-06   4.0929182E-05
      5     -177.9714617292  -5.2274359E-07   5.3539476E-06
------------------------------------------------------------

 total:                                   0.141 sec
 * total energy  :  -177.9714617 Eh     change       -0.3894443E-05 Eh
   gradient norm :     0.0003399 Eh/α   predicted    -0.1561704E-05 ( -59.90%)
   displ. norm   :     0.0726032 α      lambda       -0.3322919E-05
   maximum displ.:     0.0468667 α      in ANC's #1, #2, #7, ...

........................................................................
.............................. CYCLE   53 ..............................
........................................................................
------------------------------------------------------------
  cycle        total energy    energy error   density error
------------------------------------------------------------
      1     -177.9714644254  -1.8119697E+02   1.8318356E-04
      2     -177.9713995302   6.4895207E-05   4.6598679E-04
      3     -177.9714582233  -5.8693133E-05   1.7597816E-04
      4     -177.9714586078  -3.8451520E-07   1.3551897E-04
      5     -177.9714658901  -7.2822863E-06   6.4909985E-06
      6     -177.9714658965  -6.3530763E-09   4.2095383E-06
------------------------------------------------------------

 total:                                   0.164 sec
 * total energy  :  -177.9714659 Eh     change       -0.4167260E-05 Eh
   gradient norm :     0.0004164 Eh/α   predicted    -0.1667654E-05 ( -59.98%)
   displ. norm   :     0.0777339 α      lambda       -0.3328661E-05
   maximum displ.:     0.0508619 α      in ANC's #1, #2, #7, ...

........................................................................
.............................. CYCLE   54 ..............................
........................................................................
------------------------------------------------------------
  cycle        total energy    energy error   density error
------------------------------------------------------------
      1     -177.9714688715  -1.8119703E+02   1.9406897E-04
      2     -177.9714126762   5.6195376E-05   4.3479873E-04
      3     -177.9714596203  -4.6944138E-05   2.0307018E-04
      4     -177.9714683426  -8.7223544E-06   6.7061067E-05
      5     -177.9714700473  -1.7046844E-06   1.1533278E-05
      6     -177.9714700877  -4.0335692E-08   4.7393890E-06
------------------------------------------------------------

 total:                                   0.165 sec
 * total energy  :  -177.9714701 Eh     change       -0.4191214E-05 Eh
   gradient norm :     0.0003800 Eh/α   predicted    -0.1670033E-05 ( -60.15%)
   displ. norm   :     0.0757647 α      lambda       -0.3001635E-05
   maximum displ.:     0.0508152 α      in ANC's #1, #2, #7, ...

........................................................................
.............................. CYCLE   55 ..............................
........................................................................
------------------------------------------------------------
  cycle        total energy    energy error   density error
------------------------------------------------------------
      1     -177.9714727211  -1.8119706E+02   1.8508866E-04
      2     -177.9713912370   8.1484093E-05   5.1638622E-04
      3     -177.9714696213  -7.8384226E-05   1.5202274E-04
      4     -177.9714733688  -3.7474823E-06   5.3477993E-05
      5     -177.9714744385  -1.0697196E-06   1.0596501E-05
      6     -177.9714744722  -3.3779656E-08   4.7652918E-06
------------------------------------------------------------

 total:                                   0.165 sec
 * total energy  :  -177.9714745 Eh     change       -0.4384584E-05 Eh
   gradient norm :     0.0002627 Eh/α   predicted    -0.1507380E-05 ( -65.62%)
   displ. norm   :     0.0691143 α      lambda       -0.2687683E-05
   maximum displ.:     0.0474764 α      in ANC's #1, #2, #7, ...

........................................................................
.............................. CYCLE   56 ..............................
........................................................................
------------------------------------------------------------
  cycle        total energy    energy error   density error
------------------------------------------------------------
      1     -177.9714772415  -1.8119707E+02   1.5690378E-04
      2     -177.9714004569   7.6784607E-05   4.9821178E-04
      3     -177.9714764825  -7.6025663E-05   1.1452027E-04
      4     -177.9714776737  -1.1911931E-06   5.6492700E-05
      5     -177.9714788523  -1.1785904E-06   1.2254433E-05
      6     -177.9714789031  -5.0755347E-08   4.5843328E-06
------------------------------------------------------------

 total:                                   0.165 sec
 * total energy  :  -177.9714789 Eh     change       -0.4430804E-05 Eh
   gradient norm :     0.0001946 Eh/α   predicted    -0.1349522E-05 ( -69.54%)
   displ. norm   :     0.0711110 α      lambda       -0.2901116E-05
[...]
eigval :     1065.41  1070.38  1071.45  1076.91  1078.85  1081.16
eigval :     1085.70  1095.36  1102.39  1111.12  1116.77  1125.65
eigval :     1135.68  1138.57  1142.54  1147.05  1148.13  1162.57
eigval :     1165.56  1171.82  1173.04  1175.96  1178.87  1179.13
eigval :     1179.66  1179.94  1180.72  1183.31  1187.17  1198.60
eigval :     1199.74  1205.21  1208.76  1217.25  1221.84  1230.96
eigval :     1234.26  1237.84  1245.44  1249.52  1256.39  1272.40
eigval :     1272.50  1276.28  1285.70  1293.36  1299.85  1304.59
eigval :     1306.93  1309.56  1317.50  1320.23  1326.96  1334.22
eigval :     1343.27  1345.39  1346.41  1350.68  1352.31  1353.95
eigval :     1354.94  1362.27  1368.97  1387.91  1392.43  1396.50
eigval :     1400.28  1402.41  1410.85  1411.89  1416.24  1419.25
eigval :     1427.93  1434.26  1435.07  1437.14  1441.76  1451.40
eigval :     1457.30  1458.28  1473.87  1475.18  1478.16  1480.57
eigval :     1482.13  1482.55  1484.78  1490.31  1546.34  1558.08
eigval :     1560.14  1563.11  1564.79  1574.80  1576.42  1581.50
eigval :     1584.06  1586.57  1587.63  1589.52  1593.17  1593.77
eigval :     1595.96  1596.79  1600.79  1607.23  1621.32  3073.59
eigval :     3077.91  3078.52  3078.60  3078.72  3078.91  3079.85
eigval :     3080.68  3081.72  3083.74  3084.21  3084.70  3085.24
eigval :     3087.10  3087.87  3088.04  3089.13  3090.34  3091.23
eigval :     3093.26  3093.50  3094.05  3094.51  3094.95  3095.14
eigval :     3096.64  3097.02  3097.09  3099.74  3100.17  3101.06
eigval :     3101.64  3102.11  3102.23  3106.44  3115.24  3133.88
 reduced masses (amu)
   1: 11.97   2: 12.05   3: 12.81   4: 12.13   5: 12.29   6: 11.79   7: 12.48   8: 11.82
   9: 11.70  10: 11.16  11: 11.25  12: 11.46  13: 10.83  14: 15.64  15: 12.23  16: 15.00
  17: 11.21  18: 10.97  19: 11.54  20: 10.91  21: 10.83  22: 10.94  23: 10.92  24: 11.11
  25: 10.77  26: 11.75  27: 12.26  28: 10.99  29: 11.49  30: 11.23  31: 10.77  32: 11.04
  33: 10.97  34: 10.87  35: 10.77  36: 10.91  37: 14.28  38: 12.06  39: 11.61  40: 11.02
  41: 11.12  42: 11.32  43: 10.96  44: 12.94  45: 11.42  46: 15.18  47: 11.29  48: 11.27
  49: 11.46  50: 11.22  51: 11.04  52: 11.27  53: 11.73  54: 10.56  55: 11.36  56: 11.67
  57: 11.64  58: 10.23  59: 11.51  60:  9.55  61: 10.72  62: 11.38  63: 10.29  64: 10.69
  65: 12.71  66: 12.80  67: 10.38  68: 10.36  69: 10.98  70: 10.86  71: 11.12  72: 11.40
  73: 11.61  74: 11.23  75: 11.40  76: 11.64  77: 14.88  78: 12.13  79: 11.79  80: 10.54
  81: 10.96  82: 10.94  83: 11.69  84: 12.34  85: 12.22  86: 11.39  87: 12.02  88: 11.48
  89: 10.99  90: 11.11  91: 11.50  92: 11.53  93: 11.32  94: 11.24  95: 11.32  96: 11.55
  97: 11.33  98: 11.67  99: 11.55 100: 11.57 101: 11.48 102: 11.60 103: 11.58 104: 11.59
 105: 12.51 106: 11.47 107: 11.46 108: 13.96 109: 10.93 110: 11.54 111:  9.04 112: 11.25
 113: 10.85 114: 11.78 115: 11.48 116: 11.12 117: 11.88 118: 13.85 119: 11.74 120: 11.84
 121: 11.68 122: 11.69 123: 11.88 124:  7.28 125:  4.49 126:  4.05 127:  3.68 128:  7.50
 129:  4.72 130:  3.81 131:  3.71 132:  4.82 133:  4.01 134:  4.07 135: 11.30 136: 11.65
 137: 11.63 138: 11.75 139: 12.19 140:  6.64 141:  8.34 142:  3.60 143:  3.53 144:  3.45
 145:  3.42 146:  3.33 147: 10.25 148:  4.61 149:  3.59 150:  3.38 151:  3.30 152:  3.80
 153:  4.21 154:  4.00 155:  7.25 156:  4.19 157:  5.07 158:  3.80 159:  5.42 160:  4.34
 161:  3.20 162: 11.08 163:  3.23 164:  3.11 165:  3.15 166:  3.04 167:  3.93 168:  2.93
 169:  3.16 170:  3.80 171: 11.98 172: 11.04 173: 11.30 174: 11.00 175: 11.03 176: 11.05
 177: 11.29 178: 10.85 179:  5.65 180:  6.35 181:  6.00 182:  5.92 183:  9.20 184:  7.72
 185:  6.88 186:  9.05 187:  6.97 188:  8.71 189:  8.13 190:  4.46 191:  3.98 192:  6.84
 193:  7.13 194:  5.67 195:  3.79 196:  5.36 197:  4.10 198:  5.94 199:  4.55 200:  3.09
 201:  2.69 202:  2.42 203:  2.21 204:  1.41 205:  2.46 206:  2.41 207:  2.77 208:  3.96
 209:  3.09 210:  6.99 211:  5.06 212:  7.17 213:  8.68 214:  7.92 215:  6.26 216:  6.11
 217:  6.36 218:  7.87 219:  6.92 220:  6.43 221:  7.62 222:  3.73 223:  4.05 224:  7.02
 225:  6.32 226: 10.59 227:  8.64 228:  8.93 229: 10.12 230:  9.56 231: 11.85 232: 10.80
 233: 11.91 234: 10.86 235: 11.77 236: 11.57 237: 11.50 238: 10.73 239: 11.32 240: 11.16
 241: 11.44 242: 10.93 243: 10.56 244: 10.38 245: 11.03 246: 10.62 247: 11.08 248: 11.25
 249:  9.30 250:  9.80 251:  9.98 252:  9.92 253: 10.07 254:  9.24 255:  9.11 256: 11.55
 257: 10.59 258: 11.41 259: 10.85 260: 10.90 261: 10.33 262: 10.25 263: 10.42 264: 10.45
 265: 10.31 266: 10.60 267: 10.90 268: 11.72 269: 11.46 270: 11.54 271: 11.63 272: 11.65
 273: 11.71 274: 11.60 275: 11.61 276: 11.53 277: 11.54 278: 11.63 279: 11.69 280: 11.70
 281: 11.65 282: 11.53 283: 11.52 284: 11.63 285: 11.68 286: 11.73 287: 11.90 288:  1.75
 289:  1.75 290:  1.76 291:  1.76 292:  1.76 293:  1.79 294:  1.75 295:  1.76 296:  1.79
 297:  1.82 298:  1.81 299:  1.82 300:  1.82 301:  1.81 302:  1.84 303:  1.80 304:  1.81
 305:  1.82 306:  1.81 307:  1.88 308:  1.86 309:  1.87 310:  1.81 311:  1.87 312:  1.89
 313:  1.89 314:  1.89 315:  1.88 316:  1.92 317:  1.88 318:  1.88 319:  1.88 320:  1.88
 321:  1.88 322:  1.88 323:  1.85 324:  1.84
 IR intensities (km·mol⁻¹)
   1:  0.30   2:  0.08   3:  0.48   4:  0.61   5:  1.44   6:  0.11   7:  1.70   8:  0.86
   9:  0.15  10:  0.19  11:  0.54  12:  5.86  13:  1.96  14:  0.05  15:  0.58  16:  0.24
  17:  0.37  18:  0.31  19:  0.57  20:  2.42  21:  1.15  22:  0.13  23:  1.31  24:  0.21
  25:  0.07  26:  0.44  27:  5.79  28:  1.25  29: 11.16  30:  0.56  31:  1.77  32:  0.68
  33:  5.43  34:  0.13  35:  5.02  36:  5.01  37:  3.76  38:  1.18  39:  0.52  40:  0.41
  41:  0.77  42:  1.72  43:  0.32  44:  0.11  45:  2.02  46: 14.88  47:  1.34  48:  4.00
  49:  0.87  50:  4.25  51:  0.90  52:  0.62  53:  2.55  54:  4.23  55: 18.73  56:  1.49
  57: 16.44  58:  5.32  59:  9.87  60:  2.44  61:  1.15  62:  3.49  63:  1.92  64:  4.03
  65:  4.34  66:  0.29  67:  3.82  68:  1.11  69:  7.94  70:  8.95  71: 18.63  72:  1.04
  73:  1.06  74:  0.84  75:  5.32  76:  0.26  77:  1.90  78:  1.16  79:  7.86  80:  0.06
  81: 17.38  82:  8.97  83:  2.39  84:  6.22  85:  7.31  86:  7.99  87:  0.84  88:  6.15
  89:  5.83  90: 10.86  91:  5.36  92:  5.30  93:  5.61  94:  0.91  95:  1.12  96:  5.09
  97:  0.95  98:  3.76  99:  0.47 100:  2.68 101:  1.01 102: 13.88 103: 23.97 104:  0.65
 105: 20.86 106:  0.15 107: 19.87 108:104.66 109:  5.59 110:  9.14 111:  9.95 112:  3.92
 113:  9.38 114:  5.70 115:  5.47 116:  7.79 117:  5.36 118: 12.11 119:  6.20 120:  1.52
 121:  0.98 122: 12.16 123:  4.32 124: 22.84 125: 40.13 126: 15.74 127: 19.68 128: 16.03
 129: 11.89 130: 16.89 131: 35.09 132: 17.75 133: 11.86 134:  7.79 135: 19.87 136:  6.87
 137:161.08 138: 64.51 139:  5.44 140:  4.51 141:  7.30 142:  1.47 143:  0.26 144:  1.28
 145:  0.25 146:  1.30 147:  4.20 148:  3.28 149:  4.99 150:  0.10 151:  0.48 152:  0.25
 153:  0.20 154:  0.44 155:  5.49 156:  2.70 157:  5.59 158:  0.74 159:  2.79 160:  2.26
 161:  0.50 162:  5.28 163:  0.74 164:  0.30 165:  0.05 166:  0.60 167:  1.80 168:  0.37
 169:  0.41 170:  6.70 171: 76.37 172:  5.70 173: 33.43 174: 38.07 175: 15.78 176: 10.27
 177: 18.68 178:162.99 179:  1.99 180: 24.45 181: 12.20 182: 15.91 183: 11.98 184:  2.64
 185:  5.41 186: 11.93 187: 24.03 188:  8.88 189:  0.17 190:  8.18 191:  4.21 192: 10.97
 193: 47.55 194: 10.35 195: 12.92 196: 31.97 197: 60.72 198: 43.38 199: 25.76 200: 30.82
 201: 55.83 202: 34.36 203:  9.24 204:  0.55 205: 18.94 206:  1.30 207: 56.99 208: 25.37
 209: 49.73 210: 37.69 211: 33.54 212:181.57 213: 17.35 214: 86.39 215: 88.88 216:  5.72
 217: 18.83 218:158.27 219:125.70 220: 31.45 221: 26.27 222: 14.74 223:  4.45 224: 51.26
 225: 63.17 226: 50.80 227: 12.27 228: 78.10 229: 38.11 230: 74.70 231:  0.37 232: 31.36
 233:  4.04 234: 36.17 235: 90.37 236: 35.32 237: 51.03 238:428.63 239: 50.93 240:  5.87
 241: 13.78 242: 64.38 243: 23.44 244:133.04 245: 89.80 246:261.81 247: 40.50 248: 68.43
 249: 32.46 250: 24.46 251: 14.28 252: 48.96 253: 80.24 254: 15.57 255:  7.06 256:219.98
 257: 75.23 258:335.59 259: 60.86 260: 28.31 261: 11.26 262: 42.78 263: 12.12 264:  8.15
 265:138.40 266: 17.99 267:183.62 268: 49.76 269:  5.14 270:136.40 271:283.80 272:112.13
 273: 74.66 274: 54.58 275: 54.20 276: 13.08 277:  0.02 278: 59.01 279: 33.07 280: 60.37
 281:  2.42 282:181.75 283:  0.24 284: 20.51 285: 67.86 286:  5.68 287: 12.21 288:  4.82
 289: 15.01 290:  0.96 291:  7.95 292:  7.78 293: 27.55 294: 25.14 295:  3.93 296:  6.18
 297: 33.69 298:  5.28 299: 53.52 300: 14.22 301: 30.23 302: 70.01 303:  7.45 304: 16.70
 305:  9.11 306: 53.51 307: 39.10 308: 76.17 309: 30.16 310: 19.25 311:  6.11 312: 77.12
 313: 79.81 314:  6.24 315: 80.63 316: 65.16 317: 19.98 318: 49.67 319: 38.89 320: 56.36
 321: 34.21 322: 69.73 323: 24.78 324: 10.03
 Raman intensities (Ä⁴*amu⁻¹)
   1:  0.00   2:  0.00   3:  0.00   4:  0.00   5:  0.00   6:  0.00   7:  0.00   8:  0.00
   9:  0.00  10:  0.00  11:  0.00  12:  0.00  13:  0.00  14:  0.00  15:  0.00  16:  0.00
  17:  0.00  18:  0.00  19:  0.00  20:  0.00  21:  0.00  22:  0.00  23:  0.00  24:  0.00
  25:  0.00  26:  0.00  27:  0.00  28:  0.00  29:  0.00  30:  0.00  31:  0.00  32:  0.00
  33:  0.00  34:  0.00  35:  0.00  36:  0.00  37:  0.00  38:  0.00  39:  0.00  40:  0.00
  41:  0.00  42:  0.00  43:  0.00  44:  0.00  45:  0.00  46:  0.00  47:  0.00  48:  0.00
  49:  0.00  50:  0.00  51:  0.00  52:  0.00  53:  0.00  54:  0.00  55:  0.00  56:  0.00
  57:  0.00  58:  0.00  59:  0.00  60:  0.00  61:  0.00  62:  0.00  63:  0.00  64:  0.00
  65:  0.00  66:  0.00  67:  0.00  68:  0.00  69:  0.00  70:  0.00  71:  0.00  72:  0.00
  73:  0.00  74:  0.00  75:  0.00  76:  0.00  77:  0.00  78:  0.00  79:  0.00  80:  0.00
  81:  0.00  82:  0.00  83:  0.00  84:  0.00  85:  0.00  86:  0.00  87:  0.00  88:  0.00
  89:  0.00  90:  0.00  91:  0.00  92:  0.00  93:  0.00  94:  0.00  95:  0.00  96:  0.00
  97:  0.00  98:  0.00  99:  0.00 100:  0.00 101:  0.00 102:  0.00 103:  0.00 104:  0.00
 105:  0.00 106:  0.00 107:  0.00 108:  0.00 109:  0.00 110:  0.00 111:  0.00 112:  0.00
 113:  0.00 114:  0.00 115:  0.00 116:  0.00 117:  0.00 118:  0.00 119:  0.00 120:  0.00
 121:  0.00 122:  0.00 123:  0.00 124:  0.00 125:  0.00 126:  0.00 127:  0.00 128:  0.00
 129:  0.00 130:  0.00 131:  0.00 132:  0.00 133:  0.00 134:  0.00 135:  0.00 136:  0.00
 137:  0.00 138:  0.00 139:  0.00 140:  0.00 141:  0.00 142:  0.00 143:  0.00 144:  0.00
 145:  0.00 146:  0.00 147:  0.00 148:  0.00 149:  0.00 150:  0.00 151:  0.00 152:  0.00
 153:  0.00 154:  0.00 155:  0.00 156:  0.00 157:  0.00 158:  0.00 159:  0.00 160:  0.00
 161:  0.00 162:  0.00 163:  0.00 164:  0.00 165:  0.00 166:  0.00 167:  0.00 168:  0.00
 169:  0.00 170:  0.00 171:  0.00 172:  0.00 173:  0.00 174:  0.00 175:  0.00 176:  0.00
 177:  0.00 178:  0.00 179:  0.00 180:  0.00 181:  0.00 182:  0.00 183:  0.00 184:  0.00
 185:  0.00 186:  0.00 187:  0.00 188:  0.00 189:  0.00 190:  0.00 191:  0.00 192:  0.00
 193:  0.00 194:  0.00 195:  0.00 196:  0.00 197:  0.00 198:  0.00 199:  0.00 200:  0.00
 201:  0.00 202:  0.00 203:  0.00 204:  0.00 205:  0.00 206:  0.00 207:  0.00 208:  0.00
 209:  0.00 210:  0.00 211:  0.00 212:  0.00 213:  0.00 214:  0.00 215:  0.00 216:  0.00
 217:  0.00 218:  0.00 219:  0.00 220:  0.00 221:  0.00 222:  0.00 223:  0.00 224:  0.00
 225:  0.00 226:  0.00 227:  0.00 228:  0.00 229:  0.00 230:  0.00 231:  0.00 232:  0.00
 233:  0.00 234:  0.00 235:  0.00 236:  0.00 237:  0.00 238:  0.00 239:  0.00 240:  0.00
 241:  0.00 242:  0.00 243:  0.00 244:  0.00 245:  0.00 246:  0.00 247:  0.00 248:  0.00
 249:  0.00 250:  0.00 251:  0.00 252:  0.00 253:  0.00 254:  0.00 255:  0.00 256:  0.00
 257:  0.00 258:  0.00 259:  0.00 260:  0.00 261:  0.00 262:  0.00 263:  0.00 264:  0.00
 265:  0.00 266:  0.00 267:  0.00 268:  0.00 269:  0.00 270:  0.00 271:  0.00 272:  0.00
 273:  0.00 274:  0.00 275:  0.00 276:  0.00 277:  0.00 278:  0.00 279:  0.00 280:  0.00
 281:  0.00 282:  0.00 283:  0.00 284:  0.00 285:  0.00 286:  0.00 287:  0.00 288:  0.00
 289:  0.00 290:  0.00 291:  0.00 292:  0.00 293:  0.00 294:  0.00 295:  0.00 296:  0.00
 297:  0.00 298:  0.00 299:  0.00 300:  0.00 301:  0.00 302:  0.00 303:  0.00 304:  0.00
 305:  0.00 306:  0.00 307:  0.00 308:  0.00 309:  0.00 310:  0.00 311:  0.00 312:  0.00
 313:  0.00 314:  0.00 315:  0.00 316:  0.00 317:  0.00 318:  0.00 319:  0.00 320:  0.00
 321:  0.00 322:  0.00 323:  0.00 324:  0.00
 output can be read by thermo (or use thermo option).
 writing <g98.out> molden fake output.
 recommended (thermochemical) frequency scaling factor: 1.0
           -------------------------------------------------
          |             Thermodynamic Functions             |
           -------------------------------------------------

Molecule has no symmetry elements
It seems to be the C1 point group
c1  symmetry found (for desy threshold:  0.10E+00) used in thermo

          ...................................................
          :                      SETUP                      :
          :.................................................:
          :  # frequencies                         318      :
          :  # imaginary freq.                       0      :
          :  linear?                             false      :
          :  only rotor calc.                    false      :
          :  symmetry                               c1      :
          :  rotational number                       1      :
          :  scaling factor                  1.0000000      :
          :  rotor cutoff                   50.0000000 cm⁻¹ :
          :  imag. cutoff                  -20.0000000 cm⁻¹ :
          :.................................................:

    mode    ω/cm⁻¹     T·S(HO)/kcal·mol⁻¹    T·S(FR)/kcal·mol⁻¹   T·S(vib)
   ------------------------------------------------------------------------
       1      5.78    -2.71310 (  0.02%)    -1.69562 ( 99.98%)    -1.69580
       2      9.14    -2.44169 (  0.11%)    -1.55991 ( 99.89%)    -1.56090
       3      9.84    -2.39785 (  0.15%)    -1.53799 ( 99.85%)    -1.53928
       4     17.03    -2.07334 (  1.33%)    -1.37569 ( 98.67%)    -1.38494
       5     21.63    -1.93164 (  3.38%)    -1.30479 ( 96.62%)    -1.32600
       6     30.82    -1.72211 ( 12.61%)    -1.19989 ( 87.39%)    -1.26576
       7     34.84    -1.64966 ( 19.07%)    -1.16359 ( 80.93%)    -1.25629
       8     37.94    -1.59923 ( 24.90%)    -1.13831 ( 75.10%)    -1.25307
       9     41.13    -1.55156 ( 31.40%)    -1.11441 ( 68.60%)    -1.25169
      10     45.39    -1.49336 ( 40.45%)    -1.08520 ( 59.55%)    -1.25028
      11     54.18    -1.38903 ( 57.95%)    -1.03279 ( 42.05%)    -1.23924
      12     58.03    -1.34857 ( 64.47%)    -1.01243 ( 35.53%)    -1.22913
      13     63.39    -1.29657 ( 72.10%)    -0.98625 ( 27.90%)    -1.20998
      14     66.75    -1.26626 ( 76.05%)    -0.97097 ( 23.95%)    -1.19554
      15     70.01    -1.23827 ( 79.35%)    -0.95685 ( 20.65%)    -1.18016
      16     72.14    -1.22067 ( 81.25%)    -0.94796 ( 18.75%)    -1.16953
      17     74.03    -1.20547 ( 82.78%)    -0.94028 ( 17.22%)    -1.15979
      18     86.82    -1.11227 ( 90.09%)    -0.89309 (  9.91%)    -1.09054
      19     89.89    -1.09193 ( 91.27%)    -0.88277 (  8.73%)    -1.07366
      20     95.25    -1.05820 ( 92.94%)    -0.86562 (  7.06%)    -1.04461
      21    105.17    -1.00066 ( 95.14%)    -0.83629 (  4.86%)    -0.99267
      22    115.44    -0.94674 ( 96.60%)    -0.80869 (  3.40%)    -0.94205
      23    125.07    -0.90058 ( 97.51%)    -0.78495 (  2.49%)    -0.89770
      24    128.37    -0.88561 ( 97.75%)    -0.77723 (  2.25%)    -0.88317
      25    137.93    -0.84446 ( 98.30%)    -0.75594 (  1.70%)    -0.84296
      26    138.58    -0.84178 ( 98.33%)    -0.75455 (  1.67%)    -0.84033
      27    148.72    -0.80159 ( 98.74%)    -0.73363 (  1.26%)    -0.80073
      28    159.03    -0.76367 ( 99.03%)    -0.71378 (  0.97%)    -0.76318
      29    163.45    -0.74821 ( 99.13%)    -0.70566 (  0.87%)    -0.74784
      30    170.88    -0.72324 ( 99.27%)    -0.69248 (  0.73%)    -0.72302
      31    176.95    -0.70374 ( 99.37%)    -0.68215 (  0.63%)    -0.70360
      32    194.57    -0.65112 ( 99.57%)    -0.65403 (  0.43%)    -0.65113
      33    209.15    -0.61152 ( 99.67%)    -0.63262 (  0.33%)    -0.61159
      34    216.40    -0.59301 ( 99.72%)    -0.62252 (  0.28%)    -0.59310
      35    220.84    -0.58205 ( 99.74%)    -0.61651 (  0.26%)    -0.58214
      36    229.94    -0.56035 ( 99.78%)    -0.60455 (  0.22%)    -0.56045
      37    234.89    -0.54897 ( 99.80%)    -0.59824 (  0.20%)    -0.54907
      38    239.38    -0.53890 ( 99.81%)    -0.59263 (  0.19%)    -0.53900
      39    240.54    -0.53633 ( 99.81%)    -0.59119 (  0.19%)    -0.53643
      40    249.44    -0.51716 ( 99.84%)    -0.58043 (  0.16%)    -0.51726
      41    261.39    -0.49268 ( 99.87%)    -0.56657 (  0.13%)    -0.49278
      42    263.25    -0.48900 ( 99.87%)    -0.56447 (  0.13%)    -0.48910
      43    272.16    -0.47180 ( 99.89%)    -0.55461 (  0.11%)    -0.47190
      44    288.34    -0.44236 ( 99.91%)    -0.53750 (  0.09%)    -0.44244
      45    295.92    -0.42930 ( 99.92%)    -0.52982 (  0.08%)    -0.42939
   ------------------------------------------------------------------------

   temp. (K)  partition function   enthalpy   heat capacity  entropy
                                   cal/mol     cal/K/mol   cal/K/mol   J/K/mol
 298.15  VIB  0.531E+25            31973.537    205.009    198.761
         ROT  0.208E+09              888.752      2.981     41.046
         INT  0.111E+34            32862.289    207.990    239.807
         TR   0.272E+29             1481.254      4.968     46.325
         TOT                       34343.5429   212.9579   286.1324  1197.1782

       T/K    H(0)-H(T)+PV         H(T)/Eh          T*S/Eh         G(T)/Eh
   ------------------------------------------------------------------------
    298.15    0.547299E-01    0.857598E+00    0.135951E+00    0.721647E+00
   ------------------------------------------------------------------------

         :::::::::::::::::::::::::::::::::::::::::::::::::::::
         ::                  THERMODYNAMIC                  ::
         :::::::::::::::::::::::::::::::::::::::::::::::::::::
         :: total free energy        -177.249955272138 Eh   ::
         ::.................................................::
         :: total energy             -177.971602134503 Eh   ::
         :: zero point energy           0.802867702472 Eh   ::
         :: G(RRHO) w/o ZPVE           -0.081220840107 Eh   ::
         :: G(RRHO) contrib.            0.721646862365 Eh   ::
         :::::::::::::::::::::::::::::::::::::::::::::::::::::

optimized geometry written to: xtbopt.xyz


           -------------------------------------------------
          | TOTAL ENERGY             -177.971602134503 Eh   |
          | TOTAL ENTHALPY           -177.114004512736 Eh   |
          | TOTAL FREE ENERGY        -177.249955272138 Eh   |
          | GRADIENT NORM               0.000088087749 Eh/α |
           -------------------------------------------------

------------------------------------------------------------------------
 * finished run on 2025/09/13 at 06:30:11.379     
------------------------------------------------------------------------
 total:
 * wall-time:     0 d,  0 h,  0 min, 34.484 sec
 *  cpu-time:     0 d,  0 h, 21 min, 18.771 sec
 * ratio c/w:    37.083 speedup
 SCF:
 * wall-time:     0 d,  0 h,  0 min,  0.532 sec
 *  cpu-time:     0 d,  0 h,  0 min, 21.141 sec
 * ratio c/w:    39.775 speedup
 ANC optimizer:
 * wall-time:     0 d,  0 h,  0 min, 17.654 sec
 *  cpu-time:     0 d,  0 h, 11 min, 46.038 sec
 * ratio c/w:    39.994 speedup
 analytical hessian:
 * wall-time:     0 d,  0 h,  0 min, 16.222 sec
 *  cpu-time:     0 d,  0 h,  9 min,  9.909 sec
 * ratio c/w:    33.899 speedup

