      -----------------------------------------------------------      
     |                   =====================                   |     
     |                           x T B                           |     
     |                   =====================                   |     
     |                         S. Grimme                         |     
     |          Mulliken Center for Theoretical Chemistry        |     
     |                    University of Bonn                     |     
      -----------------------------------------------------------      

   * xtb version 6.7.1 (edcfbbe) compiled by 'albert@albert-system' on 2024-07-22

   xtb is free software: you can redistribute it and/or modify it under
   the terms of the GNU Lesser General Public License as published by
   the Free Software Foundation, either version 3 of the License, or
   (at your option) any later version.
   
   xtb is distributed in the hope that it will be useful,
   but WITHOUT ANY WARRANTY; without even the implied warranty of
   MERCHANTABILITY or FITNESS FOR A PARTICULAR PURPOSE.  See the
   GNU Lesser General Public License for more details.
   
   Cite this work as:
   * C. Bannwarth, E. Caldeweyher, S. Ehlert, A. Hansen, P. Pracht,
     J. Seibert, S. Spicher, S. Grimme, WIREs Comput. Mol. Sci., 2020, 11,
     e01493. DOI: 10.1002/wcms.1493
   
   for GFN2-xTB:
   * C. Bannwarth, S. Ehlert and S. Grimme., J. Chem. Theory Comput., 2019,
     15, 1652-1671. DOI: 10.1021/acs.jctc.8b01176
   for GFN1-xTB:
   * S. Grimme, C. Bannwarth, P. Shushkov, J. Chem. Theory Comput., 2017,
     13, 1989-2009. DOI: 10.1021/acs.jctc.7b00118
   for GFN0-xTB:
   * P. Pracht, E. Caldeweyher, S. Ehlert, S. Grimme, ChemRxiv, 2019, preprint.
     DOI: 10.26434/chemrxiv.8326202.v1
   for GFN-FF:
   * S. Spicher and S. Grimme, Angew. Chem. Int. Ed., 2020, 59, 15665-15673.
     DOI: 10.1002/anie.202004239
   
   for ALPB and GBSA implicit solvation:
   * S. Ehlert, M. Stahn, S. Spicher, S. Grimme, J. Chem. Theory Comput.,
     2021, 17, 4250-4261. DOI: 10.1021/acs.jctc.1c00471
   
   for ddCOSMO and CPCM-X implicit solvation:
   * M. Stahn, S. Ehlert, S. Grimme, J. Phys. Chem. A,
     2023, XX, XXXX-XXXX. DOI: 10.1021/acs.jpca.3c04382
   
   for DFT-D4:
   * E. Caldeweyher, C. Bannwarth and S. Grimme, J. Chem. Phys., 2017,
     147, 034112. DOI: 10.1063/1.4993215
   * E. Caldeweyher, S. Ehlert, A. Hansen, H. Neugebauer, S. Spicher,
     C. Bannwarth and S. Grimme, J. Chem. Phys., 2019, 150, 154122.
     DOI: 10.1063/1.5090222
   * E. Caldeweyher, J.-M. Mewes, S. Ehlert and S. Grimme, Phys. Chem. Chem. Phys.
     2020, 22, 8499-8512. DOI: 10.1039/D0CP00502A
   
   for sTDA-xTB:
   * S. Grimme and C. Bannwarth, J. Chem. Phys., 2016, 145, 054103.
     DOI: 10.1063/1.4959605
   
   in the mass-spec context:
   * V. Asgeirsson, C. Bauer and S. Grimme, Chem. Sci., 2017, 8, 4879.
     DOI: 10.1039/c7sc00601b
   * J. Koopman and S. Grimme, ACS Omega 2019, 4, 12, 15120-15133.
     DOI: 10.1021/acsomega.9b02011
   
   for metadynamics refer to:
   * S. Grimme, J. Chem. Theory Comput., 2019, 155, 2847-2862
     DOI: 10.1021/acs.jctc.9b00143
   
   for SPH calculations refer to:
   * S. Spicher and S. Grimme, J. Chem. Theory Comput., 2021, 17, 1701-1714
     DOI: 10.1021/acs.jctc.0c01306
   
   for ONIOM refer to:
   * C. Plett, A. Katbashev, S. Ehlert, S. Grimme, M. Bursch,
     Phys. Chem. Chem. Phys., 2023, 25, 17860-17868. DOI: 10.1039/D3CP02178E
   
   for DIPRO refer to:
   * J. Kohn, N. Gildemeister, S. Grimme, D. Fazzi, A. Hansen,
     J. Chem. Phys., 2023, just accepted.
   
   for PTB refer to:
   * S. Grimme, M. Mueller, A. Hansen, J. Chem. Phys., 2023, 158, 124111.
     DOI: 10.1063/5.0137838
   
   with help from (in alphabetical order)
   P. Atkinson, C. Bannwarth, F. Bohle, G. Brandenburg, E. Caldeweyher
   M. Checinski, S. Dohm, S. Ehlert, S. Ehrlich, I. Gerasimov, C. Hölzer
   A. Katbashev, J. Kohn, J. Koopman, C. Lavigne, S. Lehtola, F. März, M. Müller,
   F. Musil, H. Neugebauer, J. Pisarek, C. Plett, P. Pracht, F. Pultar,
   J. Seibert, P. Shushkov, S. Spicher, M. Stahn, M. Steiner, T. Strunk,
   J. Stückrath, T. Rose, and J. Unsleber
   
 * started run on 2025/09/13 at 06:44:23.217     
   ID    Z sym.   atoms
    1    6 C      1-5, 7-11, 13-29, 31-39, 41-48, 50-60, 62-68, 70, 71
    2    7 N      6, 12, 30, 40, 69
    3    8 O      49
    4   16 S      61
    5    1 H      72-108

           -------------------------------------------------
          |                Calculation Setup                |
           -------------------------------------------------

          program call               : xtb data2507/gas/BTPBFCz-D3/BTPBFCz-D3_gas_T1_crest.xyz --gfn 2 --spinpol --tblite --uhf 2 --ohess vtight --parallel 40 --molden --ceasefiles --namespace data2507/gas/BTPBFCz-D3/BTPBFCz-D3_gas_T1_finalOpt
          calculation namespace      : data2507/gas/BTPBFCz-D3/BTPBFCz-D3_gas_T1_finalOpt
          coordinate file            : data2507/gas/BTPBFCz-D3/BTPBFCz-D3_gas_T1_crest.xyz
          omp threads                :                    40

repulsion energy          3.2210690916945E+00 Eh
dispersion energy         3.3820152178785E-03 Eh
interaction energy        0.0000000000000E+00 Eh
number of electrons       3.3000000000000E+02 e
integral cutoff           1.8403572253217E+01 bohr

------------------------------------------------------------
  cycle        total energy    energy error   density error
------------------------------------------------------------
      1     -177.6978497161  -1.8092230E+02   9.9633202E-02
      2     -177.6899961802   7.8535360E-03   5.8934290E-02
      3     -176.7007777915   9.8921839E-01   5.1341006E-02
      4     -177.4136543613  -7.1287657E-01   3.1611226E-02
      5     -177.9122219048  -4.9856754E-01   1.9862113E-02
      6     -177.9612583336  -4.9036429E-02   1.2500653E-02
      7     -177.9667613907  -5.5030572E-03   1.0594652E-02
      8     -177.9653098832   1.4515075E-03   9.1516540E-03
      9     -177.9669729553  -1.6630720E-03   5.6849330E-03
     10     -177.9689186571  -1.9457019E-03   3.6044275E-03
     11     -177.9709502598  -2.0316027E-03   1.9738082E-03
     12     -177.9715791989  -6.2893907E-04   1.0736201E-03
     13     -177.9714468496   1.3234925E-04   1.0335608E-03
     14     -177.9716579712  -2.1112157E-04   3.3880294E-04
     15     -177.9716829693  -2.4998106E-05   1.6152411E-04
     16     -177.9716860897  -3.1204409E-06   1.1161422E-04
     17     -177.9716877811  -1.6914165E-06   4.4653949E-05
     18     -177.9716879004  -1.1926011E-07   2.9980920E-05
     19     -177.9716879528  -5.2378994E-08   1.9670118E-05
------------------------------------------------------------

electronic energy        -1.8119613905970E+02 Eh
total energy             -1.7797168795279E+02 Eh

 total:                                   0.630 sec
 - repulsion                              0.001 sec (  0%)
 - dispersion                             0.025 sec (  4%)
 - coulomb                                0.010 sec (  1%)
 - hamiltonian                            0.024 sec (  3%)
 - scc                                    0.569 sec ( 90%)

      ----------------------------------------------------------- 
     |                   =====================                   |
     |                        A N C O P T                        |
     |                   =====================                   |
     |               Approximate Normal Coordinate               |
     |                Rational Function Optimizer                |
      ----------------------------------------------------------- 

Optimization log is written to '/dev/null'
      ----------------------------------------------------------- 
     |                   =====================                   |
     |                        A N C O P T                        |
     |                   =====================                   |
     |               Approximate Normal Coordinate               |
     |                Rational Function Optimizer                |
      ----------------------------------------------------------- 

          ...................................................
          :                      SETUP                      :
          :.................................................:
          :   optimization level         verytight          :
          :   max. optcycles                  2160          :
          :   ANC micro-cycles                  20          :
          :   degrees of freedom               318          :
          :.................................................:
          :   RF solver                   davidson          :
          :   write xtbopt.log                true          :
          :   linear?                        false          :
          :   energy convergence         0.1000000E-06 Eh   :
          :   grad. convergence          0.2000000E-03 Eh/α :
          :   maxmium RF displ.          1.0000000          :
          :   Hlow (freq-cutoff)         0.1000000E-01      :
          :   Hmax (freq-cutoff)         5.0000000          :
          :   S6 in model hess.         20.0000000          :
          ...................................................

generating ANC from exact Hessian ...
Using Lindh-Hessian (1995)
 Shifting diagonal of input Hessian by   9.957601728935917E-003
 Lowest  eigenvalues of input Hessian
    0.000000    0.000000    0.000000    0.000000    0.000000    0.000000
    0.010000    0.010027    0.010084    0.010120    0.010315    0.010542
    0.010619    0.010766    0.010819    0.011261    0.011307    0.011371
 Highest eigenvalues
    2.192105    2.202096    2.207566    2.224229    2.234820    2.251879
 

........................................................................
.............................. CYCLE    1 ..............................
........................................................................
------------------------------------------------------------
  cycle        total energy    energy error   density error
------------------------------------------------------------
      1     -177.9716610007  -1.8119611E+02   2.7521240E-04
      2     -177.9706828175   9.7818315E-04   1.7301625E-03
      3     -177.9716841938  -1.0013762E-03   9.6723198E-05
      4     -177.9716879164  -3.7225969E-06   1.9302136E-05
      5     -177.9716880299  -1.1346378E-07   6.3762617E-06
------------------------------------------------------------

 total:                                   0.185 sec
 * total energy  :  -177.9716880 Eh     change       -0.7706601E-07 Eh
   gradient norm :     0.0083905 Eh/α   predicted     0.0000000E+00 (-100.00%)
   displ. norm   :     0.0214626 α      lambda       -0.7497955E-04
   maximum displ.:     0.0082283 α      in ANC's #55, #29, #47, ...

........................................................................
.............................. CYCLE    2 ..............................
........................................................................
------------------------------------------------------------
  cycle        total energy    energy error   density error
------------------------------------------------------------
      1     -177.9716581948  -1.8119686E+02   7.3607080E-04
      2     -177.9652950368   6.3631580E-03   4.2851109E-03
      3     -177.9713803816  -6.0853448E-03   1.0594539E-03
      4     -177.9716737004  -2.9331884E-04   5.4039287E-04
      5     -177.9717320248  -5.8324380E-05   2.5212364E-04
      6     -177.9717431685  -1.1143710E-05   1.5607097E-04
      7     -177.9717502350  -7.0665242E-06   4.8689263E-05
      8     -177.9717507357  -5.0067132E-07   1.9042695E-05
------------------------------------------------------------

 total:                                   0.280 sec
 * total energy  :  -177.9717507 Eh     change       -0.6270584E-04 Eh
   gradient norm :     0.0045156 Eh/α   predicted    -0.4144519E-04 ( -33.91%)
   displ. norm   :     0.0320817 α      lambda       -0.5457936E-04
   maximum displ.:     0.0107348 α      in ANC's #55, #29, #33, ...

........................................................................
.............................. CYCLE    3 ..............................
........................................................................
------------------------------------------------------------
  cycle        total energy    energy error   density error
------------------------------------------------------------
      1     -177.9716868854  -1.8119737E+02   7.8373014E-04
      2     -177.9653428172   6.3440682E-03   4.2825059E-03
      3     -177.9713183238  -5.9755066E-03   1.1918921E-03
      4     -177.9717062890  -3.8796516E-04   5.4376615E-04
      5     -177.9717573378  -5.1048818E-05   2.6873368E-04
      6     -177.9717695415  -1.2203660E-05   1.8193860E-04
      7     -177.9717785467  -9.0052227E-06   6.6472850E-05
      8     -177.9717796122  -1.0654985E-06   2.2786263E-05
      9     -177.9717796645  -5.2289124E-08   1.3721402E-05
------------------------------------------------------------

 total:                                   0.297 sec
 * total energy  :  -177.9717797 Eh     change       -0.2892877E-04 Eh
   gradient norm :     0.0012855 Eh/α   predicted    -0.2741402E-04 (  -5.24%)
   displ. norm   :     0.0167026 α      lambda       -0.2470613E-05
   maximum displ.:     0.0071913 α      in ANC's #10, #3, #11, ...

........................................................................
.............................. CYCLE    4 ..............................
........................................................................
------------------------------------------------------------
  cycle        total energy    energy error   density error
------------------------------------------------------------
      1     -177.9717807683  -1.8119731E+02   1.0520473E-04
      2     -177.9717181698   6.2598524E-05   4.3927527E-04
      3     -177.9717813253  -6.3155487E-05   7.3272146E-05
      4     -177.9717813379  -1.2600481E-08   6.1624322E-05
      5     -177.9717821795  -8.4163938E-07   2.4257471E-05
      6     -177.9717823883  -2.0882140E-07   5.7404309E-06
------------------------------------------------------------

 total:                                   0.205 sec
 * total energy  :  -177.9717824 Eh     change       -0.2723873E-05 Eh
   gradient norm :     0.0005609 Eh/α   predicted    -0.1312645E-05 ( -51.81%)
   displ. norm   :     0.0265085 α      lambda       -0.2090215E-05
   maximum displ.:     0.0124314 α      in ANC's #10, #11, #3, ...

........................................................................
.............................. CYCLE    5 ..............................
........................................................................
------------------------------------------------------------
  cycle        total energy    energy error   density error
------------------------------------------------------------
      1     -177.9717841883  -1.8119720E+02   1.1145150E-04
      2     -177.9717775778   6.6105163E-06   1.5464423E-04
      3     -177.9717720597   5.5180182E-06   1.9887637E-04
      4     -177.9717820849  -1.0025111E-05   8.5908853E-05
      5     -177.9717844576  -2.3727376E-06   1.9041922E-05
      6     -177.9717845553  -9.7745328E-08   6.1715765E-06
------------------------------------------------------------

 total:                                   0.205 sec
 * total energy  :  -177.9717846 Eh     change       -0.2167005E-05 Eh
   gradient norm :     0.0006181 Eh/α   predicted    -0.1051616E-05 ( -51.47%)
   displ. norm   :     0.0374235 α      lambda       -0.1710675E-05
   maximum displ.:     0.0175688 α      in ANC's #10, #11, #3, ...

........................................................................
.............................. CYCLE    6 ..............................
........................................................................
------------------------------------------------------------
  cycle        total energy    energy error   density error
------------------------------------------------------------
      1     -177.9717867558  -1.8119724E+02   1.4513639E-04
      2     -177.9717835546   3.2011891E-06   1.2715380E-04
      3     -177.9717257363   5.7818297E-05   4.2438244E-04
      4     -177.9717850937  -5.9357459E-05   7.3938401E-05
      5     -177.9717868218  -1.7280480E-06   2.0049094E-05
      6     -177.9717869576  -1.3581709E-07   5.5218388E-06
------------------------------------------------------------

 total:                                   0.221 sec
 * total energy  :  -177.9717870 Eh     change       -0.2402250E-05 Eh
   gradient norm :     0.0008417 Eh/α   predicted    -0.8581548E-06 ( -64.28%)
   displ. norm   :     0.0545631 α      lambda       -0.2151919E-05
   maximum displ.:     0.0248322 α      in ANC's #10, #11, #3, ...

........................................................................
.............................. CYCLE    7 ..............................
........................................................................
------------------------------------------------------------
  cycle        total energy    energy error   density error
------------------------------------------------------------
      1     -177.9717881062  -1.8119731E+02   2.0909341E-04
      2     -177.9717403463   4.7759906E-05   4.0353718E-04
      3     -177.9717669323  -2.6586025E-05   2.7684402E-04
      4     -177.9717796786  -1.2746347E-05   1.5482430E-04
      5     -177.9717893236  -9.6449954E-06   1.1900239E-05
      6     -177.9717893432  -1.9555301E-08   7.0831921E-06
------------------------------------------------------------

 total:                                   0.200 sec
 * total energy  :  -177.9717893 Eh     change       -0.2385586E-05 Eh
   gradient norm :     0.0006646 Eh/α   predicted    -0.1078961E-05 ( -54.77%)
   displ. norm   :     0.0527022 α      lambda       -0.1587412E-05
   maximum displ.:     0.0235114 α      in ANC's #10, #3, #11, ...

........................................................................
.............................. CYCLE    8 ..............................
........................................................................
------------------------------------------------------------
  cycle        total energy    energy error   density error
------------------------------------------------------------
      1     -177.9717870613  -1.8119740E+02   2.1420027E-04
      2     -177.9716210324   1.6602884E-04   7.1906166E-04
      3     -177.9717877345  -1.6670208E-04   1.4227076E-04
      4     -177.9717888701  -1.1356231E-06   7.3719151E-05
      5     -177.9717908256  -1.9554867E-06   2.1906508E-05
      6     -177.9717909920  -1.6636000E-07   5.8870436E-06
------------------------------------------------------------

 total:                                   0.204 sec
 * total energy  :  -177.9717910 Eh     change       -0.1648803E-05 Eh
   gradient norm :     0.0002861 Eh/α   predicted    -0.7964327E-06 ( -51.70%)
   displ. norm   :     0.0338765 α      lambda       -0.8029521E-06
   maximum displ.:     0.0157791 α      in ANC's #3, #10, #5, ...

........................................................................
.............................. CYCLE    9 ..............................
........................................................................
------------------------------------------------------------
  cycle        total energy    energy error   density error
------------------------------------------------------------
      1     -177.9717908514  -1.8119746E+02   1.2626808E-04
      2     -177.9717533366   3.7514767E-05   3.4759227E-04
      3     -177.9717882702  -3.4933573E-05   1.1930620E-04
      4     -177.9717887469  -4.7673990E-07   9.3320741E-05
      5     -177.9717916829  -2.9360177E-06   2.1760522E-05
      6     -177.9717918679  -1.8492469E-07   3.9605144E-06
------------------------------------------------------------

 total:                                   0.199 sec
 * total energy  :  -177.9717919 Eh     change       -0.8758808E-06 Eh
   gradient norm :     0.0002287 Eh/α   predicted    -0.4021476E-06 ( -54.09%)
   displ. norm   :     0.0289716 α      lambda       -0.6899360E-06
   maximum displ.:     0.0148582 α      in ANC's #3, #5, #10, ...

........................................................................
.............................. CYCLE   10 ..............................
........................................................................
------------------------------------------------------------
  cycle        total energy    energy error   density error
------------------------------------------------------------
      1     -177.9717910342  -1.8119747E+02   1.1497370E-04
      2     -177.9717203857   7.0648464E-05   4.6263702E-04
      3     -177.9717921160  -7.1730256E-05   6.7401656E-05
      4     -177.9717908866   1.2293638E-06   6.6374389E-05
      5     -177.9717925855  -1.6988785E-06   1.5336337E-05
      6     -177.9717926638  -7.8263497E-08   3.4091514E-06
------------------------------------------------------------

 total:                                   0.199 sec
 * total energy  :  -177.9717927 Eh     change       -0.7959141E-06 Eh
   gradient norm :     0.0003272 Eh/α   predicted    -0.3472393E-06 ( -56.37%)
   displ. norm   :     0.0355178 α      lambda       -0.7815177E-06
   maximum displ.:     0.0188484 α      in ANC's #3, #5, #4, ...

........................................................................
.............................. CYCLE   11 ..............................
........................................................................
------------------------------------------------------------
  cycle        total energy    energy error   density error
------------------------------------------------------------
      1     -177.9717932779  -1.8119744E+02   1.1421143E-04
      2     -177.9717831601   1.0117811E-05   1.8528799E-04
      3     -177.9717845913  -1.4311846E-06   1.7435362E-04
      4     -177.9717926360  -8.0446792E-06   5.3184100E-05
      5     -177.9717935041  -8.6812418E-07   1.2921293E-05
------------------------------------------------------------

 total:                                   0.168 sec
 * total energy  :  -177.9717935 Eh     change       -0.8403436E-06 Eh
   gradient norm :     0.0003523 Eh/α   predicted    -0.3936620E-06 ( -53.15%)
   displ. norm   :     0.0392319 α      lambda       -0.7690126E-06
   maximum displ.:     0.0212798 α      in ANC's #3, #5, #4, ...

........................................................................
.............................. CYCLE   12 ..............................
........................................................................
------------------------------------------------------------
  cycle        total energy    energy error   density error
------------------------------------------------------------
      1     -177.9717863847  -1.8119736E+02   1.8678516E-04
      2     -177.9714118415   3.7454322E-04   1.0426647E-03
      3     -177.9717906547  -3.7881321E-04   1.2478726E-04
      4     -177.9717924431  -1.7884144E-06   8.7739164E-05
      5     -177.9717944424  -1.9992371E-06   8.9838765E-06
      6     -177.9717944587  -1.6396569E-08   4.4023864E-06
------------------------------------------------------------

 total:                                   0.189 sec
 * total energy  :  -177.9717945 Eh     change       -0.9546273E-06 Eh
   gradient norm :     0.0002625 Eh/α   predicted    -0.3889140E-06 ( -59.26%)
   displ. norm   :     0.0364120 α      lambda       -0.6828225E-06
   maximum displ.:     0.0204139 α      in ANC's #3, #5, #4, ...

........................................................................
.............................. CYCLE   13 ..............................
........................................................................
------------------------------------------------------------
  cycle        total energy    energy error   density error
------------------------------------------------------------
      1     -177.9717947997  -1.8119733E+02   1.1101670E-04
      2     -177.9717774122   1.7387476E-05   2.4043792E-04
      3     -177.9717893180  -1.1905801E-05   1.4270687E-04
      4     -177.9717941147  -4.7966444E-06   5.9447716E-05
      5     -177.9717952563  -1.1415717E-06   8.3020837E-06
      6     -177.9717952713  -1.5080815E-08   4.3299919E-06
------------------------------------------------------------

 total:                                   0.186 sec
 * total energy  :  -177.9717953 Eh     change       -0.8125931E-06 Eh
   gradient norm :     0.0001697 Eh/α   predicted    -0.3442630E-06 ( -57.63%)
   displ. norm   :     0.0345784 α      lambda       -0.6149597E-06
   maximum displ.:     0.0201042 α      in ANC's #3, #4, #2, ...

........................................................................
.............................. CYCLE   14 ..............................
........................................................................
------------------------------------------------------------
  cycle        total energy    energy error   density error
------------------------------------------------------------
      1     -177.9717956769  -1.8119731E+02   9.3891105E-05
      2     -177.9717909775   4.6993726E-06   1.2629856E-04
      3     -177.9717852377   5.7398162E-06   1.8401995E-04
      4     -177.9717939196  -8.6818455E-06   8.3068674E-05
      5     -177.9717960042  -2.0846002E-06   5.7520794E-06
      6     -177.9717960139  -9.6821964E-09   1.9582402E-06
------------------------------------------------------------

 total:                                   0.187 sec
 * total energy  :  -177.9717960 Eh     change       -0.7425195E-06 Eh
   gradient norm :     0.0001925 Eh/α   predicted    -0.3080736E-06 ( -58.51%)
   displ. norm   :     0.0342782 α      lambda       -0.5705705E-06
   maximum displ.:     0.0202893 α      in ANC's #3, #2, #4, ...

........................................................................
.............................. CYCLE   15 ..............................
........................................................................
------------------------------------------------------------
  cycle        total energy    energy error   density error
------------------------------------------------------------
      1     -177.9717967056  -1.8119732E+02   7.9348417E-05
      2     -177.9717967024   3.1253080E-09   4.6590984E-05
      3     -177.9717946123   2.0901768E-06   7.5863105E-05
      4     -177.9717958350  -1.2227216E-06   5.3429514E-05
      5     -177.9717967067  -8.7174328E-07   7.6540271E-06
------------------------------------------------------------

 total:                                   0.160 sec
 * total energy  :  -177.9717967 Eh     change       -0.6928625E-06 Eh
   gradient norm :     0.0002211 Eh/α   predicted    -0.2861220E-06 ( -58.70%)
   displ. norm   :     0.0411747 α      lambda       -0.6590478E-06
   maximum displ.:     0.0243902 α      in ANC's #3, #2, #4, ...

........................................................................
.............................. CYCLE   16 ..............................
........................................................................
------------------------------------------------------------
  cycle        total energy    energy error   density error
------------------------------------------------------------
      1     -177.9717965014  -1.8119734E+02   1.0219873E-04
      2     -177.9717884248   8.0766026E-06   1.5828314E-04
      3     -177.9717863406   2.0842175E-06   1.8834604E-04
      4     -177.9717960029  -9.6622829E-06   7.9143295E-05
      5     -177.9717975490  -1.5460894E-06   4.4305309E-06
      6     -177.9717975545  -5.4885447E-09   1.4063812E-06
------------------------------------------------------------

 total:                                   0.186 sec
 * total energy  :  -177.9717976 Eh     change       -0.8477662E-06 Eh
   gradient norm :     0.0002245 Eh/α   predicted    -0.3302984E-06 ( -61.04%)
   displ. norm   :     0.0501358 α      lambda       -0.7489913E-06
   maximum displ.:     0.0297102 α      in ANC's #3, #2, #4, ...

........................................................................
.............................. CYCLE   17 ..............................
........................................................................
------------------------------------------------------------
  cycle        total energy    energy error   density error
------------------------------------------------------------
      1     -177.9717984169  -1.8119738E+02   1.0608748E-04
      2     -177.9717972842   1.1326986E-06   8.6897013E-05
      3     -177.9717681121   2.9172072E-05   3.0513241E-04
      4     -177.9717969239  -2.8811841E-05   6.0938225E-05
      5     -177.9717984373  -1.5134072E-06   9.6755826E-06
      6     -177.9717984674  -3.0022193E-08   1.3955548E-06
------------------------------------------------------------

 total:                                   0.187 sec
 * total energy  :  -177.9717985 Eh     change       -0.9128735E-06 Eh
   gradient norm :     0.0001944 Eh/α   predicted    -0.3757071E-06 ( -58.84%)
   displ. norm   :     0.0546596 α      lambda       -0.7151176E-06
   maximum displ.:     0.0326612 α      in ANC's #3, #2, #4, ...

........................................................................
.............................. CYCLE   18 ..............................
........................................................................
------------------------------------------------------------
  cycle        total energy    energy error   density error
------------------------------------------------------------
      1     -177.9717992616  -1.8119743E+02   1.1431952E-04
      2     -177.9717976417   1.6198454E-06   9.7726813E-05
      3     -177.9717637683   3.3873390E-05   3.2926755E-04
      4     -177.9717985045  -3.4736202E-05   4.5079601E-05
      5     -177.9717992941  -7.8961284E-07   7.8456420E-06
------------------------------------------------------------

 total:                                   0.161 sec
 * total energy  :  -177.9717993 Eh     change       -0.8267666E-06 Eh
   gradient norm :     0.0001649 Eh/α   predicted    -0.3586766E-06 ( -56.62%)
   displ. norm   :     0.0501968 α      lambda       -0.5802340E-06
   maximum displ.:     0.0302601 α      in ANC's #3, #2, #4, ...

........................................................................
.............................. CYCLE   19 ..............................
........................................................................
------------------------------------------------------------
  cycle        total energy    energy error   density error
------------------------------------------------------------
      1     -177.9717988723  -1.8119746E+02   1.1955515E-04
      2     -177.9717813831   1.7489217E-05   2.4864348E-04
      3     -177.9717887072  -7.3241324E-06   1.8899269E-04
      4     -177.9717965688  -7.8615464E-06   1.0013027E-04
      5     -177.9717999383  -3.3695033E-06   1.3919964E-05
      6     -177.9717999986  -6.0278353E-08   2.9495698E-06
------------------------------------------------------------

 total:                                   0.186 sec
 * total energy  :  -177.9718000 Eh     change       -0.7044366E-06 Eh
   gradient norm :     0.0001469 Eh/α   predicted    -0.2907711E-06 ( -58.72%)
   displ. norm   :     0.0474680 α      lambda       -0.5182463E-06
   maximum displ.:     0.0287999 α      in ANC's #3, #2, #4, ...

........................................................................
.............................. CYCLE   20 ..............................
........................................................................
------------------------------------------------------------
  cycle        total energy    energy error   density error
------------------------------------------------------------
      1     -177.9718001045  -1.8119748E+02   1.0729856E-04
      2     -177.9717767524   2.3352035E-05   2.7145608E-04
      3     -177.9717973922  -2.0639750E-05   1.1309043E-04
      4     -177.9718003649  -2.9727644E-06   2.9901267E-05
      5     -177.9718005996  -2.3468044E-07   8.3077012E-06
------------------------------------------------------------

 total:                                   0.159 sec
 * total energy  :  -177.9718006 Eh     change       -0.6010489E-06 Eh
   gradient norm :     0.0001339 Eh/α   predicted    -0.2599833E-06 ( -56.75%)
   displ. norm   :     0.0476666 α      lambda       -0.5125744E-06
   maximum displ.:     0.0289139 α      in ANC's #3, #2, #1, ...
 * RMSD in coord.:     0.0598307 α      energy gain  -0.1126468E-03 Eh

generating ANC from exact Hessian ...
Using Lindh-Hessian (1995)
 Shifting diagonal of input Hessian by   9.956850532034723E-003
 Lowest  eigenvalues of input Hessian
    0.000000    0.000000    0.000000    0.000000    0.000000    0.000000
    0.010000    0.010026    0.010083    0.010120    0.010311    0.010543
    0.010616    0.010756    0.010816    0.011248    0.011309    0.011368
 Highest eigenvalues
    2.192013    2.202128    2.207242    2.224218    2.234585    2.253044
 

........................................................................
.............................. CYCLE   21 ..............................
........................................................................
------------------------------------------------------------
  cycle        total energy    energy error   density error
------------------------------------------------------------
      1     -177.9717997200  -1.8119748E+02   1.1614587E-04
      2     -177.9717757648   2.3955230E-05   2.6583247E-04
      3     -177.9717914961  -1.5731276E-05   1.8164795E-04
      4     -177.9717998842  -8.3881714E-06   7.6317315E-05
      5     -177.9718012603  -1.3760293E-06   3.6998652E-06
      6     -177.9718012619  -1.6071624E-09   2.5973398E-06
------------------------------------------------------------

 total:                                   0.187 sec
 * total energy  :  -177.9718013 Eh     change       -0.6622677E-06 Eh
   gradient norm :     0.0001417 Eh/α   predicted     0.0000000E+00 (-100.00%)
   displ. norm   :     0.0050040 α      lambda       -0.1345382E-07
   maximum displ.:     0.0020812 α      in ANC's #11, #19, #3, ...

........................................................................
.............................. CYCLE   22 ..............................
........................................................................
------------------------------------------------------------
  cycle        total energy    energy error   density error
------------------------------------------------------------
      1     -177.9718010668  -1.8119747E+02   3.8139241E-05
      2     -177.9717825297   1.8537183E-05   2.3735395E-04
      3     -177.9718014593  -1.8929643E-05   1.2111384E-05
      4     -177.9718014502   9.1449124E-09   1.0683295E-05
------------------------------------------------------------

 total:                                   0.131 sec
 * total energy  :  -177.9718015 Eh     change       -0.1882798E-06 Eh
   gradient norm :     0.0001297 Eh/α   predicted    -0.8697023E-07 ( -53.81%)
   displ. norm   :     0.0284205 α      lambda       -0.7410896E-06
   maximum displ.:     0.0123098 α      in ANC's #11, #19, #3, ...

........................................................................
.............................. CYCLE   23 ..............................
........................................................................
------------------------------------------------------------
  cycle        total energy    energy error   density error
------------------------------------------------------------
      1     -177.9718011206  -1.8119741E+02   9.9435545E-05
      2     -177.9717962105   4.9101004E-06   1.3933193E-04
      3     -177.9717941935   2.0170503E-06   1.6058299E-04
      4     -177.9717982465  -4.0530103E-06   1.0583107E-04
      5     -177.9718017624  -3.5159320E-06   2.6414806E-05
      6     -177.9718020386  -2.7621653E-07   3.0122612E-06
------------------------------------------------------------

 total:                                   0.202 sec
 * total energy  :  -177.9718020 Eh     change       -0.5884577E-06 Eh
   gradient norm :     0.0001711 Eh/α   predicted    -0.3722369E-06 ( -36.74%)
   displ. norm   :     0.0272014 α      lambda        0.7223049E-06
   maximum displ.:     0.0117577 α      in ANC's #11, #19, #3, ...

........................................................................
.............................. CYCLE   24 ..............................
........................................................................
------------------------------------------------------------
  cycle        total energy    energy error   density error
------------------------------------------------------------
      1     -177.9718007307  -1.8119735E+02   9.4090311E-05
      2     -177.9717630941   3.7636569E-05   3.3632357E-04
      3     -177.9718007124  -3.7618290E-05   6.8815491E-05
      4     -177.9717998174   8.9507168E-07   6.4766408E-05
      5     -177.9718015021  -1.6847587E-06   8.4444942E-06
      6     -177.9718015247  -2.2598698E-08   3.2656801E-06
------------------------------------------------------------

 total:                                   0.200 sec
 * total energy  :  -177.9718015 Eh     change        0.5139026E-06 Eh
   gradient norm :     0.0003690 Eh/α   predicted     0.3604436E-06 ( -29.86%)
   displ. norm   :     0.0203837 α      lambda       -0.8355972E-06
   maximum displ.:     0.0083267 α      in ANC's #11, #19, #6, ...

........................................................................
.............................. CYCLE   25 ..............................
........................................................................
------------------------------------------------------------
  cycle        total energy    energy error   density error
------------------------------------------------------------
      1     -177.9718008834  -1.8119741E+02   9.3548647E-05
      2     -177.9717448773   5.6006029E-05   4.1795851E-04
      3     -177.9718011800  -5.6302626E-05   6.6651824E-05
      4     -177.9718011890  -9.0020080E-09   5.5717954E-05
      5     -177.9718021315  -9.4253909E-07   1.5762153E-05
------------------------------------------------------------

 total:                                   0.173 sec
 * total energy  :  -177.9718021 Eh     change       -0.6067777E-06 Eh
   gradient norm :     0.0001252 Eh/α   predicted    -0.4183993E-06 ( -31.05%)
   displ. norm   :     0.0046389 α      lambda       -0.1179717E-06
   maximum displ.:     0.0019115 α      in ANC's #3, #5, #2, ...

........................................................................
.............................. CYCLE   26 ..............................
........................................................................
------------------------------------------------------------
  cycle        total energy    energy error   density error
------------------------------------------------------------
      1     -177.9717773408  -1.8119741E+02   2.6184816E-04
      2     -177.9709134882   8.6385259E-04   1.6223743E-03
      3     -177.9717975116  -8.8402335E-04   1.0958956E-04
      4     -177.9718021947  -4.6831609E-06   2.4354271E-05
      5     -177.9718023516  -1.5689622E-07   1.1005206E-05
------------------------------------------------------------

 total:                                   0.174 sec
 * total energy  :  -177.9718024 Eh     change       -0.2201483E-06 Eh
   gradient norm :     0.0000856 Eh/α   predicted    -0.6286410E-07 ( -71.44%)
   displ. norm   :     0.0184224 α      lambda       -0.2886061E-06
   maximum displ.:     0.0081930 α      in ANC's #3, #5, #2, ...

........................................................................
.............................. CYCLE   27 ..............................
........................................................................
------------------------------------------------------------
  cycle        total energy    energy error   density error
------------------------------------------------------------
      1     -177.9718009389  -1.8119743E+02   8.2909010E-05
      2     -177.9717790354   2.1903498E-05   2.5321593E-04
      3     -177.9717953508  -1.6315349E-05   1.5264404E-04
      4     -177.9718026288  -7.2779895E-06   2.7510030E-05
      5     -177.9718025703   5.8419545E-08   2.0126618E-05
      6     -177.9718027166  -1.4627653E-07   1.6987128E-06
------------------------------------------------------------

 total:                                   0.200 sec
 * total energy  :  -177.9718027 Eh     change       -0.3649695E-06 Eh
   gradient norm :     0.0001402 Eh/α   predicted    -0.1468296E-06 ( -59.77%)
   displ. norm   :     0.0290213 α      lambda       -0.2813775E-06
   maximum displ.:     0.0132162 α      in ANC's #3, #5, #2, ...

........................................................................
.............................. CYCLE   28 ..............................
........................................................................
------------------------------------------------------------
  cycle        total energy    energy error   density error
------------------------------------------------------------
      1     -177.9718028931  -1.8119743E+02   7.0144017E-05
      2     -177.9717957184   7.1747422E-06   1.5444233E-04
      3     -177.9718013872  -5.6688420E-06   7.8269873E-05
      4     -177.9718021041  -7.1683377E-07   4.9939152E-05
      5     -177.9718030494  -9.4531353E-07   6.4515938E-06
------------------------------------------------------------

 total:                                   0.172 sec
 * total energy  :  -177.9718030 Eh     change       -0.3327652E-06 Eh
   gradient norm :     0.0001793 Eh/α   predicted    -0.1452910E-06 ( -56.34%)
   displ. norm   :     0.0309576 α      lambda       -0.2682822E-06
   maximum displ.:     0.0144950 α      in ANC's #3, #5, #2, ...

........................................................................
.............................. CYCLE   29 ..............................
........................................................................
------------------------------------------------------------
  cycle        total energy    energy error   density error
------------------------------------------------------------
      1     -177.9717997865  -1.8119742E+02   1.1996167E-04
      2     -177.9716527690   1.4701749E-04   6.6399272E-04
      3     -177.9718030133  -1.5024428E-04   4.9604402E-05
      4     -177.9718023963   6.1694942E-07   5.5241910E-05
      5     -177.9718032818  -8.8547691E-07   1.9659982E-05
------------------------------------------------------------

 total:                                   0.179 sec
 * total energy  :  -177.9718033 Eh     change       -0.2324449E-06 Eh
   gradient norm :     0.0002278 Eh/α   predicted    -0.1349408E-06 ( -41.95%)
   displ. norm   :     0.0355542 α      lambda       -0.3552677E-06
   maximum displ.:     0.0172603 α      in ANC's #3, #5, #2, ...

........................................................................
.............................. CYCLE   30 ..............................
........................................................................
------------------------------------------------------------
  cycle        total energy    energy error   density error
------------------------------------------------------------
      1     -177.9717931898  -1.8119741E+02   1.9205138E-04
      2     -177.9713282420   4.6494780E-04   1.1897606E-03
      3     -177.9717981373  -4.6989533E-04   1.2816474E-04
      4     -177.9718032610  -5.1236301E-06   4.9469342E-05
      5     -177.9718034126  -1.5163604E-07   3.4831426E-05
      6     -177.9718037879  -3.7528955E-07   5.7423677E-06
------------------------------------------------------------

 total:                                   0.209 sec
 * total energy  :  -177.9718038 Eh     change       -0.5060780E-06 Eh
   gradient norm :     0.0000849 Eh/α   predicted    -0.1815487E-06 ( -64.13%)
   displ. norm   :     0.0358474 α      lambda       -0.3105920E-06
   maximum displ.:     0.0180711 α      in ANC's #3, #5, #2, ...

........................................................................
.............................. CYCLE   31 ..............................
........................................................................
------------------------------------------------------------
  cycle        total energy    energy error   density error
------------------------------------------------------------
      1     -177.9718017619  -1.8119741E+02   1.0448425E-04
      2     -177.9716890916   1.1267032E-04   5.7935129E-04
      3     -177.9718038251  -1.1473351E-04   4.4485093E-05
      4     -177.9718026298   1.1952555E-06   5.8744058E-05
      5     -177.9718039319  -1.3020367E-06   8.7259973E-06
      6     -177.9718039555  -2.3649960E-08   2.8479384E-06
------------------------------------------------------------

 total:                                   0.207 sec
 * total energy  :  -177.9718040 Eh     change       -0.1676136E-06 Eh
   gradient norm :     0.0001082 Eh/α   predicted    -0.1567887E-06 (  -6.46%)
   displ. norm   :     0.0388065 α      lambda       -0.3337992E-06
   maximum displ.:     0.0200805 α      in ANC's #3, #2, #5, ...

........................................................................
.............................. CYCLE   32 ..............................
........................................................................
------------------------------------------------------------
  cycle        total energy    energy error   density error
------------------------------------------------------------
      1     -177.9718042162  -1.8119742E+02   8.0527148E-05
      2     -177.9717896233   1.4592818E-05   2.1420451E-04
      3     -177.9718032620  -1.3638700E-05   7.3733827E-05
      4     -177.9718042279  -9.6587206E-07   2.9815132E-05
      5     -177.9718045063  -2.7837055E-07   7.1022223E-06
------------------------------------------------------------

 total:                                   0.183 sec
 * total energy  :  -177.9718045 Eh     change       -0.5507627E-06 Eh
   gradient norm :     0.0001599 Eh/α   predicted    -0.1691575E-06 ( -69.29%)
   displ. norm   :     0.0472657 α      lambda       -0.3963411E-06
   maximum displ.:     0.0247775 α      in ANC's #3, #2, #5, ...

........................................................................
.............................. CYCLE   33 ..............................
........................................................................
------------------------------------------------------------
  cycle        total energy    energy error   density error
------------------------------------------------------------
      1     -177.9718029575  -1.8119743E+02   1.1504822E-04
      2     -177.9717420529   6.0904615E-05   4.2179281E-04
      3     -177.9718022501  -6.0197214E-05   1.0710166E-04
      4     -177.9718038395  -1.5893545E-06   6.6300130E-05
      5     -177.9718049623  -1.1228512E-06   1.4380385E-05
      6     -177.9718050374  -7.5133528E-08   2.2795838E-06
------------------------------------------------------------

 total:                                   0.219 sec
 * total energy  :  -177.9718050 Eh     change       -0.5311627E-06 Eh
   gradient norm :     0.0001705 Eh/α   predicted    -0.2000119E-06 ( -62.34%)
   displ. norm   :     0.0567626 α      lambda       -0.4689450E-06
   maximum displ.:     0.0300624 α      in ANC's #3, #2, #5, ...

........................................................................
.............................. CYCLE   34 ..............................
........................................................................
------------------------------------------------------------
  cycle        total energy    energy error   density error
------------------------------------------------------------
      1     -177.9718054964  -1.8119744E+02   1.0460513E-04
      2     -177.9718017404   3.7560471E-06   1.1908624E-04
      3     -177.9717868454   1.4894955E-05   2.4133793E-04
      4     -177.9718041294  -1.7283952E-05   6.3363827E-05
      5     -177.9718055771  -1.4477454E-06   1.2923519E-05
      6     -177.9718056394  -6.2285153E-08   2.5202053E-06
------------------------------------------------------------

 total:                                   0.213 sec
 * total energy  :  -177.9718056 Eh     change       -0.6019823E-06 Eh
   gradient norm :     0.0001243 Eh/α   predicted    -0.2356861E-06 ( -60.85%)
   displ. norm   :     0.0696042 α      lambda       -0.5696945E-06
   maximum displ.:     0.0371998 α      in ANC's #3, #2, #1, ...

........................................................................
.............................. CYCLE   35 ..............................
........................................................................
------------------------------------------------------------
  cycle        total energy    energy error   density error
------------------------------------------------------------
      1     -177.9718060844  -1.8119744E+02   1.2525585E-04
      2     -177.9717977892   8.2951886E-06   1.6920038E-04
      3     -177.9717875469   1.0242361E-05   2.4579263E-04
      4     -177.9718037835  -1.6236642E-05   8.2963820E-05
      5     -177.9718062813  -2.4978202E-06   1.5548855E-05
      6     -177.9718063705  -8.9155634E-08   3.1669643E-06
------------------------------------------------------------

 total:                                   0.205 sec
 * total energy  :  -177.9718064 Eh     change       -0.7310646E-06 Eh
   gradient norm :     0.0000981 Eh/α   predicted    -0.2865498E-06 ( -60.80%)
   displ. norm   :     0.0857390 α      lambda       -0.6875143E-06
   maximum displ.:     0.0461535 α      in ANC's #3, #2, #1, ...

........................................................................
.............................. CYCLE   36 ..............................
........................................................................
------------------------------------------------------------
  cycle        total energy    energy error   density error
------------------------------------------------------------
      1     -177.9718064958  -1.8119743E+02   1.5511969E-04
      2     -177.9717814557   2.5040095E-05   2.8224136E-04
      3     -177.9717925484  -1.1092675E-05   2.2705653E-04
      4     -177.9718027404  -1.0192033E-05   1.0819183E-04
      5     -177.9718070813  -4.3408625E-06   1.9996416E-05
      6     -177.9718072268  -1.4553697E-07   4.3157324E-06
------------------------------------------------------------

 total:                                   0.203 sec
 * total energy  :  -177.9718072 Eh     change       -0.8563411E-06 Eh
   gradient norm :     0.0001325 Eh/α   predicted    -0.3473096E-06 ( -59.44%)
   displ. norm   :     0.0941376 α      lambda       -0.6973241E-06
   maximum displ.:     0.0510719 α      in ANC's #3, #2, #1, ...

........................................................................
.............................. CYCLE   37 ..............................
........................................................................
------------------------------------------------------------
  cycle        total energy    energy error   density error
------------------------------------------------------------
      1     -177.9718060979  -1.8119741E+02   1.7897088E-04
      2     -177.9717256821   8.0415800E-05   4.9573777E-04
      3     -177.9718020410  -7.6358975E-05   1.6672467E-04
      4     -177.9718018807   1.6029728E-07   1.2560148E-04
      5     -177.9718079002  -6.0194870E-06   2.4788024E-05
      6     -177.9718081228  -2.2262256E-07   5.2247645E-06
------------------------------------------------------------

 total:                                   0.202 sec
 * total energy  :  -177.9718081 Eh     change       -0.8960182E-06 Eh
   gradient norm :     0.0001562 Eh/α   predicted    -0.3517201E-06 ( -60.75%)
   displ. norm   :     0.0771654 α      lambda       -0.5126831E-06
   maximum displ.:     0.0423471 α      in ANC's #3, #2, #1, ...

........................................................................
.............................. CYCLE   38 ..............................
........................................................................
------------------------------------------------------------
  cycle        total energy    energy error   density error
------------------------------------------------------------
      1     -177.9718056022  -1.8119739E+02   1.6404003E-04
      2     -177.9716727030   1.3289916E-04   6.3529762E-04
      3     -177.9718072884  -1.3458540E-04   1.0343955E-04
      4     -177.9718045549   2.7334841E-06   1.0318630E-04
      5     -177.9718085514  -3.9964451E-06   2.3520539E-05
      6     -177.9718087581  -2.0674418E-07   4.1491087E-06
------------------------------------------------------------

 total:                                   0.203 sec
 * total energy  :  -177.9718088 Eh     change       -0.6352504E-06 Eh
   gradient norm :     0.0001374 Eh/α   predicted    -0.2581997E-06 ( -59.35%)
   displ. norm   :     0.0592272 α      lambda       -0.4113162E-06
   maximum displ.:     0.0329211 α      in ANC's #3, #2, #1, ...

........................................................................
.............................. CYCLE   39 ..............................
........................................................................
------------------------------------------------------------
  cycle        total energy    energy error   density error
------------------------------------------------------------
      1     -177.9718078672  -1.8119738E+02   1.2359454E-04
      2     -177.9717462810   6.1586225E-05   4.3484744E-04
      3     -177.9718078925  -6.1611481E-05   8.9447586E-05
      4     -177.9718080977  -2.0521719E-07   5.8905832E-05
      5     -177.9718092513  -1.1536092E-06   1.0429937E-05
      6     -177.9718092854  -3.4119068E-08   4.3800106E-06
------------------------------------------------------------

 total:                                   0.203 sec
 * total energy  :  -177.9718093 Eh     change       -0.5273281E-06 Eh
   gradient norm :     0.0001013 Eh/α   predicted    -0.2088152E-06 ( -60.40%)
   displ. norm   :     0.0497481 α      lambda       -0.4127037E-06
   maximum displ.:     0.0279313 α      in ANC's #3, #2, #1, ...

........................................................................
.............................. CYCLE   40 ..............................
........................................................................
------------------------------------------------------------
  cycle        total energy    energy error   density error
------------------------------------------------------------
      1     -177.9718079047  -1.8119738E+02   1.2155228E-04
      2     -177.9717238872   8.4017536E-05   5.0167317E-04
      3     -177.9718091267  -8.5239475E-05   7.5599567E-05
      4     -177.9718070847   2.0419957E-06   8.7934934E-05
      5     -177.9718098666  -2.7819568E-06   1.7668862E-05
      6     -177.9718099743  -1.0763983E-07   3.0200991E-06
------------------------------------------------------------

 total:                                   0.204 sec
 * total energy  :  -177.9718100 Eh     change       -0.6888273E-06 Eh
   gradient norm :     0.0000692 Eh/α   predicted    -0.2109430E-06 ( -69.38%)
   displ. norm   :     0.0581421 α      lambda       -0.5077364E-06
   maximum displ.:     0.0327545 α      in ANC's #3, #2, #1, ...

........................................................................
.............................. CYCLE   41 ..............................
........................................................................
------------------------------------------------------------
  cycle        total energy    energy error   density error
------------------------------------------------------------
      1     -177.9718103039  -1.8119737E+02   1.2695442E-04
      2     -177.9717768476   3.3456319E-05   3.2516950E-04
      3     -177.9718074974  -3.0649794E-05   1.2352272E-04
      4     -177.9718099382  -2.4408266E-06   5.8098545E-05
      5     -177.9718109846  -1.0463843E-06   1.6231426E-05
      6     -177.9718110876  -1.0301071E-07   3.9277984E-06
------------------------------------------------------------

 total:                                   0.202 sec
 * total energy  :  -177.9718111 Eh     change       -0.1113388E-05 Eh
   gradient norm :     0.0001101 Eh/α   predicted    -0.2573739E-06 ( -76.88%)
   displ. norm   :     0.0637961 α      lambda       -0.5292281E-06
   maximum displ.:     0.0361586 α      in ANC's #3, #2, #1, ...

........................................................................
.............................. CYCLE   42 ..............................
........................................................................
------------------------------------------------------------
  cycle        total energy    energy error   density error
------------------------------------------------------------
      1     -177.9718109669  -1.8119737E+02   1.4367863E-04
      2     -177.9717538844   5.7082480E-05   4.1898120E-04
      3     -177.9718097043  -5.5819900E-05   1.1627765E-04
      4     -177.9718083964   1.3079217E-06   9.8200043E-05
      5     -177.9718122056  -3.8091717E-06   1.7926362E-05
      6     -177.9718123163  -1.1074397E-07   3.9736502E-06
------------------------------------------------------------

 total:                                   0.201 sec
 * total energy  :  -177.9718123 Eh     change       -0.1228655E-05 Eh
   gradient norm :     0.0001531 Eh/α   predicted    -0.2667069E-06 ( -78.29%)
   displ. norm   :     0.0627447 α      lambda       -0.4878592E-06
   maximum displ.:     0.0358555 α      in ANC's #3, #2, #1, ...
 * RMSD in coord.:     0.0857244 α      energy gain  -0.1171668E-04 Eh

generating ANC from exact Hessian ...
Using Lindh-Hessian (1995)
 Shifting diagonal of input Hessian by   9.956165723011709E-003
 Lowest  eigenvalues of input Hessian
    0.000000    0.000000    0.000000    0.000000    0.000000    0.000000
    0.010000    0.010025    0.010083    0.010122    0.010313    0.010543
    0.010617    0.010764    0.010816    0.011245    0.011308    0.011368
 Highest eigenvalues
    2.191919    2.201979    2.207064    2.224160    2.234501    2.253134
 

........................................................................
.............................. CYCLE   43 ..............................
........................................................................
------------------------------------------------------------
  cycle        total energy    energy error   density error
------------------------------------------------------------
      1     -177.9718123707  -1.8119738E+02   1.3242679E-04
      2     -177.9717904419   2.1928792E-05   2.6864336E-04
      3     -177.9718060674  -1.5625510E-05   1.5893666E-04
      4     -177.9718114612  -5.3937230E-06   6.3676085E-05
      5     -177.9718127622  -1.3010147E-06   1.9670723E-05
      6     -177.9718129142  -1.5202997E-07   4.1918296E-06
------------------------------------------------------------

 total:                                   0.204 sec
 * total energy  :  -177.9718129 Eh     change       -0.5979154E-06 Eh
   gradient norm :     0.0001331 Eh/α   predicted     0.0000000E+00 (-100.00%)
   displ. norm   :     0.0001996 α      lambda        0.0000000E+00
   maximum displ.:     0.0000925 α      in ANC's #318, #317, #283, ...

........................................................................
.............................. CYCLE   44 ..............................
........................................................................
------------------------------------------------------------
  cycle        total energy    energy error   density error
------------------------------------------------------------
      1     -177.9718124441  -1.8119739E+02   3.5238491E-05
      2     -177.9717954167   1.7027311E-05   2.2294225E-04
      3     -177.9718127064  -1.7289626E-05   2.6307939E-05
      4     -177.9718129269  -2.2052242E-07   4.6951816E-06
------------------------------------------------------------

 total:                                   0.144 sec
 * total energy  :  -177.9718129 Eh     change       -0.1268299E-07 Eh
   gradient norm :     0.0000700 Eh/α   predicted    -0.4131481E-08 ( -67.43%)
   displ. norm   :     0.0046479 α      lambda       -0.1213648E-06
   maximum displ.:     0.0026613 α      in ANC's #19, #5, #16, ...

   *** GEOMETRY OPTIMIZATION CONVERGED AFTER 44 ITERATIONS ***

------------------------------------------------------------------------
 total energy gain   :        -0.0001250 Eh       -0.0784 kcal/mol
 total RMSD          :         0.1243635 a0        0.0658 Å
 total power (kW/mol):        -0.0074573 (step)   -0.0368 (real)
------------------------------------------------------------------------

 ANCopt (total)                0 d,  0 h,  0 min,  8.915 sec
 optimizer setup                ...        0 min,  0.001 sec (  0.009%)
 model hessian                  ...        0 min,  0.224 sec (  2.517%)
 ANC generation                 ...        0 min,  0.036 sec (  0.403%)
 coordinate transformation      ...        0 min,  0.006 sec (  0.065%)
 single point calculation       ...        0 min,  8.612 sec ( 96.601%)
 optimization log               ...        0 min,  0.013 sec (  0.143%)
 hessian update                 ...        0 min,  0.007 sec (  0.082%)
 rational function              ...        0 min,  0.009 sec (  0.096%)

================
 final structure:
================
108
 xtb: 6.7.1 (edcfbbe)
C           -7.20614857757832        1.34079225068156       -0.61570441972875
C           -7.08945646471506       -0.00244152639784       -0.29465023515183
C           -5.94474600438126       -0.69699314396019       -0.63404118952339
C           -4.90050318167744       -0.04639680382686       -1.28618941893567
C           -3.66341742846279       -0.77223058614819       -1.56604498943400
N           -2.53665941686119       -0.10311617691033       -1.62707995869267
C           -1.31621975465913       -0.69873118547484       -1.74008126758672
C           -0.14861509612976        0.07873976802462       -1.47452116541246
C            1.12045024258903       -0.27061133220309       -1.97915827450561
C            2.23608015615406        0.47254105857770       -1.69935738759636
C            2.14592747783848        1.60937081767853       -0.88552140618608
N            3.30613485358231        2.32441950094621       -0.55851970316737
C            3.54072594402355        3.64368868608212       -0.90400437261830
C            2.66615898350648        4.59232301801691       -1.40841119885882
C            3.16769273974136        5.85156665050756       -1.68313077330055
C            4.50873351428342        6.15948833669520       -1.47171032731100
C            5.38959232202570        5.21027677862253       -0.98965211029336
C            4.90719970427023        3.94034522149650       -0.70361698675919
C            5.52076814636079        2.73351631168067       -0.22674329800353
C            6.84176076151921        2.42590255357981        0.08937156679535
C            7.16484213052401        1.14706482064515        0.48618395170257
C            6.14233442540039        0.20624856100304        0.61719831636329
C            4.77623633383798        0.49946811701644        0.38746876613050
C            4.03658523402100       -0.66656923154776        0.79151589560492
C            2.68594173371795       -0.97493765854704        0.93342647631289
C            2.32766962417682       -2.24192149884317        1.34528583316927
C            3.28756059601059       -3.21076487418312        1.62944825579509
C            4.63345155041634       -2.91520706501097        1.56330252922001
C            4.99923275504319       -1.63305569934403        1.17600293996891
N            6.25984114880795       -1.09271884690621        1.06457565157063
C            7.46235560603794       -1.74242680525098        1.38015932760081
C            7.61646457630309       -2.36789975920046        2.61374084812191
C            8.80230707125191       -3.01059920914030        2.91739487661648
C            9.84240987980341       -3.02685190295163        2.00287884407746
C            9.69207598203457       -2.40004638177820        0.77693314710293
C            8.50664219180519       -1.76295843275653        0.46034281175497
C            4.48730387644428        1.76809692340046       -0.12879417228616
C            0.90163178020922        2.00393975435677       -0.40445711135643
C           -0.22883493316761        1.25659724353797       -0.67855107506739
N           -1.44990928348413        1.67487352273866       -0.12697966786998
C           -2.03449344898903        2.89814487856129       -0.35713930595316
C           -1.61781220179445        3.93425210195909       -1.18220999220087
C           -2.41223638586367        5.06223390208318       -1.25032240876980
C           -3.59812096375927        5.16128660122743       -0.52356279768063
C           -4.03207721644810        4.12500857943730        0.28167769283041
C           -3.24973288265375        2.98294755380969        0.36229924743616
C           -3.39248549382561        1.73134466746384        1.04539817673576
C           -4.37472691563007        1.13345349574341        1.81727992511388
O           -5.57731312051083        1.65011264460080        2.17095891558933
C           -6.22342982381766        0.66561483178050        2.85688617171054
C           -7.49695745631179        0.73543231885143        3.38852806072455
C           -7.97293170717663       -0.38682337715093        4.04475163163304
C           -7.20026189725346       -1.53855313901087        4.16582639873701
C           -5.92669876220601       -1.60637240142720        3.63547964407511
C           -5.42810885871054       -0.49288038761914        2.97157708100101
C           -4.20283190664872       -0.18296886163518        2.28808233141089
C           -3.02569393303084       -0.89034078455809        2.03537724872790
C           -2.03527892898016       -0.31498219356266        1.27044135216315
C           -2.24710390741657        0.95989050034293        0.74273648858876
C           -1.32331649913745       -2.09631836587441       -1.94973578481568
S            0.00884228344845       -3.20361352890515       -2.13459680450517
C           -1.08913083146724       -4.56886149599053       -2.18566302085090
C           -0.73915223139320       -5.89671279661848       -2.33135292952306
C           -1.74927044808588       -6.84284572248992       -2.36068048981825
C           -3.08629047910084       -6.46256803523630       -2.24345044327974
C           -3.43861078718835       -5.14028403677171       -2.09631186807751
C           -2.43499390864693       -4.16654676853841       -2.06990023108718
C           -2.55840047977765       -2.75895194532794       -1.92016150573466
N           -3.71251714525335       -2.08539120179787       -1.71764526325373
C           -5.02409073391988        1.30119966282575       -1.61002696567624
C           -6.17653498518150        1.98770297017796       -1.27975631584010
H           -8.10004514278794        1.88350035720197       -0.34539361030525
H           -7.88938325959415       -0.50541660329711        0.22937700817909
H           -5.83421749086842       -1.74157824143479       -0.38499627368565
H            1.20929198501473       -1.12417451752488       -2.63041959487153
H            3.19605191522665        0.18868315877093       -2.10229053868908
H            1.62831228042361        4.35887662499714       -1.58741003995275
H            2.50518866234293        6.61071990324232       -2.07166140074254
H            4.86336760962857        7.15453390801121       -1.69564200680586
H            6.43202377196909        5.44708137730816       -0.83913463026911
H            7.60482959428501        3.18449562716404        0.01101542385828
H            8.18312623190352        0.88040369865953        0.72294100581585
H            1.92470261720922       -0.23751835640139        0.74694989409748
H            1.28192734219796       -2.49094815878986        1.44742699601682
H            2.97347789830819       -4.20082124932765        1.92421957282717
H            5.38022849970167       -3.65689788609374        1.80349103155256
H            6.81079704714569       -2.33324622866431        3.33177404199569
H            8.91744840359085       -3.49389368238750        3.87620774631050
H           10.76810279225145       -3.52642855412630        2.24519754759274
H           10.49940365329163       -2.41343528257452        0.05986552534164
H            8.37725826951280       -1.28962407996289       -0.50159642653323
H            0.82076378881626        2.86845960446797        0.23874723796405
H           -0.71083950310428        3.85329778819146       -1.76176788608069
H           -2.11074176769264        5.88417591233842       -1.88255758876881
H           -4.18854865373473        6.06204577570110       -0.60232190635141
H           -4.95698572671152        4.18776690594860        0.83356151086240
H           -8.09022698753927        1.63022217030254        3.28930267273290
H           -8.96482532574826       -0.36837158422990        4.47065152028267
H           -7.60826041441615       -2.39343810939743        4.68434169393374
H           -5.33038187405268       -2.50097428759455        3.72929727206249
H           -2.90278413472751       -1.88694086404260        2.42992447140003
H           -1.12241496985078       -0.84867338882288        1.05390738393432
H            0.29777257181322       -6.18300297909633       -2.41838553574392
H           -1.49769814144913       -7.88624370948326       -2.47515519886898
H           -3.85466737025056       -7.22112762340902       -2.27094430747382
H           -4.46877476373937       -4.83302060353372       -2.00632109319278
H           -4.21190571201854        1.79644829141256       -2.12047878364373
H           -6.26750856471856        3.03382575589718       -1.53248788884301
 
 Bond Distances (Angstroems)
 ---------------------------
C1-C2=1.3860         C1-C71=1.3855        C1-H72=1.0801        C2-C1=1.3860         C2-C3=1.3813         C2-H73=1.0805        
C3-C2=1.3813         C3-C4=1.3925         C3-H74=1.0795        C4-C3=1.3925         C4-C5=1.4613         C4-C70=1.3915        
C5-C4=1.4613         C5-N6=1.3119         C5-N69=1.3228        N6-C5=1.3119         N6-C7=1.3627         C7-N6=1.3627         
C7-C8=1.4277         C7-C60=1.4132        C8-C7=1.4277         C8-C9=1.4097         C8-C39=1.4239        C9-C8=1.4097         
C9-C10=1.3694        C9-H75=1.0773        C10-C9=1.3694        C10-C11=1.4010       C10-H76=1.0791       C11-C10=1.4010       
C11-N12=1.4015       C11-C38=1.3912       N12-C11=1.4015       N12-C13=1.3838       N12-C37=1.3745       C13-N12=1.3838       
C13-C14=1.3854       C13-C18=1.4126       C14-C13=1.3854       C14-C15=1.3830       C14-H77=1.0787       C15-C14=1.3830       
C15-C16=1.3921       C15-H78=1.0799       C16-C15=1.3921       C16-C17=1.3818       C16-H79=1.0798       C17-C16=1.3818       
C17-C18=1.3883       C17-H80=1.0795       C18-C13=1.4126       C18-C17=1.3883       C18-C19=1.4354       C19-C18=1.4354       
C19-C20=1.3927       C19-C37=1.4176       C20-C19=1.3927       C20-C21=1.3774       C20-H81=1.0788       C21-C20=1.3774       
C21-C22=1.3956       C21-H82=1.0789       C22-C21=1.3956       C22-C23=1.4160       C22-N30=1.3789       C23-C22=1.4160       
C23-C24=1.4387       C23-C37=1.3998       C24-C23=1.4387       C24-C25=1.3926       C24-C29=1.4173       C25-C24=1.3926       
C25-C26=1.3796       C25-H83=1.0761       C26-C25=1.3796       C26-C27=1.3931       C26-H84=1.0798       C27-C26=1.3931       
C27-C28=1.3795       C27-H85=1.0797       C28-C27=1.3795       C28-C29=1.3884       C28-H86=1.0796       C29-C24=1.4173       
C29-C28=1.3884       C29-N30=1.3761       N30-C22=1.3789       N30-C29=1.3761       N30-C31=1.4028       C31-N30=1.4028       
C31-C32=1.3916       C31-C36=1.3918       C32-C31=1.3916       C32-C33=1.3826       C32-H87=1.0798       C33-C32=1.3826       
C33-C34=1.3851       C33-H88=1.0799       C34-C33=1.3851       C34-C35=1.3851       C34-H89=1.0794       C35-C34=1.3851       
C35-C36=1.3825       C35-H90=1.0799       C36-C31=1.3918       C36-C35=1.3825       C36-H91=1.0799       C37-N12=1.3745       
C37-C19=1.4176       C37-C23=1.3998       C38-C11=1.3912       C38-C39=1.3826       C38-H92=1.0806       C39-C8=1.4239        
C39-C38=1.3826       C39-N40=1.4036       N40-C39=1.4036       N40-C41=1.3752       N40-C59=1.3795       C41-N40=1.3752       
C41-C42=1.3885       C41-C46=1.4148       C42-C41=1.3885       C42-C43=1.3813       C42-H93=1.0794       C43-C42=1.3813       
C43-C44=1.3944       C43-H94=1.0799       C44-C43=1.3944       C44-C45=1.3822       C44-H95=1.0799       C45-C44=1.3822       
C45-C46=1.3867       C45-H96=1.0789       C46-C41=1.4148       C46-C45=1.3867       C46-C47=1.4330       C47-C46=1.4330       
C47-C48=1.3849       C47-C59=1.4137       C48-C47=1.3849       C48-O49=1.3558       C48-C56=1.4086       O49-C48=1.3558       
O49-C50=1.3628       C50-O49=1.3628       C50-C51=1.3818       C50-C55=1.4099       C51-C50=1.3818       C51-C52=1.3844       
C51-H97=1.0782       C52-C51=1.3844       C52-C53=1.3922       C52-H98=1.0796       C53-C52=1.3922       C53-C54=1.3812       
C53-H99=1.0799       C54-C53=1.3812       C54-C55=1.3890       C54-H100=1.0792      C55-C50=1.4099       C55-C54=1.3890       
C55-C56=1.4368       C56-C48=1.4086       C56-C55=1.4368       C56-C57=1.3964       C57-C56=1.3964       C57-C58=1.3773       
C57-H101=1.0789      C58-C57=1.3773       C58-C59=1.3959       C58-H102=1.0794      C59-N40=1.3795       C59-C47=1.4137       
C59-C58=1.3959       C60-C7=1.4132        C60-S61=1.7421       C60-C68=1.4019       S61-C60=1.7421       S61-C62=1.7527       
C62-S61=1.7527       C62-C63=1.3809       C62-C67=1.4095       C63-C62=1.3809       C63-C64=1.3843       C63-H103=1.0792      
C64-C63=1.3843       C64-C65=1.3950       C64-H104=1.0794      C65-C64=1.3950       C65-C66=1.3763       C65-H105=1.0801      
C66-C65=1.3763       C66-C67=1.3986       C66-H106=1.0788      C67-C62=1.4095       C67-C66=1.3986       C67-C68=1.4209       
C68-C60=1.4019       C68-C67=1.4209       C68-N69=1.3515       N69-C5=1.3228        N69-C68=1.3515       C70-C4=1.3915        
C70-C71=1.3815       C70-H107=1.0796      C71-C1=1.3855        C71-C70=1.3815       C71-H108=1.0801      H72-C1=1.0801        
H73-C2=1.0805        H74-C3=1.0795        H75-C9=1.0773        H76-C10=1.0791       H77-C14=1.0787       H78-C15=1.0799       
H79-C16=1.0798       H80-C17=1.0795       H81-C20=1.0788       H82-C21=1.0789       H83-C25=1.0761       H84-C26=1.0798       
H85-C27=1.0797       H86-C28=1.0796       H87-C32=1.0798       H88-C33=1.0799       H89-C34=1.0794       H90-C35=1.0799       
H91-C36=1.0799       H92-C38=1.0806       H93-C42=1.0794       H94-C43=1.0799       H95-C44=1.0799       H96-C45=1.0789       
H97-C51=1.0782       H98-C52=1.0796       H99-C53=1.0799       H100-C54=1.0792      H101-C57=1.0789      H102-C58=1.0794      
H103-C63=1.0792      H104-C64=1.0794      H105-C65=1.0801      H106-C66=1.0788      H107-C70=1.0796      H108-C71=1.0801      
 C  H  Rav=1.0794 sigma=0.0008  Rmin=1.0761  Rmax=1.0806    37
 C  C  Rav=1.3969 sigma=0.0181  Rmin=1.3694  Rmax=1.4613    69
 N  C  Rav=1.3711 sigma=0.0272  Rmin=1.3119  Rmax=1.4036    13
 O  C  Rav=1.3593 sigma=0.0035  Rmin=1.3558  Rmax=1.3628     2
 S  C  Rav=1.7474 sigma=0.0053  Rmin=1.7421  Rmax=1.7527     2
 
 selected bond angles (degree)
 --------------------
C71-C1-C2=120.06               H72-C1-C2=119.91               H72-C1-C71=120.02              C3-C2-C1=120.01                
H73-C2-C1=120.08               H73-C2-C3=119.91               C4-C3-C2=120.11                H74-C3-C2=120.98               
H74-C3-C4=118.90               C5-C4-C3=119.50                C70-C4-C3=119.66               C70-C4-C5=120.77               
N6-C5-C4=118.86                N69-C5-C4=118.92               N69-C5-N6=122.20               C7-N6-C5=123.38                
C8-C7-N6=118.62                C60-C7-N6=116.11               C60-C7-C8=124.77               C9-C8-C7=122.32                
C39-C8-C7=120.56               C39-C8-C9=117.12               C10-C9-C8=121.72               H75-C9-C8=119.14               
H75-C9-C10=119.10              C11-C10-C9=120.44              H76-C10-C9=120.38              H76-C10-C11=119.18             
 
 selected dihedral angles (degree)
 ---------------------------------
C3-C2-C1-C71=  0.14           C3-C2-C1-H72=180.29           H73-C2-C1-C71=179.57          H73-C2-C1-H72=359.72          
C4-C3-C2-C1=  0.69            C4-C3-C2-H73=181.26           H74-C3-C2-C1=179.53           H74-C3-C2-H73=  0.10          
C5-C4-C3-C2=176.28            C5-C4-C3-H74=357.40           C70-C4-C3-C2=359.12           C70-C4-C3-H74=180.25          
N6-C5-C4-C3=209.03            N6-C5-C4-C70= 26.15           N69-C5-C4-C3= 27.43           N69-C5-C4-C70=204.56          
C7-N6-C5-C4=172.80            C7-N6-C5-N69=354.45           C8-C7-N6-C5=195.02            C60-C7-N6-C5=  7.24           
C9-C8-C7-N6=201.93            C9-C8-C7-C60= 30.43           C39-C8-C7-N6= 21.79           C39-C8-C7-C60=210.29          
C10-C9-C8-C7=181.04           C10-C9-C8-C39=  1.18          H75-C9-C8-C7=  3.26           H75-C9-C8-C39=183.39          
C11-C10-C9-C8=  0.46          C11-C10-C9-H75=178.25         H76-C10-C9-C8=180.39          H76-C10-C9-H75=358.17         
           -------------------------------------------------
          |                Final Singlepoint                |
           -------------------------------------------------
repulsion energy          3.2221535327432E+00 Eh
dispersion energy         3.4211622752947E-03 Eh
interaction energy        0.0000000000000E+00 Eh
number of electrons       3.3000000000000E+02 e
integral cutoff           1.8403572253217E+01 bohr

------------------------------------------------------------
  cycle        total energy    energy error   density error
------------------------------------------------------------
      1     -177.9718113044  -1.8119739E+02   6.9502404E-05
      2     -177.9717370442   7.4260238E-05   4.7735017E-04
      3     -177.9718128969  -7.5852738E-05   9.3790198E-06
      4     -177.9718129272  -3.0238624E-08   3.7507505E-06
------------------------------------------------------------

electronic energy        -1.8119738762220E+02 Eh
total energy             -1.7797181292718E+02 Eh

 total:                                   0.143 sec
 - repulsion                              0.000 sec (  0%)
 - dispersion                             0.004 sec (  2%)
 - coulomb                                0.007 sec (  5%)
 - hamiltonian                            0.014 sec (  9%)
 - scc                                    0.118 sec ( 82%)

           ------------------------------------------------- 
          |                Numerical Hessian                |
[...]
eigval :     1066.30  1070.77  1071.87  1077.76  1079.55  1080.62
eigval :     1086.31  1095.80  1103.17  1112.06  1118.23  1126.09
eigval :     1135.87  1139.35  1143.86  1147.36  1148.84  1163.62
eigval :     1166.38  1172.82  1174.11  1177.08  1180.44  1180.53
eigval :     1180.80  1181.03  1182.38  1184.21  1188.21  1199.27
eigval :     1200.58  1205.69  1209.72  1218.18  1222.65  1231.51
eigval :     1235.16  1238.62  1247.43  1249.56  1257.18  1273.17
eigval :     1273.61  1276.64  1286.10  1293.06  1300.11  1304.86
eigval :     1307.05  1309.99  1317.76  1320.48  1326.78  1335.05
eigval :     1343.10  1345.48  1347.24  1351.59  1352.69  1354.59
eigval :     1355.01  1362.69  1369.48  1388.13  1393.34  1396.53
eigval :     1400.28  1402.01  1410.73  1411.76  1416.71  1419.65
eigval :     1427.78  1434.41  1435.40  1436.66  1442.34  1451.63
eigval :     1457.59  1458.98  1474.20  1475.26  1478.23  1481.23
eigval :     1482.02  1482.77  1485.22  1490.48  1546.64  1558.16
eigval :     1560.73  1562.83  1564.86  1574.89  1576.49  1581.68
eigval :     1584.32  1586.75  1587.59  1589.47  1593.17  1593.95
eigval :     1596.21  1597.06  1600.78  1607.27  1621.41  3073.77
eigval :     3078.29  3078.95  3079.17  3079.29  3079.47  3080.01
eigval :     3080.90  3082.12  3083.53  3084.54  3084.81  3086.05
eigval :     3087.76  3088.25  3088.86  3089.88  3090.38  3091.54
eigval :     3093.86  3094.21  3094.50  3095.10  3095.32  3095.61
eigval :     3096.85  3097.42  3097.89  3099.92  3100.18  3101.71
eigval :     3102.03  3102.27  3102.72  3106.59  3117.74  3137.61
 reduced masses (amu)
   1: 12.54   2: 12.46   3: 12.74   4: 11.70   5: 11.83   6: 11.82   7: 12.57   8: 11.78
   9: 11.65  10: 11.16  11: 11.24  12: 11.42  13: 10.84  14: 15.41  15: 12.21  16: 15.40
  17: 11.16  18: 11.04  19: 11.07  20: 11.04  21: 10.91  22: 11.22  23: 10.95  24: 11.05
  25: 10.79  26: 11.63  27: 12.23  28: 11.00  29: 11.64  30: 11.20  31: 10.75  32: 11.06
  33: 10.91  34: 10.89  35: 10.79  36: 10.84  37: 14.19  38: 12.06  39: 11.66  40: 11.23
  41: 10.76  42: 11.52  43: 10.93  44: 12.98  45: 11.33  46: 15.05  47: 11.34  48: 11.39
  49: 11.45  50: 11.16  51: 11.08  52: 11.30  53: 11.72  54: 10.58  55: 11.37  56: 11.60
  57: 11.67  58: 10.76  59: 10.77  60: 10.11  61: 10.30  62: 11.41  63: 10.84  64: 10.26
  65: 12.89  66: 12.53  67: 10.82  68: 10.70  69: 10.10  70: 10.68  71: 11.26  72: 11.44
  73: 11.67  74: 11.24  75: 11.48  76: 13.21  77: 13.68  78: 11.70  79: 11.73  80: 10.65
  81: 10.95  82: 10.92  83: 11.70  84: 12.44  85: 12.21  86: 11.39  87: 12.03  88: 11.47
  89: 11.01  90: 11.09  91: 11.52  92: 11.53  93: 11.33  94: 11.25  95: 11.35  96: 11.49
  97: 11.33  98: 11.70  99: 11.53 100: 11.54 101: 11.45 102: 11.65 103: 11.57 104: 11.71
 105: 12.58 106: 11.48 107: 11.54 108: 13.73 109: 11.15 110: 11.52 111:  9.10 112: 11.00
 113: 10.92 114: 11.77 115: 11.47 116: 11.14 117: 11.84 118: 13.85 119: 11.77 120: 11.87
 121: 11.68 122: 11.69 123: 11.90 124:  7.21 125:  4.79 126:  3.70 127:  3.74 128:  8.46
 129:  3.87 130:  3.65 131:  3.69 132:  4.80 133:  4.00 134:  4.06 135: 11.37 136: 11.65
 137: 11.65 138: 11.75 139: 12.20 140:  8.59 141:  6.47 142:  3.49 143:  3.51 144:  3.44
 145:  3.38 146:  3.33 147: 10.51 148:  4.22 149:  3.61 150:  3.52 151:  3.28 152:  3.80
 153:  4.13 154:  7.24 155:  4.27 156:  5.45 157:  3.91 158:  3.70 159:  5.37 160:  4.01
 161:  3.18 162: 11.25 163:  3.18 164:  3.10 165:  3.12 166:  3.14 167:  3.93 168:  3.05
 169:  3.14 170:  3.65 171: 11.99 172: 11.06 173: 11.34 174: 11.03 175: 11.03 176: 11.06
 177: 11.27 178: 10.91 179:  5.62 180:  6.36 181:  5.96 182:  5.90 183:  9.19 184:  8.04
 185:  6.98 186:  8.71 187:  6.86 188:  8.74 189:  8.19 190:  4.52 191:  3.96 192:  6.97
 193:  7.22 194:  5.74 195:  3.84 196:  5.51 197:  3.92 198:  5.83 199:  4.64 200:  3.19
 201:  2.71 202:  2.45 203:  2.25 204:  1.60 205:  2.30 206:  2.33 207:  2.88 208:  4.00
 209:  3.14 210:  6.71 211:  5.07 212:  7.06 213:  8.29 214:  7.95 215:  6.33 216:  6.37
 217:  6.11 218:  7.86 219:  7.06 220:  6.47 221:  7.55 222:  3.69 223:  4.05 224:  7.01
 225:  6.29 226: 10.54 227:  8.63 228:  8.91 229: 10.07 230:  9.54 231: 11.85 232: 10.81
 233: 11.90 234: 10.83 235: 11.80 236: 11.58 237: 11.46 238: 11.18 239: 10.98 240: 11.03
 241: 11.41 242: 10.93 243: 10.56 244: 10.35 245: 11.08 246: 10.62 247: 11.08 248: 11.23
 249:  9.31 250:  9.79 251: 10.06 252:  9.89 253: 10.08 254:  9.23 255:  9.14 256: 11.49
 257: 10.60 258: 11.43 259: 10.85 260: 10.93 261: 10.33 262: 10.26 263: 10.42 264: 10.49
 265: 10.24 266: 10.61 267: 10.86 268: 11.78 269: 11.46 270: 11.54 271: 11.63 272: 11.65
 273: 11.71 274: 11.60 275: 11.61 276: 11.53 277: 11.54 278: 11.67 279: 11.66 280: 11.69
 281: 11.65 282: 11.53 283: 11.51 284: 11.63 285: 11.68 286: 11.73 287: 11.90 288:  1.75
 289:  1.75 290:  1.76 291:  1.77 292:  1.78 293:  1.76 294:  1.75 295:  1.76 296:  1.79
 297:  1.82 298:  1.81 299:  1.82 300:  1.81 301:  1.81 302:  1.85 303:  1.79 304:  1.81
 305:  1.80 306:  1.82 307:  1.87 308:  1.88 309:  1.88 310:  1.83 311:  1.87 312:  1.88
 313:  1.88 314:  1.90 315:  1.88 316:  1.88 317:  1.92 318:  1.88 319:  1.88 320:  1.88
 321:  1.88 322:  1.88 323:  1.85 324:  1.83
 IR intensities (km·mol⁻¹)
   1:  4.11   2:  2.57   3:  0.77   4:  0.68   5:  0.79   6:  0.31   7:  0.24   8:  8.72
   9:  0.16  10:  0.03  11:  1.92  12:  1.70  13:  2.66  14:  0.77  15:  0.05  16:  1.44
  17:  1.66  18:  0.36  19:  7.37  20:  1.64  21:  1.96  22:  0.19  23:  2.64  24:  0.89
  25:  2.46  26:  0.15  27:  0.73  28: 15.81  29:  1.04  30:  0.62  31:  2.21  32:  1.00
  33:  0.70  34:  2.89  35:  2.83  36:  7.05  37:  1.82  38:  0.36  39:  6.50  40:  1.88
  41:  0.63  42:  0.69  43:  2.20  44:  1.58  45:  0.29  46: 56.61  47:  5.01  48:  1.76
  49:  6.50  50:  3.50  51: 10.26  52:  4.30  53:  1.90  54:  2.20  55:  4.00  56:  6.41
  57:  3.70  58:  9.66  59:  5.72  60:  0.33  61:  1.65  62:  6.44  63: 10.06  64:  2.89
  65:  2.73  66:  0.81  67:  3.16  68:  4.21  69:  0.83  70:  3.79  71:  1.36  72:  4.87
  73: 26.28  74:  4.58  75:  0.65  76:  2.77  77:  0.76  78:  4.52  79:  0.99  80:  5.54
  81:  9.09  82:  9.21  83:  1.97  84: 10.64  85: 11.20  86:  7.42  87:  5.50  88:  4.97
  89:  0.80  90:  3.60  91:  6.64  92:  3.38  93:  0.21  94:  2.36  95:  2.59  96:  4.76
  97:  2.51  98:  7.74  99:  0.65 100:  0.69 101: 20.12 102: 21.11 103:  7.10 104:  4.28
 105:119.00 106:  7.99 107: 36.19 108:103.09 109:  2.71 110: 18.33 111: 20.50 112:  0.15
 113:  4.47 114:  7.38 115:  1.44 116: 14.34 117:  3.87 118: 16.02 119:  1.59 120:  7.46
 121:  7.62 122:  6.22 123:  7.04 124:  6.04 125: 81.90 126:  9.79 127: 21.38 128: 26.29
 129:  2.13 130: 34.83 131: 37.92 132: 26.95 133: 15.98 134: 18.93 135: 61.21 136:  9.08
 137:140.44 138:101.52 139:  6.89 140: 22.00 141:  1.01 142:  9.02 143: 10.63 144:  1.06
 145:  2.15 146:  4.79 147:  5.22 148:  1.75 149: 64.16 150: 20.37 151: 40.38 152:  3.90
 153:  7.46 154: 25.99 155:  0.72 156: 66.20 157:  7.57 158:  9.38 159: 19.31 160:  2.53
 161:  8.47 162:  3.76 163:  9.28 164: 32.20 165:  2.97 166:  4.10 167:  0.75 168: 16.47
 169: 16.96 170:  1.42 171: 72.69 172:  5.31 173: 43.58 174: 92.92 175:  2.65 176:  0.68
 177: 24.96 178: 35.83 179:  7.03 180:  1.59 181: 36.57 182:  0.67 183: 18.90 184: 14.93
 185: 29.37 186: 72.40 187:  7.98 188: 32.96 189: 48.81 190: 18.23 191:  4.54 192: 46.05
 193: 64.17 194: 16.21 195: 19.41 196:170.64 197: 50.49 198: 30.49 199: 29.11 200:177.16
 201: 13.31 202: 32.81 203: 27.89 204: 11.32 205:  9.87 206:  0.95 207: 59.35 208: 52.63
 209: 70.98 210: 25.36 211: 52.10 212:129.98 213: 34.56 214: 63.68 215: 87.48 216:  8.61
 217: 22.42 218:123.57 219:127.07 220: 78.01 221: 23.81 222: 72.63 223: 14.54 224: 35.46
 225:116.56 226:110.96 227: 18.75 228:151.72 229: 16.51 230:174.52 231:  0.52 232: 16.71
 233: 12.61 234: 87.02 235:167.59 236: 27.20 237: 38.60 238:115.70 239:192.03 240: 74.62
 241:  7.75 242: 44.09 243: 15.10 244:176.96 245: 74.49 246:272.69 247: 33.29 248: 50.74
 249: 47.89 250: 21.91 251:  6.04 252: 53.69 253: 46.56 254: 19.37 255:  9.64 256:137.11
 257:103.51 258:288.43 259: 38.11 260: 52.59 261:  0.10 262: 36.96 263: 15.89 264:  5.95
 265:241.44 266:  5.77 267: 43.94 268: 53.11 269:  0.29 270:190.11 271:225.51 272: 94.74
 273: 37.84 274: 46.15 275: 34.38 276: 24.18 277:  0.69 278: 46.62 279: 19.15 280: 48.56
 281: 11.35 282:189.66 283:  0.31 284: 23.05 285: 30.21 286:  3.06 287: 40.73 288: 18.20
 289: 32.12 290: 14.84 291: 41.20 292: 29.49 293: 27.32 294:  0.78 295:  9.98 296: 25.57
 297:110.40 298: 16.11 299:  4.81 300: 26.98 301: 32.11 302:114.08 303: 12.38 304: 19.95
 305: 20.11 306:153.06 307: 77.89 308: 30.77 309: 48.54 310: 59.17 311: 12.84 312:123.45
 313: 74.12 314:121.56 315: 44.95 316: 34.39 317: 26.22 318: 44.07 319: 21.53 320: 19.58
 321: 44.84 322: 15.68 323: 46.87 324: 69.44
 Raman intensities (Ä⁴*amu⁻¹)
   1:  0.00   2:  0.00   3:  0.00   4:  0.00   5:  0.00   6:  0.00   7:  0.00   8:  0.00
   9:  0.00  10:  0.00  11:  0.00  12:  0.00  13:  0.00  14:  0.00  15:  0.00  16:  0.00
  17:  0.00  18:  0.00  19:  0.00  20:  0.00  21:  0.00  22:  0.00  23:  0.00  24:  0.00
  25:  0.00  26:  0.00  27:  0.00  28:  0.00  29:  0.00  30:  0.00  31:  0.00  32:  0.00
  33:  0.00  34:  0.00  35:  0.00  36:  0.00  37:  0.00  38:  0.00  39:  0.00  40:  0.00
  41:  0.00  42:  0.00  43:  0.00  44:  0.00  45:  0.00  46:  0.00  47:  0.00  48:  0.00
  49:  0.00  50:  0.00  51:  0.00  52:  0.00  53:  0.00  54:  0.00  55:  0.00  56:  0.00
  57:  0.00  58:  0.00  59:  0.00  60:  0.00  61:  0.00  62:  0.00  63:  0.00  64:  0.00
  65:  0.00  66:  0.00  67:  0.00  68:  0.00  69:  0.00  70:  0.00  71:  0.00  72:  0.00
  73:  0.00  74:  0.00  75:  0.00  76:  0.00  77:  0.00  78:  0.00  79:  0.00  80:  0.00
  81:  0.00  82:  0.00  83:  0.00  84:  0.00  85:  0.00  86:  0.00  87:  0.00  88:  0.00
  89:  0.00  90:  0.00  91:  0.00  92:  0.00  93:  0.00  94:  0.00  95:  0.00  96:  0.00
  97:  0.00  98:  0.00  99:  0.00 100:  0.00 101:  0.00 102:  0.00 103:  0.00 104:  0.00
 105:  0.00 106:  0.00 107:  0.00 108:  0.00 109:  0.00 110:  0.00 111:  0.00 112:  0.00
 113:  0.00 114:  0.00 115:  0.00 116:  0.00 117:  0.00 118:  0.00 119:  0.00 120:  0.00
 121:  0.00 122:  0.00 123:  0.00 124:  0.00 125:  0.00 126:  0.00 127:  0.00 128:  0.00
 129:  0.00 130:  0.00 131:  0.00 132:  0.00 133:  0.00 134:  0.00 135:  0.00 136:  0.00
 137:  0.00 138:  0.00 139:  0.00 140:  0.00 141:  0.00 142:  0.00 143:  0.00 144:  0.00
 145:  0.00 146:  0.00 147:  0.00 148:  0.00 149:  0.00 150:  0.00 151:  0.00 152:  0.00
 153:  0.00 154:  0.00 155:  0.00 156:  0.00 157:  0.00 158:  0.00 159:  0.00 160:  0.00
 161:  0.00 162:  0.00 163:  0.00 164:  0.00 165:  0.00 166:  0.00 167:  0.00 168:  0.00
 169:  0.00 170:  0.00 171:  0.00 172:  0.00 173:  0.00 174:  0.00 175:  0.00 176:  0.00
 177:  0.00 178:  0.00 179:  0.00 180:  0.00 181:  0.00 182:  0.00 183:  0.00 184:  0.00
 185:  0.00 186:  0.00 187:  0.00 188:  0.00 189:  0.00 190:  0.00 191:  0.00 192:  0.00
 193:  0.00 194:  0.00 195:  0.00 196:  0.00 197:  0.00 198:  0.00 199:  0.00 200:  0.00
 201:  0.00 202:  0.00 203:  0.00 204:  0.00 205:  0.00 206:  0.00 207:  0.00 208:  0.00
 209:  0.00 210:  0.00 211:  0.00 212:  0.00 213:  0.00 214:  0.00 215:  0.00 216:  0.00
 217:  0.00 218:  0.00 219:  0.00 220:  0.00 221:  0.00 222:  0.00 223:  0.00 224:  0.00
 225:  0.00 226:  0.00 227:  0.00 228:  0.00 229:  0.00 230:  0.00 231:  0.00 232:  0.00
 233:  0.00 234:  0.00 235:  0.00 236:  0.00 237:  0.00 238:  0.00 239:  0.00 240:  0.00
 241:  0.00 242:  0.00 243:  0.00 244:  0.00 245:  0.00 246:  0.00 247:  0.00 248:  0.00
 249:  0.00 250:  0.00 251:  0.00 252:  0.00 253:  0.00 254:  0.00 255:  0.00 256:  0.00
 257:  0.00 258:  0.00 259:  0.00 260:  0.00 261:  0.00 262:  0.00 263:  0.00 264:  0.00
 265:  0.00 266:  0.00 267:  0.00 268:  0.00 269:  0.00 270:  0.00 271:  0.00 272:  0.00
 273:  0.00 274:  0.00 275:  0.00 276:  0.00 277:  0.00 278:  0.00 279:  0.00 280:  0.00
 281:  0.00 282:  0.00 283:  0.00 284:  0.00 285:  0.00 286:  0.00 287:  0.00 288:  0.00
 289:  0.00 290:  0.00 291:  0.00 292:  0.00 293:  0.00 294:  0.00 295:  0.00 296:  0.00
 297:  0.00 298:  0.00 299:  0.00 300:  0.00 301:  0.00 302:  0.00 303:  0.00 304:  0.00
 305:  0.00 306:  0.00 307:  0.00 308:  0.00 309:  0.00 310:  0.00 311:  0.00 312:  0.00
 313:  0.00 314:  0.00 315:  0.00 316:  0.00 317:  0.00 318:  0.00 319:  0.00 320:  0.00
 321:  0.00 322:  0.00 323:  0.00 324:  0.00
 output can be read by thermo (or use thermo option).
 writing <g98.out> molden fake output.
 recommended (thermochemical) frequency scaling factor: 1.0
           -------------------------------------------------
          |             Thermodynamic Functions             |
           -------------------------------------------------

Molecule has no symmetry elements
It seems to be the C1 point group
c1  symmetry found (for desy threshold:  0.10E+00) used in thermo

          ...................................................
          :                      SETUP                      :
          :.................................................:
          :  # frequencies                         318      :
          :  # imaginary freq.                       0      :
          :  linear?                             false      :
          :  only rotor calc.                    false      :
          :  symmetry                               c1      :
          :  rotational number                       1      :
          :  scaling factor                  1.0000000      :
          :  rotor cutoff                   50.0000000 cm⁻¹ :
          :  imag. cutoff                  -20.0000000 cm⁻¹ :
          :.................................................:

    mode    ω/cm⁻¹     T·S(HO)/kcal·mol⁻¹    T·S(FR)/kcal·mol⁻¹   T·S(vib)
   ------------------------------------------------------------------------
       1      6.11    -2.68056 (  0.02%)    -1.67935 ( 99.98%)    -1.67957
       2      9.01    -2.45047 (  0.11%)    -1.56430 ( 99.89%)    -1.56524
       3     10.47    -2.36136 (  0.19%)    -1.51974 ( 99.81%)    -1.52136
       4     17.53    -2.05614 (  1.49%)    -1.36708 ( 98.51%)    -1.37733
       5     21.49    -1.93548 (  3.30%)    -1.30671 ( 96.70%)    -1.32746
       6     31.59    -1.70752 ( 13.74%)    -1.19258 ( 86.26%)    -1.26335
       7     35.00    -1.64688 ( 19.36%)    -1.16220 ( 80.64%)    -1.25605
       8     37.27    -1.60971 ( 23.60%)    -1.14357 ( 76.40%)    -1.25355
       9     41.31    -1.54893 ( 31.79%)    -1.11309 ( 68.21%)    -1.25164
      10     45.61    -1.49056 ( 40.90%)    -1.08380 ( 59.10%)    -1.25018
      11     54.22    -1.38857 ( 58.03%)    -1.03255 ( 41.97%)    -1.23914
      12     57.73    -1.35158 ( 64.00%)    -1.01395 ( 36.00%)    -1.23002
      13     63.19    -1.29848 ( 71.83%)    -0.98721 ( 28.17%)    -1.21081
      14     66.03    -1.27258 ( 75.26%)    -0.97415 ( 24.74%)    -1.19875
      15     70.45    -1.23453 ( 79.77%)    -0.95496 ( 20.23%)    -1.17796
      16     72.64    -1.21662 ( 81.67%)    -0.94591 ( 18.33%)    -1.16699
      17     74.32    -1.20322 ( 82.99%)    -0.93914 ( 17.01%)    -1.15831
      18     87.49    -1.10775 ( 90.36%)    -0.89080 (  9.64%)    -1.08684
      19     89.90    -1.09186 ( 91.27%)    -0.88273 (  8.73%)    -1.07360
      20     96.60    -1.04999 ( 93.30%)    -0.86144 (  6.70%)    -1.03737
      21    105.93    -0.99646 ( 95.27%)    -0.83414 (  4.73%)    -0.98879
      22    117.57    -0.93617 ( 96.83%)    -0.80326 (  3.17%)    -0.93196
      23    125.72    -0.89756 ( 97.56%)    -0.78339 (  2.44%)    -0.89478
      24    129.04    -0.88260 ( 97.80%)    -0.77567 (  2.20%)    -0.88024
      25    137.90    -0.84459 ( 98.30%)    -0.75600 (  1.70%)    -0.84308
      26    140.25    -0.83494 ( 98.41%)    -0.75099 (  1.59%)    -0.83360
      27    149.30    -0.79936 ( 98.76%)    -0.73247 (  1.24%)    -0.79853
      28    158.01    -0.76728 ( 99.01%)    -0.71568 (  0.99%)    -0.76677
      29    164.62    -0.74417 ( 99.16%)    -0.70353 (  0.84%)    -0.74383
      30    167.43    -0.73469 ( 99.21%)    -0.69853 (  0.79%)    -0.73441
      31    177.57    -0.70179 ( 99.38%)    -0.68111 (  0.62%)    -0.70166
      32    194.49    -0.65134 ( 99.57%)    -0.65415 (  0.43%)    -0.65135
      33    208.28    -0.61381 ( 99.67%)    -0.63386 (  0.33%)    -0.61387
      34    218.03    -0.58897 ( 99.72%)    -0.62030 (  0.28%)    -0.58906
      35    220.62    -0.58260 ( 99.74%)    -0.61681 (  0.26%)    -0.58269
      36    229.31    -0.56182 ( 99.77%)    -0.60536 (  0.23%)    -0.56192
      37    236.96    -0.54430 ( 99.80%)    -0.59564 (  0.20%)    -0.54440
      38    239.76    -0.53806 ( 99.81%)    -0.59216 (  0.19%)    -0.53816
      39    242.36    -0.53234 ( 99.82%)    -0.58896 (  0.18%)    -0.53245
      40    248.49    -0.51916 ( 99.84%)    -0.58156 (  0.16%)    -0.51926
      41    259.34    -0.49679 ( 99.86%)    -0.56890 (  0.14%)    -0.49689
      42    262.64    -0.49019 ( 99.87%)    -0.56515 (  0.13%)    -0.49029
      43    272.03    -0.47206 ( 99.89%)    -0.55475 (  0.11%)    -0.47215
      44    287.07    -0.44459 ( 99.91%)    -0.53881 (  0.09%)    -0.44468
      45    295.85    -0.42941 ( 99.92%)    -0.52988 (  0.08%)    -0.42949
   ------------------------------------------------------------------------

   temp. (K)  partition function   enthalpy   heat capacity  entropy
                                   cal/mol     cal/K/mol   cal/K/mol   J/K/mol
 298.15  VIB  0.438E+25            31952.646    204.920    198.471
         ROT  0.210E+09              888.752      2.981     41.059
         INT  0.918E+33            32841.398    207.901    239.530
         TR   0.272E+29             1481.254      4.968     46.325
         TOT                       34322.6522   212.8692   285.8547  1196.0161

       T/K    H(0)-H(T)+PV         H(T)/Eh          T*S/Eh         G(T)/Eh
   ------------------------------------------------------------------------
    298.15    0.546966E-01    0.857848E+00    0.135819E+00    0.722030E+00
   ------------------------------------------------------------------------

         :::::::::::::::::::::::::::::::::::::::::::::::::::::
         ::                  THERMODYNAMIC                  ::
         :::::::::::::::::::::::::::::::::::::::::::::::::::::
         :: total free energy        -177.249783283449 Eh   ::
         ::.................................................::
         :: total energy             -177.971812932222 Eh   ::
         :: zero point energy           0.803151821596 Eh   ::
         :: G(RRHO) w/o ZPVE           -0.081122172823 Eh   ::
         :: G(RRHO) contrib.            0.722029648773 Eh   ::
         :::::::::::::::::::::::::::::::::::::::::::::::::::::

optimized geometry written to: xtbopt.xyz


           -------------------------------------------------
          | TOTAL ENERGY             -177.971812932222 Eh   |
          | TOTAL ENTHALPY           -177.113964482704 Eh   |
          | TOTAL FREE ENERGY        -177.249783283449 Eh   |
          | GRADIENT NORM               0.000067948337 Eh/α |
           -------------------------------------------------

------------------------------------------------------------------------
 * finished run on 2025/09/13 at 06:44:49.020     
------------------------------------------------------------------------
 total:
 * wall-time:     0 d,  0 h,  0 min, 25.802 sec
 *  cpu-time:     0 d,  0 h, 15 min, 16.199 sec
 * ratio c/w:    35.509 speedup
 SCF:
 * wall-time:     0 d,  0 h,  0 min,  0.633 sec
 *  cpu-time:     0 d,  0 h,  0 min, 24.977 sec
 * ratio c/w:    39.427 speedup
 ANC optimizer:
 * wall-time:     0 d,  0 h,  0 min,  9.061 sec
 *  cpu-time:     0 d,  0 h,  6 min,  2.376 sec
 * ratio c/w:    39.992 speedup
 analytical hessian:
 * wall-time:     0 d,  0 h,  0 min, 16.020 sec
 *  cpu-time:     0 d,  0 h,  8 min, 47.010 sec
 * ratio c/w:    32.898 speedup

