55
 energy: -101.749374983966 gnorm: 0.000044777848 xtb: 6.7.1 (edcfbbe)
C            3.35303078986753        6.59349571830168       -0.00436425069183
C            1.98915583772459        5.98092325211343       -0.00966705641695
C            1.78751503897875        4.61285828655196        0.00249792087474
C            0.49926260716163        4.06291006242273       -0.00387242217547
C            0.32300989326571        2.62975270054048        0.00583170559810
N            1.41431117050125        1.84982411404870        0.01685924007712
C            1.29177391261186        0.54795133666135        0.01772772229791
N            2.31272154311536       -0.26895376479314        0.02295781952975
C            2.11496622737023       -1.59571057520220        0.01552036242853
C            3.26912402906154       -2.46355880534009        0.01141898912760
C            4.55975758638488       -1.92141519648704        0.03130461884541
C            5.65631729132908       -2.75693260334840        0.02347085840532
C            5.45699224274716       -4.12677069455216       -0.00633253990603
F            6.54120068323928       -4.93441669584172       -0.01509023477955
C            4.18952993840812       -4.71078714861954       -0.02664038215338
C            4.03992556017197       -6.19795300470646       -0.06503607317193
C            3.10387072169764       -3.85413874718980       -0.01617227174781
N            0.89393711134853       -2.15112466839275        0.00834326236065
C           -0.17226847604958       -1.39390308024186        0.00729760335334
N           -1.39025339977641       -1.86960276290416        0.00356925548605
C           -2.44035569193447       -1.03483893529870        0.00181348264462
C           -3.76934881781520       -1.59971695158707        0.00095872804887
C           -3.94652721772524       -2.98848805065104        0.00143611440277
C           -5.21911529788281       -3.51880310432510        0.00151066307611
C           -6.30510988609954       -2.65999822160809        0.00099415080043
F           -7.54732094651292       -3.19359683647990        0.00141188707969
C           -6.17577604659578       -1.27028342032955        0.00055133074814
C           -7.38857218214445       -0.39593157196827       -0.00082802763898
C           -4.89046125874283       -0.75999251741066        0.00051267442148
N           -2.31073417299912        0.30033594304481        0.00070764573744
C           -1.12193415486313        0.84515527594864        0.00380968511473
N           -0.92498353097825        2.13788962251781        0.00096352301844
N           -0.00086899908554       -0.00028678961084        0.00994322451834
C           -0.61429625506128        4.91117784690797       -0.02244687246719
C           -0.43632236909485        6.27822896241946       -0.03488759653854
C            0.85081309672551        6.78833288675525       -0.02857738482262
F            1.01085404737472        8.13076212178044       -0.04116797105245
H            3.46660373248541        7.24620118180036        0.86011394858952
H            3.49126373392271        7.20530047815533       -0.89487879218633
H            4.11903461539522        5.82508662773532        0.02385960016603
H            2.63087563077400        3.93942043449196        0.01699118560714
H            4.67629201788341       -0.84970175229203        0.05285833439568
H            6.66164095431458       -2.36677219955624        0.03913964118899
H            4.44973090732498       -6.58877359041652       -0.99576645056133
H            4.59653405963816       -6.65317638427777        0.75262965159914
H            2.99468712842017       -6.48083973333678        0.00925505349237
H            2.09976646287535       -4.24972083274951       -0.03061048698936
H           -3.07737933973856       -3.62668105005043        0.00177178254963
H           -5.38504529424215       -4.58442885473645        0.00197247527257
H           -7.10643537134558        0.65194957013168        0.01800254425037
H           -8.00991773954122       -0.61679020771815        0.86596040398348
H           -7.98777772545767       -0.59012231308636       -0.88947562813390
H           -4.72980577676796        0.30729803318278        0.00023059247948
H           -1.60161089458970        4.47776298287141       -0.02724325817336
H           -1.27554923164630        6.95541624533635       -0.04958889710379
