      -----------------------------------------------------------      
     |                   =====================                   |     
     |                           x T B                           |     
     |                   =====================                   |     
     |                         S. Grimme                         |     
     |          Mulliken Center for Theoretical Chemistry        |     
     |                    University of Bonn                     |     
      -----------------------------------------------------------      

   * xtb version 6.7.1 (edcfbbe) compiled by 'albert@albert-system' on 2024-07-22

   xtb is free software: you can redistribute it and/or modify it under
   the terms of the GNU Lesser General Public License as published by
   the Free Software Foundation, either version 3 of the License, or
   (at your option) any later version.
   
   xtb is distributed in the hope that it will be useful,
   but WITHOUT ANY WARRANTY; without even the implied warranty of
   MERCHANTABILITY or FITNESS FOR A PARTICULAR PURPOSE.  See the
   GNU Lesser General Public License for more details.
   
   Cite this work as:
   * C. Bannwarth, E. Caldeweyher, S. Ehlert, A. Hansen, P. Pracht,
     J. Seibert, S. Spicher, S. Grimme, WIREs Comput. Mol. Sci., 2020, 11,
     e01493. DOI: 10.1002/wcms.1493
   
   for GFN2-xTB:
   * C. Bannwarth, S. Ehlert and S. Grimme., J. Chem. Theory Comput., 2019,
     15, 1652-1671. DOI: 10.1021/acs.jctc.8b01176
   for GFN1-xTB:
   * S. Grimme, C. Bannwarth, P. Shushkov, J. Chem. Theory Comput., 2017,
     13, 1989-2009. DOI: 10.1021/acs.jctc.7b00118
   for GFN0-xTB:
   * P. Pracht, E. Caldeweyher, S. Ehlert, S. Grimme, ChemRxiv, 2019, preprint.
     DOI: 10.26434/chemrxiv.8326202.v1
   for GFN-FF:
   * S. Spicher and S. Grimme, Angew. Chem. Int. Ed., 2020, 59, 15665-15673.
     DOI: 10.1002/anie.202004239
   
   for ALPB and GBSA implicit solvation:
   * S. Ehlert, M. Stahn, S. Spicher, S. Grimme, J. Chem. Theory Comput.,
     2021, 17, 4250-4261. DOI: 10.1021/acs.jctc.1c00471
   
   for ddCOSMO and CPCM-X implicit solvation:
   * M. Stahn, S. Ehlert, S. Grimme, J. Phys. Chem. A,
     2023, XX, XXXX-XXXX. DOI: 10.1021/acs.jpca.3c04382
   
   for DFT-D4:
   * E. Caldeweyher, C. Bannwarth and S. Grimme, J. Chem. Phys., 2017,
     147, 034112. DOI: 10.1063/1.4993215
   * E. Caldeweyher, S. Ehlert, A. Hansen, H. Neugebauer, S. Spicher,
     C. Bannwarth and S. Grimme, J. Chem. Phys., 2019, 150, 154122.
     DOI: 10.1063/1.5090222
   * E. Caldeweyher, J.-M. Mewes, S. Ehlert and S. Grimme, Phys. Chem. Chem. Phys.
     2020, 22, 8499-8512. DOI: 10.1039/D0CP00502A
   
   for sTDA-xTB:
   * S. Grimme and C. Bannwarth, J. Chem. Phys., 2016, 145, 054103.
     DOI: 10.1063/1.4959605
   
   in the mass-spec context:
   * V. Asgeirsson, C. Bauer and S. Grimme, Chem. Sci., 2017, 8, 4879.
     DOI: 10.1039/c7sc00601b
   * J. Koopman and S. Grimme, ACS Omega 2019, 4, 12, 15120-15133.
     DOI: 10.1021/acsomega.9b02011
   
   for metadynamics refer to:
   * S. Grimme, J. Chem. Theory Comput., 2019, 155, 2847-2862
     DOI: 10.1021/acs.jctc.9b00143
   
   for SPH calculations refer to:
   * S. Spicher and S. Grimme, J. Chem. Theory Comput., 2021, 17, 1701-1714
     DOI: 10.1021/acs.jctc.0c01306
   
   for ONIOM refer to:
   * C. Plett, A. Katbashev, S. Ehlert, S. Grimme, M. Bursch,
     Phys. Chem. Chem. Phys., 2023, 25, 17860-17868. DOI: 10.1039/D3CP02178E
   
   for DIPRO refer to:
   * J. Kohn, N. Gildemeister, S. Grimme, D. Fazzi, A. Hansen,
     J. Chem. Phys., 2023, just accepted.
   
   for PTB refer to:
   * S. Grimme, M. Mueller, A. Hansen, J. Chem. Phys., 2023, 158, 124111.
     DOI: 10.1063/5.0137838
   
   with help from (in alphabetical order)
   P. Atkinson, C. Bannwarth, F. Bohle, G. Brandenburg, E. Caldeweyher
   M. Checinski, S. Dohm, S. Ehlert, S. Ehrlich, I. Gerasimov, C. Hölzer
   A. Katbashev, J. Kohn, J. Koopman, C. Lavigne, S. Lehtola, F. März, M. Müller,
   F. Musil, H. Neugebauer, J. Pisarek, C. Plett, P. Pracht, F. Pultar,
   J. Seibert, P. Shushkov, S. Spicher, M. Stahn, M. Steiner, T. Strunk,
   J. Stückrath, T. Rose, and J. Unsleber
   
 * started run on 2025/09/10 at 08:59:34.487     
   ID    Z sym.   atoms
    1    6 C      1-13, 15-37
    2    7 N      14
    3    1 H      38-68

           -------------------------------------------------
          |                Calculation Setup                |
           -------------------------------------------------

          program call               : xtb data2507/gas/F2PA/F2PA_gas_S0_crest.xyz --gfn 2 --ohess vtight --parallel 40 --molden --ceasefiles --namespace data2507/gas/F2PA/F2PA_gas_S0_finalOpt
          calculation namespace      : data2507/gas/F2PA/F2PA_gas_S0_finalOpt
          coordinate file            : data2507/gas/F2PA/F2PA_gas_S0_crest.xyz
          omp threads                :                    40


           -------------------------------------------------
          |                 G F N 2 - x T B                 |
           -------------------------------------------------

        Reference                      10.1021/acs.jctc.8b01176
      * Hamiltonian:
        H0-scaling (s, p, d)           1.850000    2.230000    2.230000
        zeta-weighting                 0.500000
      * Dispersion:
        s8                             2.700000
        a1                             0.520000
        a2                             5.000000
        s9                             5.000000
      * Repulsion:
        kExp                           1.500000    1.000000
        rExp                           1.000000
      * Coulomb:
        alpha                          2.000000
        third order                    shell-resolved
        anisotropic                    true
        a3                             3.000000
        a5                             4.000000
        cn-shift                       1.200000
        cn-exp                         4.000000
        max-rad                        5.000000


          ...................................................
          :                      SETUP                      :
          :.................................................:
          :  # basis functions                 179          :
          :  # atomic orbitals                 179          :
          :  # shells                          105          :
          :  # electrons                       180          :
          :  max. iterations                   250          :
          :  Hamiltonian                  GFN2-xTB          :
          :  restarted?                      false          :
          :  GBSA solvation                  false          :
          :  PC potential                    false          :
          :  electronic temp.          300.0000000     K    :
          :  accuracy                    1.0000000          :
          :  -> integral cutoff          0.2500000E+02      :
          :  -> integral neglect         0.1000000E-07      :
          :  -> SCF convergence          0.1000000E-05 Eh   :
          :  -> wf. convergence          0.1000000E-03 e    :
          :  Broyden damping             0.4000000          :
          :  net charge                          0          :
          :  unpaired electrons                  0          :
          ...................................................

 iter      E             dE          RMSdq      gap      omega  full diag
   1    -97.5840411 -0.975840E+02  0.349E+00    2.21       0.0  T
   2    -97.6463316 -0.622905E-01  0.212E+00    2.55       1.0  T
   3    -97.6163255  0.300062E-01  0.892E-01    2.37       1.0  T
   4    -97.6528277 -0.365022E-01  0.309E-01    2.56       1.0  T
   5    -97.6588028 -0.597512E-02  0.976E-02    2.49       1.0  T
   6    -97.6594866 -0.683842E-03  0.368E-02    2.51       1.0  T
   7    -97.6595352 -0.485452E-04  0.170E-02    2.50       1.0  T
   8    -97.6595369 -0.169667E-05  0.387E-03    2.50       3.1  T
   9    -97.6595375 -0.591106E-06  0.895E-04    2.50      13.5  T
  10    -97.6595375 -0.264411E-07  0.450E-04    2.50      26.9  T

   *** convergence criteria satisfied after 10 iterations ***

         #    Occupation            Energy/Eh            Energy/eV
      -------------------------------------------------------------
         1        2.0000           -0.6620066             -18.0141
       ...           ...                  ...                  ...
        84        2.0000           -0.4006820             -10.9031
        85        2.0000           -0.3989224             -10.8552
        86        2.0000           -0.3940015             -10.7213
        87        2.0000           -0.3935201             -10.7082
        88        2.0000           -0.3869567             -10.5296
        89        2.0000           -0.3763841             -10.2419
        90        2.0000           -0.3425369              -9.3209 (HOMO)
        91                         -0.2505502              -6.8178 (LUMO)
        92                         -0.2429496              -6.6110
        93                         -0.2240019              -6.0954
        94                         -0.2192349              -5.9657
        95                         -0.2189730              -5.9586
       ...                                ...                  ...
       179                          0.7381053              20.0849
      -------------------------------------------------------------
                  HL-Gap            0.0919867 Eh            2.5031 eV
             Fermi-level           -0.2965436 Eh           -8.0694 eV

 SCC (total)                   0 d,  0 h,  0 min,  0.101 sec
 SCC setup                      ...        0 min,  0.001 sec (  0.629%)
 Dispersion                     ...        0 min,  0.003 sec (  2.538%)
 classical contributions        ...        0 min,  0.000 sec (  0.127%)
 integral evaluation            ...        0 min,  0.005 sec (  5.310%)
 iterations                     ...        0 min,  0.083 sec ( 81.637%)
 molecular gradient             ...        0 min,  0.009 sec (  8.842%)
 printout                       ...        0 min,  0.001 sec (  0.812%)

         :::::::::::::::::::::::::::::::::::::::::::::::::::::
         ::                     SUMMARY                     ::
         :::::::::::::::::::::::::::::::::::::::::::::::::::::
         :: total energy             -95.880496268340 Eh    ::
         :: gradient norm              0.000300790045 Eh/a0 ::
         :: HOMO-LUMO gap              2.503085845972 eV    ::
         ::.................................................::
         :: SCC energy               -97.658665003737 Eh    ::
         :: -> isotropic ES            0.008464618258 Eh    ::
         :: -> anisotropic ES          0.014631259978 Eh    ::
         :: -> anisotropic XC          0.054727340467 Eh    ::
         :: -> dispersion             -0.090549636376 Eh    ::
         :: repulsion energy           1.778168735396 Eh    ::
         :: add. restraining           0.000000000000 Eh    ::
         :: total charge              -0.000000000000 e     ::
         :::::::::::::::::::::::::::::::::::::::::::::::::::::

      ----------------------------------------------------------- 
     |                   =====================                   |
     |                        A N C O P T                        |
     |                   =====================                   |
     |               Approximate Normal Coordinate               |
     |                Rational Function Optimizer                |
      ----------------------------------------------------------- 

Optimization log is written to '/dev/null'
      ----------------------------------------------------------- 
     |                   =====================                   |
     |                        A N C O P T                        |
     |                   =====================                   |
     |               Approximate Normal Coordinate               |
     |                Rational Function Optimizer                |
      ----------------------------------------------------------- 

          ...................................................
          :                      SETUP                      :
          :.................................................:
          :   optimization level         verytight          :
          :   max. optcycles                  1360          :
          :   ANC micro-cycles                  20          :
          :   degrees of freedom               198          :
          :.................................................:
          :   RF solver                   davidson          :
          :   write xtbopt.log                true          :
          :   linear?                        false          :
          :   energy convergence         0.1000000E-06 Eh   :
          :   grad. convergence          0.2000000E-03 Eh/α :
          :   maxmium RF displ.          1.0000000          :
          :   Hlow (freq-cutoff)         0.1000000E-01      :
          :   Hmax (freq-cutoff)         5.0000000          :
          :   S6 in model hess.         20.0000000          :
          ...................................................

generating ANC from exact Hessian ...
Using Lindh-Hessian (1995)
 Shifting diagonal of input Hessian by   9.795027273832427E-003
 Lowest  eigenvalues of input Hessian
    0.000000    0.000000    0.000000    0.000000    0.000000    0.000000
    0.010000    0.010015    0.010069    0.010300    0.010768    0.010905
    0.011694    0.011909    0.012610    0.012642    0.013096    0.013469
 Highest eigenvalues
    2.040397    2.042888    2.076514    2.096006    2.165835    2.166528
 

........................................................................
.............................. CYCLE    1 ..............................
........................................................................

 iter      E             dE          RMSdq      gap      omega  full diag
   1    -97.6595375 -0.976595E+02  0.175E-04    2.50       0.0  T
   2    -97.6595375 -0.347086E-09  0.107E-04    2.50     113.0  T
   3    -97.6595375 -0.170843E-09  0.671E-05    2.50     180.8  T
     SCC iter.                  ...        0 min,  0.022 sec
     gradient                   ...        0 min,  0.009 sec
 * total energy  :   -95.8804963 Eh     change       -0.4615131E-08 Eh
   gradient norm :     0.0003002 Eh/α   predicted     0.0000000E+00 (-100.00%)
   displ. norm   :     0.0091688 α      lambda       -0.1368930E-06
   maximum displ.:     0.0034988 α      in ANC's #4, #6, #7, ...

........................................................................
.............................. CYCLE    2 ..............................
........................................................................

 iter      E             dE          RMSdq      gap      omega  full diag
   1    -97.6592626 -0.976593E+02  0.313E-03    2.50       0.0  T
   2    -97.6592626 -0.348295E-08  0.184E-03    2.50       6.6  T
   3    -97.6592626  0.340586E-08  0.231E-04    2.50      52.4  T
   4    -97.6592626 -0.403105E-08  0.691E-05    2.50     175.4  T
     SCC iter.                  ...        0 min,  0.028 sec
     gradient                   ...        0 min,  0.008 sec
 * total energy  :   -95.8804970 Eh     change       -0.7177954E-06 Eh
   gradient norm :     0.0001901 Eh/α   predicted    -0.4465541E-06 ( -37.79%)
   displ. norm   :     0.0125834 α      lambda       -0.5194964E-06
   maximum displ.:     0.0054971 α      in ANC's #4, #6, #7, ...

........................................................................
.............................. CYCLE    3 ..............................
........................................................................

 iter      E             dE          RMSdq      gap      omega  full diag
   1    -97.6592008 -0.976592E+02  0.309E-03    2.50       0.0  T
   2    -97.6592008 -0.171663E-08  0.181E-03    2.50       6.7  T
   3    -97.6592008  0.240996E-08  0.209E-04    2.50      58.1  T
   4    -97.6592008 -0.296872E-08  0.395E-05    2.50     307.1  T
     SCC iter.                  ...        0 min,  0.028 sec
     gradient                   ...        0 min,  0.008 sec
 * total energy  :   -95.8804977 Eh     change       -0.6946905E-06 Eh
   gradient norm :     0.0001855 Eh/α   predicted    -0.2604640E-06 ( -62.51%)
   displ. norm   :     0.0476697 α      lambda       -0.1672702E-05
   maximum displ.:     0.0206919 α      in ANC's #4, #6, #7, ...

........................................................................
.............................. CYCLE    4 ..............................
........................................................................

 iter      E             dE          RMSdq      gap      omega  full diag
   1    -97.6593082 -0.976593E+02  0.115E-02    2.50       0.0  T
   2    -97.6593082 -0.245499E-07  0.675E-03    2.50       1.8  T
   3    -97.6593082  0.372998E-07  0.813E-04    2.50      14.9  T
   4    -97.6593082 -0.454047E-07  0.148E-04    2.50      82.2  T
     SCC iter.                  ...        0 min,  0.028 sec
     gradient                   ...        0 min,  0.008 sec
 * total energy  :   -95.8804993 Eh     change       -0.1651074E-05 Eh
   gradient norm :     0.0001025 Eh/α   predicted    -0.8429051E-06 ( -48.95%)
   displ. norm   :     0.0251117 α      lambda       -0.4032076E-06
   maximum displ.:     0.0124426 α      in ANC's #4, #6, #5, ...

........................................................................
.............................. CYCLE    5 ..............................
........................................................................

 iter      E             dE          RMSdq      gap      omega  full diag
   1    -97.6593617 -0.976594E+02  0.572E-03    2.50       0.0  T
   2    -97.6593617 -0.556145E-08  0.336E-03    2.50       3.6  T
   3    -97.6593617  0.123365E-07  0.425E-04    2.50      28.5  T
   4    -97.6593617 -0.144745E-07  0.756E-05    2.50     160.4  T
     SCC iter.                  ...        0 min,  0.027 sec
     gradient                   ...        0 min,  0.008 sec
 * total energy  :   -95.8804998 Eh     change       -0.4377650E-06 Eh
   gradient norm :     0.0000788 Eh/α   predicted    -0.2059331E-06 ( -52.96%)
   displ. norm   :     0.0168187 α      lambda       -0.2525732E-06
   maximum displ.:     0.0091822 α      in ANC's #4, #6, #2, ...

........................................................................
.............................. CYCLE    6 ..............................
........................................................................

 iter      E             dE          RMSdq      gap      omega  full diag
   1    -97.6593859 -0.976594E+02  0.342E-03    2.50       0.0  T
   2    -97.6593859 -0.208155E-08  0.201E-03    2.50       6.0  T
   3    -97.6593859  0.359678E-08  0.245E-04    2.50      49.6  T
   4    -97.6593859 -0.434849E-08  0.431E-05    2.50     281.1  T
     SCC iter.                  ...        0 min,  0.029 sec
     gradient                   ...        0 min,  0.009 sec
 * total energy  :   -95.8805001 Eh     change       -0.3369644E-06 Eh
   gradient norm :     0.0000608 Eh/α   predicted    -0.1317119E-06 ( -60.91%)
   displ. norm   :     0.0247896 α      lambda       -0.4489686E-06
   maximum displ.:     0.0136695 α      in ANC's #4, #6, #2, ...

........................................................................
.............................. CYCLE    7 ..............................
........................................................................

 iter      E             dE          RMSdq      gap      omega  full diag
   1    -97.6594128 -0.976594E+02  0.455E-03    2.50       0.0  T
   2    -97.6594128 -0.347637E-08  0.267E-03    2.50       4.5  T
   3    -97.6594128  0.474307E-08  0.308E-04    2.50      39.4  T
   4    -97.6594128 -0.609795E-08  0.513E-05    2.50     236.4  T
     SCC iter.                  ...        0 min,  0.027 sec
     gradient                   ...        0 min,  0.009 sec
 * total energy  :   -95.8805007 Eh     change       -0.5410902E-06 Eh
   gradient norm :     0.0000671 Eh/α   predicted    -0.2250066E-06 ( -58.42%)
   displ. norm   :     0.0302255 α      lambda       -0.4124687E-06
   maximum displ.:     0.0168720 α      in ANC's #4, #2, #6, ...

........................................................................
.............................. CYCLE    8 ..............................
........................................................................

 iter      E             dE          RMSdq      gap      omega  full diag
   1    -97.6593787 -0.976594E+02  0.527E-03    2.50       0.0  T
   2    -97.6593787 -0.462873E-08  0.309E-03    2.50       3.9  T
   3    -97.6593787  0.695432E-08  0.359E-04    2.50      33.8  T
   4    -97.6593787 -0.885623E-08  0.589E-05    2.50     205.8  T
     SCC iter.                  ...        0 min,  0.026 sec
     gradient                   ...        0 min,  0.009 sec
 * total energy  :   -95.8805011 Eh     change       -0.4304521E-06 Eh
   gradient norm :     0.0000812 Eh/α   predicted    -0.2068953E-06 ( -51.94%)
   displ. norm   :     0.0169732 α      lambda       -0.1522299E-06
   maximum displ.:     0.0098342 α      in ANC's #4, #2, #6, ...

........................................................................
.............................. CYCLE    9 ..............................
........................................................................

 iter      E             dE          RMSdq      gap      omega  full diag
   1    -97.6593699 -0.976594E+02  0.273E-03    2.50       0.0  T
   2    -97.6593699 -0.127359E-08  0.160E-03    2.50       7.6  T
   3    -97.6593699  0.247775E-08  0.199E-04    2.50      61.0  T
   4    -97.6593699 -0.306019E-08  0.322E-05    2.50     376.9  T
     SCC iter.                  ...        0 min,  0.026 sec
     gradient                   ...        0 min,  0.009 sec
 * total energy  :   -95.8805013 Eh     change       -0.1751145E-06 Eh
   gradient norm :     0.0000611 Eh/α   predicted    -0.7757115E-07 ( -55.70%)
   displ. norm   :     0.0131086 α      lambda       -0.1290924E-06
   maximum displ.:     0.0076021 α      in ANC's #4, #2, #1, ...

........................................................................
.............................. CYCLE   10 ..............................
........................................................................

 iter      E             dE          RMSdq      gap      omega  full diag
   1    -97.6593595 -0.976594E+02  0.192E-03    2.50       0.0  T
   2    -97.6593595 -0.599584E-09  0.113E-03    2.50      10.8  T
   3    -97.6593595  0.116364E-08  0.134E-04    2.50      90.2  T
   4    -97.6593595 -0.144792E-08  0.225E-05    2.50     539.4  T
     SCC iter.                  ...        0 min,  0.027 sec
     gradient                   ...        0 min,  0.009 sec
 * total energy  :   -95.8805014 Eh     change       -0.1659794E-06 Eh
   gradient norm :     0.0000361 Eh/α   predicted    -0.6578324E-07 ( -60.37%)
   displ. norm   :     0.0183069 α      lambda       -0.1873013E-06
   maximum displ.:     0.0103806 α      in ANC's #2, #4, #1, ...

........................................................................
.............................. CYCLE   11 ..............................
........................................................................

 iter      E             dE          RMSdq      gap      omega  full diag
   1    -97.6593379 -0.976593E+02  0.266E-03    2.50       0.0  T
   2    -97.6593379 -0.108258E-08  0.156E-03    2.50       7.8  T
   3    -97.6593379  0.179828E-08  0.171E-04    2.50      70.9  T
   4    -97.6593379 -0.228987E-08  0.312E-05    2.50     388.5  T
     SCC iter.                  ...        0 min,  0.026 sec
     gradient                   ...        0 min,  0.009 sec
 * total energy  :   -95.8805016 Eh     change       -0.2192761E-06 Eh
   gradient norm :     0.0000570 Eh/α   predicted    -0.9418380E-07 ( -57.05%)
   displ. norm   :     0.0175652 α      lambda       -0.1262122E-06
   maximum displ.:     0.0101691 α      in ANC's #2, #4, #1, ...

........................................................................
.............................. CYCLE   12 ..............................
........................................................................

 iter      E             dE          RMSdq      gap      omega  full diag
   1    -97.6593317 -0.976593E+02  0.258E-03    2.50       0.0  T
   2    -97.6593317 -0.865398E-09  0.151E-03    2.50       8.0  T
   3    -97.6593317  0.135455E-08  0.152E-04    2.50      80.0  T
   4    -97.6593317 -0.176161E-08  0.282E-05    2.50     430.1  T
     SCC iter.                  ...        0 min,  0.026 sec
     gradient                   ...        0 min,  0.007 sec
 * total energy  :   -95.8805018 Eh     change       -0.1473001E-06 Eh
   gradient norm :     0.0000670 Eh/α   predicted    -0.6621894E-07 ( -55.04%)
   displ. norm   :     0.0114129 α      lambda       -0.7040794E-07
   maximum displ.:     0.0067490 α      in ANC's #2, #4, #1, ...

........................................................................
.............................. CYCLE   13 ..............................
........................................................................

 iter      E             dE          RMSdq      gap      omega  full diag
   1    -97.6593340 -0.976593E+02  0.169E-03    2.50       0.0  T
   2    -97.6593340 -0.365347E-09  0.994E-04    2.50      12.2  T
   3    -97.6593340  0.594284E-09  0.992E-05    2.50     122.3  T
     SCC iter.                  ...        0 min,  0.020 sec
     gradient                   ...        0 min,  0.009 sec
 * total energy  :   -95.8805019 Eh     change       -0.8210199E-07 Eh
   gradient norm :     0.0000484 Eh/α   predicted    -0.3599276E-07 ( -56.16%)
   displ. norm   :     0.0107798 α      lambda       -0.5921886E-07
   maximum displ.:     0.0064726 α      in ANC's #2, #4, #1, ...

   *** GEOMETRY OPTIMIZATION CONVERGED AFTER 13 ITERATIONS ***

------------------------------------------------------------------------
 total energy gain   :        -0.0000056 Eh       -0.0035 kcal/mol
 total RMSD          :         0.0254099 a0        0.0134 Å
 total power (kW/mol):        -0.0011318 (step)   -0.0257 (real)
------------------------------------------------------------------------

 ANCopt (total)                0 d,  0 h,  0 min,  0.572 sec
 optimizer setup                ...        0 min,  0.000 sec (  0.038%)
 model hessian                  ...        0 min,  0.048 sec (  8.387%)
 ANC generation                 ...        0 min,  0.005 sec (  0.793%)
 coordinate transformation      ...        0 min,  0.001 sec (  0.198%)
 single point calculation       ...        0 min,  0.510 sec ( 89.244%)
 optimization log               ...        0 min,  0.003 sec (  0.520%)
 hessian update                 ...        0 min,  0.002 sec (  0.289%)
 rational function              ...        0 min,  0.002 sec (  0.290%)

================
 final structure:
================
68
 xtb: 6.7.1 (edcfbbe)
C           -2.02666706320929       -2.99916958749274        0.60573133349665
C           -2.97307646136957       -1.87243975738895        1.03205213222034
C           -3.02396934418898       -1.76505120512811        2.55874954505369
C           -4.35563769566927       -2.06762779272710        0.45005935863659
C           -5.24354412454966       -3.09971366397741        0.66009048175706
C           -6.47234503858885       -3.06903596208586        0.01323134883275
C           -6.80394503006139       -2.01970086394038       -0.82939538435102
C           -5.91727904495288       -0.97749702349527       -1.04622627962807
C           -4.69064740554520       -1.00514486878508       -0.40317436505609
C           -3.57882752608559       -0.07181812539825       -0.43449180648654
C           -3.40287936259243        1.12153939355504       -1.11672665253805
C           -2.21476431578922        1.81155969450385       -0.96810508237614
C           -1.20291783342823        1.33094807248652       -0.13383467536925
N           -0.00210292553520        2.03589256852626       -0.00096839623888
C           -0.00439186703881        3.43462666257310        0.00053328083419
C            1.02578676466655        4.14443306639313       -0.61630528111989
C            1.02094347840678        5.52548275633063       -0.60867350524980
C           -0.00915934060271        6.22091051832468        0.00319197934456
C           -1.03683514091925        5.52080026779431        0.61387244777308
C           -1.03690474649808        4.13977316695925        0.61890646241696
C            1.20086263860886        1.33457731028119        0.13198670267168
C            2.20977322340523        1.81632508283982        0.96912940933572
C            3.39905651196855        1.12868889825634        1.11951378921751
C            3.57923091709610       -0.06325119508258        0.43590139113553
C            2.56753564869176       -0.55222089388345       -0.40458258995423
C            1.39098375734301        0.13759463978589       -0.56740319658364
C            2.98163454566267       -1.86208742209758       -1.03617858388483
C            3.04004823317520       -1.74966572197492       -2.56230556677085
C            2.03481177138689       -2.99153622689531       -0.61827093034663
C            4.36183503767825       -2.05687154533508       -0.44846966037009
C            5.25131973559982       -3.08814005116211       -0.65580673411192
C            6.47733896465561       -3.05732155624147       -0.00370014368806
C            6.80470692926692       -2.00849753239326        0.84120667028637
C            5.91642061304600       -0.96709887348606        1.05533819345631
C            4.69243960426954       -0.99502312008429        0.40727202479572
C           -1.38835213946653        0.13192761307771        0.56334224212558
C           -2.56368481787562       -0.56031165960345        0.40208667189386
H           -2.36258806978139       -3.94996848447891        1.01276033027994
H           -1.01931340029427       -2.80208249342094        0.96561505579790
H           -2.00115872717175       -3.07705677057610       -0.47942513189165
H           -3.38273724805838       -2.69618590113127        2.99113128763493
H           -2.03343226846531       -1.55529248538686        2.95584796483511
H           -3.69565935853385       -0.96255829330433        2.85635590793841
H           -4.99574892333036       -3.92270057426819        1.31505929534608
H           -7.17784106769247       -3.87225642667083        0.16887227780834
H           -7.76553818852609       -2.01554296980397       -1.32215000918016
H           -6.17815353408114       -0.16076031013022       -1.70298887819486
H           -4.17409584619080        1.50556276843201       -1.76755625763594
H           -2.05549556445701        2.73438455704298       -1.50661538697958
H            1.82507337888774        3.60434874040190       -1.10250156695753
H            1.82371912401132        6.06275286967788       -1.09211413216067
H           -0.01106691554116        7.30033233016806        0.00417739357616
H           -1.84139200423870        6.05443152485120        1.09838085694430
H           -1.83422704197995        3.59597733259428        1.10418532313009
H            2.04706566328458        2.73784207460286        1.50885429030785
H            4.16778247690450        1.51329423984389        1.77294131790284
H            0.61304039546701       -0.22686086245341       -1.22236424310748
H            3.71195772695949       -0.94513396245711       -2.85385970927691
H            3.40255958549286       -2.67879488208211       -2.99587852766322
H            2.05121254151280       -1.54016030537718       -2.96375291543435
H            1.02904750899952       -2.79501035237406       -0.98287365038000
H            2.00373331538877       -3.07272737737803        0.46649508757548
H            2.37436763030995       -3.94058431555019       -1.02636695027922
H            5.00675278827852       -3.91066423601848       -1.31257080972573
H            7.18395969677049       -3.85999921420252       -0.15702314062848
H            7.76420708611781       -2.00412361409004        1.33802740458304
H            6.17402786930370       -0.15092972339398        1.71409509763834
H           -0.60806595310678       -0.23190676139503        1.21584420023602
 
 Bond Distances (Angstroems)
 ---------------------------
C1-C2=1.5320         C1-H38=1.0874        C1-H39=1.0877        C1-H40=1.0882        C2-C1=1.5320         C2-C3=1.5313         
C2-C4=1.5127         C2-C37=1.5120        C3-C2=1.5313         C3-H41=1.0875        C3-H42=1.0876        C3-H43=1.0880        
C4-C2=1.5127         C4-C5=1.3776         C4-C9=1.4032         C5-C4=1.3776         C5-C6=1.3890         C5-H44=1.0806        
C6-C5=1.3890         C6-C7=1.3860         C6-H45=1.0803        C7-C6=1.3860         C7-C8=1.3854         C7-H46=1.0805        
C8-C7=1.3854         C8-C9=1.3852         C8-H47=1.0800        C9-C4=1.4032         C9-C8=1.3852         C9-C10=1.4520        
C10-C9=1.4520        C10-C11=1.3858       C10-C37=1.4032       C11-C10=1.3858       C11-C12=1.3820       C11-H48=1.0797       
C12-C11=1.3820       C12-C13=1.3967       C12-H49=1.0803       C13-C12=1.3967       C13-N14=1.3988       C13-C36=1.3993       
N14-C13=1.3988       N14-C15=1.3987       N14-C21=1.3988       C15-N14=1.3987       C15-C16=1.3948       C15-C20=1.3949       
C16-C15=1.3948       C16-C17=1.3811       C16-H50=1.0802       C17-C16=1.3811       C17-C18=1.3853       C17-H51=1.0802       
C18-C17=1.3853       C18-C19=1.3854       C18-H52=1.0794       C19-C18=1.3854       C19-C20=1.3810       C19-H53=1.0802       
C20-C15=1.3949       C20-C19=1.3810       C20-H54=1.0802       C21-N14=1.3988       C21-C22=1.3967       C21-C26=1.3993       
C22-C21=1.3967       C22-C23=1.3820       C22-H55=1.0803       C23-C22=1.3820       C23-C24=1.3858       C23-H56=1.0797       
C24-C23=1.3858       C24-C25=1.4032       C24-C35=1.4520       C25-C24=1.4032       C25-C26=1.3735       C25-C27=1.5120       
C26-C21=1.3993       C26-C25=1.3735       C26-H57=1.0803       C27-C25=1.5120       C27-C28=1.5314       C27-C29=1.5319       
C27-C30=1.5127       C28-C27=1.5314       C28-H58=1.0880       C28-H59=1.0875       C28-H60=1.0876       C29-C27=1.5319       
C29-H61=1.0877       C29-H62=1.0882       C29-H63=1.0874       C30-C27=1.5127       C30-C31=1.3776       C30-C35=1.4033       
C31-C30=1.3776       C31-C32=1.3890       C31-H64=1.0806       C32-C31=1.3890       C32-C33=1.3860       C32-H65=1.0803       
C33-C32=1.3860       C33-C34=1.3854       C33-H66=1.0805       C34-C33=1.3854       C34-C35=1.3852       C34-H67=1.0800       
C35-C24=1.4520       C35-C30=1.4033       C35-C34=1.3852       C36-C13=1.3993       C36-C37=1.3735       C36-H68=1.0803       
C37-C2=1.5120        C37-C10=1.4032       C37-C36=1.3735       H38-C1=1.0874        H39-C1=1.0877        H40-C1=1.0882        
H41-C3=1.0875        H42-C3=1.0876        H43-C3=1.0880        H44-C5=1.0806        H45-C6=1.0803        H46-C7=1.0805        
H47-C8=1.0800        H48-C11=1.0797       H49-C12=1.0803       H50-C16=1.0802       H51-C17=1.0802       H52-C18=1.0794       
H53-C19=1.0802       H54-C20=1.0802       H55-C22=1.0803       H56-C23=1.0797       H57-C26=1.0803       H58-C28=1.0880       
H59-C28=1.0875       H60-C28=1.0876       H61-C29=1.0877       H62-C29=1.0882       H63-C29=1.0874       H64-C31=1.0806       
H65-C32=1.0803       H66-C33=1.0805       H67-C34=1.0800       H68-C36=1.0803       
 C  H  Rav=1.0831 sigma=0.0037  Rmin=1.0794  Rmax=1.0882    31
 C  C  Rav=1.4184 sigma=0.0543  Rmin=1.3735  Rmax=1.5320    40
 N  C  Rav=1.3988 sigma=0.0000  Rmin=1.3987  Rmax=1.3988     3
 
 selected bond angles (degree)
 --------------------
H38-C1-C2=110.37               H39-C1-C2=110.29               H39-C1-H38=108.70              H40-C1-C2=110.16               
H40-C1-H38=108.54              H40-C1-H39=108.73              C3-C2-C1=110.46                C4-C2-C1=111.26                
C4-C2-C3=111.24                C37-C2-C1=110.80               C37-C2-C3=111.32               C37-C2-C4=101.49               
H41-C3-C2=110.32               H42-C3-C2=110.32               H42-C3-H41=108.69              H43-C3-C2=110.18               
H43-C3-H41=108.61              H43-C3-H42=108.67              C5-C4-C2=128.84                C9-C4-C2=110.76                
C9-C4-C5=120.40                C6-C5-C4=118.86                H44-C5-C4=121.01               H44-C5-C6=120.13               
C7-C6-C5=120.76                H45-C6-C5=119.62               H45-C6-C7=119.62               C8-C7-C6=120.77                
H46-C7-C6=119.54               H46-C7-C8=119.69               C9-C8-C7=118.62                H47-C8-C7=120.63               
H47-C8-C9=120.75               C8-C9-C4=120.58                C10-C9-C4=108.48               C10-C9-C8=130.94               
C11-C10-C9=131.40              C37-C10-C9=108.50              C37-C10-C11=120.09             
 
 selected dihedral angles (degree)
 ---------------------------------
C3-C2-C1-H38= 59.65           C3-C2-C1-H39=299.52           C3-C2-C1-H40=179.49           C4-C2-C1-H38=295.59           
C4-C2-C1-H39=175.46           C4-C2-C1-H40= 55.43           C37-C2-C1-H38=183.48          C37-C2-C1-H39= 63.35          
C37-C2-C1-H40=303.32          H41-C3-C2-C1=299.80           H41-C3-C2-C4= 63.88           H41-C3-C2-C37=176.27          
H42-C3-C2-C1= 59.90           H42-C3-C2-C4=183.98           H42-C3-C2-C37=296.37          H43-C3-C2-C1=179.89           
H43-C3-C2-C4=303.97           H43-C3-C2-C37= 56.36          C5-C4-C2-C1= 62.26            C5-C4-C2-C3=298.65            
C5-C4-C2-C37=180.16           C9-C4-C2-C1=242.19            C9-C4-C2-C3=118.57            C9-C4-C2-C37=  0.08           
C6-C5-C4-C2=179.93            C6-C5-C4-C9=  0.00            H44-C5-C4-C2=359.92           H44-C5-C4-C9=180.00           
C7-C6-C5-C4=359.97            C7-C6-C5-H44=179.98           H45-C6-C5-C4=179.98           H45-C6-C5-H44=  0.00          
C8-C7-C6-C5=  0.00            C8-C7-C6-H45=180.01           H46-C7-C6-C5=180.03           H46-C7-C6-H45=  0.00          
C9-C8-C7-C6=  0.00            C9-C8-C7-H46=179.99           H47-C8-C7-C6=180.02           H47-C8-C7-H46=  0.00          
C8-C9-C4-C2=180.08            C8-C9-C4-C5=  0.00            C10-C9-C4-C2=  0.04           C10-C9-C4-C5=179.96           
C4-C9-C8-C7=  0.00            C4-C9-C8-H47=179.96           C10-C9-C8-C7=180.03           C10-C9-C8-H47=  0.00          
C11-C10-C9-C4=179.75          C11-C10-C9-C8=359.69          C37-C10-C9-C4=359.85          C37-C10-C9-C8=179.80          
           -------------------------------------------------
          |                Final Singlepoint                |
           -------------------------------------------------

          ...................................................
          :                      SETUP                      :
          :.................................................:
          :  # basis functions                 179          :
          :  # atomic orbitals                 179          :
          :  # shells                          105          :
          :  # electrons                       180          :
          :  max. iterations                   250          :
          :  Hamiltonian                  GFN2-xTB          :
          :  restarted?                      false          :
          :  GBSA solvation                  false          :
          :  PC potential                    false          :
          :  electronic temp.          300.0000000     K    :
          :  accuracy                    1.0000000          :
          :  -> integral cutoff          0.2500000E+02      :
          :  -> integral neglect         0.1000000E-07      :
          :  -> SCF convergence          0.1000000E-05 Eh   :
          :  -> wf. convergence          0.1000000E-03 e    :
          :  Broyden damping             0.4000000          :
          :  net charge                          0          :
          :  unpaired electrons                  0          :
          ...................................................

 iter      E             dE          RMSdq      gap      omega  full diag
   1    -97.6593340 -0.976593E+02  0.192E-05    2.50       0.0  T
   2    -97.6593340 -0.213163E-11  0.119E-05    2.50    1018.7  T
   3    -97.6593340 -0.895284E-12  0.807E-06    2.50    1502.9  T

   *** convergence criteria satisfied after 3 iterations ***

         #    Occupation            Energy/Eh            Energy/eV
      -------------------------------------------------------------
         1        2.0000           -0.6619964             -18.0138
       ...           ...                  ...                  ...
        84        2.0000           -0.4006677             -10.9027
        85        2.0000           -0.3989055             -10.8548
        86        2.0000           -0.3939620             -10.7203
        87        2.0000           -0.3934945             -10.7075
        88        2.0000           -0.3870048             -10.5309
        89        2.0000           -0.3763391             -10.2407
        90        2.0000           -0.3425272              -9.3206 (HOMO)
        91                         -0.2505083              -6.8167 (LUMO)
        92                         -0.2429081              -6.6099
        93                         -0.2240311              -6.0962
        94                         -0.2192796              -5.9669
        95                         -0.2189518              -5.9580
       ...                                ...                  ...
       179                          0.7380885              20.0844
      -------------------------------------------------------------
                  HL-Gap            0.0920189 Eh            2.5040 eV
             Fermi-level           -0.2965178 Eh           -8.0687 eV

 SCC (total)                   0 d,  0 h,  0 min,  0.033 sec
 SCC setup                      ...        0 min,  0.000 sec (  0.461%)
 Dispersion                     ...        0 min,  0.001 sec (  1.932%)
 classical contributions        ...        0 min,  0.000 sec (  0.091%)
 integral evaluation            ...        0 min,  0.003 sec (  8.758%)
 iterations                     ...        0 min,  0.020 sec ( 60.953%)
 molecular gradient             ...        0 min,  0.009 sec ( 26.377%)
 printout                       ...        0 min,  0.000 sec (  1.205%)

         :::::::::::::::::::::::::::::::::::::::::::::::::::::
         ::                     SUMMARY                     ::
         :::::::::::::::::::::::::::::::::::::::::::::::::::::
         :: total energy             -95.880501873338 Eh    ::
         :: gradient norm              0.000047857401 Eh/a0 ::
         :: HOMO-LUMO gap              2.503962381145 eV    ::
         ::.................................................::
         :: SCC energy               -97.658463508964 Eh    ::
         :: -> isotropic ES            0.008466261250 Eh    ::
         :: -> anisotropic ES          0.014638747284 Eh    ::
         :: -> anisotropic XC          0.054739001240 Eh    ::
         :: -> dispersion             -0.090530246943 Eh    ::
         :: repulsion energy           1.777961635626 Eh    ::
         :: add. restraining           0.000000000000 Eh    ::
         :: total charge               0.000000000000 e     ::
         :::::::::::::::::::::::::::::::::::::::::::::::::::::

           ------------------------------------------------- 
          |                Numerical Hessian                |
           ------------------------------------------------- 
step length          :   0.00500
SCC accuracy         :   0.30000
Hessian scale factor :   1.00000
frozen atoms in %    :   0.00000    0
RMS gradient         :   0.00005
estimated CPU  time     17.16 min
estimated wall time      0.43 min

writing file <hessian>.

 projected vibrational frequencies (cm⁻¹)
eigval :       -0.00    -0.00     0.00     0.00     0.00     0.00
eigval :       19.99    20.09    27.79    30.46    50.43    54.45
eigval :       76.60    79.25    95.18    99.25   120.32   131.71
eigval :      138.36   139.24   158.05   170.77   192.37   196.39
eigval :      204.42   210.15   223.72   226.98   236.18   248.00
eigval :      260.85   266.15   283.60   304.25   310.24   324.16
eigval :      328.10   328.65   337.86   361.42   381.22   394.32
eigval :      424.74   428.45   451.84   460.86   467.63   468.80
eigval :      493.61   515.28   521.67   541.62   542.34   551.71
eigval :      561.62   567.50   573.67   583.02   587.95   590.45
eigval :      616.33   627.03   660.92   661.71   692.34   692.85
eigval :      721.60   722.02   723.64   725.51   744.85   764.00
eigval :      777.82   778.40   778.62   810.20   823.95   829.47
eigval :      838.59   875.53   878.28   878.37   882.45   889.34
eigval :      892.73   909.40   909.42   913.34   913.37   926.81
eigval :      926.82   928.62   929.05   943.14   951.42   966.41
eigval :      966.66   966.76   979.41   986.36  1007.29  1012.14
eigval :     1012.59  1013.34  1069.67  1069.91  1078.63  1078.71
eigval :     1083.68  1112.93  1113.73  1122.93  1149.41  1152.19
eigval :     1159.29  1159.99  1175.85  1175.99  1180.81  1181.47
eigval :     1183.61  1183.81  1198.57  1219.39  1227.13  1228.24
eigval :     1233.89  1244.40  1262.64  1272.67  1272.95  1276.62
eigval :     1287.41  1289.85  1318.46  1318.85  1327.67  1334.47
eigval :     1334.57  1370.99  1371.05  1393.89  1396.21  1410.27
eigval :     1412.44  1430.52  1434.92  1436.20  1438.76  1444.66
eigval :     1455.03  1461.03  1473.13  1475.25  1477.78  1486.03
eigval :     1488.26  1489.78  1491.46  1497.01  1499.03  1503.12
eigval :     1504.61  1571.64  1577.20  1579.47  1594.17  1594.77
eigval :     1596.42  1599.50  1601.93  1610.46  1611.47  3027.03
eigval :     3027.23  3029.11  3029.40  3032.01  3032.15  3032.43
eigval :     3032.48  3037.48  3037.62  3038.99  3039.00  3068.70
eigval :     3068.74  3072.87  3072.91  3075.33  3076.37  3078.84
eigval :     3078.92  3080.13  3081.67  3081.86  3082.51  3086.06
eigval :     3088.62  3089.16  3089.24  3091.34  3091.54  3097.10
           -------------------------------------------------
          |                Property Printout                |
           -------------------------------------------------

    * Orbital Energies and Occupations

         #    Occupation            Energy/Eh            Energy/eV
      -------------------------------------------------------------
         1        2.0000           -0.6619966             -18.0138
       ...           ...                  ...                  ...
        78        2.0000           -0.4128020             -11.2329
        79        2.0000           -0.4115983             -11.2002
        80        2.0000           -0.4103205             -11.1654
        81        2.0000           -0.4095949             -11.1456
        82        2.0000           -0.4095751             -11.1451
        83        2.0000           -0.4042653             -11.0006
        84        2.0000           -0.4006677             -10.9027
        85        2.0000           -0.3989055             -10.8548
        86        2.0000           -0.3939619             -10.7203
        87        2.0000           -0.3934945             -10.7075
        88        2.0000           -0.3870048             -10.5309
        89        2.0000           -0.3763390             -10.2407
        90        2.0000           -0.3425273              -9.3206 (HOMO)
        91                         -0.2505083              -6.8167 (LUMO)
        92                         -0.2429081              -6.6099
        93                         -0.2240311              -6.0962
        94                         -0.2192796              -5.9669
        95                         -0.2189518              -5.9580
        96                         -0.2162598              -5.8847
        97                         -0.2152851              -5.8582
        98                         -0.2131505              -5.8001
        99                         -0.1890928              -5.1455
       100                         -0.1714750              -4.6661
       101                         -0.1089696              -2.9652
       ...                                ...                  ...
       179                          0.7380885              20.0844
      -------------------------------------------------------------
                  HL-Gap            0.0920190 Eh            2.5040 eV
             Fermi-level           -0.2965178 Eh           -8.0687 eV

     #   Z          covCN         q      C6AA      α(0)
     1   6 C        3.759    -0.097    22.401     6.748
     2   6 C        3.936     0.019    20.196     6.386
     3   6 C        3.758    -0.098    22.423     6.751
     4   6 C        3.056    -0.003    28.049     8.685
     5   6 C        2.915    -0.034    28.849     8.808
     6   6 C        2.922    -0.034    28.857     8.809
     7   6 C        2.921    -0.033    28.834     8.806
     8   6 C        2.914    -0.036    28.887     8.813
     9   6 C        3.037     0.000    27.989     8.678
    10   6 C        3.036    -0.009    28.214     8.712
    11   6 C        2.914    -0.035    28.868     8.810
    12   6 C        2.923    -0.052    29.301     8.877
    13   6 C        2.926     0.061    26.631     8.463
    14   7 N        2.753    -0.072    22.642     7.067
    15   6 C        2.924     0.065    26.541     8.449
    16   6 C        2.922    -0.047    29.180     8.858
    17   6 C        2.920    -0.029    28.735     8.791
    18   6 C        2.919    -0.039    28.961     8.825
    19   6 C        2.920    -0.029    28.735     8.791
    20   6 C        2.922    -0.047    29.179     8.858
    21   6 C        2.926     0.061    26.631     8.463
    22   6 C        2.923    -0.052    29.301     8.877
    23   6 C        2.914    -0.035    28.868     8.810
    24   6 C        3.036    -0.009    28.213     8.712
    25   6 C        3.055    -0.002    28.015     8.680
    26   6 C        2.918    -0.052    29.302     8.877
    27   6 C        3.936     0.019    20.196     6.386
    28   6 C        3.758    -0.098    22.423     6.751
    29   6 C        3.759    -0.097    22.401     6.748
    30   6 C        3.056    -0.003    28.049     8.685
    31   6 C        2.915    -0.034    28.849     8.808
    32   6 C        2.922    -0.034    28.857     8.809
    33   6 C        2.921    -0.033    28.834     8.806
    34   6 C        2.914    -0.036    28.887     8.813
    35   6 C        3.037     0.000    27.989     8.678
    36   6 C        2.918    -0.052    29.303     8.877
    37   6 C        3.055    -0.002    28.015     8.680
    38   1 H        0.925     0.040     2.450     2.448
    39   1 H        0.925     0.041     2.441     2.443
    40   1 H        0.925     0.033     2.537     2.491
    41   1 H        0.925     0.040     2.447     2.446
    42   1 H        0.925     0.040     2.451     2.448
    43   1 H        0.925     0.036     2.508     2.476
    44   1 H        0.926     0.025     2.652     2.546
    45   1 H        0.926     0.027     2.630     2.536
    46   1 H        0.926     0.027     2.630     2.536
    47   1 H        0.926     0.028     2.616     2.529
    48   1 H        0.926     0.031     2.567     2.506
    49   1 H        0.926     0.031     2.579     2.511
    50   1 H        0.926     0.032     2.561     2.503
    51   1 H        0.926     0.031     2.575     2.509
    52   1 H        0.926     0.029     2.595     2.519
    53   1 H        0.926     0.031     2.575     2.509
    54   1 H        0.926     0.032     2.561     2.503
    55   1 H        0.926     0.031     2.579     2.511
    56   1 H        0.926     0.031     2.567     2.506
    57   1 H        0.926     0.030     2.581     2.512
    58   1 H        0.925     0.036     2.508     2.476
    59   1 H        0.925     0.040     2.447     2.446
    60   1 H        0.925     0.040     2.451     2.448
    61   1 H        0.925     0.041     2.441     2.443
    62   1 H        0.925     0.033     2.538     2.491
    63   1 H        0.925     0.040     2.450     2.448
    64   1 H        0.926     0.025     2.652     2.546
    65   1 H        0.926     0.027     2.630     2.536
    66   1 H        0.926     0.027     2.630     2.536
    67   1 H        0.926     0.028     2.616     2.529
    68   1 H        0.926     0.030     2.581     2.513

 Mol. C6AA /au·bohr⁶  :      58619.686538
 Mol. C8AA /au·bohr⁸  :    1451628.972588
 Mol. α(0) /au        :        386.849116


MOs/occ written to file <molden.input>


molecular dipole:
                 x           y           z       tot (Debye)
 q only:        0.002      -0.229      -0.001
   full:        0.002      -0.202      -0.001       0.512
molecular quadrupole (traceless):
                xx          xy          yy          xz          yz          zz
 q only:       -6.614      -0.020       4.670      -2.122       0.005       1.943
  q+dip:       -2.547      -0.037       7.833       1.972       0.008      -5.286
   full:       -5.380      -0.025       5.466      -0.886       0.006      -0.085

           -------------------------------------------------
          |                Geometry Summary                 |
           -------------------------------------------------

      molecular mass/u    :      477.6393589
   center of mass at/Å    :        0.0002508      -0.0001668       0.0006907
  moments of inertia/u·Å² :        0.3805339E+04   0.7054594E+04   0.9999343E+04
rotational constants/cm⁻¹ :        0.4429994E-02   0.2389596E-02   0.1685874E-02

 * 68 selected distances

     #   Z          #   Z                                           value/Å
     1   6 C        2   6 C                                       1.5319793 (max)
     2   6 C        3   6 C                                       1.5313157
     4   6 C        5   6 C                                       1.3775676
     5   6 C        6   6 C                                       1.3889996
     6   6 C        7   6 C                                       1.3860313
     7   6 C        8   6 C                                       1.3854174
     4   6 C        9   6 C                                       1.4032497
     8   6 C        9   6 C                                       1.3852457
    10   6 C       11   6 C                                       1.3858227
    11   6 C       12   6 C                                       1.3819675
    12   6 C       13   6 C                                       1.3967206
    13   6 C       14   7 N                                       1.3987698
    14   7 N       15   6 C                                       1.3987369
    15   6 C       16   6 C                                       1.3948417
    16   6 C       17   6 C                                       1.3810794
    17   6 C       18   6 C                                       1.3853199
    18   6 C       19   6 C                                       1.3853530
    15   6 C       20   6 C                                       1.3948836
    19   6 C       20   6 C                                       1.3810364
    14   7 N       21   6 C                                       1.3988019
    21   6 C       22   6 C                                       1.3967068
    22   6 C       23   6 C                                       1.3819747
    23   6 C       24   6 C                                       1.3858248
    24   6 C       25   6 C                                       1.4032221
    21   6 C       26   6 C                                       1.3993070
    25   6 C       26   6 C                                       1.3735468
    27   6 C       28   6 C                                       1.5313768
    27   6 C       29   6 C                                       1.5319188
    30   6 C       31   6 C                                       1.3775655
    31   6 C       32   6 C                                       1.3889983
    32   6 C       33   6 C                                       1.3860265
    33   6 C       34   6 C                                       1.3854300
    30   6 C       35   6 C                                       1.4032518
    34   6 C       35   6 C                                       1.3852434
    13   6 C       36   6 C                                       1.3993184
    10   6 C       37   6 C                                       1.4032122
    36   6 C       37   6 C                                       1.3735377
     1   6 C       38   1 H                                       1.0874439
     1   6 C       39   1 H                                       1.0877138
     1   6 C       40   1 H                                       1.0882472
     3   6 C       41   1 H                                       1.0875111
     3   6 C       42   1 H                                       1.0875890
     3   6 C       43   1 H                                       1.0879945
     5   6 C       44   1 H                                       1.0805990
     6   6 C       45   1 H                                       1.0803296
     7   6 C       46   1 H                                       1.0805027
     8   6 C       47   1 H                                       1.0800239
    11   6 C       48   1 H                                       1.0797352
    12   6 C       49   1 H                                       1.0802619
    16   6 C       50   1 H                                       1.0802487
    17   6 C       51   1 H                                       1.0801958
    18   6 C       52   1 H                                       1.0794240 (min)
    19   6 C       53   1 H                                       1.0801957
    20   6 C       54   1 H                                       1.0802465
    22   6 C       55   1 H                                       1.0802641
    23   6 C       56   1 H                                       1.0797354
    26   6 C       57   1 H                                       1.0802768
    28   6 C       58   1 H                                       1.0879971
    28   6 C       59   1 H                                       1.0875115
    28   6 C       60   1 H                                       1.0875885
    29   6 C       61   1 H                                       1.0877130
    29   6 C       62   1 H                                       1.0882442
    29   6 C       63   1 H                                       1.0874433
    31   6 C       64   1 H                                       1.0806009
    32   6 C       65   1 H                                       1.0803298
    33   6 C       66   1 H                                       1.0805049
    34   6 C       67   1 H                                       1.0800252
    36   6 C       68   1 H                                       1.0802690

 * 3 distinct bonds (by element types)

   Z      Z             #   av. dist./Å        max./Å        min./Å
   1 H    6 C          31     1.0831215     1.0882472     1.0794240
   6 C    6 C          34     1.4053910     1.5319793     1.3735377
   6 C    7 N           3     1.3987695     1.3988019     1.3987369

           -------------------------------------------------
          |               Frequency Printout                |
           -------------------------------------------------
 projected vibrational frequencies (cm⁻¹)
eigval :       -0.00    -0.00     0.00     0.00     0.00     0.00
eigval :       19.99    20.09    27.79    30.46    50.43    54.45
eigval :       76.60    79.25    95.18    99.25   120.32   131.71
eigval :      138.36   139.24   158.05   170.77   192.37   196.39
eigval :      204.42   210.15   223.72   226.98   236.18   248.00
eigval :      260.85   266.15   283.60   304.25   310.24   324.16
eigval :      328.10   328.65   337.86   361.42   381.22   394.32
eigval :      424.74   428.45   451.84   460.86   467.63   468.80
eigval :      493.61   515.28   521.67   541.62   542.34   551.71
eigval :      561.62   567.50   573.67   583.02   587.95   590.45
eigval :      616.33   627.03   660.92   661.71   692.34   692.85
eigval :      721.60   722.02   723.64   725.51   744.85   764.00
eigval :      777.82   778.40   778.62   810.20   823.95   829.47
eigval :      838.59   875.53   878.28   878.37   882.45   889.34
eigval :      892.73   909.40   909.42   913.34   913.37   926.81
eigval :      926.82   928.62   929.05   943.14   951.42   966.41
eigval :      966.66   966.76   979.41   986.36  1007.29  1012.14
eigval :     1012.59  1013.34  1069.67  1069.91  1078.63  1078.71
eigval :     1083.68  1112.93  1113.73  1122.93  1149.41  1152.19
eigval :     1159.29  1159.99  1175.85  1175.99  1180.81  1181.47
eigval :     1183.61  1183.81  1198.57  1219.39  1227.13  1228.24
eigval :     1233.89  1244.40  1262.64  1272.67  1272.95  1276.62
eigval :     1287.41  1289.85  1318.46  1318.85  1327.67  1334.47
eigval :     1334.57  1370.99  1371.05  1393.89  1396.21  1410.27
eigval :     1412.44  1430.52  1434.92  1436.20  1438.76  1444.66
eigval :     1455.03  1461.03  1473.13  1475.25  1477.78  1486.03
eigval :     1488.26  1489.78  1491.46  1497.01  1499.03  1503.12
eigval :     1504.61  1571.64  1577.20  1579.47  1594.17  1594.77
eigval :     1596.42  1599.50  1601.93  1610.46  1611.47  3027.03
eigval :     3027.23  3029.11  3029.40  3032.01  3032.15  3032.43
eigval :     3032.48  3037.48  3037.62  3038.99  3039.00  3068.70
eigval :     3068.74  3072.87  3072.91  3075.33  3076.37  3078.84
eigval :     3078.92  3080.13  3081.67  3081.86  3082.51  3086.06
eigval :     3088.62  3089.16  3089.24  3091.34  3091.54  3097.10
 reduced masses (amu)
   1: 11.16   2: 11.30   3: 11.12   4: 11.31   5: 10.92   6: 11.29   7: 10.73   8: 10.09
   9:  9.95  10: 10.75  11:  9.97  12: 10.74  13: 10.15  14: 10.00  15: 10.05  16:  9.92
  17:  9.22  18:  9.21  19: 10.15  20: 10.53  21:  8.89  22:  8.48  23:  6.97  24:  3.66
  25:  5.33  26:  6.25  27:  2.33  28:  4.87  29: 10.03  30:  9.56  31:  8.97  32: 10.08
  33: 10.08  34:  8.83  35:  8.73  36:  9.82  37:  9.99  38:  9.92  39:  9.78  40: 10.20
  41:  9.09  42: 10.75  43:  9.71  44: 10.51  45: 10.61  46: 10.79  47: 10.11  48: 10.25
  49: 10.26  50: 10.84  51: 10.69  52:  9.92  53:  9.83  54: 10.57  55: 10.31  56: 10.21
  57: 10.38  58: 11.12  59: 10.88  60: 11.18  61: 11.11  62: 10.99  63: 11.04  64: 10.13
  65: 11.09  66: 11.08  67: 11.38  68: 11.38  69: 10.69  70: 10.78  71:  8.89  72:  6.48
  73:  8.70  74:  3.87  75:  5.85  76:  9.34  77:  6.81  78:  4.53  79:  7.47  80:  3.28
  81:  3.41  82:  3.42  83:  3.25  84:  3.08  85:  3.76  86:  4.08  87:  4.09  88:  3.46
  89:  3.44  90:  3.16  91:  3.16  92:  3.95  93:  2.74  94: 10.05  95:  8.66  96:  7.37
  97:  5.45  98:  4.23  99:  9.73 100: 10.83 101:  9.61 102: 10.01 103:  3.45 104:  3.55
 105:  7.79 106:  7.77 107:  6.40 108:  6.42 109:  6.62 110:  5.88 111:  6.12 112:  4.09
 113:  4.73 114:  4.33 115:  3.73 116:  3.78 117: 10.40 118: 10.40 119:  1.31 120:  6.22
 121:  1.78 122:  1.89 123:  2.46 124:  5.75 125:  5.63 126:  6.33 127:  6.28 128:  7.75
 129:  7.31 130:  7.17 131:  7.35 132:  5.37 133:  5.95 134:  8.91 135: 11.52 136: 11.32
 137: 11.53 138: 11.70 139: 11.54 140: 10.59 141: 10.40 142:  3.04 143:  3.03 144:  3.29
 145:  3.20 146: 10.33 147:  9.61 148:  9.08 149:  9.78 150:  9.56 151: 10.07 152:  9.96
 153:  9.68 154: 10.32 155: 10.29 156:  1.63 157:  1.60 158:  1.60 159:  1.61 160:  1.67
 161:  1.67 162:  1.90 163:  1.91 164: 11.63 165: 11.70 166: 11.55 167: 11.56 168: 11.54
 169: 11.51 170: 11.66 171: 11.64 172: 11.67 173: 11.68 174:  1.95 175:  1.95 176:  1.94
 177:  1.95 178:  1.90 179:  1.91 180:  1.86 181:  1.87 182:  1.30 183:  1.33 184:  1.30
 185:  1.30 186:  1.76 187:  1.76 188:  1.80 189:  1.80 190:  1.75 191:  1.78 192:  1.79
 193:  1.79 194:  1.83 195:  1.84 196:  1.84 197:  1.82 198:  1.83 199:  1.89 200:  1.91
 201:  1.90 202:  1.88 203:  1.88 204:  1.92
 IR intensities (km·mol⁻¹)
   1:  0.00   2:  0.00   3:  0.01   4:  0.01   5:  0.01   6:  0.02   7:  0.01   8:  0.69
   9:  0.01  10:  0.55  11:  1.10  12:  0.05  13:  0.01  14:  0.50  15:  0.14  16:  1.21
  17:  1.56  18:  0.24  19:  0.09  20:  0.00  21:  0.01  22:  0.54  23:  0.63  24:  0.50
  25:  0.02  26:  0.23  27:  0.02  28:  0.27  29:  2.04  30:  0.16  31:  0.04  32:  2.51
  33:  0.11  34:  0.01  35:  0.30  36:  2.45  37:  1.49  38:  2.43  39:  1.08  40:  0.05
  41:  1.75  42:  3.86  43:  2.47  44:  9.22  45:  0.36  46:  0.28  47:  0.60  48:  2.61
  49: 12.76  50:  0.27  51:  0.07  52:  1.21  53:  1.32  54:  0.17  55:  0.41  56:  0.36
  57:  0.11  58:  2.91  59:  1.20  60:  1.02  61:  2.87  62:  6.53  63:  6.70  64:  6.21
  65:  1.95  66:  3.61  67:  0.30  68:  1.34  69:  0.18  70:  0.00  71:  8.77  72: 20.43
  73:  1.81  74: 34.06  75:  5.96  76:  5.01  77:  0.01  78: 16.99  79:  0.00  80:  0.02
  81:  0.04  82:  0.02  83:  1.16  84:  0.31  85:  0.66  86:  0.16  87:  0.21  88:  0.32
  89:  1.04  90:  0.07  91:  0.04  92:  0.68  93:  0.15  94:  1.04  95:  6.98  96:  5.72
  97:  0.25  98:  0.87  99:  8.63 100:  0.67 101: 10.34 102:  8.73 103:  0.07 104:  0.11
 105:  5.43 106:  8.78 107:  0.24 108:  0.17 109:  0.05 110:  6.36 111: 22.86 112:  1.68
 113:  0.03 114:  1.54 115:  3.43 116:  9.67 117:  5.10 118:  1.53 119:  0.16 120:  1.00
 121:  2.31 122:  0.57 123:  8.25 124: 19.80 125:  1.33 126:  0.03 127:  2.96 128: 29.48
 129:  0.01 130:  0.45 131:  0.47 132: 21.65 133:  1.60 134: 41.65 135: 47.33 136:318.59
 137: 64.62 138:  7.86 139:246.30 140:145.85 141:  8.84 142:  3.13 143:  1.68 144:  1.00
 145:  0.71 146: 82.61 147:  9.60 148: 86.14 149: 46.11 150:186.41 151: 25.32 152: 11.03
 153: 50.32 154: 57.13 155:253.11 156:  4.35 157:  1.92 158:  0.42 159:  0.01 160:  4.15
 161:  0.63 162:  4.92 163:  0.00 164: 39.21 165:  0.01 166: 29.44 167: 44.36 168: 59.20
 169:125.68 170:108.49 171:  6.44 172: 41.97 173:  6.89 174: 35.85 175:  2.40 176:  0.00
 177:  0.77 178: 32.54 179: 50.58 180:  7.77 181: 49.73 182: 22.77 183: 34.90 184: 22.36
 185: 40.80 186:  4.28 187:  7.83 188: 20.81 189: 17.94 190: 19.34 191:  0.55 192: 28.11
 193: 39.48 194: 62.59 195: 50.05 196: 41.28 197: 14.49 198: 48.10 199:163.44 200: 51.43
 201: 52.48 202:101.94 203: 15.99 204: 63.94
 Raman intensities (Ä⁴*amu⁻¹)
   1:  0.00   2:  0.00   3:  0.00   4:  0.00   5:  0.00   6:  0.00   7:  0.00   8:  0.00
   9:  0.00  10:  0.00  11:  0.00  12:  0.00  13:  0.00  14:  0.00  15:  0.00  16:  0.00
  17:  0.00  18:  0.00  19:  0.00  20:  0.00  21:  0.00  22:  0.00  23:  0.00  24:  0.00
  25:  0.00  26:  0.00  27:  0.00  28:  0.00  29:  0.00  30:  0.00  31:  0.00  32:  0.00
  33:  0.00  34:  0.00  35:  0.00  36:  0.00  37:  0.00  38:  0.00  39:  0.00  40:  0.00
  41:  0.00  42:  0.00  43:  0.00  44:  0.00  45:  0.00  46:  0.00  47:  0.00  48:  0.00
  49:  0.00  50:  0.00  51:  0.00  52:  0.00  53:  0.00  54:  0.00  55:  0.00  56:  0.00
  57:  0.00  58:  0.00  59:  0.00  60:  0.00  61:  0.00  62:  0.00  63:  0.00  64:  0.00
  65:  0.00  66:  0.00  67:  0.00  68:  0.00  69:  0.00  70:  0.00  71:  0.00  72:  0.00
  73:  0.00  74:  0.00  75:  0.00  76:  0.00  77:  0.00  78:  0.00  79:  0.00  80:  0.00
  81:  0.00  82:  0.00  83:  0.00  84:  0.00  85:  0.00  86:  0.00  87:  0.00  88:  0.00
  89:  0.00  90:  0.00  91:  0.00  92:  0.00  93:  0.00  94:  0.00  95:  0.00  96:  0.00
  97:  0.00  98:  0.00  99:  0.00 100:  0.00 101:  0.00 102:  0.00 103:  0.00 104:  0.00
 105:  0.00 106:  0.00 107:  0.00 108:  0.00 109:  0.00 110:  0.00 111:  0.00 112:  0.00
 113:  0.00 114:  0.00 115:  0.00 116:  0.00 117:  0.00 118:  0.00 119:  0.00 120:  0.00
 121:  0.00 122:  0.00 123:  0.00 124:  0.00 125:  0.00 126:  0.00 127:  0.00 128:  0.00
 129:  0.00 130:  0.00 131:  0.00 132:  0.00 133:  0.00 134:  0.00 135:  0.00 136:  0.00
 137:  0.00 138:  0.00 139:  0.00 140:  0.00 141:  0.00 142:  0.00 143:  0.00 144:  0.00
 145:  0.00 146:  0.00 147:  0.00 148:  0.00 149:  0.00 150:  0.00 151:  0.00 152:  0.00
 153:  0.00 154:  0.00 155:  0.00 156:  0.00 157:  0.00 158:  0.00 159:  0.00 160:  0.00
 161:  0.00 162:  0.00 163:  0.00 164:  0.00 165:  0.00 166:  0.00 167:  0.00 168:  0.00
 169:  0.00 170:  0.00 171:  0.00 172:  0.00 173:  0.00 174:  0.00 175:  0.00 176:  0.00
 177:  0.00 178:  0.00 179:  0.00 180:  0.00 181:  0.00 182:  0.00 183:  0.00 184:  0.00
 185:  0.00 186:  0.00 187:  0.00 188:  0.00 189:  0.00 190:  0.00 191:  0.00 192:  0.00
 193:  0.00 194:  0.00 195:  0.00 196:  0.00 197:  0.00 198:  0.00 199:  0.00 200:  0.00
 201:  0.00 202:  0.00 203:  0.00 204:  0.00
 output can be read by thermo (or use thermo option).
 writing <g98.out> molden fake output.
 recommended (thermochemical) frequency scaling factor: 1.0
           -------------------------------------------------
          |             Thermodynamic Functions             |
           -------------------------------------------------

Molecule has the following symmetry elements: (C2) 
It seems to be the C2 point group
c2  symmetry found (for desy threshold:  0.10E+00) used in thermo

          ...................................................
          :                      SETUP                      :
          :.................................................:
          :  # frequencies                         198      :
          :  # imaginary freq.                       0      :
          :  linear?                             false      :
          :  only rotor calc.                    false      :
          :  symmetry                               c2      :
          :  rotational number                       2      :
          :  scaling factor                  1.0000000      :
          :  rotor cutoff                   50.0000000 cm⁻¹ :
          :  imag. cutoff                  -20.0000000 cm⁻¹ :
          :.................................................:

    mode    ω/cm⁻¹     T·S(HO)/kcal·mol⁻¹    T·S(FR)/kcal·mol⁻¹   T·S(vib)
   ------------------------------------------------------------------------
       1     19.99    -1.97832 (  2.49%)    -1.32813 ( 97.51%)    -1.34432
       2     20.09    -1.97540 (  2.54%)    -1.32666 ( 97.46%)    -1.34314
       3     27.79    -1.78330 (  8.71%)    -1.23052 ( 91.29%)    -1.27868
       4     30.46    -1.72902 ( 12.11%)    -1.20334 ( 87.89%)    -1.26698
       5     50.43    -1.43124 ( 50.86%)    -1.05399 ( 49.14%)    -1.24586
       6     54.45    -1.38606 ( 58.44%)    -1.03128 ( 41.56%)    -1.23863
       7     76.60    -1.18553 ( 84.63%)    -0.93019 ( 15.37%)    -1.14629
       8     79.25    -1.16558 ( 86.32%)    -0.92010 ( 13.68%)    -1.13201
       9     95.18    -1.05867 ( 92.92%)    -0.86585 (  7.08%)    -1.04502
      10     99.25    -1.03430 ( 93.95%)    -0.85345 (  6.05%)    -1.02336
      11    120.32    -0.92282 ( 97.10%)    -0.79640 (  2.90%)    -0.91916
      12    131.71    -0.87087 ( 97.97%)    -0.76961 (  2.03%)    -0.86881
      13    138.36    -0.84270 ( 98.32%)    -0.75502 (  1.68%)    -0.84123
      14    139.24    -0.83908 ( 98.36%)    -0.75314 (  1.64%)    -0.83767
      15    158.05    -0.76713 ( 99.01%)    -0.71560 (  0.99%)    -0.76662
      16    170.77    -0.72362 ( 99.27%)    -0.69268 (  0.73%)    -0.72339
      17    192.37    -0.65737 ( 99.55%)    -0.65738 (  0.45%)    -0.65737
      18    196.39    -0.64600 ( 99.58%)    -0.65127 (  0.42%)    -0.64602
      19    204.42    -0.62401 ( 99.64%)    -0.63939 (  0.36%)    -0.62406
      20    210.15    -0.60894 ( 99.68%)    -0.63121 (  0.32%)    -0.60901
      21    223.72    -0.57507 ( 99.75%)    -0.61267 (  0.25%)    -0.57516
      22    226.98    -0.56729 ( 99.77%)    -0.60838 (  0.23%)    -0.56739
      23    236.18    -0.54604 ( 99.80%)    -0.59661 (  0.20%)    -0.54615
      24    248.00    -0.52020 ( 99.84%)    -0.58215 (  0.16%)    -0.52031
      25    260.85    -0.49377 ( 99.87%)    -0.56718 (  0.13%)    -0.49387
      26    266.15    -0.48332 ( 99.88%)    -0.56122 (  0.12%)    -0.48342
      27    283.60    -0.45077 ( 99.90%)    -0.54241 (  0.10%)    -0.45086
   ------------------------------------------------------------------------

   temp. (K)  partition function   enthalpy   heat capacity  entropy
                                   cal/mol     cal/K/mol   cal/K/mol   J/K/mol
 298.15  VIB  0.540E+13            18163.048    117.751    110.222
         ROT  0.198E+08              888.752      2.981     36.368
         INT  0.107E+21            19051.801    120.732    146.590
         TR   0.101E+29             1481.254      4.968     44.359
         TOT                       20533.0548   125.6998   190.9486   798.9287

       T/K    H(0)-H(T)+PV         H(T)/Eh          T*S/Eh         G(T)/Eh
   ------------------------------------------------------------------------
    298.15    0.327215E-01    0.583168E+00    0.907258E-01    0.492443E+00
   ------------------------------------------------------------------------

         :::::::::::::::::::::::::::::::::::::::::::::::::::::
         ::                  THERMODYNAMIC                  ::
         :::::::::::::::::::::::::::::::::::::::::::::::::::::
         :: total free energy         -95.388059297885 Eh   ::
         ::.................................................::
         :: total energy              -95.880501873339 Eh   ::
         :: zero point energy           0.550446889187 Eh   ::
         :: G(RRHO) w/o ZPVE           -0.058004313733 Eh   ::
         :: G(RRHO) contrib.            0.492442575454 Eh   ::
         :::::::::::::::::::::::::::::::::::::::::::::::::::::

optimized geometry written to: xtbopt.xyz


           -------------------------------------------------
          | TOTAL ENERGY              -95.880501873339 Eh   |
          | TOTAL ENTHALPY            -95.297333478559 Eh   |
          | TOTAL FREE ENERGY         -95.388059297885 Eh   |
          | GRADIENT NORM               0.000047864728 Eh/α |
          | HOMO-LUMO GAP               2.503964520777 eV   |
           -------------------------------------------------

------------------------------------------------------------------------
 * finished run on 2025/09/10 at 08:59:37.591     
------------------------------------------------------------------------
 total:
 * wall-time:     0 d,  0 h,  0 min,  3.102 sec
 *  cpu-time:     0 d,  0 h,  1 min, 55.967 sec
 * ratio c/w:    37.379 speedup
 SCF:
 * wall-time:     0 d,  0 h,  0 min,  0.102 sec
 *  cpu-time:     0 d,  0 h,  0 min,  4.020 sec
 * ratio c/w:    39.493 speedup
 ANC optimizer:
 * wall-time:     0 d,  0 h,  0 min,  0.606 sec
 *  cpu-time:     0 d,  0 h,  0 min, 24.251 sec
 * ratio c/w:    39.995 speedup
 analytical hessian:
 * wall-time:     0 d,  0 h,  0 min,  2.233 sec
 *  cpu-time:     0 d,  0 h,  1 min, 21.988 sec
 * ratio c/w:    36.712 speedup

