$hessian                                                                        
        0.4707480808  -0.0112033934   0.0019704880  -0.2104428384  -0.0242558373
       -0.0148099530  -0.0192902779  -0.0103944174  -0.0023317058   0.0018924561
       -0.0016697666  -0.0011779393  -0.0005794443   0.0003426626   0.0000155910
       -0.0000875927  -0.0004180474   0.0000159308   0.0000546678   0.0001681891
        0.0000302567  -0.0000676087  -0.0000772142  -0.0000092094  -0.0000182475
        0.0000307841  -0.0000007246  -0.0000232946   0.0000244380  -0.0000072588
        0.0000768726  -0.0000003993   0.0000093722  -0.0000966995  -0.0000233027
       -0.0000034058   0.0000337387  -0.0000297664   0.0000371902   0.0000051185
        0.0000071697  -0.0000174385   0.0000094732  -0.0000021081   0.0000068343
       -0.0000039454  -0.0000052120   0.0000063748   0.0000074583   0.0000041479
       -0.0000036203  -0.0000148861  -0.0000077769   0.0000065141  -0.0000162189
        0.0000026065  -0.0000113855   0.0000058046  -0.0000020600   0.0000022125
       -0.0000036489   0.0000019404  -0.0000052226   0.0000102212   0.0000071246
       -0.0000111830  -0.0000004424  -0.0000087174   0.0000139582   0.0000290853
        0.0000472494  -0.0000364762  -0.0000223572  -0.0000429934   0.0000037497
       -0.0000089964   0.0000120305   0.0000017960   0.0000257822   0.0000375414
        0.0000040459  -0.0000187262  -0.0001770575  -0.0000125562  -0.0000535253
        0.0003114003   0.0000237009   0.0000501609  -0.0001001065  -0.0000040089
        0.0000309358   0.0000541087   0.0000024118   0.0000392705  -0.0000146437
       -0.0000125065  -0.0000441767   0.0000657631   0.0000056063   0.0000796251
       -0.0000789539  -0.0000098315   0.0000143913   0.0000428724  -0.0000280737
       -0.0000037323  -0.0000039497   0.0000136961  -0.0000037550   0.0000137355
       -0.0000081322   0.0000091821  -0.0000027433  -0.0000041240  -0.0000017022
       -0.0000009830   0.0000048752   0.0000111067  -0.0000014204  -0.0000096964
        0.0000068282  -0.0000162245   0.0000118757   0.0000012425   0.0000055271
       -0.0000001446   0.0000055332  -0.0000035871   0.0000035862  -0.0000088167
        0.0000064275   0.0000154185   0.0000134146   0.0000002519  -0.0000108708
       -0.0000620966   0.0000042597   0.0000394968  -0.0000744942  -0.0000477398
        0.0000046503   0.0000330504  -0.0000103094  -0.0000070559  -0.0000325220
       -0.0000045864  -0.0000051117   0.0000044438  -0.0001913542  -0.0000511070
       -0.0011932358  -0.0000647463  -0.0000474139  -0.0002223450   0.0031831566
       -0.0005886451  -0.0276386980   0.0037380005  -0.0030843583   0.0004625609
       -0.0009957295  -0.0003323943  -0.0007074985  -0.0004311509   0.0009437512
       -0.0000235283  -0.0005211040  -0.0000719922   0.0001336560   0.0001647738
       -0.0000447975   0.0001173357  -0.0000784826  -0.0001928290  -0.0001175099
        0.0000624591   0.0002279727   0.0001092209   0.0001676556  -0.0000485266
       -0.0001197611  -0.0000488077   0.0001223393   0.0000236631   0.0000449287
       -0.0000390128   0.0000060180   0.0000420290   0.0000293477  -0.0000190457
       -0.0000566704  -0.0000277733   0.0000688567  -0.0000271468   0.0000036351
        0.0001929083  -0.0003251890  -0.0001414938  -0.0472298850  -0.0263211875
       -0.0241741335  -0.0795970336  -0.0178135390   0.0855554281  -0.0864886829
        0.0851083016  -0.0424290858   0.0009371663   0.0014029106   0.0007735075
        0.0000077231  -0.0000018814   0.0000031966  -0.0000097511  -0.0000131769
       -0.0000020352   0.0000008496   0.0000000666   0.0000041967   0.0000013688
        0.0000038812  -0.0000024832  -0.0000048768   0.0000012541  -0.0000051438
       -0.0000073135  -0.0000012399   0.0000004390  -0.0000063037  -0.0000008558
       -0.0000012464  -0.0000054186  -0.0000031734   0.0000039636   0.0000011937
       -0.0000028677   0.0000053440   0.0000010403   0.0000037618  -0.0000043844
       -0.0000003447  -0.0000035844  -0.0000082575  -0.0000191237  -0.0000039987
        0.0000107268   0.0000024659   0.0000067074   0.0000027733   0.0000288080
       -0.0000145690  -0.0000037004  -0.0000003838   0.0000075006   0.0000036911
        0.0000081556  -0.0000090209  -0.0000016108   0.0000025995   0.0000026866
       -0.0000044823   0.0000002862   0.0000001157   0.0000014612   0.0000029464
       -0.0000024553   0.0000032126   0.0000039088  -0.0000037337  -0.0000009982
        0.0000037865  -0.0000014210  -0.0000000786   0.0000049325  -0.0000021258
       -0.0000033213   0.0000028104   0.0000013842  -0.0000082298  -0.0000060584
        0.0000005109   0.0000040267  -0.0000144290   0.0000080460   0.0000130943
        0.0000100101  -0.0000058197  -0.0000090629   0.0000061384   0.0000029523
        0.0000018676  -0.0000376865   0.0000271324   0.0000087435   0.0001663678
        0.0000352951   0.0002121567  -0.0009837086  -0.0002177296   0.0000547914
       -0.0001381900   0.0003551599  -0.0002319896   0.0000295606   0.0000164834
       -0.0000320363  -0.0000005083   0.0000205996  -0.0000028610  -0.0000010666
        0.0000186680  -0.0000273746   0.0000059770   0.0000444631   0.0000113139
        0.0000093373   0.0000185136  -0.0000030011  -0.0000046066   0.0000299314
        0.0000155054   0.0000274427   0.0000565190  -0.0001026223
       -0.0112033934   0.5270679380  -0.0024372271  -0.0208035625  -0.0692032302
       -0.0019840701  -0.0287200580  -0.0089829154  -0.0018183470  -0.0006958737
       -0.0044148387   0.0002195710  -0.0011842763   0.0002575615  -0.0001061845
       -0.0002210935  -0.0005451045  -0.0000433808   0.0000087160   0.0000953594
        0.0000078766  -0.0000613568  -0.0000641926   0.0000017123  -0.0000143514
        0.0000294116   0.0000003424  -0.0000217464   0.0000136204  -0.0000076750
        0.0000521337   0.0000070147   0.0000043960  -0.0000636680  -0.0000130597
       -0.0000017731   0.0000227197  -0.0000208014   0.0000238491   0.0000012267
        0.0000054694  -0.0000099338   0.0000053726  -0.0000003516   0.0000043607
       -0.0000040811  -0.0000025151   0.0000032472   0.0000023264   0.0000027382
       -0.0000017797  -0.0000091986  -0.0000049397   0.0000051743  -0.0000100809
        0.0000018531  -0.0000068801   0.0000023228  -0.0000014403   0.0000017972
       -0.0000036656   0.0000012719  -0.0000028409   0.0000051687   0.0000035853
       -0.0000052519   0.0000001186  -0.0000051140   0.0000092957   0.0000172538
        0.0000298290  -0.0000226561  -0.0000080028  -0.0000329956   0.0000034267
       -0.0000131264   0.0000082308  -0.0000014021   0.0000142452  -0.0000084804
        0.0000018669  -0.0000262703  -0.0001240829  -0.0000084544  -0.0000893230
        0.0003099014  -0.0000051008   0.0000549730  -0.0000879465   0.0000027821
        0.0000230459   0.0000524881   0.0000030420   0.0000388000  -0.0000118724
       -0.0000075428  -0.0000304505   0.0000412841  -0.0000004861   0.0000506029
       -0.0000399801   0.0000031943   0.0000071830   0.0000220154  -0.0000175214
       -0.0000003645  -0.0000017880   0.0000103391  -0.0000015134   0.0000064176
       -0.0000030178   0.0000053833  -0.0000017814  -0.0000018017  -0.0000006128
       -0.0000021053   0.0000036895   0.0000061664  -0.0000027614  -0.0000039462
        0.0000015254  -0.0000073389   0.0000067442   0.0000046370  -0.0000003635
        0.0000001216   0.0000036336  -0.0000012368  -0.0000003457  -0.0000037178
        0.0000046015   0.0000063972   0.0000091656   0.0000049935  -0.0000038744
       -0.0000328816  -0.0000047854   0.0000128110  -0.0000634068  -0.0000361282
        0.0000012501   0.0000276092  -0.0000072991  -0.0000111077  -0.0000261568
       -0.0000232875   0.0000093738   0.0000786821  -0.0000936575   0.0000546817
       -0.0004736691   0.0000384459   0.0000411859   0.0026727773  -0.0033575334
       -0.0003240314   0.0200500391   0.0024973877   0.0007584204   0.0017057623
        0.0000070786   0.0004580389   0.0004439009  -0.0001391274   0.0001965641
        0.0002865227  -0.0008263449   0.0006821846   0.0003613370   0.0002713691
       -0.0001240099  -0.0000058425  -0.0001568868  -0.0001699686  -0.0000847270
       -0.0000170662   0.0001727141   0.0002014797   0.0004001651   0.0000466840
       -0.0000812390  -0.0000203527   0.0000076516  -0.0000273920   0.0000704410
        0.0000441566   0.0000053985  -0.0000050864  -0.0000348486   0.0000000095
        0.0000084589  -0.0000426936  -0.0000559170  -0.0000223167  -0.0000370564
        0.0001201406   0.0006015138   0.0005669731  -0.0281990016  -0.1895380591
       -0.1130405374  -0.0189786146  -0.0495485046   0.0410765841   0.0851146117
       -0.2051656859   0.0759614722  -0.0015090553   0.0010439949  -0.0003222914
        0.0000056190   0.0000046626   0.0000020508  -0.0000079873  -0.0000067233
       -0.0000013845   0.0000001867  -0.0000014274   0.0000028328   0.0000000011
        0.0000010330  -0.0000018582  -0.0000028713   0.0000004714  -0.0000024527
       -0.0000037234  -0.0000001866   0.0000001370  -0.0000034107  -0.0000004448
       -0.0000001971  -0.0000029035  -0.0000012036   0.0000022507   0.0000005897
       -0.0000012294   0.0000030211   0.0000007880   0.0000023333  -0.0000026054
        0.0000015423  -0.0000038598  -0.0000006633  -0.0000061694   0.0000010614
        0.0000043232  -0.0000001770   0.0000023852  -0.0000005906   0.0000215396
       -0.0000173646  -0.0000026935   0.0000029403   0.0000081107   0.0000025002
        0.0000051994  -0.0000042497  -0.0000013211  -0.0000010473   0.0000009848
       -0.0000030760  -0.0000007133  -0.0000007128   0.0000005229   0.0000001636
       -0.0000012379  -0.0000002449   0.0000005438  -0.0000019239  -0.0000002134
        0.0000001885  -0.0000003765  -0.0000010024   0.0000004594  -0.0000015328
       -0.0000008168  -0.0000001741  -0.0000004651  -0.0000027810  -0.0000047261
       -0.0000008385  -0.0000007445   0.0000031890   0.0000034325   0.0000134431
        0.0000061874  -0.0000044205  -0.0000050728   0.0000048759  -0.0000016882
        0.0000005356  -0.0000509922   0.0000063868  -0.0000204689  -0.0000136680
        0.0001154387  -0.0000026422   0.0012690901   0.0000472916   0.0000193126
        0.0000808876  -0.0003989688   0.0001725803  -0.0000054231  -0.0000380316
        0.0000292389  -0.0000267208  -0.0000244313  -0.0000036125  -0.0000136112
       -0.0000294309   0.0000053810   0.0000055384  -0.0000150459  -0.0000055668
        0.0000145310  -0.0000026184  -0.0000076016   0.0000094124  -0.0000108914
       -0.0000136349   0.0000335456   0.0000146300   0.0000171810
        0.0019704880  -0.0024372271   0.4897568992  -0.0210201418  -0.0037779464
       -0.0619803587  -0.0026619744  -0.0004266075   0.0017281353  -0.0006111735
       -0.0003858655   0.0076107643  -0.0001126208  -0.0001790942  -0.0000286228
        0.0000315817   0.0000588717  -0.0001155905  -0.0000460598  -0.0000858781
       -0.0000117536   0.0000174176   0.0000021774   0.0000186245  -0.0000025708
       -0.0000095502  -0.0000010462   0.0000068459  -0.0000064215   0.0000003308
       -0.0000202546  -0.0000062431  -0.0000014627   0.0000224341   0.0000070197
        0.0000000667  -0.0000085577   0.0000072070  -0.0000096592  -0.0000002225
       -0.0000013451   0.0000031018  -0.0000032766  -0.0000002377  -0.0000013499
        0.0000018769   0.0000011087  -0.0000014289  -0.0000006520  -0.0000010298
        0.0000005715   0.0000023313   0.0000018927  -0.0000026354   0.0000042032
       -0.0000009662   0.0000030308  -0.0000015145   0.0000006526  -0.0000012543
        0.0000003344  -0.0000009006   0.0000012785  -0.0000019398  -0.0000017242
        0.0000024850   0.0000011643   0.0000020780  -0.0000031742  -0.0000085265
       -0.0000120289   0.0000093195   0.0000027036   0.0000114008  -0.0000018456
        0.0000011708  -0.0000011491   0.0000008649  -0.0000061756   0.0000016152
       -0.0000009376  -0.0000339098   0.0000425115  -0.0000083131   0.0000496239
       -0.0000893860   0.0000091725  -0.0000185978   0.0000204060  -0.0000027620
       -0.0000100773  -0.0000200329  -0.0000014683  -0.0000162181  -0.0000008940
        0.0000016353   0.0000074639  -0.0000100721   0.0000010712  -0.0000155065
        0.0000041808   0.0000002630  -0.0000010694  -0.0000034118   0.0000026485
       -0.0000001728  -0.0000012519  -0.0000010769   0.0000007630  -0.0000021527
        0.0000004355  -0.0000014614  -0.0000000595   0.0000007746  -0.0000004100
       -0.0000004640   0.0000002215  -0.0000004004  -0.0000013646   0.0000018771
       -0.0000011037   0.0000024370  -0.0000011252   0.0000004412  -0.0000011949
       -0.0000012053  -0.0000027975   0.0000014930   0.0000007318   0.0000005356
       -0.0000045513   0.0000020261  -0.0000030829   0.0000000307  -0.0000019791
        0.0000126194   0.0000006655  -0.0000060837   0.0000215444   0.0000096935
       -0.0000002218  -0.0000104176   0.0000050818   0.0000111029   0.0000172648
        0.0000388537   0.0000058400  -0.0000483264   0.0001153796   0.0000472616
        0.0002284268   0.0003969216  -0.0002432057  -0.0010003139  -0.0001183299
        0.0064864826  -0.0011814579   0.0010264876   0.0013587675  -0.0005820984
       -0.0011807880  -0.0023185469   0.0005771781   0.0004301687  -0.0002538944
       -0.0003569394   0.0004671156  -0.0004327046  -0.0002434037  -0.0000612527
        0.0001191744   0.0000264441   0.0000944516   0.0000517403   0.0000456506
        0.0000255087  -0.0000821951  -0.0001068752  -0.0002200024  -0.0001647902
        0.0000140840  -0.0001130616  -0.0000155484   0.0000180247  -0.0000625720
       -0.0000221862  -0.0000432400  -0.0000261988   0.0000349746   0.0000045578
        0.0000937736   0.0000713856   0.0000173777   0.0000068363  -0.0000813718
       -0.0002968750  -0.0002022309   0.0000561040  -0.0242121194  -0.1128665915
       -0.1295079686   0.0906452397   0.0425597938  -0.2275426481  -0.0412979005
        0.0759325967  -0.0802214453   0.0003420190   0.0003932222  -0.0024260339
       -0.0000003615   0.0000001390   0.0000002036   0.0000007373   0.0000016984
        0.0000010148   0.0000025395   0.0000007712  -0.0000013293   0.0000006826
        0.0000004518  -0.0000003949   0.0000008038  -0.0000000778   0.0000002572
        0.0000010223   0.0000000555  -0.0000002847   0.0000009174   0.0000001139
       -0.0000000221   0.0000009663   0.0000007109  -0.0000011778  -0.0000005395
        0.0000005986  -0.0000013683   0.0000002745  -0.0000007032   0.0000001053
       -0.0000017526   0.0000006932   0.0000002172   0.0000008981  -0.0000001228
       -0.0000009223  -0.0000007405  -0.0000005513  -0.0000000483  -0.0000038169
        0.0000015499   0.0000002264  -0.0000024627  -0.0000067585  -0.0000001064
       -0.0000017410  -0.0000009041   0.0000013320   0.0000005777  -0.0000002700
       -0.0000002304   0.0000001284  -0.0000003936   0.0000005902  -0.0000002032
       -0.0000000695   0.0000004571  -0.0000000604   0.0000002855   0.0000006640
        0.0000000308  -0.0000004644   0.0000011630   0.0000010817  -0.0000010013
        0.0000008076   0.0000000288   0.0000010142   0.0000009076   0.0000011862
        0.0000022546   0.0000018149  -0.0000036388   0.0000002337  -0.0000216481
       -0.0000060908   0.0000094132   0.0000078134  -0.0000014371  -0.0000065861
        0.0000004142   0.0000199210   0.0000071809  -0.0000115930   0.0000600698
        0.0000429433  -0.0015548902  -0.0001309416  -0.0000292623  -0.0000371245
       -0.0000727320   0.0005138528  -0.0003011936   0.0000072258   0.0000018900
       -0.0000400611   0.0000291199   0.0000289136   0.0000102362   0.0000203733
        0.0000031847  -0.0000032038   0.0000018905  -0.0000151393   0.0000055449
       -0.0000045861  -0.0000065482   0.0000101835   0.0000073010  -0.0000021102
        0.0000110160  -0.0000280466   0.0000114596   0.0000193601
       -0.2104428384  -0.0208035625  -0.0210201418   0.6166140865   0.0141196701
        0.0399588281  -0.1206558252  -0.1160917061  -0.0068583648  -0.0148735942
       -0.0303670061  -0.0012539798  -0.0061352167  -0.0027626476  -0.0011172970
        0.0005675147  -0.0002680157   0.0000397922  -0.0010326828  -0.0012541954
        0.0000229082   0.0003508020  -0.0000077830   0.0000042474  -0.0000742975
       -0.0001899343  -0.0000050188   0.0000977099  -0.0000804991   0.0000451568
       -0.0003039351  -0.0000903339  -0.0000237334   0.0003510755   0.0000810372
        0.0000133304  -0.0001232711   0.0001066398  -0.0001159774   0.0000111170
       -0.0000200180   0.0000459536  -0.0000332951   0.0000061455  -0.0000317399
        0.0000121212   0.0000141070  -0.0000199722  -0.0000145215  -0.0000163051
        0.0000104860   0.0000440650   0.0000310555  -0.0000376209   0.0000500749
       -0.0000122349   0.0000411671  -0.0000187971   0.0000084541  -0.0000114068
        0.0000137201  -0.0000098293   0.0000187039  -0.0000304724  -0.0000189138
        0.0000284934   0.0000074966   0.0000249044  -0.0000427947  -0.0000852937
       -0.0001528756   0.0001061719   0.0000342128   0.0001654198  -0.0000256927
        0.0000355159  -0.0000205640   0.0000099310  -0.0001034550   0.0001330620
       -0.0000053260   0.0002843839   0.0008055513   0.0000057799  -0.0001414483
       -0.0014451219  -0.0000254775  -0.0002585856   0.0004209519  -0.0000031152
       -0.0001029422  -0.0002035016  -0.0000074061  -0.0001705505   0.0000178695
        0.0000420375   0.0002078074  -0.0002636742  -0.0000085072  -0.0002721348
        0.0002964879   0.0000189480  -0.0000441724  -0.0001686075   0.0001082907
        0.0000176546   0.0000215215  -0.0000522984   0.0000140781  -0.0000386395
        0.0000271163  -0.0000249277   0.0000064549   0.0000179347   0.0000171544
        0.0000034976  -0.0000163897  -0.0000452863   0.0000181151   0.0000404536
       -0.0000197232   0.0000632767  -0.0000389833   0.0000001970  -0.0000218851
        0.0000070095  -0.0000060883   0.0000185945  -0.0000170791   0.0000278884
       -0.0000159395  -0.0000370760  -0.0000354396  -0.0000128191   0.0000458940
        0.0002116709   0.0000003379  -0.0001251864   0.0001968002   0.0002110074
       -0.0000146883  -0.0001062358   0.0000341737   0.0000242696   0.0001314054
        0.0000270586  -0.0000059027   0.0001956063   0.0025503914   0.0001707826
        0.0034498726   0.0103337589   0.0004856604  -0.0482612307   0.0118665380
       -0.0031477563  -0.1753853021   0.1339323934  -0.0055993426   0.0072727654
       -0.0018136097  -0.0011485088   0.0010081001  -0.0003618629  -0.0011141728
       -0.0009660288   0.0005387558  -0.0001876040  -0.0003101230  -0.0001792081
        0.0001117104  -0.0000391461   0.0001915891   0.0002250326   0.0001286865
        0.0001269397  -0.0003753246  -0.0006175663  -0.0009647735  -0.0000555582
       -0.0001774828  -0.0006137596  -0.0003540564  -0.0001451025  -0.0000984163
       -0.0000808426  -0.0001099107  -0.0001321028   0.0000843441  -0.0001209125
        0.0001902004   0.0000627021   0.0002885925  -0.0000305536  -0.0004264561
        0.0000956942  -0.0019413746   0.0008217265  -0.0098655112  -0.0081589316
       -0.0021636809  -0.0210574398  -0.0059447279   0.0046154731  -0.0201822023
        0.0028245299  -0.0019888693   0.0048790564   0.0164196869   0.0000306674
       -0.0000214464  -0.0000017639  -0.0000111814   0.0000194057   0.0000201288
        0.0000064150   0.0000065419   0.0000059632  -0.0000082240   0.0000002719
       -0.0000069683   0.0000120993   0.0000164138  -0.0000034315   0.0000120765
        0.0000174435   0.0000036501  -0.0000023848   0.0000168812   0.0000032366
        0.0000025450   0.0000143354   0.0000094696  -0.0000127942  -0.0000020970
        0.0000067278  -0.0000129488   0.0000046988  -0.0000055880   0.0000081795
       -0.0000105437   0.0000002280  -0.0000061808   0.0000197035  -0.0000049724
       -0.0000168577   0.0000045475  -0.0000161782   0.0000122087  -0.0000376192
        0.0000022969   0.0000099196   0.0000099414  -0.0000198980  -0.0000129090
       -0.0000063601   0.0000318174   0.0000076309  -0.0000079614  -0.0000003022
        0.0000150317   0.0000055886   0.0000032515  -0.0000070945  -0.0000031585
        0.0000127056  -0.0000084577  -0.0000080723   0.0000133584   0.0000033910
       -0.0000072263   0.0000109258   0.0000012397  -0.0000106402   0.0000099290
        0.0000141050  -0.0000031869  -0.0000039795   0.0000218028   0.0000154759
        0.0000051841  -0.0000101174   0.0000345809  -0.0000194292  -0.0000268240
       -0.0000204942   0.0000060646   0.0000210610  -0.0000167522   0.0000104399
       -0.0000189376   0.0001734847  -0.0001367633   0.0000214323   0.0005636268
       -0.0000289919   0.0000561433  -0.0055212024  -0.0008526768  -0.0005335572
        0.0005915863   0.0000811543   0.0003215578  -0.0000044573   0.0000103957
        0.0000401016   0.0000510146   0.0000184650   0.0000388115   0.0000356459
       -0.0000111485   0.0000383676  -0.0000035499  -0.0000813288  -0.0000089869
        0.0000165391  -0.0000495373   0.0000153596   0.0000097427  -0.0000211296
        0.0000008131  -0.0001666398  -0.0000355487   0.0002895090
       -0.0242558373  -0.0692032302  -0.0037779464   0.0141196701   0.6452857335
        0.0065713721  -0.0403199972  -0.2968035740  -0.0057611288  -0.0854805403
        0.0000395521  -0.0059767586   0.0015449352   0.0076442336  -0.0001900108
       -0.0036961098  -0.0021176957  -0.0000931571   0.0006129798   0.0020488682
        0.0001312865  -0.0004166567  -0.0001118712  -0.0000281507   0.0000703721
        0.0002175852   0.0000067520  -0.0001436661   0.0000831824  -0.0000441755
        0.0002880104   0.0000464208   0.0000199939  -0.0003326082  -0.0000626363
       -0.0000219128   0.0001246324  -0.0001071449   0.0001142487  -0.0000138236
        0.0000213044  -0.0000417083   0.0000289699  -0.0000053843   0.0000325767
       -0.0000134072  -0.0000110638   0.0000162901   0.0000120319   0.0000147313
       -0.0000083835  -0.0000434192  -0.0000280674   0.0000314558  -0.0000419498
        0.0000109908  -0.0000365610   0.0000115981  -0.0000102125   0.0000124168
       -0.0000167176   0.0000082918  -0.0000170951   0.0000283386   0.0000173743
       -0.0000254417  -0.0000039986  -0.0000234364   0.0000435195   0.0000730624
        0.0001396622  -0.0000984840   0.0000016322  -0.0001918691   0.0000271285
       -0.0000570534   0.0000185840  -0.0000176094   0.0000490022  -0.0001558496
        0.0000024244   0.0001416782  -0.0010438906  -0.0000546679   0.0001609667
        0.0012490581   0.0001021552   0.0002033207  -0.0001896408  -0.0000011265
        0.0000407426   0.0001296142   0.0000018504   0.0000955014  -0.0000167037
       -0.0000323645  -0.0001470566   0.0002277213   0.0000156116   0.0001995122
       -0.0002548223  -0.0000086238   0.0000346336   0.0001528030  -0.0000968883
       -0.0000123049  -0.0000223554   0.0000384011  -0.0000108535   0.0000315152
       -0.0000271236   0.0000146681  -0.0000028825  -0.0000150275  -0.0000179467
        0.0000030159   0.0000090367   0.0000387862  -0.0000205592  -0.0000312342
        0.0000083656  -0.0000426612   0.0000322244  -0.0000006935   0.0000150036
       -0.0000085268  -0.0000006745  -0.0000150017   0.0000145655  -0.0000344431
        0.0000152659   0.0000324227   0.0000216806   0.0000007364  -0.0000402605
       -0.0001543442   0.0000019528   0.0001023009  -0.0000800445  -0.0001434897
        0.0000162594   0.0000192381  -0.0000051184   0.0000001393  -0.0001070336
       -0.0000024116   0.0000031397   0.0011732503  -0.0018832762  -0.0000613442
        0.0107829305  -0.0590198407   0.0003717674   0.0630784321   0.0404897621
        0.0062738046   0.0654737404  -0.1849896294   0.0026656891   0.0101245905
       -0.0500236766  -0.0019770143   0.0049672287   0.0000323691  -0.0013246231
       -0.0002777876  -0.0002801034  -0.0001835516   0.0000295560   0.0002208655
       -0.0002904329   0.0000608727  -0.0001266051  -0.0001338153  -0.0002759679
        0.0002649709  -0.0000535665  -0.0001472870  -0.0006910112  -0.0009173252
       -0.0009296375  -0.0012672366  -0.0002265211  -0.0001121468  -0.0000372055
       -0.0000126546  -0.0001149586  -0.0000513778   0.0001362301   0.0000172756
        0.0003464230   0.0002751114  -0.0000292387   0.0000727499   0.0000112756
       -0.0016712018  -0.0005742729   0.0042088983  -0.0246708336  -0.0063554898
       -0.0033873660  -0.0075863149  -0.0008805915   0.0006033997   0.0242342689
        0.0024746607   0.0031553807  -0.0053492788  -0.0250250681   0.0002703436
        0.0000126160   0.0000219844   0.0000119175  -0.0000229656  -0.0000153820
       -0.0000063354  -0.0000004243  -0.0000100177   0.0000114214   0.0000000358
        0.0000063955  -0.0000141774  -0.0000129951   0.0000020985  -0.0000112325
       -0.0000136157  -0.0000033867  -0.0000000168  -0.0000141155  -0.0000042288
       -0.0000033034  -0.0000117878  -0.0000086510   0.0000083919   0.0000006753
       -0.0000065375   0.0000081382  -0.0000055515   0.0000053644  -0.0000139353
        0.0000092888  -0.0000014497   0.0000115949  -0.0000152933   0.0000069158
        0.0000134748  -0.0000101924   0.0000126221  -0.0000109070   0.0000968283
       -0.0000701346  -0.0000113596  -0.0000071388   0.0000205268   0.0000085962
        0.0000001363  -0.0000235643  -0.0000055674   0.0000079607  -0.0000015909
       -0.0000104806  -0.0000044476  -0.0000040704   0.0000090005   0.0000036671
       -0.0000118931   0.0000112482   0.0000073554  -0.0000105406  -0.0000020088
        0.0000077630  -0.0000095000   0.0000020245   0.0000107964  -0.0000080453
       -0.0000081266   0.0000047545   0.0000026452  -0.0000107422   0.0000010490
       -0.0000091499   0.0000126912  -0.0000101780   0.0000108387  -0.0000097246
        0.0000087602   0.0000128639  -0.0000045989   0.0000123321  -0.0000105057
        0.0000105206  -0.0000257652   0.0000900591  -0.0000049241   0.0001026899
       -0.0005570386  -0.0005196380  -0.0017570791   0.0007180927  -0.0001359584
        0.0000160000   0.0002168084   0.0006408133  -0.0000047872   0.0000720123
        0.0000598743  -0.0000002405  -0.0000057545   0.0000701887  -0.0000496394
       -0.0000138019  -0.0000064330   0.0000060085  -0.0001309277  -0.0000441071
        0.0000148753  -0.0000258252  -0.0000551521   0.0000585265   0.0000224966
       -0.0000830281   0.0002634564   0.0001922270  -0.0002450289
       -0.0148099530  -0.0019840701  -0.0619803587   0.0399588281   0.0065713721
        0.1468467357  -0.0051500115  -0.0101338810  -0.0478814276  -0.0035696828
       -0.0033619086   0.0001889339  -0.0004775108   0.0009153383   0.0076430326
       -0.0006143537  -0.0004381022  -0.0000700785   0.0001665917   0.0003871391
       -0.0008793084  -0.0000870121  -0.0000333849   0.0000258497   0.0000081655
        0.0000451923   0.0000172526  -0.0000302760   0.0000246109  -0.0000165885
        0.0000780921   0.0000151753   0.0000071179  -0.0000912717  -0.0000166228
       -0.0000050020   0.0000376934  -0.0000299862   0.0000355675  -0.0000047635
        0.0000046045  -0.0000110240   0.0000089290  -0.0000011612   0.0000083162
       -0.0000040466  -0.0000026396   0.0000035983   0.0000043795   0.0000033581
       -0.0000013212  -0.0000134737  -0.0000085084   0.0000089856  -0.0000108579
        0.0000032847  -0.0000104384   0.0000031224  -0.0000023678   0.0000023566
       -0.0000058338   0.0000016086  -0.0000045010   0.0000101337   0.0000045716
       -0.0000062898   0.0000005029  -0.0000060725   0.0000108784   0.0000202004
        0.0000388882  -0.0000275472  -0.0000052129  -0.0000499169   0.0000007640
       -0.0000125891   0.0000064842  -0.0000023989   0.0000170455  -0.0000327303
       -0.0000036660  -0.0000428537  -0.0002109736   0.0003216168   0.0000525462
        0.0003445177  -0.0003264072   0.0000459406  -0.0000596259   0.0000650669
        0.0000175687   0.0000405154   0.0000088992   0.0000353926   0.0000013411
       -0.0000145863  -0.0000452738   0.0000601921   0.0000038202   0.0000542410
       -0.0000672812  -0.0000002181   0.0000097034   0.0000402950  -0.0000245426
       -0.0000042563  -0.0000047171   0.0000102770  -0.0000037323   0.0000093845
       -0.0000069653   0.0000050106  -0.0000016237  -0.0000041796  -0.0000040165
       -0.0000003495   0.0000030607   0.0000105053  -0.0000040295  -0.0000092370
        0.0000041674  -0.0000139842   0.0000089485  -0.0000004209   0.0000046584
       -0.0000017512   0.0000005471  -0.0000038449   0.0000037859  -0.0000077629
        0.0000040478   0.0000077927   0.0000077881  -0.0000009667  -0.0000100481
       -0.0000449526   0.0000023946   0.0000302300  -0.0000199920  -0.0000361522
       -0.0000022710   0.0000099379  -0.0000009660  -0.0000011548  -0.0000354997
       -0.0000184186  -0.0000099568   0.0003398723  -0.0003717253  -0.0006537564
        0.0008533123   0.0002674347  -0.0038780156  -0.0030838498   0.0006277581
       -0.0000829824  -0.0080379084   0.0119471331  -0.0515721443  -0.0009074040
       -0.0041727234   0.0032324830   0.0013831130   0.0000617084  -0.0005673953
        0.0000747107   0.0003106858   0.0003426173  -0.0000879401   0.0000222780
       -0.0001779965   0.0000205679  -0.0001385851  -0.0000886434  -0.0001401686
        0.0000197046   0.0001065465   0.0000636048  -0.0002131382  -0.0002588553
       -0.0002819798   0.0000214237   0.0003183918   0.0001239423   0.0000090975
       -0.0001841790  -0.0000796652  -0.0000259965   0.0000912680   0.0000104192
        0.0000029136   0.0000689849  -0.0001463524  -0.0000932645   0.0000336174
       -0.0002448464  -0.0005194178  -0.0000616865  -0.0185599004  -0.0040997171
       -0.0018099271   0.0256524119   0.0040053206   0.0035103181  -0.0123511160
       -0.0009982829  -0.0010484668   0.0001384556   0.0011652657   0.0018094504
        0.0000068635   0.0000052964   0.0000064467  -0.0000049044  -0.0000063188
       -0.0000036529   0.0000009877  -0.0000017620   0.0000029342   0.0000002918
        0.0000025480  -0.0000045975  -0.0000033276   0.0000009365  -0.0000035457