68
 energy: -103.144002376575 gnorm: 0.000029435171 xtb: 6.7.1 (edcfbbe)
C           -6.90117292766483        1.26318192942534        0.00077822105935
C           -6.01960313597744        0.00002583723930       -0.00006612384436
C           -6.90114320059010       -1.26315112485277       -0.00094647439352
C           -5.16941513797331       -0.00079470852942        1.25725537762584
C           -5.78654492477178       -0.00158361772168        2.50091846720773
C           -5.06463026592717       -0.00220586716756        3.68067404411893
C           -3.68228993742367       -0.00196299546924        3.62763450724755
C           -3.04267155056126       -0.00119231786254        2.40544808354045
C           -3.77112549240685       -0.00068477873743        1.21223136934191
N           -3.09848293333694        0.00009288582846       -0.00000698329075
C           -1.67603912224782        0.00007431812568        0.00001330444641
C           -0.97961142397527        1.20523954018215       -0.00079239791698
C            0.40071061856574        1.20470756711705       -0.00076775137471
C            1.10265900967964        0.00002870149027       -0.00001243968553
C            2.56698632653972        0.00000145228348       -0.00001853920322
N            3.18970012295755        1.17501663255319       -0.00047872273445
C            4.52053839536820        1.12909594114419        0.00004657241190
C            5.25233653428408        2.39561381021896        0.00077177172250
C            4.56129690196081        3.60688685651647       -0.00383765296503
C            5.25609478529855        4.80107353308212       -0.00294939164653
C            6.64284454455868        4.79905435744221        0.00274192387744
C            7.33589587787331        3.59789844459121        0.00741238958318
C            6.64686361820542        2.40042581840924        0.00640511093832
N            5.22428677495153       -0.00005471589822       -0.00000313503270
C            4.52049104156570       -1.12917565131112       -0.00007464353898
C            5.25223335344909       -2.39572569527043       -0.00073292712437
C            4.56113679989568       -3.60696729035629        0.00364605019618
C            5.25587930914671       -4.80118603379625        0.00283025840624
C            6.64263048475492       -4.79923107619454       -0.00254130011934
C            7.33573827719391       -3.59810668028937       -0.00697649994116
C            6.64676137503778       -2.40060219819576       -0.00605106503648
N            3.18965111727546       -1.17503963398025        0.00043010852030
C            0.40067110743932       -1.20462727543592        0.00076299258719
C           -0.97965041041502       -1.20511359390955        0.00081717664491
C           -3.77107760429332        0.00082964892141       -1.21227322464322
C           -3.04257702317195        0.00136829013767       -2.40546149260146
C           -3.68214628514152        0.00210006408837       -3.62767344284768
C           -5.06448433746670        0.00227012736245       -3.68076835314367
C           -5.78644541281827        0.00162172295163       -2.50104130194726
C           -5.16936524189110        0.00087231214004       -1.25735335840837
H           -7.53698992772749        1.29237314041149       -0.87968019146110
H           -7.53721553446425        1.29104491288642        0.88111662459580
H           -6.27442820534939        2.15349491846536        0.00153413664332
H           -7.53714156880377       -1.29103753894497       -0.88131640573700
H           -7.53700467187120       -1.29235054348862        0.87947930123561
H           -6.27437719779846       -2.15344894135014       -0.00166277601629
H           -6.86454270876874       -0.00172260505750        2.55763964857311
H           -5.57784324257428       -0.00282311785713        4.63063758117261
H           -3.09780042027631       -0.00234759912477        4.53615252787756
H           -1.96372226387793       -0.00092835739042        2.37011733363860
H           -1.52895167761043        2.13499269435120       -0.00141767448131
H            0.95480275926777        2.12997948194328       -0.00128155829067
H            3.48264910365335        3.58986076396961       -0.00820310362457
H            4.71673523879949        5.73667876660391       -0.00664960867258
H            7.18368600721422        5.73381425296627        0.00348795082810
H            8.41584741059551        3.59666442208977        0.01190709519803
H            7.16948892301484        1.45670640886975        0.01014552368800
H            3.48248875138719       -3.58988958345343        0.00775111390814
H            4.71647565213219       -5.73676663366300        0.00636287633278
H            7.18342949689513       -5.73401563351088       -0.00318330023746
H            8.41569090725469       -3.59692315810915       -0.01120997439200
H            7.16943157865015       -1.45690704546468       -0.00963263268703
H            0.95473285123675       -2.12991735405588        0.00128102850980
H           -1.52902128324488       -2.13484862368249        0.00144898213621
H           -1.96362945230227        0.00115916592484       -2.37009033950961
H           -3.09761977450021        0.00251386124025       -4.53616753770133
H           -5.57765890596683        0.00285936840693       -4.63075251528297
H           -6.86444085291148        0.00171104074422       -2.55780561428554
