$hessian                                                                        
        0.0472880059   0.1694646901  -0.0535915681  -0.0559977976  -0.1558130618
        0.0517700126   0.0142915387  -0.0158640538   0.0040974281  -0.0026364118
       -0.0018712880   0.0010104687  -0.0012937206  -0.0002951530  -0.0000352965
        0.0003124510  -0.0006591397  -0.0015828961  -0.0010971787   0.0010596098
        0.0001515904   0.0014792690   0.0001313435   0.0002610169  -0.0014441590
        0.0000644146  -0.0000508413   0.0004851133  -0.0004658555  -0.0001172918
       -0.0002186732  -0.0002416076  -0.0000366065  -0.0000775788   0.0000645584
        0.0000254723  -0.0000022369  -0.0000119803  -0.0000092018  -0.0000011291
        0.0000128484   0.0000003990  -0.0000008125  -0.0000054048  -0.0000003192
       -0.0000126582   0.0000048484  -0.0000065959   0.0000212477  -0.0000000919
        0.0000087572   0.0005057364   0.0003230998  -0.0000107140  -0.0003086802
       -0.0003283102   0.0000062128   0.0001464170   0.0000346332  -0.0000264813
       -0.0000406763  -0.0000906339  -0.0000153574   0.0000290349   0.0000511077
        0.0000053201  -0.0000872589  -0.0000398326   0.0000140025   0.0000513588
        0.0001525839   0.0000023273  -0.0000478603   0.0006369120   0.0001240445
       -0.0009107086  -0.0006786560  -0.0001622958   0.0011211359  -0.0002395554
       -0.0002131422   0.0021341261   0.0041217196  -0.0018882520  -0.0018391248
        0.0012154346  -0.0004068548   0.0003879792   0.0000082549  -0.0000775084
       -0.0005042774  -0.0001228427   0.0001462108   0.0005869213   0.0001135057
       -0.0001896129   0.0002417958  -0.0010073894   0.0002767984   0.0007441958
       -0.0006292021   0.0002386542  -0.0023180253   0.0020783859  -0.0005120394
        0.0001355013   0.0001030113  -0.0000007827   0.0000055140   0.0000099612
        0.0000084435   0.0000100756   0.0000023505   0.0000042701   0.0000066121
       -0.0000056812  -0.0000009624  -0.0000031332  -0.0000107664  -0.0000058345
       -0.0000099980  -0.0000071711  -0.0000038067   0.0000058625  -0.0000060335
       -0.0000081837   0.0000114467   0.0000016181  -0.0000079381   0.0000071315
        0.0000080153   0.0000006956   0.0000045560   0.0000204727   0.0000131880
       -0.0000062198   0.0000040989   0.0000217177   0.0001202281  -0.0000274197
        0.0000097366  -0.0000164579   0.0000364262   0.0000735902  -0.0000531856
        0.0001087706   0.0000501404  -0.0013476849  -0.0012899283   0.0005713914
        0.0000538800  -0.0000457851  -0.0000167043  -0.0000235061  -0.0000575036
        0.0000452175   0.0001124327   0.0000262689   0.0000075721  -0.0000004138
       -0.0000445969   0.0000324084
        0.1694646901   1.0528052452  -0.3316132996  -0.1564572196  -0.9871369326
        0.3046479469  -0.0241624139  -0.0717220025   0.0277073721  -0.0051573671
        0.0050715218   0.0001486999  -0.0033191108  -0.0011195107  -0.0004516938
        0.0030106638   0.0029382665   0.0007220905  -0.0041819219   0.0022515694
        0.0001008747   0.0072410102   0.0007603475   0.0003174005  -0.0068283322
        0.0000391790  -0.0000875498   0.0026329471  -0.0023361793  -0.0002018336
       -0.0010724332  -0.0002848324  -0.0002354770   0.0000762301  -0.0000357899
        0.0000269504  -0.0001818395  -0.0001467463  -0.0000708810   0.0000017529
       -0.0001217076  -0.0000796670  -0.0000641320   0.0000239507  -0.0000047780
        0.0001157415   0.0000390322   0.0000758044   0.0001392736   0.0001737358
        0.0000421099   0.0024932154   0.0005367877   0.0000032526  -0.0010805811
       -0.0011962892  -0.0000034163   0.0006427242   0.0002710379  -0.0001437496
       -0.0002016131  -0.0003388417   0.0000045710   0.0000961516   0.0002345295
        0.0000472544  -0.0002514243  -0.0002138278  -0.0000206091   0.0002100903
        0.0006601126   0.0001198770  -0.0006937835   0.0029202048   0.0005349799
       -0.0037509169  -0.0030852860  -0.0005776029   0.0040369985  -0.0012366947
       -0.0006435125   0.0217910890   0.0031671594  -0.0042945958  -0.0052892911
        0.0037304522   0.0000411434   0.0028219271   0.0021315032  -0.0013866710
       -0.0023351177  -0.0001053016   0.0002379365   0.0042929106  -0.0008897782
       -0.0001250906  -0.0061535049  -0.0065095344   0.0029917816   0.0007706645
       -0.0007216325   0.0004888875   0.0034523677  -0.0006250201   0.0015797276
        0.0002006936   0.0000651015   0.0000306319  -0.0000088155   0.0000540345
       -0.0000052000   0.0000658586   0.0000150469   0.0000193673   0.0000502576
       -0.0000377812  -0.0000142248  -0.0000167679  -0.0000671231  -0.0000319012
       -0.0000566213   0.0000306225   0.0000302101   0.0000018098  -0.0000307929
       -0.0000142224   0.0000699500   0.0000018113  -0.0000462772   0.0000476164
        0.0000443862  -0.0000047519   0.0000037657   0.0000818590   0.0000483080
       -0.0000400028  -0.0000369461  -0.0000004609   0.0002159230  -0.0004176421
       -0.0000486108   0.0000426507  -0.0000305555   0.0001546148  -0.0001245280
       -0.0000716684   0.0000369630  -0.0020289876   0.0002547646  -0.0000941444
       -0.0001940967   0.0000571989  -0.0000801550  -0.0001804197   0.0000388750
        0.0000610079  -0.0002006085  -0.0000872903   0.0001803569   0.0000428771
        0.0002073711  -0.0001197443
       -0.0535915681  -0.3316132996   0.1220441496   0.0520836085   0.3057088577
       -0.1266742261   0.0075265090   0.0258372952   0.0024771800   0.0015065189
       -0.0003033127   0.0011412977   0.0003879049   0.0004668688   0.0000975384
       -0.0002316351  -0.0012123828  -0.0004026876   0.0002841241   0.0000619447
        0.0001258074  -0.0008800550  -0.0001263479  -0.0000541095   0.0006815483
       -0.0000133812  -0.0000778498  -0.0001055741   0.0003064062   0.0000299274
        0.0000351765  -0.0006803498   0.0000082888  -0.0001467176   0.0001362958
       -0.0000099784   0.0001546965   0.0000939759   0.0000522415   0.0000008046
        0.0000846636   0.0000419655   0.0000442364  -0.0000293762   0.0000131526
       -0.0000856713  -0.0000129813  -0.0000548965  -0.0000764107  -0.0001703163
       -0.0000392462  -0.0004791702   0.0005828187  -0.0000171232   0.0000424161
        0.0000426959   0.0000161871   0.0000249134  -0.0001200943  -0.0000065744
        0.0000418152   0.0000041631  -0.0000262912   0.0000238488  -0.0000215833
       -0.0000262723  -0.0000432445   0.0000269886   0.0000474378  -0.0000740039
        0.0000336385   0.0000079579   0.0003568219  -0.0003237000   0.0000253502
        0.0004770325   0.0003368991   0.0000734079  -0.0005840576   0.0001272111
        0.0003221704  -0.0075471520  -0.0014129132   0.0030295597   0.0019279286
       -0.0009218061   0.0007713350  -0.0009332454  -0.0007724526   0.0005052588
        0.0007941699   0.0000074214  -0.0000939682  -0.0015046157   0.0002249936
       -0.0000771823   0.0016636848   0.0017433077  -0.0019285690  -0.0004825002
        0.0007330083  -0.0005720077  -0.0020549580   0.0010935854  -0.0006103087
        0.0000018351  -0.0000022880   0.0000032740   0.0000037230  -0.0000190668
        0.0000104484  -0.0000238783  -0.0000010505  -0.0000059579  -0.0000166694
        0.0000112776   0.0000013824  -0.0000038427   0.0000293873   0.0000058634
        0.0000185102  -0.0000019828  -0.0000133580  -0.0000024358   0.0000172100
       -0.0000069437  -0.0000270916  -0.0000052022   0.0000088869  -0.0000140721
       -0.0000113027   0.0000009138  -0.0000047568  -0.0000246577  -0.0000090096
        0.0000213844   0.0000062668  -0.0000013664  -0.0000363347   0.0001166354
       -0.0000368738  -0.0000250144   0.0000227575  -0.0000588905   0.0000360764
        0.0000762887  -0.0000208964   0.0006936172  -0.0001309490  -0.0001728583
        0.0000575573  -0.0000264385  -0.0000169007   0.0000423741  -0.0000240320
       -0.0000247901   0.0000485185   0.0000712790   0.0000716957  -0.0000066802
       -0.0000228741   0.0001064584
       -0.0559977976  -0.1564572196   0.0520836085   0.1456331692   0.2067185992
       -0.0728848358  -0.0671906587  -0.0375539145   0.0130796447   0.0086566962
        0.0158195040  -0.0047582152   0.0012833687   0.0012649784  -0.0000099299
       -0.0034615691   0.0011228767   0.0000445655   0.0019361606  -0.0014739408
       -0.0001931129  -0.0037607182  -0.0003444513  -0.0001724544   0.0035496661
       -0.0000622324   0.0001442687  -0.0013907807   0.0011943058   0.0001436297
        0.0005726829   0.0007141907   0.0001327320   0.0001129233  -0.0001007763
       -0.0000230053  -0.0000364948  -0.0000077424  -0.0000099817  -0.0000081395
       -0.0000124480  -0.0000024419  -0.0000061360   0.0000130817  -0.0000054326
        0.0000145589  -0.0000001373   0.0000098427  -0.0000222797   0.0000468547
        0.0000145433  -0.0012167387  -0.0008201405  -0.0000134889   0.0006605295
        0.0007193039  -0.0000082707  -0.0004325183  -0.0000529674   0.0001049560
        0.0000825426   0.0002145529   0.0000382473  -0.0000908293  -0.0001225891
       -0.0000042037   0.0002017847   0.0000858263  -0.0000377531  -0.0000580082
       -0.0004434172  -0.0000910109   0.0001888658  -0.0015859659  -0.0003071232
        0.0019262397   0.0016329977   0.0003007652  -0.0022372535   0.0005108529
        0.0004108131  -0.0154772184  -0.0303328065   0.0120263971  -0.0011675999
       -0.0040064862   0.0012145543  -0.0004222101  -0.0002117852   0.0004119559
        0.0007736533  -0.0001945008   0.0000288089  -0.0014835439  -0.0009306274
        0.0009594154  -0.0040477854   0.0012383339   0.0005380797  -0.0027390126
        0.0031960296  -0.0001427790  -0.0019908686  -0.0003551827  -0.0018695136
       -0.0001082215  -0.0001445350  -0.0000688727   0.0000009745  -0.0000152757
       -0.0000076840  -0.0000089265  -0.0000085664  -0.0000058655  -0.0000085094
        0.0000078777   0.0000035337   0.0000155358   0.0000100664   0.0000090857
        0.0000215894  -0.0000078942  -0.0000053104  -0.0000037262   0.0000047275
        0.0000178693  -0.0000122355   0.0000012173   0.0000195366  -0.0000079561
       -0.0000128164   0.0000036314   0.0000057978  -0.0000204505  -0.0000175252
        0.0000092950   0.0000072666  -0.0000127563  -0.0001462848   0.0001410072
        0.0000195705   0.0000056747  -0.0000299967  -0.0000992916   0.0001232342
       -0.0001342393  -0.0000461329  -0.0018656730   0.0005697855  -0.0006791755
        0.0000506523   0.0000761718  -0.0000063986   0.0000580936   0.0000607580
       -0.0000969189  -0.0004392686  -0.0001386869   0.0000062032  -0.0000447260
        0.0002106261  -0.0001867745
       -0.1558130618  -0.9871369326   0.3057088577   0.2067185992   1.2924656986
       -0.3877284500  -0.0280669240  -0.2374985902   0.0604200625   0.0184573128
       -0.0444511574   0.0076063441   0.0008127748   0.0017074145   0.0009301758
       -0.0043634277  -0.0031157919   0.0005338017   0.0069492309  -0.0041911457
       -0.0003446796  -0.0121040630  -0.0010013432  -0.0006264262   0.0115498531
       -0.0000937779   0.0002302238  -0.0046916320   0.0038950780   0.0003966657
        0.0019526307   0.0011310880   0.0004184042  -0.0000603374   0.0000179980
       -0.0000754588   0.0002480529   0.0001844790   0.0000931861  -0.0000072614
        0.0001651490   0.0001090303   0.0001027644  -0.0000113870   0.0000065350
       -0.0001459981  -0.0000563303  -0.0000972807  -0.0001877212  -0.0002239688
       -0.0000422381  -0.0038617304  -0.0014904383  -0.0000496429   0.0018629561
        0.0020610662   0.0000007033  -0.0011303680  -0.0003853722   0.0002553982
        0.0003333193   0.0005973524   0.0000220347  -0.0001640089  -0.0003782000
       -0.0000706583   0.0004779383   0.0003495778  -0.0000021243  -0.0003019232
       -0.0011644722  -0.0002406120   0.0007877554  -0.0049236466  -0.0009121865
        0.0058404941   0.0052493016   0.0009193293  -0.0057807454   0.0014086249
        0.0004007527  -0.0530744870  -0.0239801641   0.0168131444   0.0114227879
       -0.0064515350  -0.0002036112  -0.0047796887  -0.0042050075   0.0025185928
        0.0041628339   0.0003270028  -0.0005050919  -0.0078075783   0.0010471317
        0.0006000940   0.0083378060   0.0121224156  -0.0046124514   0.0018259681
       -0.0026142853  -0.0008370856  -0.0017090572   0.0004592189  -0.0012032026
       -0.0004209870  -0.0001477575  -0.0000810357  -0.0000005690  -0.0000912238
       -0.0000119636  -0.0001200380  -0.0000321201  -0.0000439847  -0.0001012308
        0.0000779467   0.0000265170   0.0000490890   0.0001213760   0.0000641761
        0.0001045103  -0.0000377273  -0.0000379713  -0.0000226473   0.0000344359
        0.0000483519  -0.0001252684  -0.0000022206   0.0000883693  -0.0000881904
       -0.0000898362   0.0000070505   0.0000169736  -0.0001467443  -0.0000881262
        0.0000529122   0.0000360606  -0.0000236327  -0.0003530334   0.0006307573
        0.0000692293  -0.0001294895   0.0000286313  -0.0002121548   0.0000372497
        0.0002457445  -0.0000413496   0.0021281603  -0.0002082100   0.0001398666
        0.0004708978  -0.0000507040   0.0001250704   0.0003578841  -0.0000331643
       -0.0000952851   0.0002057574   0.0000522614  -0.0003023529   0.0001449551
       -0.0002025566  -0.0000629102
        0.0517700126   0.3046479469  -0.1266742261  -0.0728848358  -0.3877284500
        0.1860998332   0.0022465951   0.0649458123  -0.0596469395   0.0010980197
        0.0063178343   0.0001814826  -0.0005295663  -0.0011384337  -0.0006876172
       -0.0014128720   0.0008272738   0.0002520221   0.0003085921  -0.0005578445
       -0.0001097488  -0.0012482981  -0.0001449304   0.0001686596   0.0014681037
        0.0001066006   0.0001069959  -0.0012156302   0.0003354848   0.0000214410
        0.0004118191   0.0025343322   0.0001815387   0.0005403827  -0.0004627653
        0.0000128213  -0.0004445183  -0.0002642546  -0.0001334482  -0.0000135463
       -0.0002235910  -0.0001421860  -0.0001365283   0.0000730295  -0.0000312470
        0.0002492794   0.0000436594   0.0001417238   0.0001640171   0.0004798086
        0.0001402203   0.0003537964  -0.0024103766  -0.0001137032   0.0005280395
        0.0005704910  -0.0000047358  -0.0004632532   0.0002623760   0.0001220704
       -0.0000458136   0.0001829791   0.0001369426  -0.0001584011  -0.0000349376
        0.0000683368   0.0002976681  -0.0000024538  -0.0001639264   0.0001792312
       -0.0004857542  -0.0001505482  -0.0009854449  -0.0005006080  -0.0002283605
        0.0003144738   0.0005471048   0.0000167129   0.0001213497   0.0003774259
       -0.0007119169   0.0230799135   0.0125717805  -0.0058997974  -0.0050925210
        0.0022726692  -0.0015209653   0.0019104843   0.0016179569  -0.0015658755
       -0.0016467688  -0.0000961071   0.0002541991   0.0033556512  -0.0003794419
       -0.0000690757  -0.0018284545  -0.0027064634   0.0062850883   0.0002914179
       -0.0012765626   0.0030483824   0.0000738575  -0.0001182346   0.0001978686
        0.0000758606   0.0000099170  -0.0001188988  -0.0000080948   0.0000494782
       -0.0000162321   0.0000581547  -0.0000023673   0.0000076243   0.0000303313
       -0.0000250119  -0.0000105438   0.0000190513  -0.0000652525  -0.0000191905
       -0.0000353545  -0.0000119425   0.0000156529   0.0000032148  -0.0000462779
        0.0000278302   0.0000607959   0.0000056350  -0.0000042019   0.0000297222
        0.0000199311   0.0000125125   0.0000160443   0.0000570598   0.0000190213
       -0.0000506877  -0.0000020120  -0.0000000795   0.0001072201  -0.0001654182
        0.0000464048   0.0000607022  -0.0000002427   0.0001305644  -0.0000148322
       -0.0001299779   0.0000564839  -0.0007156139   0.0003510496   0.0007030507
       -0.0001247492   0.0000793908   0.0001079158  -0.0000885011   0.0000778864
        0.0001270879  -0.0000426433  -0.0002157645  -0.0003831673  -0.0000368726
       -0.0001694373  -0.0002838563
        0.0142915387  -0.0241624139   0.0075265090  -0.0671906587  -0.0280669240
        0.0022465951   0.5091913094  -0.0161162392  -0.0571305289  -0.1432002906
        0.0975264516   0.0030982740  -0.0382674319   0.0193009876   0.0022533065
       -0.0055224354  -0.0028794721  -0.0009841466   0.0108204418  -0.0076446786
       -0.0005543751  -0.0231496833  -0.0018286248  -0.0004938378   0.0240611847
        0.0006163634   0.0007293504  -0.0130873835   0.0074785264   0.0009008106
        0.0048124198   0.0145628584   0.0014056130   0.0027285779  -0.0024279568
        0.0000183452  -0.0019007931  -0.0010586529  -0.0005278467  -0.0000606901
       -0.0009151853  -0.0005317360  -0.0005691728   0.0003721785  -0.0001399767
        0.0010820961   0.0001290735   0.0006344219   0.0004929639   0.0021317065
        0.0006357911  -0.0040638308  -0.0145940099  -0.0006481483   0.0055625414
        0.0061421984  -0.0000976317  -0.0040868962   0.0007209559   0.0009612948
        0.0002865431   0.0018896136   0.0007098930  -0.0011193061  -0.0008001341
        0.0002157307   0.0022755308   0.0005242716  -0.0008923744   0.0005017856
       -0.0042636550  -0.0011433290  -0.0038306907  -0.0098572949  -0.0022497135
        0.0076935565   0.0111888297   0.0016849900  -0.0096146129   0.0002295377
       -0.0011599928  -0.2000022706  -0.0341836362   0.0354962039  -0.0596288820
        0.0171254118   0.0011489262   0.0080151196   0.0121845792  -0.0060210246
       -0.0073135181  -0.0020662597   0.0015281540   0.0135581483  -0.0043868602
        0.0013006404  -0.0272499117  -0.0360299647   0.0169402294   0.0043848143
       -0.0004568943  -0.0070873964  -0.0004659450  -0.0001159115  -0.0000707641
        0.0001790968  -0.0000158594  -0.0000929754  -0.0000188066   0.0001412954
       -0.0000997904   0.0001386108  -0.0000294759  -0.0000019628   0.0000303718
       -0.0000177581   0.0000189989   0.0001342743  -0.0001601399   0.0000286993
       -0.0000335984  -0.0001246092   0.0000355554  -0.0000360633  -0.0001551507
        0.0002075342   0.0001069721   0.0000203005   0.0000773970   0.0000155618
       -0.0000129875   0.0000198493   0.0000928133   0.0001212765  -0.0000789460
       -0.0001848265   0.0000667359  -0.0000562254   0.0000884424   0.0001538808
        0.0001358211  -0.0002766777   0.0000905188   0.0000659766  -0.0000785396
       -0.0000810249  -0.0000563724   0.0009090725  -0.0016446918   0.0002157614
       -0.0007570497  -0.0003204386   0.0000747851   0.0002396485  -0.0000162591
       -0.0003071636  -0.0000923829   0.0002838932   0.0002306219   0.0001089122
        0.0014317185  -0.0001198208
       -0.0158640538  -0.0717220025   0.0258372952  -0.0375539145  -0.2374985902
        0.0649458123  -0.0161162392   0.5652917615  -0.1177700524   0.0761174473
       -0.1547410995   0.0040333164   0.0161934873   0.0036674387  -0.0022462480
        0.0038899718   0.0021513318   0.0014368818  -0.0082231256   0.0059480903
        0.0006229282   0.0180482922   0.0011865011   0.0003921831  -0.0183451334
       -0.0002641383  -0.0004886747   0.0093850227  -0.0058692848  -0.0006515914
       -0.0036253617  -0.0085732110  -0.0009839327  -0.0014626001   0.0013096433
       -0.0000174526   0.0009316575   0.0005017952   0.0002471368   0.0000242416
        0.0004119205   0.0002437376   0.0002640678  -0.0001216759   0.0000638383
       -0.0005244116  -0.0000410618  -0.0002943778  -0.0001812477  -0.0010668451
       -0.0003142637   0.0040694245   0.0087328743   0.0003266586  -0.0039670052
       -0.0043880968   0.0000293302   0.0028327308  -0.0002123492  -0.0006631495
       -0.0003247678  -0.0013450394  -0.0004122120   0.0007613400   0.0006221576
       -0.0000881929  -0.0014935708  -0.0004695540   0.0004974587  -0.0001261475
        0.0029337040   0.0007483520   0.0016888470   0.0077021435   0.0017038927
       -0.0066419708  -0.0072500245  -0.0011958186   0.0037484250  -0.0001437848
       -0.0011387945  -0.0242442189  -0.0689605203   0.0080161645   0.0080084431
        0.0095456088  -0.0045124936   0.0071928869   0.0020230726   0.0012715221
       -0.0035484465  -0.0008340855   0.0006952674   0.0055287028  -0.0041032004
        0.0041636220  -0.0329522143  -0.0170775266   0.0124134647   0.0182129664
       -0.0268546543   0.0056621205  -0.0009096649   0.0000453110   0.0000961199
       -0.0000221679   0.0000744327  -0.0000141510  -0.0000014711  -0.0000560381
        0.0000407228  -0.0000896134   0.0000002358  -0.0000134049  -0.0000410089
        0.0000343703  -0.0000050375  -0.0000303235   0.0001035050  -0.0000016056
        0.0000197152   0.0000876795   0.0000001399   0.0000179616   0.0000604336
       -0.0001165432  -0.0000590974   0.0000104971  -0.0000478365  -0.0000150422
       -0.0000066671  -0.0000166819   0.0000004456  -0.0000713983   0.0000492930
        0.0000727504  -0.0000677247   0.0000156355   0.0001330380  -0.0003596945
       -0.0001242138  -0.0001425303  -0.0000477462   0.0001933940  -0.0002011637
        0.0000931884   0.0001397627   0.0002378977   0.0001622453  -0.0011421125
        0.0009122138   0.0001450667  -0.0001710890  -0.0001646519  -0.0002248805
       -0.0004690413  -0.0012935558  -0.0005537222   0.0004205930  -0.0001272564
        0.0000796076  -0.0014076721
        0.0040974281   0.0277073721   0.0024771800   0.0130796447   0.0604200625
       -0.0596469395  -0.0571305289  -0.1177700524   0.1383677936  -0.0054102701
        0.0057723055  -0.0375611170   0.0007270809   0.0017147095  -0.0007146156
       -0.0003025651  -0.0003700475  -0.0020037271   0.0003133919   0.0001817663
       -0.0003993166  -0.0000735248  -0.0000426853  -0.0001976209  -0.0000774414
       -0.0000490023   0.0001047943   0.0001716622  -0.0000571437   0.0000105114
        0.0000159556  -0.0007173338  -0.0000063333  -0.0002060196   0.0001857331
       -0.0000519461   0.0001624885   0.0000933374   0.0000471391   0.0000019552
        0.0000809130   0.0000453686   0.0000522219  -0.0000434240   0.0000128634
       -0.0000986078  -0.0000152761  -0.0000594244  -0.0000421197  -0.0001825039
       -0.0000556325  -0.0000430113   0.0006887015   0.0001428102  -0.0001683761
       -0.0001843845  -0.0000488267   0.0001426694  -0.0000706629  -0.0000375273
        0.0000220423  -0.0000631011  -0.0000375133   0.0000470499   0.0000150899
       -0.0000251405  -0.0000906862  -0.0000047245   0.0000550914  -0.0000657715
        0.0001518897   0.0000342091   0.0001979651   0.0000980451   0.0000339864
        0.0001171685   0.0001884213   0.0003835843  -0.0004822034  -0.0011456125
        0.0069901229   0.0289161038   0.0131454251  -0.0507676148   0.0024328177
       -0.0052487018   0.0030423099  -0.0029901726   0.0006151739   0.0048195524
        0.0019273189   0.0001773698  -0.0004699248  -0.0032306836   0.0050305459
        0.0026677994   0.0180665946   0.0113614503  -0.0058062875   0.0004707582
        0.0001985656   0.0023744369  -0.0001563996   0.0000888673   0.0002403871
       -0.0000252907  -0.0000243471   0.0002397797   0.0000018985  -0.0000127454
        0.0000041435  -0.0000090078   0.0000042607  -0.0000014774   0.0000001262
       -0.0000015778  -0.0000061009  -0.0000160047   0.0000082864  -0.0000047513
        0.0000056074   0.0000042551  -0.0000067580  -0.0000001370   0.0000148928
       -0.0000169942  -0.0000084662  -0.0000060350  -0.0000076484  -0.0000032697
        0.0000029903  -0.0000098496  -0.0000146935  -0.0000099433  -0.0000008551
        0.0000161601   0.0000031790  -0.0000008665  -0.0000380553   0.0000405003
        0.0000108774   0.0000000740   0.0001090952  -0.0009606237  -0.0000140406
        0.0000611634  -0.0001063326  -0.0004263879  -0.0007933204  -0.0012108713
       -0.0002881761   0.0000041738   0.0000956419  -0.0000873289  -0.0004466568
       -0.0008446881   0.0006252570   0.0002070966  -0.0001859923  -0.0001122007
       -0.0011163562  -0.0009470652
       -0.0026364118  -0.0051573671   0.0015065189   0.0086566962   0.0184573128
        0.0010980197  -0.1432002906   0.0761174473  -0.0054102701   0.6503400077
        0.0107368518   0.0258329785  -0.3260736365  -0.0349880073  -0.0215492503
       -0.0315598788  -0.0265015063  -0.0037058664   0.0020166551   0.0024882794
        0.0001897401   0.0113855612   0.0001844500   0.0000904589  -0.0171401053
       -0.0012106900  -0.0005416431   0.0110594220  -0.0059275585  -0.0007192993
       -0.0040397994  -0.0139681292  -0.0013586675  -0.0028319758   0.0024653325
       -0.0000198861   0.0020061058   0.0010915353   0.0005715017   0.0000602962
        0.0009525503   0.0005356575   0.0005709944  -0.0004195422   0.0001414084
       -0.0011332357  -0.0001389946  -0.0006450411  -0.0004845484  -0.0022201815
       -0.0006436612   0.0044458231   0.0141986138   0.0006579754  -0.0056885307
       -0.0062607653   0.0000870473   0.0042844576  -0.0006929462  -0.0010474853
       -0.0003165605  -0.0020149939  -0.0007361909   0.0011488872   0.0008703419
       -0.0002243227  -0.0024043915  -0.0005713926   0.0009061810  -0.0004779675
        0.0044623670   0.0011882448   0.0029509463   0.0089067309   0.0021147035
        0.0025044241  -0.0003653190  -0.0002147298  -0.0482908882   0.0206677323
       -0.0004494123  -0.0454803573   0.0145248139   0.0003037222  -0.0006613859
       -0.0045265491   0.0026466957  -0.0013610604   0.0000911393  -0.0001665835
       -0.0002109179  -0.0000461603   0.0000712886  -0.0004830503   0.0009938784
       -0.0010276280   0.0001499824   0.0041065597  -0.0008174322  -0.0653428932
       -0.0758440735   0.0009184319   0.0005882822   0.0010118552  -0.0000292131
       -0.0003327917   0.0001061373  -0.0000690965   0.0000099120  -0.0001384686
        0.0001005056  -0.0001192917   0.0000441209   0.0000168094  -0.0000058676
       -0.0000105792  -0.0000247033  -0.0001675627   0.0001242999  -0.0000464675
        0.0000199501   0.0001072046  -0.0000478937   0.0000339578   0.0001641331
       -0.0002321284  -0.0000824844  -0.0000344456  -0.0001129477   0.0000062508
        0.0000388148  -0.0000397317  -0.0001177556  -0.0000869027   0.0000845913
        0.0001904087  -0.0000550684   0.0000631876  -0.0000711624  -0.0001259310
       -0.0001261619  -0.0007456711  -0.0002498104   0.0000033471   0.0009260361
       -0.0017972723  -0.0002076819   0.0000293903   0.0002227396   0.0001041139
       -0.0005400580  -0.0000126039  -0.0000585175  -0.0001969130   0.0000372683
        0.0002474041  -0.0000719182  -0.0000693632   0.0000000743  -0.0011150851
        0.0002621115   0.0007913056
       -0.0018712880   0.0050715218  -0.0003033127   0.0158195040  -0.0444511574
        0.0063178343   0.0975264516  -0.1547410995   0.0057723055   0.0107368518
        0.5486019396   0.0171685233  -0.0505558471  -0.0801203376  -0.0033968887
       -0.0366512249  -0.0096562477  -0.0050379152   0.0080093651  -0.0113776715
       -0.0021502402  -0.0169849427  -0.0001711280  -0.0002422163   0.0167432092
        0.0003085371   0.0005721360  -0.0086064086   0.0053993117   0.0006633495
        0.0029821928   0.0091032414   0.0009413359   0.0017975164  -0.0015883629
        0.0000335479  -0.0012342680  -0.0006502450  -0.0003413454  -0.0000232076
       -0.0005854849  -0.0003465159  -0.0003797952   0.0001506261  -0.0000794739
        0.0006913605   0.0000841617   0.0003970864   0.0002735308   0.0013737527
        0.0003803635  -0.0031717407  -0.0091455219  -0.0003294880   0.0037376050
        0.0041304058  -0.0000467197  -0.0027257778   0.0004079889   0.0006301954
        0.0002071613   0.0012612993   0.0004650567  -0.0008167340  -0.0005404894
        0.0001369607   0.0014846669   0.0003651375  -0.0005620970   0.0002744972
       -0.0028195851  -0.0007481984  -0.0021143876  -0.0067377470  -0.0015801727
        0.0092322078   0.0024932766   0.0002535666   0.0189920721   0.0031860376
        0.0024256123   0.0148643196   0.0081435059  -0.0017272042  -0.0049301297
        0.0025699448   0.0010119400   0.0007091166   0.0009306123  -0.0005819149
       -0.0001932543  -0.0002810110   0.0001923117   0.0010068033  -0.0004423695
        0.0000151050  -0.0018816966  -0.0038389504   0.0003559620  -0.0737331983
       -0.2675898079  -0.0221599619  -0.0002927627   0.0005836982   0.0004408061
       -0.0013659352  -0.0004583882   0.0000999430   0.0000140469   0.0001059833
       -0.0000378648   0.0001675795   0.0000211330   0.0000354744   0.0001064380
       -0.0000807328  -0.0000130723   0.0000057235  -0.0001823965  -0.0000353818
       -0.0000802815  -0.0000882085   0.0000189988  -0.0000077910  -0.0000749051
        0.0001059040   0.0001296552  -0.0000146672   0.0000105994   0.0000624959
        0.0000536615   0.0000175243  -0.0000150367   0.0001548800  -0.0000125794
       -0.0000889767   0.0000790827   0.0000020708   0.0001272363   0.0002268742
        0.0001203614   0.0013907365   0.0000652821  -0.0001932848   0.0025148298
        0.0007489163   0.0001227001  -0.0001133581  -0.0002420868  -0.0001073592
       -0.0001293162  -0.0000760455  -0.0001083660  -0.0000400190   0.0000166089
        0.0000212866  -0.0000481635   0.0000609048   0.0000394795  -0.0015516319
        0.0002563214   0.0013732324
        0.0010104687   0.0001486999   0.0011412977  -0.0047582152   0.0076063441
        0.0001814826   0.0030982740   0.0040333164  -0.0375611170   0.0258329785
        0.0171685233   0.0926525589  -0.0184223568  -0.0050963641  -0.0400900967
       -0.0049891562  -0.0015401511   0.0004546900  -0.0005962543  -0.0007412759
        0.0023796717   0.0018330328   0.0005539927  -0.0004338725  -0.0019665705
        0.0000091063  -0.0002979055   0.0011553285  -0.0006210338   0.0000347616
       -0.0004746351  -0.0013418334  -0.0000629596  -0.0002132104   0.0001909182
       -0.0000552741   0.0001535634   0.0001111918   0.0000491022   0.0000023178
        0.0000657325   0.0000587589   0.0000455262  -0.0000288611   0.0000247240
       -0.0000947208  -0.0000173046  -0.0000442687  -0.0000437395  -0.0001796548
       -0.0000569219   0.0003024854   0.0013040095   0.0001580208  -0.0004802456
       -0.0005265773  -0.0000648890   0.0003607360  -0.0000595123  -0.0000837955