 Entering Gaussian System
 *********************************************
 Gaussian 98:
 frequency output generated by the xtb code
 *********************************************
                         Standard orientation:
 --------------------------------------------------------------------
  Center     Atomic     Atomic              Coordinates (Angstroms)
  Number     Number      Type              X           Y           Z
 --------------------------------------------------------------------
    1          6             0        9.443057   -3.482620   -0.757550
    2          6             0        8.841331   -2.198505   -1.345210
    3          6             0        9.227522   -2.073400   -2.825792
    4          6             0        9.440021   -1.004405   -0.596169
    5          6             0        7.325644   -2.265187   -1.231207
    6          6             0        6.634375   -3.294928   -1.875169
    7          6             0        5.265780   -3.400911   -1.775196
    8          6             0        4.539353   -2.468046   -1.037928
    9          6             0        5.184992   -1.393399   -0.402355
   10          6             0        6.582903   -1.348277   -0.512072
   11          5             0        4.293102   -0.390667    0.364463
   12          6             0        4.568366    0.976789    1.030847
   13          6             0        5.749756    1.726715    0.932277
   14          6             0        5.945295    2.936808    1.570627
   15          6             0        7.236381    3.734308    1.460364
   16          6             0        7.836139    3.910815    2.862478
   17          6             0        8.284030    3.047679    0.579259
   18          6             0        6.925328    5.108600    0.851117
   19          6             0        4.897433    3.433360    2.350290
   20          6             0        3.706711    2.750905    2.454946
   21          6             0        3.529917    1.537468    1.793764
   22          8             0        2.291268    0.980698    1.949995
   23          6             0        1.915139   -0.102547    1.236264
   24          6             0        0.575284   -0.456662    1.281856
   25          6             0        0.130004   -1.515549    0.498317
   26          7             0       -1.247459   -1.780138    0.432689
   27          6             0       -1.832940   -2.963908    0.806645
   28          6             0       -1.231122   -4.135258    1.236092
   29          6             0       -2.052542   -5.207702    1.535053
   30          6             0       -3.439739   -5.103736    1.396449
   31          6             0       -4.048429   -3.932926    0.996070
   32          6             0       -3.249388   -2.819819    0.714806
   33          6             0       -3.492446   -1.481902    0.294448
   34          6             0       -4.698180   -0.756207    0.077103
   35          6             0       -6.007660   -1.347333    0.323639
   36          6             0       -6.338702   -1.848968    1.585160
   37          6             0       -7.593572   -2.371491    1.824559
   38          6             0       -8.536478   -2.421094    0.809509
   39          6             0       -8.209861   -1.950425   -0.453320
   40          6             0       -6.961289   -1.416921   -0.695526
   41          6             0       -4.524953    0.558387   -0.400877
   42          6             0       -3.265155    1.108989   -0.737656
   43          6             0       -2.057870    0.396465   -0.490073
   44          6             0       -0.752722    0.976072   -0.808247
   45          6             0       -0.329639    2.152068   -0.186314
   46          6             0        0.926106    2.668016   -0.440802
   47          6             0        1.774354    2.032465   -1.332987
   48          6             0        1.348433    0.885540   -1.985127
   49          6             0        0.097648    0.360943   -1.728273
   50          6             0       -2.226107   -0.883080    0.072859
   51          6             0       -3.510042    2.392646   -1.302712
   52          6             0       -2.714777    3.383782   -1.887003
   53          6             0       -3.316270    4.544216   -2.325381
   54          6             0       -4.690310    4.758953   -2.192554
   55          6             0       -5.508054    3.788131   -1.639961
   56          6             0       -4.916072    2.607337   -1.225501
   57          7             0       -5.500268    1.492087   -0.665948
   58          6             0       -6.853300    1.438639   -0.289418
   59          6             0       -7.193978    1.249688    1.046068
   60          6             0       -8.523769    1.197439    1.414486
   61          6             0       -9.518178    1.348970    0.461761
   62          6             0       -9.178934    1.561719   -0.863293
   63          6             0       -7.850256    1.609003   -1.243269
   64          6             0        1.018857   -2.285406   -0.242707
   65          6             0        2.364781   -1.941383   -0.245743
   66          6             0        2.836655   -0.827918    0.465157
   67          8             0        3.191839   -2.698556   -1.000313
   68          1             0        9.157715   -3.586633    0.287304
   69          1             0       10.529090   -3.450818   -0.817830
   70          1             0        9.098157   -4.362577   -1.293384
   71          1             0       10.308799   -2.005524   -2.927215
   72          1             0        8.783338   -1.177710   -3.255193
   73          1             0        8.886145   -2.930736   -3.399020
   74          1             0       10.521861   -1.008065   -0.714945
   75          1             0        9.219764   -1.058672    0.467523
   76          1             0        9.062936   -0.064652   -0.993040
   77          1             0        7.167706   -4.033945   -2.453444
   78          1             0        4.733511   -4.207478   -2.256433
   79          1             0        7.085371   -0.558377    0.017015
   80          1             0        6.527204    1.327465    0.305654
   81          1             0        8.771498    4.463783    2.803957
   82          1             0        8.036387    2.939401    3.309901
   83          1             0        7.160896    4.454130    3.517492
   84          1             0        7.918905    2.920807   -0.437372
   85          1             0        9.181634    3.661839    0.538717
   86          1             0        8.560750    2.077161    0.984608
   87          1             0        7.838841    5.691530    0.752175
   88          1             0        6.230318    5.668293    1.470880
   89          1             0        6.482531    4.990264   -0.135771
   90          1             0        5.002161    4.371387    2.874040
   91          1             0        2.888809    3.144068    3.039689
   92          1             0       -0.115510    0.114749    1.880312
   93          1             0       -0.158289   -4.206696    1.328776
   94          1             0       -1.618605   -6.137788    1.867918
   95          1             0       -4.051038   -5.967704    1.613614
   96          1             0       -5.120097   -3.881727    0.893100
   97          1             0       -5.607503   -1.799796    2.379091
   98          1             0       -7.840554   -2.741739    2.809200
   99          1             0       -9.517688   -2.829668    0.999162
  100          1             0       -8.934322   -2.003433   -1.252968
  101          1             0       -6.702618   -1.068511   -1.685264
  102          1             0       -0.985140    2.638998    0.521267
  103          1             0        1.251262    3.564413    0.066861
  104          1             0        2.762452    2.426933   -1.517529
  105          1             0        1.999117    0.396407   -2.695326
  106          1             0       -0.235003   -0.528153   -2.244240
  107          1             0       -1.652469    3.240921   -1.998735
  108          1             0       -2.709752    5.313891   -2.780102
  109          1             0       -5.120138    5.688764   -2.531775
  110          1             0       -6.570868    3.947471   -1.536605
  111          1             0       -6.412651    1.142454    1.783217
  112          1             0       -8.785062    1.041529    2.450065
  113          1             0      -10.556448    1.304189    0.753174
  114          1             0       -9.951711    1.684670   -1.607359
  115          1             0       -7.578110    1.753024   -2.278409
  116          1             0        0.669594   -3.107752   -0.846555
 --------------------------------------------------------------------
     1 basis functions        1 primitive gaussians
     1 alpha electrons        1 beta electrons
 
 Harmonic frequencies (cm**-1), IR intensities (km*mol⁻¹),
 Raman scattering activities (A**4/amu), Raman depolarization ratios,
 reduced masses (AMU), force constants (mDyne/A) and normal coordinates:
                      1                      2                      3
                        a                      a                      a 
 Frequencies --     8.7543                11.1506                11.7289
 Red. masses --    10.8475                10.9024                10.8096
 Frc consts  --     0.0000                 0.0000                 0.0000
 IR Inten    --     2.0181                 0.1476                 0.2509
 Raman Activ --     0.0000                 0.0000                 0.0000
 Depolar     --     0.0000                 0.0000                 0.0000
 Atom AN      X      Y      Z        X      Y      Z        X      Y      Z
   1   6     0.02  -0.05   0.26    -0.04  -0.12   0.06    -0.04  -0.11   0.08
   2   6     0.05  -0.06   0.20     0.01  -0.09   0.06    -0.01  -0.11   0.05
   3   6     0.12  -0.09   0.21     0.05  -0.10   0.07     0.02  -0.14   0.05
   4   6     0.03  -0.05   0.20     0.03  -0.12   0.08     0.01  -0.11   0.04
   5   6     0.05  -0.04   0.13     0.01  -0.05   0.02    -0.01  -0.08   0.04
   6   6     0.07  -0.05   0.12    -0.01  -0.03  -0.00    -0.02  -0.07   0.04
   7   6     0.06  -0.04   0.06    -0.01   0.01  -0.03    -0.03  -0.04   0.03
   8   6     0.04  -0.02   0.02     0.00   0.03  -0.04    -0.01  -0.02   0.01
   9   6     0.02  -0.01   0.03     0.02   0.01  -0.02     0.00  -0.03   0.01
  10   6     0.03  -0.02   0.09     0.02  -0.03   0.00     0.00  -0.05   0.02
  11   5    -0.00  -0.00  -0.02     0.03   0.03  -0.04     0.02  -0.01  -0.00
  12   6    -0.02   0.01  -0.04     0.05   0.02  -0.02     0.03   0.00  -0.03
  13   6    -0.03   0.02  -0.04     0.08  -0.03   0.03     0.03   0.00  -0.08
  14   6    -0.05   0.04  -0.06     0.11  -0.04   0.06     0.04   0.02  -0.11
  15   6    -0.06   0.05  -0.06     0.15  -0.10   0.12     0.03   0.03  -0.18
  16   6    -0.08   0.09  -0.06     0.10  -0.15   0.15     0.07   0.07  -0.20
  17   6    -0.04   0.04  -0.03     0.15  -0.13   0.15     0.01   0.01  -0.18
  18   6    -0.06   0.03  -0.10     0.23  -0.07   0.14    -0.00   0.00  -0.21
  19   6    -0.07   0.04  -0.09     0.10  -0.01   0.02     0.06   0.03  -0.10
  20   6    -0.06   0.03  -0.09     0.07   0.03  -0.03     0.06   0.03  -0.05
  21   6    -0.04   0.02  -0.07     0.05   0.04  -0.04     0.05   0.01  -0.02
  22   8    -0.04   0.01  -0.09     0.03   0.09  -0.09     0.06   0.01   0.02
  23   6    -0.02  -0.00  -0.07     0.02   0.08  -0.08     0.03   0.02   0.03
  24   6    -0.02  -0.01  -0.09     0.02   0.09  -0.07     0.03   0.03   0.04
  25   6     0.00  -0.02  -0.09     0.01   0.09  -0.06     0.01   0.04   0.04
  26   7     0.00  -0.02  -0.11     0.01   0.08  -0.04     0.01   0.05   0.05
  27   6     0.01  -0.03  -0.12     0.04   0.07  -0.01     0.01   0.03   0.02
  28   6     0.01  -0.04  -0.15     0.06   0.09  -0.01     0.02   0.03   0.01
  29   6     0.01  -0.04  -0.17     0.09   0.07   0.02     0.03   0.02  -0.02
  30   6     0.01  -0.04  -0.15     0.08   0.05   0.04     0.03  -0.00  -0.04
  31   6     0.00  -0.03  -0.12     0.06   0.03   0.03     0.02  -0.00  -0.03
  32   6     0.00  -0.02  -0.10     0.03   0.04   0.01     0.01   0.01  -0.00
  33   6     0.00  -0.01  -0.07     0.00   0.03  -0.00     0.01   0.02   0.02
  34   6     0.00  -0.00  -0.02    -0.02   0.00   0.00    -0.00   0.00   0.00
  35   6     0.00   0.00  -0.00    -0.00  -0.02   0.03     0.00  -0.03  -0.06
  36   6     0.04  -0.04  -0.01     0.03  -0.01   0.04    -0.04  -0.06  -0.08
  37   6     0.04  -0.03   0.01     0.04  -0.03   0.07    -0.04  -0.09  -0.14
  38   6     0.01   0.01   0.04     0.03  -0.07   0.09     0.00  -0.09  -0.18
  39   6    -0.03   0.05   0.04     0.00  -0.08   0.07     0.04  -0.06  -0.16
  40   6    -0.03   0.04   0.02    -0.01  -0.06   0.05     0.04  -0.03  -0.10
  41   6    -0.00   0.01   0.00    -0.05   0.00  -0.01    -0.01   0.02   0.03
  42   6    -0.01   0.01  -0.02    -0.07   0.03  -0.03    -0.01   0.04   0.08
  43   6    -0.01  -0.00  -0.06    -0.05   0.05  -0.04    -0.01   0.05   0.08
  44   6    -0.01  -0.01  -0.08    -0.06   0.08  -0.05    -0.01   0.08   0.11
  45   6     0.00  -0.01  -0.09    -0.08   0.08  -0.06    -0.03   0.06   0.14
  46   6     0.00  -0.02  -0.10    -0.08   0.10  -0.06    -0.03   0.09   0.16
  47   6    -0.01  -0.02  -0.11    -0.08   0.11  -0.06    -0.02   0.12   0.15
  48   6    -0.02  -0.03  -0.10    -0.06   0.10  -0.05    -0.00   0.13   0.12
  49   6    -0.02  -0.02  -0.08    -0.05   0.08  -0.05     0.00   0.11   0.10
  50   6    -0.00  -0.01  -0.08    -0.01   0.05  -0.03     0.00   0.04   0.05
  51   6    -0.02   0.02   0.02    -0.10   0.02  -0.04    -0.02   0.06   0.11
  52   6    -0.03   0.03   0.01    -0.13   0.03  -0.06    -0.02   0.09   0.16
  53   6    -0.03   0.04   0.05    -0.16   0.01  -0.06    -0.03   0.09   0.17
  54   6    -0.02   0.05   0.10    -0.16  -0.02  -0.05    -0.04   0.06   0.15
  55   6    -0.01   0.04   0.11    -0.13  -0.03  -0.04    -0.03   0.03   0.10
  56   6    -0.01   0.03   0.06    -0.10  -0.01  -0.03    -0.02   0.03   0.08
  57   7    -0.00   0.02   0.06    -0.08  -0.02  -0.01    -0.02   0.01   0.04
  58   6     0.01   0.03   0.11    -0.07  -0.05  -0.00    -0.03  -0.03  -0.02
  59   6     0.06  -0.01   0.12    -0.05  -0.04   0.00    -0.08  -0.07  -0.04
  60   6     0.08   0.00   0.17    -0.05  -0.07   0.01    -0.09  -0.11  -0.09
  61   6     0.04   0.04   0.22    -0.06  -0.11   0.02    -0.06  -0.11  -0.12
  62   6    -0.01   0.07   0.21    -0.08  -0.11   0.01    -0.01  -0.07  -0.10
  63   6    -0.03   0.07   0.15    -0.08  -0.09   0.00     0.00  -0.03  -0.05
  64   6     0.02  -0.01  -0.08    -0.00   0.08  -0.06    -0.01   0.03   0.02
  65   6     0.02  -0.01  -0.05     0.00   0.07  -0.07    -0.00   0.01   0.02
  66   6    -0.00  -0.00  -0.05     0.01   0.07  -0.07     0.01   0.01   0.01
  67   8     0.04  -0.02  -0.03    -0.01   0.07  -0.07    -0.02   0.00   0.01
  68   1    -0.01  -0.01   0.07    -0.02  -0.03   0.02    -0.02  -0.03   0.02
  69   1     0.01  -0.02   0.09    -0.01  -0.04   0.03    -0.01  -0.04   0.03
  70   1     0.01  -0.02   0.08    -0.02  -0.03   0.01    -0.02  -0.03   0.03
  71   1     0.04  -0.03   0.08     0.02  -0.04   0.03     0.01  -0.05   0.02
  72   1     0.04  -0.03   0.05     0.03  -0.02   0.02     0.01  -0.04   0.01
  73   1     0.04  -0.03   0.06     0.01  -0.02   0.02     0.00  -0.04   0.02
  74   1     0.01  -0.02   0.07     0.01  -0.04   0.03     0.00  -0.04   0.01
  75   1    -0.00  -0.01   0.06     0.00  -0.03   0.02    -0.00  -0.03   0.01
  76   1     0.02  -0.02   0.05     0.02  -0.03   0.02     0.01  -0.03   0.01
  77   1     0.03  -0.02   0.04    -0.00  -0.01   0.00    -0.01  -0.02   0.02
  78   1     0.02  -0.01   0.02    -0.01   0.01  -0.01    -0.01  -0.01   0.01
  79   1     0.00  -0.01   0.03     0.01  -0.01   0.00     0.00  -0.02   0.01
  80   1    -0.00   0.00  -0.01     0.03  -0.01   0.02     0.00  -0.00  -0.03
  81   1    -0.03   0.03  -0.02     0.04  -0.06   0.06     0.02   0.02  -0.07
  82   1    -0.02   0.03  -0.01     0.01  -0.05   0.04     0.03   0.03  -0.05
  83   1    -0.03   0.03  -0.02     0.03  -0.04   0.04     0.02   0.03  -0.06
  84   1    -0.00   0.00  -0.01     0.05  -0.03   0.04    -0.01  -0.01  -0.05
  85   1    -0.01   0.01  -0.01     0.05  -0.05   0.06     0.00   0.00  -0.07
  86   1    -0.01   0.01   0.00     0.03  -0.04   0.04     0.01   0.01  -0.05
  87   1    -0.02   0.01  -0.03     0.08  -0.03   0.05    -0.00   0.00  -0.07
  88   1    -0.02   0.01  -0.04     0.07  -0.02   0.03     0.00   0.00  -0.06
  89   1    -0.01  -0.00  -0.03     0.08  -0.01   0.03    -0.01  -0.01  -0.06
  90   1    -0.02   0.02  -0.03     0.03  -0.01   0.01     0.02   0.01  -0.03
  91   1    -0.02   0.01  -0.03     0.02   0.02  -0.01     0.02   0.01  -0.01
  92   1    -0.01  -0.00  -0.03     0.01   0.03  -0.02     0.01   0.01   0.02
  93   1     0.00  -0.01  -0.05     0.02   0.03  -0.01     0.01   0.01   0.01
  94   1     0.00  -0.02  -0.06     0.03   0.02   0.01     0.01   0.00  -0.01
  95   1     0.00  -0.01  -0.05     0.03   0.01   0.02     0.01  -0.00  -0.02
  96   1     0.00  -0.01  -0.03     0.02   0.00   0.01     0.01  -0.00  -0.01
  97   1     0.02  -0.02  -0.01     0.01   0.01   0.01    -0.02  -0.02  -0.01
  98   1     0.02  -0.02   0.00     0.02  -0.01   0.02    -0.02  -0.03  -0.05
  99   1     0.00   0.00   0.02     0.01  -0.03   0.03     0.00  -0.03  -0.07
 100   1    -0.02   0.02   0.02    -0.00  -0.03   0.02     0.02  -0.02  -0.05
 101   1    -0.02   0.02   0.01    -0.01  -0.02   0.01     0.02  -0.00  -0.02
 102   1     0.00  -0.00  -0.02    -0.02   0.02  -0.02    -0.01   0.01   0.04
 103   1     0.00  -0.00  -0.03    -0.03   0.03  -0.02    -0.01   0.02   0.05
 104   1    -0.00  -0.01  -0.03    -0.02   0.03  -0.02    -0.01   0.04   0.05
 105   1    -0.01  -0.01  -0.03    -0.02   0.03  -0.02     0.00   0.05   0.03
 106   1    -0.01  -0.01  -0.02    -0.01   0.02  -0.01     0.00   0.04   0.02
 107   1    -0.01   0.01  -0.01    -0.04   0.01  -0.02    -0.00   0.03   0.05
 108   1    -0.01   0.01   0.01    -0.05   0.01  -0.02    -0.01   0.03   0.06
 109   1    -0.01   0.02   0.04    -0.05  -0.01  -0.02    -0.01   0.02   0.05
 110   1    -0.00   0.02   0.04    -0.04  -0.02  -0.01    -0.01   0.00   0.02
 111   1     0.03  -0.01   0.02    -0.01  -0.00  -0.00    -0.03  -0.02  -0.00
 112   1     0.03  -0.01   0.05    -0.01  -0.02   0.01    -0.04  -0.04  -0.03
 113   1     0.02   0.01   0.07    -0.02  -0.04   0.01    -0.02  -0.04  -0.05
 114   1    -0.01   0.03   0.07    -0.02  -0.04   0.01     0.00  -0.02  -0.04
 115   1    -0.02   0.03   0.04    -0.03  -0.03  -0.00     0.01   0.00  -0.01
 116   1     0.01  -0.00  -0.02    -0.00   0.02  -0.02    -0.01   0.01   0.01
                      4                      5                      6
                        a                      a                      a 
 Frequencies --    21.6958                24.9046                28.2059
 Red. masses --    10.8605                10.8296                 8.6371
 Frc consts  --     0.0000                 0.0000                 0.0000
 IR Inten    --     0.8682                 0.2924                 0.2805
 Raman Activ --     0.0000                 0.0000                 0.0000
 Depolar     --     0.0000                 0.0000                 0.0000
 Atom AN      X      Y      Z        X      Y      Z        X      Y      Z
   1   6    -0.02  -0.05   0.04     0.03   0.06   0.03     0.00  -0.15  -0.31
   2   6     0.02  -0.02   0.06     0.00   0.03  -0.01     0.00  -0.01   0.00
   3   6     0.07   0.02   0.07    -0.01  -0.02  -0.02    -0.04   0.33   0.02
   4   6     0.02  -0.06   0.12    -0.01   0.07  -0.07     0.04  -0.19   0.27
   5   6     0.02  -0.00   0.01     0.01   0.01   0.00     0.00  -0.00   0.01
   6   6     0.02   0.02  -0.04     0.01  -0.01   0.04    -0.01   0.06  -0.08
   7   6     0.02   0.03  -0.08     0.01  -0.03   0.05    -0.01   0.06  -0.08
   8   6     0.01   0.02  -0.07     0.01  -0.01   0.03    -0.00   0.02  -0.01
   9   6     0.01  -0.01  -0.03     0.00   0.01   0.00     0.01  -0.02   0.05
  10   6     0.01  -0.01   0.01     0.00   0.02  -0.01     0.01  -0.04   0.06
  11   5    -0.00  -0.02  -0.02    -0.00   0.01  -0.01     0.01  -0.03   0.05
  12   6    -0.01  -0.03  -0.00    -0.00   0.02  -0.02     0.01  -0.02   0.05
  13   6    -0.03  -0.01  -0.02     0.00   0.01   0.01     0.02  -0.04   0.06
  14   6    -0.04  -0.01  -0.01     0.00   0.01   0.00     0.00  -0.01   0.01
  15   6    -0.06   0.02  -0.04     0.02  -0.01   0.04     0.00  -0.01  -0.01
  16   6    -0.02   0.03  -0.05    -0.02  -0.01   0.06    -0.13   0.28   0.02
  17   6    -0.07   0.06  -0.07     0.04  -0.03   0.08     0.11  -0.16   0.23
  18   6    -0.11   0.02  -0.01     0.06  -0.01   0.02     0.02  -0.13  -0.30
  19   6    -0.03  -0.04   0.02    -0.01   0.03  -0.03    -0.03   0.04  -0.06
  20   6    -0.01  -0.07   0.04    -0.02   0.04  -0.05    -0.03   0.04  -0.06
  21   6    -0.01  -0.06   0.02    -0.01   0.04  -0.04    -0.01   0.01   0.00
  22   8     0.00  -0.09   0.04    -0.02   0.05  -0.06    -0.01   0.01   0.00
  23   6     0.00  -0.05  -0.00    -0.01   0.03  -0.03    -0.00  -0.00   0.01
  24   6     0.00  -0.06  -0.02    -0.01   0.02  -0.03    -0.00   0.00   0.01
  25   6     0.01  -0.03  -0.05    -0.00   0.00  -0.01     0.00   0.00   0.01
  26   7     0.00  -0.03  -0.06    -0.00   0.00  -0.01     0.00   0.00   0.01
  27   6    -0.00  -0.03  -0.08    -0.00   0.00   0.00     0.00   0.00   0.01
  28   6    -0.01  -0.05  -0.12    -0.01   0.00  -0.00     0.00   0.00   0.01
  29   6    -0.02  -0.04  -0.13    -0.01   0.01   0.01     0.00   0.00   0.02
  30   6    -0.02  -0.02  -0.09    -0.01   0.02   0.03     0.00   0.00   0.02
  31   6    -0.01  -0.00  -0.05    -0.01   0.02   0.03     0.00   0.00   0.02
  32   6    -0.00  -0.01  -0.05    -0.00   0.01   0.02     0.00   0.00   0.01
  33   6     0.01   0.00  -0.02    -0.00   0.01   0.02     0.00   0.00   0.01
  34   6     0.01   0.02   0.02     0.00   0.02   0.04     0.00   0.00   0.00
  35   6     0.02   0.03   0.12     0.00   0.02   0.04    -0.00  -0.00   0.00
  36   6     0.11   0.09   0.17     0.00   0.04   0.05    -0.01   0.00  -0.00
  37   6     0.12   0.10   0.28     0.01   0.03   0.05    -0.01   0.00  -0.01
  38   6     0.06   0.05   0.35     0.02  -0.01   0.04    -0.00  -0.00  -0.01
  39   6    -0.03  -0.03   0.30     0.02  -0.03   0.03     0.00  -0.00  -0.01
  40   6    -0.04  -0.04   0.18     0.02  -0.02   0.03     0.00  -0.00  -0.00
  41   6     0.00   0.01   0.00     0.00   0.03   0.06     0.00   0.00   0.01
  42   6     0.01   0.01   0.01     0.01   0.04   0.07     0.00   0.00   0.00
  43   6     0.01   0.01   0.01     0.00   0.01   0.02     0.00  -0.00   0.00
  44   6     0.01   0.03   0.04     0.01  -0.05  -0.07     0.00  -0.01  -0.00
  45   6    -0.01   0.01   0.09     0.11  -0.05  -0.13     0.01  -0.01  -0.01
  46   6    -0.02   0.03   0.12     0.12  -0.13  -0.22     0.01  -0.01  -0.02
  47   6     0.00   0.07   0.11     0.03  -0.20  -0.25     0.01  -0.02  -0.02
  48   6     0.02   0.09   0.06    -0.07  -0.20  -0.19    -0.00  -0.02  -0.01
  49   6     0.02   0.07   0.02    -0.08  -0.13  -0.10    -0.00  -0.01  -0.00
  50   6     0.01  -0.01  -0.02    -0.00   0.01   0.01     0.00  -0.00   0.00
  51   6     0.02   0.01   0.01     0.01   0.06   0.12     0.00   0.00   0.01
  52   6     0.02   0.01   0.02     0.00   0.09   0.16     0.00   0.00   0.01
  53   6     0.03   0.00   0.01     0.00   0.11   0.22     0.00   0.00   0.01
  54   6     0.03   0.00  -0.02     0.00   0.11   0.24     0.00   0.00   0.01
  55   6     0.02   0.00  -0.03     0.00   0.08   0.19     0.00   0.00   0.01
  56   6     0.02   0.01  -0.01     0.01   0.06   0.13     0.00   0.00   0.01
  57   7     0.01   0.01  -0.02     0.01   0.04   0.09     0.00   0.00   0.01
  58   6    -0.01   0.00  -0.08    -0.02  -0.00  -0.01     0.00  -0.00   0.00
  59   6    -0.08   0.05  -0.09    -0.12  -0.02  -0.04    -0.00  -0.00   0.00
  60   6    -0.10   0.04  -0.16    -0.15  -0.07  -0.16    -0.00  -0.00  -0.00
  61   6    -0.05  -0.01  -0.22    -0.08  -0.09  -0.24    -0.00  -0.00  -0.01
  62   6     0.02  -0.05  -0.21     0.02  -0.06  -0.21     0.00  -0.00  -0.00
  63   6     0.04  -0.05  -0.14     0.05  -0.02  -0.09     0.00  -0.00   0.00
  64   6     0.00  -0.01  -0.08     0.01  -0.01   0.02     0.00   0.01   0.00
  65   6     0.00  -0.00  -0.07     0.01  -0.01   0.02     0.00   0.00   0.01
  66   6     0.00  -0.03  -0.03    -0.00   0.01  -0.01     0.00  -0.01   0.02
  67   8     0.01   0.03  -0.11     0.01  -0.03   0.05    -0.00   0.02  -0.01
  68   1    -0.02  -0.02   0.01     0.01   0.03   0.01     0.00  -0.12  -0.10
  69   1    -0.00  -0.02   0.02     0.01   0.02   0.00     0.00  -0.04  -0.09
  70   1    -0.00  -0.01  -0.00     0.01   0.01   0.02     0.00  -0.01  -0.15
  71   1     0.02   0.00   0.03    -0.00  -0.00  -0.01    -0.01   0.09   0.00
  72   1     0.03   0.01   0.03    -0.01  -0.01  -0.02    -0.00   0.13   0.07
  73   1     0.02   0.01   0.01    -0.00  -0.01   0.00    -0.03   0.14  -0.05
  74   1     0.01  -0.02   0.04    -0.00   0.02  -0.02     0.01  -0.07   0.09
  75   1    -0.01  -0.03   0.03     0.00   0.03  -0.02    -0.00  -0.12   0.07
  76   1     0.01  -0.01   0.04    -0.01   0.01  -0.03     0.03  -0.03   0.13
  77   1     0.01   0.01  -0.02     0.00  -0.01   0.02    -0.01   0.03  -0.04
  78   1     0.01   0.02  -0.03     0.01  -0.01   0.02    -0.01   0.03  -0.04
  79   1     0.00  -0.01   0.01    -0.00   0.01  -0.01     0.01  -0.02   0.03
  80   1    -0.01   0.00  -0.01     0.00  -0.00   0.01     0.01  -0.02   0.03
  81   1    -0.01   0.02  -0.02    -0.00  -0.01   0.02    -0.03   0.07  -0.00
  82   1     0.00   0.01  -0.02    -0.02  -0.00   0.02    -0.05   0.11   0.07
  83   1    -0.01   0.00  -0.01    -0.01   0.00   0.01    -0.05   0.12  -0.05
  84   1    -0.03   0.02  -0.02     0.02  -0.01   0.02     0.07  -0.09   0.06
  85   1    -0.02   0.02  -0.03     0.01  -0.01   0.03     0.04  -0.05   0.07
  86   1    -0.01   0.02  -0.03     0.00  -0.01   0.03     0.01  -0.03   0.12
  87   1    -0.04   0.01  -0.01     0.02  -0.01   0.01     0.00  -0.03  -0.09
  88   1    -0.03  -0.00   0.00     0.01   0.00  -0.00    -0.02  -0.02  -0.14
  89   1    -0.04   0.01  -0.00     0.03  -0.00   0.00     0.04  -0.10  -0.10
  90   1    -0.01  -0.01   0.01    -0.00   0.01  -0.01    -0.01   0.02  -0.04
  91   1    -0.00  -0.03   0.02    -0.01   0.02  -0.02    -0.01   0.02  -0.03
  92   1     0.00  -0.02   0.00    -0.00   0.01  -0.01    -0.00   0.00   0.00
  93   1    -0.00  -0.02  -0.04    -0.00  -0.00  -0.00     0.00   0.00   0.00
  94   1    -0.01  -0.02  -0.05    -0.00   0.00   0.00     0.00   0.00   0.01
  95   1    -0.01  -0.00  -0.03    -0.00   0.01   0.01     0.00   0.00   0.01
  96   1    -0.00   0.01  -0.01    -0.00   0.01   0.01     0.00   0.00   0.01
  97   1     0.05   0.04   0.03    -0.00   0.02   0.01    -0.00   0.00   0.00
  98   1     0.06   0.05   0.09     0.00   0.01   0.01    -0.00   0.00  -0.00
  99   1     0.02   0.02   0.13     0.01  -0.01   0.01    -0.00  -0.00  -0.00
 100   1    -0.02  -0.02   0.10     0.01  -0.02   0.01     0.00  -0.00  -0.00
 101   1    -0.03  -0.03   0.04     0.01  -0.01   0.01     0.00  -0.00  -0.00
 102   1    -0.01  -0.01   0.03     0.05   0.00  -0.03     0.00   0.00  -0.00
 103   1    -0.01   0.00   0.05     0.06  -0.04  -0.08     0.00  -0.00  -0.01
 104   1     0.00   0.03   0.04     0.01  -0.07  -0.09     0.00  -0.01  -0.01
 105   1     0.01   0.04   0.01    -0.04  -0.07  -0.06    -0.00  -0.01  -0.00
 106   1     0.01   0.03  -0.00    -0.04  -0.04  -0.01    -0.00  -0.00   0.00
 107   1     0.01   0.00   0.01     0.00   0.03   0.04     0.00   0.00   0.00
 108   1     0.01   0.00   0.00     0.00   0.04   0.08    -0.00   0.00   0.00
 109   1     0.01  -0.00  -0.01     0.00   0.04   0.08     0.00   0.00   0.00
 110   1     0.00  -0.00  -0.01     0.00   0.02   0.06     0.00   0.00   0.00
 111   1    -0.03   0.03  -0.01    -0.05  -0.00   0.01    -0.00  -0.00   0.00
 112   1    -0.04   0.02  -0.05    -0.07  -0.02  -0.05    -0.00  -0.00  -0.00
 113   1    -0.02  -0.00  -0.08    -0.03  -0.04  -0.09    -0.00  -0.00  -0.00
 114   1     0.02  -0.03  -0.07     0.02  -0.02  -0.08     0.00  -0.00  -0.00
 115   1     0.03  -0.02  -0.04     0.04   0.00  -0.02     0.00  -0.00   0.00
 116   1     0.00   0.00  -0.03     0.00  -0.01   0.01     0.00   0.00  -0.00
                      7                      8                      9
                        a                      a                      a 
 Frequencies --    29.7244                36.8499                43.5339
 Red. masses --     9.8471                10.0661                10.8358
 Frc consts  --     0.0000                 0.0000                 0.0000
 IR Inten    --     1.2831                 3.8522                 0.2110
 Raman Activ --     0.0000                 0.0000                 0.0000
 Depolar     --     0.0000                 0.0000                 0.0000
 Atom AN      X      Y      Z        X      Y      Z        X      Y      Z
   1   6     0.09   0.15   0.03    -0.12   0.03   0.28    -0.08  -0.03   0.05
   2   6    -0.01   0.05  -0.10     0.00  -0.03   0.02    -0.03  -0.04  -0.03
   3   6    -0.10  -0.13  -0.14     0.17  -0.27   0.04    -0.02  -0.14  -0.03
   4   6    -0.02   0.18  -0.30    -0.01   0.06  -0.10    -0.01  -0.01  -0.10
   5   6     0.00  -0.02  -0.00    -0.01   0.04  -0.09    -0.03  -0.00  -0.03
   6   6     0.01  -0.09   0.10    -0.01   0.08  -0.14    -0.06   0.03  -0.05
   7   6     0.02  -0.12   0.16    -0.02   0.10  -0.19    -0.06   0.05  -0.04
   8   6     0.02  -0.09   0.12    -0.02   0.09  -0.17    -0.03   0.04   0.00
   9   6     0.01  -0.04   0.05    -0.01   0.06  -0.12    -0.01   0.01   0.04
  10   6     0.01  -0.01  -0.01    -0.01   0.04  -0.09    -0.01  -0.01   0.02
  11   5     0.01  -0.03   0.04    -0.01   0.03  -0.08     0.02  -0.01   0.09
  12   6     0.01  -0.02   0.02    -0.01  -0.00  -0.02     0.05  -0.04   0.13
  13   6     0.02  -0.03   0.05    -0.01   0.01   0.01     0.04  -0.03   0.10
  14   6     0.01  -0.01   0.01    -0.02  -0.01   0.04     0.05  -0.03   0.10
  15   6     0.03  -0.04   0.04    -0.04   0.01   0.06    -0.00   0.03  -0.03
  16   6    -0.11   0.15   0.07    -0.14   0.22   0.08     0.08   0.21  -0.09
  17   6     0.11  -0.16   0.24     0.06  -0.07   0.23    -0.01   0.03  -0.03
  18   6     0.09  -0.12  -0.18    -0.04  -0.08  -0.14    -0.15  -0.05  -0.13
  19   6    -0.02   0.04  -0.07    -0.03  -0.03   0.04     0.09  -0.08   0.19
  20   6    -0.03   0.06  -0.09    -0.03  -0.04   0.02     0.11  -0.09   0.23
  21   6    -0.01   0.02  -0.04    -0.01  -0.03   0.00     0.07  -0.06   0.18
  22   8    -0.02   0.04  -0.05     0.00  -0.06   0.00     0.07  -0.05   0.20
  23   6    -0.01   0.01  -0.01     0.00  -0.03  -0.03     0.03   0.00   0.12
  24   6    -0.01   0.01  -0.01     0.01  -0.06  -0.01     0.01   0.05   0.08
  25   6    -0.00  -0.00   0.01     0.01  -0.03  -0.03    -0.01   0.08   0.05
  26   7    -0.00   0.00  -0.02     0.01  -0.04  -0.00    -0.01   0.09   0.04
  27   6    -0.01  -0.01  -0.06     0.00  -0.02   0.04     0.00   0.07  -0.02
  28   6    -0.01  -0.02  -0.08     0.01  -0.01   0.06     0.01   0.05  -0.06
  29   6    -0.02  -0.03  -0.14     0.01   0.01   0.13     0.02   0.02  -0.15
  30   6    -0.02  -0.03  -0.16     0.01   0.02   0.18     0.02   0.01  -0.18
  31   6    -0.01  -0.02  -0.13     0.00   0.01   0.15     0.01   0.02  -0.13
  32   6    -0.00  -0.01  -0.08     0.00  -0.01   0.08     0.00   0.05  -0.04
  33   6    -0.00   0.00  -0.04     0.01  -0.02   0.04    -0.01   0.06   0.00
  34   6    -0.00   0.00  -0.03     0.01  -0.02   0.03    -0.01   0.05   0.00
  35   6     0.01  -0.00   0.01    -0.00  -0.00   0.01     0.01   0.02   0.00
  36   6     0.05  -0.01   0.02    -0.05   0.02   0.00     0.04  -0.01   0.00
  37   6     0.06  -0.01   0.07    -0.07   0.04  -0.04     0.07  -0.07   0.01
  38   6     0.03  -0.01   0.10    -0.03   0.04  -0.07     0.06  -0.10   0.02
  39   6    -0.02  -0.00   0.09     0.01   0.02  -0.06     0.02  -0.07   0.02
  40   6    -0.03  -0.00   0.04     0.03   0.00  -0.02    -0.00  -0.01   0.02
  41   6    -0.01   0.00  -0.02     0.02  -0.02   0.02    -0.02   0.05   0.00
  42   6    -0.01   0.01  -0.01     0.02  -0.03   0.02    -0.02   0.06   0.01
  43   6    -0.00   0.02  -0.00     0.01  -0.04   0.01    -0.02   0.08   0.02
  44   6    -0.01   0.04   0.03     0.01  -0.03   0.02    -0.00   0.02  -0.02
  45   6    -0.05   0.05   0.04     0.01  -0.04   0.05     0.09   0.01  -0.07
  46   6    -0.06   0.08   0.08     0.00  -0.02   0.06     0.12  -0.08  -0.11
  47   6    -0.02   0.10   0.11    -0.00   0.02   0.02     0.06  -0.17  -0.10
  48   6     0.03   0.09   0.10    -0.00   0.03  -0.01    -0.03  -0.16  -0.06
  49   6     0.03   0.06   0.06     0.01   0.01  -0.01    -0.06  -0.06  -0.02
  50   6     0.00   0.01  -0.02     0.01  -0.03   0.01    -0.01   0.08   0.03
  51   6    -0.01   0.01  -0.01     0.03  -0.03   0.02    -0.03   0.05  -0.02
  52   6    -0.01   0.01  -0.02     0.04  -0.03   0.02    -0.04   0.04  -0.03
  53   6    -0.01   0.01  -0.02     0.05  -0.03   0.02    -0.05   0.02  -0.09
  54   6    -0.01   0.00  -0.02     0.05  -0.02   0.02    -0.06  -0.01  -0.13
  55   6    -0.01   0.00  -0.02     0.04  -0.01   0.01    -0.05   0.00  -0.11
  56   6    -0.01   0.01  -0.02     0.03  -0.02   0.01    -0.04   0.03  -0.05
  57   7    -0.01   0.00  -0.02     0.02  -0.02   0.02    -0.03   0.03  -0.03
  58   6    -0.01   0.00  -0.01     0.02  -0.00   0.01    -0.02   0.01  -0.01
  59   6    -0.00   0.00  -0.01     0.01   0.01   0.01     0.01   0.00   0.00
  60   6    -0.00   0.00  -0.01     0.00   0.03  -0.00     0.03  -0.04   0.03
  61   6    -0.00   0.00  -0.00     0.01   0.03  -0.01    -0.00  -0.08   0.06
  62   6    -0.01   0.00  -0.00     0.02   0.02  -0.01    -0.04  -0.07   0.05
  63   6    -0.01   0.00  -0.01     0.03  -0.00  -0.00    -0.05  -0.02   0.02
  64   6     0.01  -0.03   0.05    -0.00   0.01  -0.09    -0.02   0.08   0.04
  65   6     0.01  -0.05   0.08    -0.01   0.04  -0.12    -0.01   0.05   0.05
  66   6     0.01  -0.02   0.04    -0.01   0.01  -0.08     0.01   0.01   0.09
  67   8     0.03  -0.11   0.16    -0.02   0.11  -0.21    -0.04   0.08   0.01
  68   1     0.05   0.08   0.02    -0.06   0.06   0.08    -0.02   0.01   0.02
  69   1     0.03   0.06  -0.01    -0.03  -0.02   0.10    -0.02  -0.02   0.01
  70   1     0.03   0.02   0.05    -0.04  -0.01   0.12    -0.03  -0.01   0.03
  71   1    -0.03  -0.02  -0.06     0.05  -0.09   0.04    -0.00  -0.04  -0.01
  72   1    -0.05  -0.06  -0.07     0.07  -0.10  -0.04    -0.00  -0.05  -0.03
  73   1    -0.02  -0.07  -0.00     0.07  -0.10   0.04    -0.00  -0.05   0.00
  74   1    -0.01   0.07  -0.11    -0.00   0.01  -0.02    -0.00  -0.01  -0.04
  75   1     0.02   0.09  -0.08    -0.01   0.06  -0.03     0.01   0.01  -0.03
  76   1    -0.04   0.03  -0.11     0.00   0.00  -0.07    -0.00  -0.01  -0.04
  77   1     0.00  -0.03   0.04    -0.00   0.02  -0.04    -0.02   0.01  -0.02
  78   1     0.01  -0.05   0.07    -0.00   0.04  -0.07    -0.02   0.02  -0.02
  79   1     0.00   0.01  -0.02    -0.00   0.01  -0.02     0.00  -0.01   0.01
  80   1     0.01  -0.02   0.03    -0.00   0.01   0.00     0.00  -0.00   0.01
  81   1    -0.02   0.03   0.02    -0.04   0.06   0.02     0.01   0.07  -0.06
  82   1    -0.05   0.06   0.07    -0.05   0.08   0.07     0.05   0.08  -0.00
  83   1    -0.04   0.08  -0.02    -0.05   0.09  -0.01     0.03   0.07  -0.03
  84   1     0.07  -0.07   0.06     0.05  -0.04   0.06    -0.01  -0.01  -0.00
  85   1     0.04  -0.06   0.08     0.02  -0.02   0.08    -0.01   0.02  -0.03
  86   1     0.01  -0.04   0.11     0.00  -0.01   0.10     0.01   0.02   0.00
  87   1     0.03  -0.04  -0.04    -0.02  -0.01  -0.03    -0.06   0.01  -0.07
  88   1     0.00  -0.01  -0.10    -0.04  -0.01  -0.08    -0.05  -0.01  -0.04
  89   1     0.06  -0.07  -0.06     0.02  -0.06  -0.05    -0.06  -0.05  -0.03
  90   1    -0.01   0.02  -0.04    -0.02  -0.01   0.01     0.03  -0.03   0.06
  91   1    -0.02   0.03  -0.04    -0.01  -0.02   0.01     0.04  -0.03   0.08
  92   1    -0.00   0.01  -0.01     0.01  -0.03   0.01     0.01   0.02   0.03
  93   1    -0.00  -0.01  -0.02     0.00  -0.01   0.01     0.00   0.02  -0.01
  94   1    -0.01  -0.01  -0.05     0.00   0.00   0.04     0.01   0.00  -0.05
  95   1    -0.01  -0.01  -0.06     0.00   0.01   0.07     0.01  -0.00  -0.07
  96   1    -0.00  -0.00  -0.04     0.00   0.00   0.05     0.00   0.00  -0.04
  97   1     0.02  -0.00  -0.00    -0.02   0.01   0.01     0.02   0.00  -0.00
  98   1     0.03  -0.00   0.02    -0.03   0.02  -0.01     0.03  -0.03   0.00
  99   1     0.01  -0.00   0.04    -0.01   0.02  -0.03     0.02  -0.04   0.01
 100   1    -0.01  -0.00   0.03     0.01   0.01  -0.02     0.00  -0.03   0.01
 101   1    -0.02  -0.00   0.01     0.02  -0.00  -0.01    -0.01   0.00   0.00
 102   1    -0.03   0.01   0.01     0.00  -0.02   0.02     0.04   0.02  -0.02
 103   1    -0.03   0.03   0.03    -0.00  -0.01   0.02     0.05  -0.03  -0.04
 104   1    -0.01   0.04   0.04    -0.00   0.01   0.01     0.02  -0.07  -0.04
 105   1     0.02   0.03   0.03    -0.00   0.02  -0.01    -0.02  -0.06  -0.02
 106   1     0.02   0.02   0.01     0.00   0.01  -0.01    -0.04  -0.02   0.00
 107   1    -0.00   0.00  -0.00     0.01  -0.01   0.01    -0.01   0.02  -0.00
 108   1    -0.00   0.00  -0.01     0.01  -0.01   0.01    -0.02   0.00  -0.03
 109   1    -0.00   0.00  -0.01     0.02  -0.00   0.00    -0.02  -0.01  -0.05
 110   1    -0.00   0.00  -0.00     0.01  -0.00   0.00    -0.02  -0.00  -0.04
 111   1     0.00   0.00  -0.00     0.00   0.00   0.00     0.01   0.01  -0.00
 112   1     0.00   0.00  -0.00    -0.00   0.01  -0.00     0.02  -0.02   0.01
 113   1    -0.00   0.00   0.00     0.00   0.01  -0.01     0.00  -0.03   0.02
 114   1    -0.00   0.00  -0.00     0.01   0.01  -0.01    -0.02  -0.03   0.02
 115   1    -0.00   0.00  -0.00     0.01  -0.00  -0.00    -0.02  -0.01   0.00
 116   1     0.01  -0.01   0.02    -0.00   0.01  -0.03    -0.01   0.03   0.00
                     10                     11                     12
                        a                      a                      a 
 Frequencies --    45.7266                52.3524                54.1812
 Red. masses --    10.9755                10.7070                10.8016
 Frc consts  --     0.0000                 0.0000                 0.0000
 IR Inten    --     0.8679                 1.0579                 0.6530
 Raman Activ --     0.0000                 0.0000                 0.0000
 Depolar     --     0.0000                 0.0000                 0.0000
 Atom AN      X      Y      Z        X      Y      Z        X      Y      Z
   1   6     0.14   0.06  -0.05    -0.05  -0.02   0.01     0.13   0.07  -0.00
   2   6     0.05   0.03  -0.02    -0.02  -0.01  -0.01     0.07   0.05   0.01
   3   6    -0.02   0.04  -0.04    -0.01  -0.03  -0.01     0.03   0.07   0.00
   4   6     0.03   0.06  -0.05    -0.01  -0.02  -0.01     0.04   0.07  -0.00
   5   6     0.06  -0.04   0.03    -0.02   0.01  -0.01     0.07   0.00   0.04
   6   6     0.08  -0.07   0.06    -0.03   0.02  -0.02     0.08  -0.02   0.05
   7   6     0.08  -0.09   0.07    -0.03   0.03  -0.02     0.08  -0.03   0.04
   8   6     0.06  -0.08   0.04    -0.02   0.03   0.00     0.06  -0.03   0.02
   9   6     0.05  -0.08   0.05    -0.01   0.02   0.01     0.05  -0.02   0.02
  10   6     0.05  -0.06   0.04    -0.01   0.01   0.00     0.05  -0.01   0.04
  11   5     0.03  -0.08   0.04    -0.00   0.02   0.02     0.04  -0.02   0.01
  12   6     0.02  -0.09   0.06     0.01   0.01   0.03     0.05  -0.03   0.02
  13   6     0.01  -0.07   0.06     0.01   0.00   0.02     0.05  -0.03   0.01
  14   6    -0.01  -0.07   0.06     0.03   0.00   0.02     0.05  -0.04   0.03
  15   6    -0.06   0.00  -0.01     0.02   0.01  -0.01     0.03  -0.01  -0.02
  16   6    -0.01   0.09  -0.05     0.05   0.03  -0.03     0.07   0.05  -0.05
  17   6    -0.06   0.04  -0.04     0.01  -0.00  -0.02     0.03  -0.01  -0.04
  18   6    -0.18  -0.04  -0.04     0.00  -0.01  -0.03    -0.03  -0.04  -0.06
  19   6    -0.00  -0.11   0.11     0.04  -0.00   0.04     0.07  -0.07   0.07
  20   6     0.01  -0.14   0.11     0.04   0.01   0.05     0.07  -0.07   0.07
  21   6     0.02  -0.12   0.07     0.02   0.01   0.04     0.05  -0.05   0.04
  22   8     0.02  -0.13   0.04     0.01   0.03   0.04     0.05  -0.04   0.02
  23   6     0.01  -0.07  -0.02     0.00   0.03   0.03     0.04  -0.02  -0.01
  24   6     0.00  -0.03  -0.09    -0.00   0.04   0.03     0.04  -0.01  -0.03
  25   6     0.01  -0.00  -0.14    -0.00   0.04   0.03     0.03  -0.00  -0.04
  26   7     0.01   0.01  -0.17    -0.00   0.02   0.03     0.03  -0.01  -0.02
  27   6     0.01   0.04  -0.05     0.02   0.01   0.05     0.05  -0.03  -0.03
  28   6     0.02   0.08   0.05     0.05   0.07   0.17     0.08  -0.05  -0.12
  29   6     0.02   0.13   0.21     0.09   0.05   0.18     0.11  -0.06  -0.12
  30   6     0.02   0.12   0.26     0.09  -0.03   0.05     0.10  -0.06  -0.02
  31   6     0.01   0.08   0.15     0.06  -0.09  -0.07     0.07  -0.04   0.07
  32   6     0.01   0.04  -0.01     0.02  -0.05  -0.05     0.05  -0.03   0.06
  33   6     0.00   0.01  -0.10    -0.01  -0.08  -0.11     0.01  -0.02   0.10
  34   6     0.00   0.01  -0.08    -0.02  -0.10  -0.16    -0.00  -0.04   0.12
  35   6    -0.00   0.02  -0.05    -0.00  -0.09  -0.08    -0.02  -0.03   0.06
  36   6    -0.01   0.11  -0.02     0.13  -0.19  -0.08    -0.10  -0.07   0.02
  37   6    -0.02   0.14   0.01     0.15  -0.19   0.02    -0.15   0.00  -0.06
  38   6    -0.02   0.09   0.00     0.03  -0.09   0.13    -0.11   0.11  -0.10
  39   6    -0.00   0.00  -0.02    -0.11   0.02   0.13    -0.03   0.15  -0.06
  40   6     0.00  -0.03  -0.05    -0.13   0.01   0.02     0.02   0.07   0.02
  41   6    -0.01   0.01  -0.08    -0.03  -0.09  -0.16    -0.04  -0.03   0.11
  42   6    -0.02   0.02  -0.10    -0.03  -0.08  -0.13    -0.05  -0.02   0.09
  43   6    -0.02   0.01  -0.15    -0.03  -0.05  -0.10    -0.03  -0.01   0.06
  44   6    -0.02   0.03  -0.11    -0.02  -0.04  -0.06    -0.05   0.01   0.02
  45   6    -0.06   0.03  -0.08    -0.05  -0.04  -0.03    -0.04   0.01   0.01
  46   6    -0.05   0.04   0.00    -0.04  -0.04   0.01    -0.05   0.01  -0.03
  47   6     0.01   0.05   0.05    -0.01  -0.02   0.03    -0.07   0.02  -0.07
  48   6     0.05   0.05   0.01     0.02  -0.02   0.01    -0.09   0.02  -0.06
  49   6     0.04   0.04  -0.06     0.01  -0.03  -0.03    -0.08   0.01  -0.02
  50   6    -0.00   0.00  -0.16    -0.02  -0.04  -0.07     0.00  -0.01   0.06
  51   6    -0.04   0.05  -0.04    -0.02  -0.04  -0.05    -0.07  -0.05   0.04
  52   6    -0.07   0.08  -0.01    -0.01   0.00   0.04    -0.09  -0.07  -0.02
  53   6    -0.09   0.11   0.07     0.00   0.06   0.16    -0.11  -0.10  -0.08
  54   6    -0.09   0.09   0.12     0.01   0.06   0.20    -0.11  -0.11  -0.06
  55   6    -0.07   0.05   0.08    -0.00   0.01   0.09    -0.09  -0.09   0.00
  56   6    -0.04   0.04   0.01    -0.02  -0.04  -0.03    -0.07  -0.06   0.05
  57   7    -0.03   0.01  -0.03    -0.03  -0.08  -0.13    -0.06  -0.06   0.10
  58   6    -0.02  -0.02  -0.00    -0.02  -0.01  -0.09    -0.07  -0.01   0.04
  59   6     0.01  -0.01   0.01    -0.01  -0.04  -0.09    -0.16   0.05   0.02
  60   6     0.02  -0.06   0.03    -0.01   0.11  -0.06    -0.19   0.21  -0.04
  61   6    -0.00  -0.11   0.04    -0.02   0.29  -0.02    -0.12   0.30  -0.10
  62   6    -0.03  -0.11   0.03    -0.02   0.30  -0.02    -0.03   0.21  -0.09
  63   6    -0.04  -0.06   0.01    -0.03   0.15  -0.06    -0.01   0.06  -0.02
  64   6     0.02  -0.02  -0.10    -0.01   0.03   0.03     0.04   0.01  -0.05
  65   6     0.03  -0.06  -0.04    -0.01   0.03   0.03     0.04  -0.01  -0.03
  66   6     0.03  -0.08  -0.00    -0.00   0.03   0.03     0.04  -0.02  -0.01
  67   8     0.06  -0.09   0.01    -0.02   0.04   0.02     0.07  -0.02  -0.01
  68   1     0.06   0.01  -0.01    -0.02  -0.00   0.00     0.05   0.02   0.00
  69   1     0.04   0.03  -0.03    -0.01  -0.01   0.00     0.04   0.03  -0.01
  70   1     0.05   0.01  -0.01    -0.02  -0.01   0.00     0.04   0.02   0.00
  71   1    -0.01   0.03  -0.03    -0.00  -0.01   0.00     0.01   0.03  -0.01
  72   1    -0.02   0.01  -0.01     0.00  -0.01  -0.01    -0.00   0.01   0.00
  73   1    -0.00   0.01  -0.01    -0.00  -0.01  -0.00     0.01   0.02   0.00
  74   1     0.01   0.03  -0.03    -0.00  -0.01  -0.00     0.01   0.03  -0.01
  75   1     0.02   0.01  -0.01    -0.00  -0.00  -0.00     0.02   0.02   0.00
  76   1    -0.01   0.01  -0.01     0.00  -0.00  -0.01     0.00   0.02   0.00
  77   1     0.03  -0.02   0.02    -0.01   0.01  -0.01     0.03  -0.00   0.02
  78   1     0.03  -0.03   0.02    -0.01   0.01  -0.01     0.03  -0.01   0.01
  79   1     0.01  -0.01   0.01     0.00  -0.00   0.00     0.01  -0.00   0.01
  80   1     0.00  -0.01   0.01     0.00   0.00   0.00     0.01  -0.00  -0.00
  81   1    -0.01   0.04  -0.03     0.01   0.01  -0.02     0.02   0.02  -0.03
  82   1     0.02   0.03  -0.01     0.02   0.01  -0.00     0.03   0.02  -0.01
  83   1    -0.00   0.02  -0.01     0.02   0.01  -0.01     0.02   0.02  -0.01
  84   1    -0.03  -0.00  -0.01    -0.00  -0.00  -0.00     0.00  -0.01  -0.01
  85   1    -0.03   0.03  -0.03     0.00  -0.00  -0.01     0.00   0.00  -0.02
  86   1     0.00   0.02  -0.01     0.01   0.00  -0.00     0.02   0.00  -0.01
  87   1    -0.07   0.01  -0.03    -0.00  -0.00  -0.01    -0.02  -0.00  -0.03
  88   1    -0.06  -0.02  -0.01     0.00  -0.00  -0.01    -0.01  -0.01  -0.02
  89   1    -0.06  -0.03  -0.01    -0.00  -0.01  -0.01    -0.02  -0.03  -0.01
  90   1    -0.00  -0.04   0.04     0.01  -0.00   0.01     0.02  -0.02   0.03
  91   1     0.00  -0.05   0.04     0.01   0.00   0.02     0.02  -0.02   0.03
  92   1    -0.00  -0.01  -0.03    -0.00   0.01   0.01     0.01  -0.01  -0.01
  93   1     0.01   0.03   0.00     0.01   0.04   0.07     0.03  -0.01  -0.05
  94   1     0.01   0.05   0.09     0.03   0.03   0.08     0.04  -0.02  -0.05
  95   1     0.01   0.04   0.11     0.03  -0.02   0.01     0.03  -0.02  -0.00
  96   1     0.00   0.02   0.05     0.02  -0.05  -0.05     0.02  -0.01   0.04
  97   1    -0.01   0.04  -0.01     0.06  -0.08  -0.05    -0.04  -0.04   0.02
  98   1    -0.01   0.06   0.01     0.08  -0.08   0.01    -0.06  -0.01  -0.02
  99   1    -0.01   0.03   0.01     0.01  -0.02   0.06    -0.04   0.05  -0.04
 100   1    -0.00  -0.01  -0.01    -0.06   0.03   0.06     0.00   0.07  -0.03
 101   1     0.00  -0.02  -0.02    -0.07   0.02   0.01     0.03   0.03   0.01
 102   1    -0.03   0.01  -0.03    -0.02  -0.02  -0.01    -0.00   0.00   0.01
 103   1    -0.02   0.01   0.01    -0.02  -0.01   0.01    -0.01   0.00  -0.01
 104   1     0.01   0.02   0.03    -0.00  -0.00   0.02    -0.02   0.01  -0.03
 105   1     0.03   0.02   0.01     0.01  -0.00   0.01    -0.03   0.01  -0.02
 106   1     0.02   0.01  -0.03     0.01  -0.01  -0.01    -0.03   0.00  -0.00
 107   1    -0.02   0.03  -0.01    -0.00  -0.00   0.00    -0.03  -0.02  -0.01
 108   1    -0.03   0.04   0.03     0.00   0.03   0.07    -0.04  -0.04  -0.04
 109   1    -0.03   0.03   0.05     0.01   0.03   0.09    -0.04  -0.04  -0.03
 110   1    -0.02   0.01   0.03    -0.00   0.01   0.03    -0.02  -0.03   0.00
 111   1     0.01   0.01  -0.00    -0.00  -0.05  -0.03    -0.06  -0.00   0.02
 112   1     0.01  -0.01   0.01    -0.00   0.03  -0.02    -0.07   0.08  -0.02
 113   1     0.00  -0.04   0.02    -0.00   0.12   0.00    -0.04   0.13  -0.04
 114   1    -0.01  -0.04   0.01    -0.01   0.13   0.00     0.01   0.08  -0.04
 115   1    -0.02  -0.02   0.00    -0.01   0.05  -0.02     0.02  -0.00  -0.00
 116   1     0.01  -0.00  -0.04    -0.00   0.01   0.01     0.01   0.00  -0.02
                     13                     14                     15
                        a                      a                      a 
 Frequencies --    61.6692                63.7422                69.0939
 Red. masses --    10.4323                10.4265                10.2299
 Frc consts  --     0.0000                 0.0000                 0.0000
 IR Inten    --     7.4893                 0.3184                 0.0858
 Raman Activ --     0.0000                 0.0000                 0.0000
 Depolar     --     0.0000                 0.0000                 0.0000
 Atom AN      X      Y      Z        X      Y      Z        X      Y      Z
   1   6    -0.01   0.16   0.13     0.06   0.20   0.12    -0.04  -0.01   0.01
   2   6     0.00   0.14   0.07     0.00   0.16   0.08    -0.01  -0.00  -0.00
   3   6     0.08   0.12   0.09     0.04   0.17   0.10     0.02  -0.02   0.00
   4   6    -0.06   0.17   0.07    -0.09   0.21   0.09    -0.00  -0.01  -0.00
   5   6     0.00   0.10   0.01     0.00   0.07   0.04    -0.01   0.02  -0.02
   6   6     0.01   0.14  -0.07     0.04   0.08  -0.00    -0.02   0.04  -0.04
   7   6     0.01   0.11  -0.08     0.04   0.03  -0.03    -0.02   0.04  -0.03
   8   6    -0.01   0.05  -0.02    -0.01  -0.01  -0.02    -0.01   0.02   0.00
   9   6    -0.02   0.02   0.03    -0.04  -0.02   0.02    -0.00   0.01   0.01
  10   6    -0.02   0.04   0.06    -0.04   0.01   0.07    -0.01   0.01   0.00
  11   5    -0.02  -0.00   0.03    -0.05  -0.04  -0.00    -0.00   0.00   0.02
  12   6    -0.01  -0.00   0.00    -0.04  -0.05  -0.02     0.01  -0.00   0.03
  13   6     0.00  -0.03  -0.05    -0.04  -0.07  -0.06     0.01  -0.01   0.03
  14   6     0.06  -0.04  -0.05     0.01  -0.09  -0.04     0.02  -0.02   0.03
  15   6     0.10  -0.11  -0.09     0.04  -0.14  -0.08     0.01  -0.01  -0.01
  16   6     0.13  -0.12  -0.11     0.07  -0.12  -0.09     0.05   0.03  -0.03
  17   6     0.05  -0.20  -0.09     0.00  -0.20  -0.07    -0.00  -0.01  -0.03
  18   6     0.17  -0.11  -0.12     0.08  -0.15  -0.12    -0.02  -0.02  -0.02
  19   6     0.09  -0.01  -0.04     0.04  -0.08   0.00     0.04  -0.02   0.06
  20   6     0.07   0.02  -0.00     0.03  -0.06   0.02     0.03  -0.01   0.05
  21   6     0.02   0.01   0.02    -0.02  -0.04   0.01     0.01   0.00   0.03
  22   8     0.02   0.02   0.05    -0.03  -0.05   0.01    -0.00   0.03   0.01
  23   6    -0.00   0.01   0.05    -0.03  -0.03  -0.01    -0.01   0.02   0.01
  24   6    -0.01   0.01   0.05    -0.03  -0.03  -0.02    -0.01   0.02   0.01
  25   6    -0.00   0.00   0.05    -0.03  -0.02  -0.04    -0.00   0.00   0.03
  26   7    -0.01  -0.00   0.03    -0.03  -0.00  -0.04     0.00  -0.01   0.02
  27   6    -0.00  -0.01   0.01    -0.05   0.02  -0.00     0.00  -0.01   0.02
  28   6    -0.01  -0.01   0.01    -0.06   0.02   0.01    -0.00  -0.00   0.06
  29   6    -0.01  -0.02  -0.03    -0.07   0.04   0.06    -0.00  -0.01   0.03
  30   6    -0.01  -0.04  -0.07    -0.07   0.06   0.08     0.00  -0.02  -0.03
  31   6    -0.01  -0.04  -0.07    -0.06   0.06   0.05     0.00  -0.03  -0.05
  32   6    -0.00  -0.03  -0.04    -0.05   0.05   0.02     0.00  -0.02  -0.02
  33   6    -0.01  -0.04  -0.05    -0.03   0.05   0.02     0.00  -0.02  -0.03
  34   6    -0.01  -0.06  -0.08    -0.02   0.08   0.05     0.00  -0.01   0.01
  35   6    -0.03  -0.02  -0.06    -0.00   0.03   0.05    -0.00   0.01   0.01
  36   6    -0.04   0.06  -0.04     0.03  -0.03   0.03     0.02  -0.08  -0.02
  37   6    -0.09   0.21   0.02     0.10  -0.22  -0.01    -0.01   0.00  -0.01
  38   6    -0.13   0.29   0.05     0.14  -0.33  -0.03    -0.07   0.17   0.03
  39   6    -0.11   0.18   0.02     0.09  -0.23  -0.01    -0.08   0.23   0.05
  40   6    -0.06   0.02  -0.04     0.02  -0.04   0.03    -0.05   0.14   0.04
  41   6    -0.02  -0.05  -0.08    -0.01   0.07   0.05     0.01   0.01   0.05
  42   6    -0.02  -0.03  -0.04    -0.00   0.04   0.02     0.01  -0.03  -0.03
  43   6    -0.01  -0.02  -0.01    -0.01   0.02  -0.01     0.01  -0.04  -0.05
  44   6    -0.00  -0.03   0.01    -0.01   0.02  -0.01    -0.00  -0.02  -0.05
  45   6     0.01  -0.04   0.02    -0.01   0.01  -0.00    -0.10   0.06  -0.12
  46   6     0.03  -0.07   0.05    -0.01   0.01   0.00    -0.13   0.12  -0.11
  47   6     0.04  -0.10   0.07    -0.01   0.02   0.00    -0.06   0.11  -0.04
  48   6     0.02  -0.09   0.06    -0.01   0.02  -0.00     0.04   0.04   0.03
  49   6     0.00  -0.05   0.03    -0.01   0.02  -0.01     0.07  -0.03   0.02
  50   6    -0.01  -0.02  -0.01    -0.02   0.02  -0.01     0.01  -0.03  -0.02
  51   6    -0.02  -0.02  -0.01     0.01   0.03  -0.01     0.02  -0.04  -0.04
  52   6    -0.02   0.03   0.07     0.03  -0.01  -0.06     0.02  -0.13  -0.21
  53   6    -0.03   0.04   0.10     0.05  -0.01  -0.09     0.04  -0.11  -0.19
  54   6    -0.05  -0.00   0.06     0.05   0.03  -0.06     0.08   0.00   0.01
  55   6    -0.04  -0.04  -0.02     0.04   0.07  -0.00     0.08   0.08   0.16
  56   6    -0.03  -0.04  -0.04     0.02   0.07   0.02     0.04   0.04   0.10
  57   7    -0.03  -0.07  -0.09     0.01   0.10   0.05     0.04   0.08   0.16
  58   6    -0.02  -0.07  -0.04     0.01   0.08   0.03     0.02   0.04   0.09
  59   6     0.03   0.00  -0.02    -0.02  -0.01   0.01    -0.06  -0.21   0.03
  60   6     0.05  -0.01   0.03    -0.02  -0.04  -0.01    -0.08  -0.37  -0.07
  61   6     0.01  -0.10   0.05    -0.01   0.03  -0.02    -0.03  -0.25  -0.11
  62   6    -0.04  -0.16   0.03     0.01   0.11  -0.00     0.05   0.05  -0.04
  63   6    -0.05  -0.14  -0.02     0.02   0.14   0.02     0.08   0.19   0.06
  64   6    -0.01   0.01   0.04    -0.03  -0.02  -0.05     0.00  -0.01   0.05
  65   6    -0.01   0.01   0.03    -0.03  -0.03  -0.04    -0.00   0.00   0.03
  66   6    -0.02   0.00   0.04    -0.04  -0.04  -0.02    -0.00   0.01   0.02
  67   8    -0.01   0.04  -0.01    -0.02  -0.02  -0.05    -0.01   0.01   0.03
  68   1    -0.01   0.06   0.04     0.02   0.06   0.03    -0.02   0.00   0.00
  69   1    -0.00   0.05   0.05     0.02   0.07   0.04    -0.01  -0.01   0.01
  70   1     0.00   0.04   0.04     0.03   0.05   0.04    -0.02  -0.00   0.00
  71   1     0.02   0.04   0.04     0.01   0.07   0.04     0.01  -0.01   0.01
  72   1     0.02   0.03   0.01    -0.00   0.04   0.02     0.01  -0.00  -0.00
  73   1     0.04   0.03   0.03     0.03   0.04   0.03     0.00  -0.00   0.00
  74   1    -0.02   0.06   0.03    -0.03   0.08   0.03    -0.00  -0.01   0.00
  75   1    -0.02   0.05   0.02    -0.03   0.06   0.02    -0.00  -0.00  -0.00
  76   1    -0.02   0.04   0.02    -0.04   0.05   0.02     0.00  -0.00  -0.00
  77   1     0.01   0.05  -0.03     0.02   0.03  -0.01    -0.01   0.01  -0.02
  78   1     0.01   0.04  -0.04     0.02   0.01  -0.02    -0.01   0.01  -0.01
  79   1    -0.01   0.00   0.04    -0.02  -0.00   0.04     0.00  -0.00   0.00
  80   1    -0.01  -0.02  -0.02    -0.02  -0.02  -0.03     0.00  -0.00   0.01
  81   1     0.05  -0.05  -0.04     0.03  -0.05  -0.04     0.01   0.01  -0.02
  82   1     0.02  -0.04  -0.03     0.01  -0.03  -0.02     0.02   0.01  -0.01
  83   1     0.05  -0.02  -0.03     0.03  -0.02  -0.03     0.02   0.01  -0.01
  84   1     0.01  -0.06  -0.02    -0.00  -0.06  -0.02    -0.01  -0.01  -0.00
  85   1     0.03  -0.07  -0.03     0.01  -0.07  -0.03    -0.00   0.00  -0.02
  86   1     0.00  -0.06  -0.02    -0.01  -0.06  -0.02     0.01  -0.00  -0.01
  87   1     0.06  -0.05  -0.04     0.03  -0.05  -0.04    -0.01  -0.00  -0.02
  88   1     0.06  -0.02  -0.04     0.03  -0.03  -0.04    -0.00  -0.01  -0.00
  89   1     0.05  -0.03  -0.03     0.02  -0.05  -0.03    -0.02  -0.01  -0.00
  90   1     0.04  -0.00  -0.01     0.02  -0.03   0.00     0.01  -0.01   0.02
  91   1     0.03   0.02   0.00     0.01  -0.01   0.01     0.01  -0.00   0.02
  92   1    -0.00   0.00   0.01    -0.01  -0.01  -0.01    -0.00   0.01  -0.00
  93   1    -0.00  -0.00   0.01    -0.02   0.00  -0.00    -0.00   0.00   0.03
  94   1    -0.00  -0.01  -0.01    -0.02   0.01   0.02    -0.00  -0.00   0.02
  95   1    -0.00  -0.01  -0.03    -0.02   0.02   0.03     0.00  -0.01  -0.01
  96   1    -0.00  -0.01  -0.03    -0.02   0.02   0.02     0.00  -0.01  -0.03
  97   1    -0.00   0.00  -0.02     0.00   0.01   0.01     0.01  -0.05  -0.01
  98   1    -0.03   0.08   0.01     0.04  -0.08  -0.01     0.00  -0.02  -0.01
  99   1    -0.05   0.12   0.03     0.06  -0.14  -0.02    -0.03   0.07   0.01
 100   1    -0.04   0.06   0.01     0.03  -0.09  -0.01    -0.04   0.10   0.02
 101   1    -0.01  -0.01  -0.02    -0.00   0.01   0.01    -0.02   0.06   0.01
 102   1     0.00  -0.01   0.00    -0.00   0.00  -0.00    -0.04   0.02  -0.05
 103   1     0.01  -0.02   0.02    -0.00   0.00   0.00    -0.06   0.05  -0.05
 104   1     0.02  -0.04   0.03    -0.00   0.01   0.00    -0.02   0.05  -0.01
 105   1     0.01  -0.03   0.02    -0.00   0.01  -0.00     0.03   0.01   0.02
 106   1    -0.00  -0.01   0.01    -0.00   0.01  -0.00     0.04  -0.02   0.02
 107   1    -0.00   0.02   0.03     0.01  -0.01  -0.02    -0.00  -0.06  -0.10
 108   1    -0.01   0.02   0.05     0.02  -0.01  -0.04     0.01  -0.05  -0.09
 109   1    -0.02   0.00   0.02     0.02   0.01  -0.02     0.03   0.01   0.01
 110   1    -0.02  -0.02  -0.02     0.01   0.03   0.01     0.03   0.05   0.09
 111   1     0.02   0.02  -0.01    -0.01  -0.02   0.01    -0.03  -0.09   0.02
 112   1     0.03   0.01   0.01    -0.01  -0.03  -0.01    -0.04  -0.17  -0.03
 113   1     0.01  -0.03   0.03    -0.00   0.00  -0.01    -0.01  -0.11  -0.06
 114   1    -0.02  -0.06   0.02     0.01   0.05  -0.00     0.03   0.05  -0.02
 115   1    -0.03  -0.05  -0.01     0.01   0.06   0.01     0.04   0.11   0.03
 116   1    -0.00   0.00   0.01    -0.01  -0.00  -0.02     0.00  -0.01   0.02
                     16                     17                     18
                        a                      a                      a 
 Frequencies --    72.6088                78.5287                82.2183
 Red. masses --    10.3758                10.4718                10.1064
 Frc consts  --     0.0000                 0.0000                 0.0000
 IR Inten    --     1.1522                 4.0274                 0.3045
 Raman Activ --     0.0000                 0.0000                 0.0000
 Depolar     --     0.0000                 0.0000                 0.0000
 Atom AN      X      Y      Z        X      Y      Z        X      Y      Z
   1   6    -0.05  -0.03   0.03    -0.09  -0.01   0.03     0.06   0.02  -0.00
   2   6     0.04  -0.02  -0.04    -0.02  -0.00  -0.02     0.02  -0.01  -0.02
   3   6     0.12  -0.09  -0.03     0.04  -0.05  -0.01    -0.04  -0.05  -0.04
   4   6     0.06  -0.02  -0.06     0.00  -0.00  -0.03     0.03   0.03  -0.09
   5   6     0.03   0.03  -0.07    -0.02   0.04  -0.04     0.02  -0.03   0.04
   6   6     0.01   0.13  -0.20    -0.04   0.11  -0.14    -0.00   0.06  -0.07
   7   6     0.01   0.12  -0.17    -0.03   0.10  -0.10    -0.00   0.07  -0.08
   8   6     0.04   0.01  -0.00    -0.01   0.01   0.03     0.02   0.01   0.03
   9   6     0.06  -0.06   0.10     0.01  -0.04   0.10     0.04  -0.10   0.17
  10   6     0.06  -0.06   0.07     0.00  -0.03   0.07     0.05  -0.12   0.19
  11   5     0.06  -0.10   0.15     0.01  -0.05   0.12     0.04  -0.10   0.18
  12   6     0.03  -0.07   0.11     0.00  -0.05   0.12     0.03  -0.09   0.16
  13   6     0.02  -0.06   0.09     0.02  -0.07   0.12     0.03  -0.10   0.15
  14   6    -0.05   0.03  -0.06     0.00  -0.03   0.05    -0.04  -0.00  -0.01
  15   6    -0.03   0.01  -0.01    -0.00  -0.03  -0.02    -0.03  -0.01  -0.02
  16   6    -0.07  -0.10   0.02     0.06  -0.02  -0.05    -0.02  -0.08  -0.01
  17   6    -0.04   0.02  -0.03    -0.05  -0.03  -0.07    -0.06  -0.01  -0.06
  18   6     0.05   0.06   0.06    -0.04  -0.04  -0.01     0.01   0.01   0.02
  19   6    -0.12   0.12  -0.20    -0.01   0.01   0.00    -0.10   0.10  -0.16
  20   6    -0.10   0.10  -0.18    -0.02   0.03   0.00    -0.09   0.09  -0.13
  21   6    -0.02  -0.00  -0.01    -0.02   0.00   0.04    -0.02  -0.01   0.03
  22   8    -0.00  -0.03   0.03    -0.04   0.04   0.01    -0.02  -0.02   0.05
  23   6     0.02  -0.05   0.06    -0.02   0.01   0.04    -0.00  -0.02   0.04
  24   6     0.01  -0.02   0.00    -0.02   0.01   0.01    -0.01  -0.01  -0.00
  25   6     0.02  -0.01  -0.02    -0.00  -0.03   0.06    -0.00   0.02  -0.04
  26   7     0.01   0.02  -0.08     0.01  -0.05   0.04    -0.00   0.02  -0.02
  27   6     0.02   0.02  -0.05    -0.01  -0.05   0.02     0.01   0.01  -0.01
  28   6     0.02   0.03  -0.05    -0.03  -0.07   0.01     0.04   0.02  -0.02
  29   6     0.03   0.04  -0.01    -0.05  -0.06  -0.03     0.06   0.02   0.02
  30   6     0.02   0.04   0.03    -0.05  -0.04  -0.04     0.06   0.01   0.07
  31   6     0.02   0.04   0.02    -0.03  -0.02  -0.03     0.03  -0.00   0.07
  32   6     0.02   0.03  -0.02    -0.00  -0.04  -0.00     0.01   0.01   0.03
  33   6     0.01   0.02  -0.02     0.02  -0.03  -0.01    -0.01   0.01   0.04
  34   6     0.01   0.03   0.02     0.03  -0.03  -0.01    -0.02   0.00   0.01
  35   6     0.01   0.02   0.02     0.02  -0.01  -0.00    -0.01  -0.00   0.00
  36   6    -0.00   0.01   0.01    -0.02   0.08   0.02     0.01  -0.07  -0.01
  37   6     0.01  -0.02  -0.01    -0.01   0.07   0.01     0.01  -0.04  -0.00
  38   6     0.03  -0.05  -0.03     0.03  -0.04  -0.03    -0.03   0.04   0.03
  39   6     0.04  -0.03  -0.02     0.07  -0.13  -0.05    -0.06   0.10   0.04
  40   6     0.03   0.00   0.00     0.06  -0.10  -0.03    -0.05   0.07   0.03
  41   6    -0.01   0.03   0.04     0.04  -0.04  -0.01    -0.02   0.00  -0.01
  42   6    -0.02   0.04  -0.00     0.04  -0.04  -0.01    -0.01   0.00   0.03
  43   6    -0.01   0.03  -0.06     0.04  -0.05  -0.00    -0.01   0.02   0.05
  44   6    -0.00   0.01  -0.04     0.01  -0.01  -0.03    -0.01   0.02   0.03
  45   6    -0.03   0.06  -0.10    -0.10   0.09  -0.13     0.09  -0.09   0.17
  46   6     0.03  -0.03   0.01    -0.18   0.24  -0.24     0.06  -0.07   0.09
  47   6     0.12  -0.16   0.19    -0.15   0.28  -0.24    -0.07   0.06  -0.13
  48   6     0.14  -0.19   0.23    -0.03   0.16  -0.11    -0.17   0.17  -0.25
  49   6     0.08  -0.10   0.11     0.05   0.02  -0.00    -0.14   0.14  -0.16
  50   6     0.01   0.02  -0.06     0.02  -0.04   0.01    -0.01   0.02   0.03
  51   6    -0.06   0.03  -0.01     0.04  -0.03   0.00     0.02   0.00   0.02
  52   6    -0.09   0.02  -0.08     0.02  -0.01   0.00     0.06   0.01   0.08
  53   6    -0.12   0.00  -0.09     0.02   0.01   0.08     0.09  -0.00   0.03
  54   6    -0.12   0.00  -0.02     0.02   0.02   0.12     0.07  -0.02  -0.08
  55   6    -0.08   0.01   0.05     0.03  -0.01   0.09     0.04  -0.01  -0.12
  56   6    -0.06   0.02   0.04     0.04  -0.02   0.03     0.01  -0.00  -0.06
  57   7    -0.03   0.03   0.08     0.05  -0.04  -0.00    -0.01  -0.00  -0.07
  58   6    -0.04   0.02   0.05     0.04  -0.03  -0.00    -0.00   0.01  -0.04
  59   6    -0.08   0.01   0.04     0.04   0.13   0.02     0.03  -0.10  -0.05
  60   6    -0.09   0.04  -0.00     0.04   0.21   0.03     0.04  -0.15  -0.02
  61   6    -0.06   0.07  -0.03     0.05   0.11   0.01     0.02  -0.09   0.02
  62   6    -0.02   0.06  -0.02     0.05  -0.08  -0.02    -0.02   0.04   0.03
  63   6    -0.01   0.03   0.02     0.05  -0.14  -0.03    -0.03   0.09  -0.00
  64   6     0.03  -0.02   0.01     0.01  -0.05   0.10    -0.01   0.06  -0.08
  65   6     0.04  -0.05   0.06     0.01  -0.03   0.09     0.00   0.02  -0.02
  66   6     0.05  -0.08   0.11    -0.00  -0.02   0.09     0.01  -0.03   0.06
  67   8     0.05  -0.02   0.04     0.00  -0.02   0.09     0.01   0.06  -0.05
  68   1    -0.02   0.01   0.01    -0.03   0.01   0.01     0.04   0.02   0.01
  69   1    -0.01  -0.03   0.01    -0.02  -0.02   0.01     0.01  -0.00  -0.03
  70   1    -0.03  -0.01   0.02    -0.04  -0.00   0.01    -0.00  -0.00   0.02
  71   1     0.04  -0.03   0.01     0.01  -0.02   0.01    -0.01   0.01  -0.02
  72   1     0.04  -0.03  -0.03     0.02  -0.02  -0.01    -0.04  -0.03  -0.02
  73   1     0.04  -0.03  -0.00     0.02  -0.02   0.00     0.01  -0.03   0.00
  74   1     0.02  -0.01  -0.03     0.00  -0.00  -0.01     0.00   0.03  -0.06
  75   1     0.03  -0.00  -0.02     0.01   0.00  -0.01     0.04   0.01  -0.02
  76   1     0.02  -0.01  -0.02    -0.00  -0.00  -0.01    -0.02   0.00  -0.02
  77   1    -0.00   0.06  -0.09    -0.02   0.05  -0.07    -0.01   0.03  -0.05
  78   1    -0.00   0.05  -0.08    -0.01   0.04  -0.05    -0.01   0.04  -0.05
  79   1     0.02  -0.04   0.05     0.01  -0.03   0.04     0.02  -0.06   0.09
  80   1     0.02  -0.04   0.06     0.01  -0.03   0.05     0.02  -0.05   0.08
  81   1    -0.02  -0.03   0.03     0.01   0.01  -0.03    -0.01  -0.01   0.00
  82   1    -0.02  -0.04  -0.01     0.04  -0.00  -0.02     0.00  -0.03  -0.02
  83   1    -0.03  -0.04   0.01     0.02  -0.01  -0.00    -0.01  -0.04   0.00
  84   1    -0.02   0.01  -0.01    -0.03  -0.02  -0.01    -0.03  -0.01  -0.01
  85   1    -0.01   0.01  -0.01    -0.02  -0.00  -0.04    -0.02   0.00  -0.03
  86   1    -0.00   0.01  -0.01     0.00  -0.00  -0.02    -0.00   0.00  -0.01
  87   1     0.02   0.00   0.02    -0.01  -0.01  -0.03     0.01  -0.01  -0.00
  88   1     0.03   0.02   0.03     0.00  -0.01   0.01     0.02   0.01   0.02
  89   1     0.01   0.04   0.02    -0.03  -0.01   0.01    -0.01   0.02   0.01
  90   1    -0.05   0.06  -0.10    -0.00   0.01  -0.01    -0.04   0.05  -0.08
  91   1    -0.04   0.05  -0.08    -0.01   0.02  -0.01    -0.04   0.04  -0.07
  92   1    -0.00   0.00  -0.01    -0.01   0.01  -0.01    -0.00  -0.01   0.00
  93   1     0.01   0.01  -0.02    -0.01  -0.02   0.01     0.01   0.01  -0.02
  94   1     0.01   0.01  -0.00    -0.02  -0.02  -0.01     0.02   0.01   0.01
  95   1     0.01   0.01   0.02    -0.02  -0.01  -0.02     0.02   0.00   0.03
  96   1     0.00   0.01   0.01    -0.01   0.00  -0.01     0.01  -0.01   0.03
  97   1    -0.01   0.01   0.01    -0.01   0.04   0.01     0.01  -0.03  -0.01
  98   1    -0.00  -0.01  -0.01    -0.01   0.04   0.01     0.01  -0.03  -0.00
  99   1     0.01  -0.02  -0.02     0.01  -0.02  -0.01    -0.01   0.02   0.01
 100   1     0.02  -0.01  -0.01     0.03  -0.06  -0.02    -0.02   0.05   0.02
 101   1     0.01   0.00   0.00     0.03  -0.05  -0.01    -0.02   0.03   0.01
 102   1    -0.03   0.04  -0.06    -0.03   0.02  -0.04     0.05  -0.05   0.09
 103   1     0.00   0.00  -0.01    -0.08   0.09  -0.10     0.04  -0.05   0.06
 104   1     0.05  -0.07   0.09    -0.06   0.12  -0.10    -0.03   0.02  -0.06
 105   1     0.06  -0.08   0.11    -0.00   0.05  -0.03    -0.08   0.08  -0.12
 106   1     0.03  -0.04   0.04     0.04  -0.02   0.02    -0.06   0.06  -0.07
 107   1    -0.03   0.01  -0.04     0.00  -0.00  -0.02     0.02   0.00   0.05
 108   1    -0.04  -0.00  -0.04     0.00   0.01   0.03     0.03   0.00   0.02
 109   1    -0.04  -0.00  -0.01     0.01   0.01   0.05     0.03  -0.01  -0.04
 110   1    -0.02   0.00   0.03     0.01  -0.01   0.03     0.01  -0.00  -0.06
 111   1    -0.03  -0.00   0.02     0.01   0.06   0.01     0.02  -0.04  -0.02
 112   1    -0.04   0.01  -0.00     0.01   0.10   0.01     0.02  -0.07  -0.01
 113   1    -0.02   0.03  -0.02     0.01   0.05   0.00     0.01  -0.04   0.01
 114   1     0.00   0.02  -0.01     0.01  -0.05  -0.01    -0.01   0.03   0.02
 115   1     0.01   0.01   0.01     0.02  -0.07  -0.01    -0.02   0.05  -0.00
 116   1     0.01   0.00  -0.01     0.01  -0.02   0.03    -0.00   0.03  -0.04
                     19                     20                     21
                        a                      a                      a 
 Frequencies --    92.9104                96.2305               104.6053
 Red. masses --     9.9708                10.7645                11.2686
 Frc consts  --     0.0000                 0.0000                 0.0000
 IR Inten    --     2.1236                 1.5729                 0.1164
 Raman Activ --     0.0000                 0.0000                 0.0000
 Depolar     --     0.0000                 0.0000                 0.0000
 Atom AN      X      Y      Z        X      Y      Z        X      Y      Z
   1   6    -0.01  -0.02  -0.01     0.04  -0.01  -0.03    -0.10  -0.03   0.01
   2   6    -0.00  -0.01  -0.01    -0.05  -0.03   0.02     0.04   0.02  -0.04
   3   6    -0.02  -0.02  -0.01    -0.21  -0.04  -0.03     0.19   0.00  -0.00
   4   6     0.02  -0.02  -0.02    -0.02  -0.00  -0.06     0.06  -0.03   0.02
   5   6    -0.00   0.01   0.01    -0.04  -0.05   0.12     0.03   0.09  -0.12
   6   6    -0.01   0.01   0.01    -0.06  -0.04   0.11     0.03   0.09  -0.12
   7   6    -0.01   0.02   0.02    -0.06   0.03   0.05     0.04   0.02  -0.01
   8   6     0.00   0.03   0.02    -0.05   0.08  -0.00     0.05  -0.04   0.08
   9   6     0.01   0.03   0.02    -0.03   0.02   0.07     0.04   0.01   0.00
  10   6     0.01   0.01   0.01    -0.02  -0.05   0.13     0.03   0.07  -0.10
  11   5     0.01   0.03   0.01    -0.03   0.04   0.04     0.03   0.00   0.01
  12   6     0.01   0.03   0.02    -0.02   0.03   0.07     0.05   0.00   0.02
  13   6     0.02   0.01   0.03    -0.00  -0.00   0.06     0.09  -0.05   0.12
  14   6     0.03   0.01   0.02     0.01   0.02   0.02     0.09  -0.04   0.11
  15   6     0.03   0.01  -0.00     0.02  -0.01  -0.02     0.05   0.01   0.03
  16   6     0.07   0.03  -0.02     0.07  -0.01  -0.04     0.16   0.11  -0.03
  17   6     0.02   0.00  -0.02    -0.02  -0.05  -0.04     0.03   0.06  -0.04
  18   6     0.02   0.00  -0.01     0.04  -0.01  -0.03    -0.09  -0.03   0.01
  19   6     0.04   0.02   0.03     0.01   0.05   0.01     0.08  -0.03   0.08
  20   6     0.03   0.03   0.02    -0.00   0.06   0.01     0.04   0.03  -0.02
  21   6     0.01   0.04   0.01    -0.02   0.05   0.04     0.01   0.06  -0.08
  22   8    -0.00   0.06  -0.01    -0.04   0.07   0.03    -0.07   0.19  -0.26
  23   6    -0.01   0.04  -0.00    -0.04   0.08   0.00    -0.02   0.09  -0.13
  24   6    -0.00   0.03  -0.00    -0.04   0.05  -0.00    -0.02   0.08  -0.14
  25   6    -0.00   0.02   0.01    -0.03   0.07  -0.03    -0.01  -0.01  -0.03
  26   7     0.00  -0.01   0.00    -0.01   0.01  -0.03    -0.02  -0.02  -0.04
  27   6     0.00  -0.02  -0.02     0.02  -0.00  -0.02    -0.04  -0.01  -0.02
  28   6    -0.01  -0.05  -0.11     0.06  -0.00  -0.08    -0.07  -0.02  -0.00
  29   6    -0.02  -0.05  -0.13     0.09  -0.03  -0.08    -0.09   0.00   0.01
  30   6    -0.03  -0.01  -0.02     0.09  -0.04  -0.00    -0.09   0.02   0.01
  31   6    -0.02   0.02   0.06     0.05  -0.04   0.05    -0.06   0.02  -0.01
  32   6    -0.00  -0.00   0.02     0.02  -0.02   0.02    -0.04   0.01  -0.01
  33   6    -0.00  -0.01   0.01    -0.02  -0.03  -0.01    -0.03   0.01  -0.01
  34   6    -0.00  -0.03  -0.01    -0.01  -0.01   0.02    -0.04   0.01   0.01
  35   6    -0.01  -0.04   0.00    -0.02   0.01   0.03    -0.04   0.02   0.02
  36   6    -0.10   0.26   0.09    -0.05   0.02   0.03    -0.04  -0.02   0.01
  37   6    -0.12   0.31   0.11    -0.04  -0.01  -0.01    -0.03  -0.06  -0.01
  38   6    -0.02   0.02   0.02    -0.01  -0.05  -0.04    -0.02  -0.06  -0.02
  39   6     0.09  -0.29  -0.06     0.02  -0.05  -0.03    -0.03  -0.01   0.00
  40   6     0.09  -0.29  -0.07     0.01  -0.02   0.00    -0.05   0.03   0.02
  41   6    -0.02  -0.04  -0.04     0.01  -0.02  -0.01    -0.04   0.01  -0.00
  42   6    -0.02  -0.04  -0.05     0.00  -0.07  -0.12    -0.04  -0.03  -0.04
  43   6    -0.01  -0.03  -0.03    -0.01  -0.07  -0.13    -0.04  -0.03  -0.05
  44   6    -0.01  -0.02  -0.02     0.00  -0.07  -0.10    -0.04  -0.02  -0.04
  45   6    -0.01  -0.04   0.02    -0.02  -0.12   0.02     0.01  -0.13   0.13
  46   6     0.00  -0.05   0.05     0.01  -0.13   0.14     0.04  -0.16   0.21
  47   6     0.00  -0.03   0.04     0.05  -0.07   0.14     0.01  -0.08   0.12
  48   6    -0.00  -0.00  -0.00     0.06   0.00   0.00    -0.06   0.05  -0.06
  49   6    -0.01  -0.00  -0.03     0.03   0.00  -0.12    -0.08   0.07  -0.13
  50   6    -0.00  -0.01  -0.00    -0.02  -0.03  -0.05    -0.03  -0.01  -0.02
  51   6    -0.02  -0.05  -0.05     0.02  -0.06  -0.09    -0.01  -0.02  -0.03
  52   6    -0.00  -0.04  -0.02     0.02  -0.13  -0.19     0.01  -0.05  -0.04
  53   6     0.01  -0.01   0.03     0.05  -0.07  -0.08     0.04  -0.03  -0.02
  54   6     0.02   0.01   0.07     0.08   0.04   0.13     0.05   0.01   0.01
  55   6     0.01  -0.00   0.03     0.08   0.08   0.20     0.03   0.04   0.03
  56   6    -0.02  -0.04  -0.04     0.04   0.02   0.08    -0.01   0.02   0.01
  57   7    -0.02  -0.05  -0.05     0.04   0.03   0.11    -0.02   0.04   0.03
  58   6    -0.01  -0.04  -0.03     0.03   0.03   0.08    -0.03   0.04   0.02
  59   6     0.00  -0.26  -0.06    -0.01   0.16   0.08    -0.03   0.08   0.03
  60   6     0.01  -0.22  -0.03    -0.03   0.16   0.03    -0.04   0.05   0.02
  61   6    -0.00   0.09   0.04     0.01  -0.02  -0.04    -0.03  -0.04   0.00
  62   6    -0.02   0.31   0.07     0.06  -0.16  -0.05    -0.03  -0.08  -0.00
  63   6    -0.03   0.22   0.03     0.07  -0.12   0.01    -0.02  -0.03   0.01
  64   6     0.01   0.02   0.02    -0.04   0.13  -0.10     0.04  -0.08   0.09
  65   6     0.00   0.04   0.02    -0.05   0.14  -0.08     0.04  -0.07   0.11
  66   6     0.00   0.04   0.01    -0.04   0.09  -0.02     0.02   0.01  -0.01
  67   8     0.00   0.04   0.02    -0.07   0.20  -0.14     0.08  -0.18   0.26
  68   1    -0.00  -0.00  -0.00     0.05   0.01   0.00    -0.08  -0.01  -0.01
  69   1    -0.00  -0.01  -0.01     0.01   0.00  -0.05    -0.03  -0.02   0.05
  70   1    -0.01  -0.01  -0.00    -0.01  -0.01   0.01    -0.02   0.00  -0.02
  71   1    -0.01  -0.01  -0.01    -0.06   0.02  -0.04     0.06  -0.04   0.03
  72   1    -0.00  -0.01  -0.00    -0.10  -0.03  -0.00     0.10   0.02  -0.01
  73   1    -0.01  -0.01  -0.00    -0.05  -0.02   0.01     0.04   0.02  -0.02
  74   1     0.01  -0.01  -0.01    -0.01   0.01  -0.05     0.02  -0.03   0.03
  75   1     0.01  -0.00  -0.00     0.02   0.00  -0.01    -0.01  -0.01   0.00
  76   1     0.01  -0.00  -0.00    -0.03  -0.01  -0.01     0.04   0.00   0.00
  77   1    -0.01   0.00   0.00    -0.02  -0.02   0.04     0.00   0.04  -0.05
  78   1    -0.01   0.01   0.01    -0.03   0.02   0.01     0.01   0.00   0.00
  79   1     0.01   0.00   0.00     0.00  -0.02   0.05     0.01   0.03  -0.04
  80   1     0.01   0.00   0.01    -0.00  -0.01   0.02     0.04  -0.02   0.05
  81   1     0.02   0.01  -0.01     0.02  -0.00  -0.02     0.02   0.07  -0.04
  82   1     0.03   0.01  -0.00     0.02  -0.00  -0.01     0.10   0.04  -0.01
  83   1     0.02   0.01  -0.00     0.03  -0.00  -0.01     0.04   0.00   0.01
  84   1    -0.00  -0.00  -0.00    -0.02  -0.02  -0.01    -0.01   0.00  -0.00
  85   1     0.00   0.00  -0.01    -0.00  -0.02  -0.02    -0.01   0.04  -0.04
  86   1     0.01   0.00  -0.00    -0.00  -0.01  -0.01     0.04   0.03  -0.01
  87   1     0.01   0.00  -0.01     0.02  -0.01  -0.02    -0.04   0.00  -0.04
  88   1     0.01   0.00   0.00     0.02   0.01  -0.00    -0.01  -0.01   0.03
  89   1    -0.00  -0.00   0.00    -0.00  -0.01  -0.00    -0.07  -0.03   0.02
  90   1     0.01   0.00   0.01     0.01   0.02  -0.00     0.03  -0.01   0.04
  91   1     0.01   0.01   0.01     0.00   0.03   0.00     0.00   0.02  -0.02
  92   1    -0.00   0.01  -0.00    -0.01   0.00   0.01    -0.01   0.04  -0.06
  93   1    -0.00  -0.03  -0.04     0.02   0.00  -0.04    -0.02  -0.01   0.00
  94   1    -0.01  -0.02  -0.06     0.04  -0.01  -0.04    -0.03   0.00   0.01
  95   1    -0.01   0.00  -0.00     0.03  -0.01   0.00    -0.03   0.01   0.00
  96   1    -0.01   0.02   0.04     0.01  -0.01   0.03    -0.02   0.01  -0.01
  97   1    -0.05   0.13   0.04    -0.02   0.01   0.01    -0.01  -0.01   0.00
  98   1    -0.06   0.16   0.05    -0.02  -0.00  -0.00    -0.01  -0.03  -0.01
  99   1    -0.01   0.01   0.01     0.00  -0.02  -0.02    -0.00  -0.03  -0.01
 100   1     0.05  -0.15  -0.04     0.01  -0.02  -0.02    -0.01   0.00  -0.00
 101   1     0.05  -0.13  -0.03     0.01  -0.01   0.00    -0.02   0.02   0.01
 102   1    -0.00  -0.02   0.01    -0.02  -0.05   0.00     0.01  -0.06   0.06
 103   1     0.00  -0.02   0.02    -0.00  -0.05   0.07     0.03  -0.08   0.10
 104   1     0.00  -0.01   0.02     0.02  -0.02   0.07     0.01  -0.03   0.05
 105   1    -0.00   0.00  -0.00     0.03   0.02  -0.00    -0.02   0.04  -0.04
 106   1    -0.00   0.00  -0.02     0.01   0.02  -0.06    -0.03   0.04  -0.07
 107   1    -0.00  -0.02  -0.01    -0.00  -0.06  -0.10     0.00  -0.03  -0.02
 108   1     0.01  -0.00   0.02     0.01  -0.03  -0.04     0.02  -0.01  -0.01
 109   1     0.01   0.01   0.04     0.03   0.02   0.07     0.02   0.01   0.01
 110   1     0.00   0.01   0.02     0.03   0.04   0.10     0.01   0.02   0.01
 111   1     0.00  -0.13  -0.03    -0.01   0.08   0.04    -0.01   0.04   0.01
 112   1     0.01  -0.12  -0.01    -0.02   0.08   0.01    -0.01   0.02   0.01
 113   1     0.00   0.05   0.02    -0.00  -0.01  -0.02    -0.01  -0.02  -0.00
 114   1    -0.01   0.16   0.03     0.02  -0.09  -0.03    -0.01  -0.04  -0.01
 115   1    -0.01   0.10   0.01     0.03  -0.06   0.00    -0.01  -0.01   0.00
 116   1     0.01   0.01   0.00    -0.01   0.05  -0.04     0.02  -0.04   0.05
                     22                     23                     24
                        a                      a                      a 
 Frequencies --   110.0137               113.0087               118.2565
 Red. masses --    10.5978                10.7240                11.1281
 Frc consts  --     0.0000                 0.0000                 0.0000
 IR Inten    --     3.8135                 2.4424                 0.4785
 Raman Activ --     0.0000                 0.0000                 0.0000
 Depolar     --     0.0000                 0.0000                 0.0000
 Atom AN      X      Y      Z        X      Y      Z        X      Y      Z
   1   6     0.04   0.01  -0.00    -0.18  -0.04   0.00    -0.13  -0.01   0.01
   2   6    -0.00  -0.01   0.01    -0.04   0.02  -0.04    -0.09   0.00   0.00
   3   6    -0.05  -0.00  -0.00     0.08   0.00  -0.00    -0.09   0.00   0.01
   4   6    -0.01   0.01  -0.01    -0.01  -0.04   0.03    -0.09  -0.01   0.02
   5   6    -0.00  -0.03   0.04    -0.05   0.09  -0.11    -0.09   0.02  -0.01
   6   6    -0.00  -0.01   0.01    -0.03   0.03  -0.02    -0.08  -0.01   0.02
   7   6    -0.01   0.01  -0.02    -0.02  -0.03   0.08    -0.07  -0.01   0.04
   8   6    -0.01   0.02  -0.02    -0.01  -0.03   0.09    -0.06   0.00   0.02
   9   6    -0.00  -0.02   0.02    -0.03   0.06  -0.04    -0.08   0.03  -0.01
  10   6     0.00  -0.04   0.06    -0.04   0.13  -0.15    -0.08   0.04  -0.03
  11   5    -0.00   0.01  -0.01    -0.04   0.01   0.02    -0.08   0.03  -0.00
  12   6     0.02  -0.01   0.03    -0.09   0.03  -0.02    -0.10   0.00   0.05
  13   6     0.06  -0.06   0.12    -0.12   0.07  -0.11    -0.06  -0.06   0.12
  14   6     0.05  -0.05   0.09    -0.09   0.04  -0.07    -0.04  -0.06   0.11
  15   6     0.02  -0.01   0.03    -0.04  -0.04  -0.04    -0.04  -0.09   0.01
  16   6     0.11   0.06  -0.02    -0.09  -0.10  -0.01     0.08  -0.03  -0.05
  17   6    -0.01   0.03  -0.03    -0.06  -0.12   0.01    -0.12  -0.13  -0.05
  18   6    -0.10  -0.04   0.01     0.09  -0.01  -0.04    -0.10  -0.12  -0.03
  19   6     0.03  -0.02   0.05    -0.04   0.00   0.01    -0.04  -0.02   0.08
  20   6    -0.01   0.03  -0.03    -0.02  -0.02   0.08    -0.09   0.04   0.01
  21   6    -0.02   0.04  -0.06    -0.04  -0.02   0.08    -0.12   0.06  -0.03
  22   8    -0.07   0.13  -0.19    -0.01  -0.08   0.17    -0.18   0.15  -0.15
  23   6    -0.04   0.07  -0.11    -0.01  -0.04   0.11    -0.09   0.08  -0.08
  24   6    -0.03   0.03  -0.08    -0.02   0.00   0.03    -0.08   0.04  -0.08
  25   6    -0.01  -0.00  -0.04    -0.00   0.04  -0.02    -0.02   0.01  -0.05
  26   7    -0.01  -0.02  -0.00     0.01   0.04  -0.08     0.02  -0.02  -0.10
  27   6    -0.01  -0.02  -0.00     0.06   0.02  -0.07     0.06  -0.03  -0.09
  28   6     0.02  -0.07  -0.19     0.14   0.00  -0.25     0.12   0.03  -0.02
  29   6     0.03  -0.07  -0.16     0.20  -0.02  -0.19     0.16   0.02   0.08
[...]
 110   1     0.37  -0.06  -0.03    -0.04   0.01   0.00    -0.00   0.00   0.00
 111   1     0.09  -0.01   0.08    -0.02   0.00  -0.02    -0.28   0.04  -0.27
 112   1    -0.02  -0.01   0.07     0.01   0.01  -0.04     0.13   0.08  -0.53
 113   1     0.05   0.00  -0.01     0.03   0.00  -0.01     0.55   0.02  -0.15
 114   1     0.07  -0.01   0.06     0.01  -0.00   0.01     0.22  -0.04   0.22
 115   1    -0.02  -0.01   0.10    -0.00  -0.00   0.00    -0.04  -0.02   0.16
 116   1    -0.00  -0.00  -0.00     0.02   0.05   0.04    -0.01  -0.01  -0.01
                    337                    338                    339
                        a                      a                      a 
 Frequencies --  3106.3251              3110.7847              3112.2076
 Red. masses --     1.8322                 1.8312                 1.8454
 Frc consts  --     0.0000                 0.0000                 0.0000
 IR Inten    --     4.2123                 5.0729                20.1027
 Raman Activ --     0.0000                 0.0000                 0.0000
 Depolar     --     0.0000                 0.0000                 0.0000
 Atom AN      X      Y      Z        X      Y      Z        X      Y      Z
   1   6     0.00   0.00   0.00     0.00  -0.00   0.00     0.00  -0.00  -0.00
   2   6    -0.00   0.00   0.00     0.00  -0.00   0.00     0.00  -0.00  -0.00
   3   6     0.00   0.00   0.00     0.00  -0.00  -0.00     0.00  -0.00  -0.00
   4   6    -0.00   0.00   0.00     0.00  -0.00   0.00     0.00  -0.00   0.00
   5   6    -0.00  -0.00  -0.00    -0.00   0.00   0.00     0.00  -0.00  -0.00
   6   6    -0.00   0.00   0.00     0.00  -0.00  -0.00     0.00  -0.00  -0.00
   7   6     0.00   0.01   0.00    -0.00  -0.00  -0.00    -0.00  -0.00  -0.00
   8   6     0.00   0.00  -0.00     0.00  -0.00  -0.00     0.00  -0.00  -0.00
   9   6    -0.00  -0.00  -0.00    -0.00   0.00   0.00    -0.00   0.00   0.00
  10   6    -0.00  -0.00  -0.00    -0.00  -0.00  -0.00    -0.00  -0.00  -0.00
  11   5    -0.00   0.00   0.00     0.00   0.00   0.00     0.00  -0.00   0.00
  12   6     0.00   0.00  -0.00     0.00  -0.00  -0.00    -0.00  -0.00  -0.00
  13   6     0.00  -0.00  -0.00     0.00  -0.00  -0.00    -0.00   0.00   0.00
  14   6    -0.00   0.00   0.00     0.00   0.00  -0.00     0.00   0.00   0.00
  15   6    -0.00  -0.00   0.00    -0.00   0.00   0.00     0.00   0.00   0.00
  16   6    -0.00  -0.00  -0.00    -0.00   0.00   0.00     0.00   0.00   0.00
  17   6    -0.00  -0.00   0.00     0.00   0.00  -0.00     0.00   0.00   0.00
  18   6    -0.00  -0.00   0.00    -0.00   0.00   0.00     0.00   0.00   0.00
  19   6    -0.00  -0.00  -0.00     0.00   0.00   0.00     0.00   0.00   0.00
  20   6     0.00  -0.00  -0.00    -0.00   0.00   0.00    -0.00   0.00   0.00
  21   6    -0.00  -0.00  -0.00    -0.00  -0.00   0.00     0.00   0.00   0.00
  22   8    -0.00  -0.00  -0.00    -0.00  -0.00  -0.00    -0.00   0.00   0.00
  23   6     0.00   0.00   0.00     0.00   0.01   0.01    -0.00  -0.00  -0.00
  24   6    -0.01   0.00   0.00    -0.17   0.14   0.15     0.00  -0.00  -0.00
  25   6     0.01   0.00   0.00    -0.01  -0.00   0.00     0.00  -0.00   0.00
  26   7    -0.00  -0.00  -0.00     0.00   0.00  -0.00    -0.00   0.00  -0.00
  27   6    -0.00  -0.00   0.00     0.00   0.00   0.00     0.00  -0.00   0.00
  28   6    -0.02   0.00  -0.00     0.00  -0.00   0.00     0.01  -0.00   0.00
  29   6    -0.00   0.01  -0.00     0.00  -0.00   0.00     0.02  -0.03   0.01
  30   6     0.00   0.00  -0.00    -0.00  -0.00   0.00    -0.04  -0.05   0.01
  31   6    -0.00  -0.00  -0.00    -0.00   0.00  -0.00    -0.27   0.01  -0.03
  32   6     0.00   0.00  -0.00    -0.00  -0.00   0.00    -0.00   0.01  -0.00
  33   6     0.00  -0.00   0.00    -0.00   0.00  -0.00     0.00   0.00  -0.00
  34   6    -0.00   0.00  -0.00     0.00  -0.00  -0.00     0.00  -0.00   0.00
  35   6     0.00   0.00   0.00    -0.00   0.00   0.00     0.00   0.00  -0.00
  36   6    -0.00  -0.00  -0.00     0.00   0.00   0.00     0.01   0.00   0.01
  37   6     0.00   0.00  -0.00    -0.00  -0.00   0.00    -0.00  -0.00   0.00
  38   6     0.00   0.00  -0.00    -0.00  -0.00   0.00    -0.00  -0.00   0.00
  39   6     0.00   0.00   0.00    -0.00  -0.00  -0.00    -0.00  -0.00  -0.00
  40   6    -0.00  -0.00   0.00     0.00   0.00  -0.00     0.00   0.00  -0.00
  41   6    -0.00  -0.00   0.00    -0.00   0.00   0.00    -0.00  -0.00  -0.00
  42   6    -0.00   0.00  -0.00     0.00  -0.00   0.00     0.00  -0.00   0.00
  43   6     0.00  -0.00   0.00     0.00   0.00  -0.00     0.00   0.00  -0.00
  44   6     0.00  -0.00   0.00     0.00   0.00   0.00    -0.00  -0.00   0.00
  45   6    -0.00   0.00   0.00    -0.00   0.00   0.00    -0.00   0.00   0.00
  46   6     0.00   0.00   0.00    -0.00  -0.00  -0.00     0.00   0.00   0.00
  47   6     0.00   0.00  -0.00    -0.01  -0.00   0.00     0.00   0.00  -0.00
  48   6    -0.00   0.00   0.00    -0.00   0.00   0.00     0.00  -0.00  -0.00
  49   6     0.00   0.00   0.00     0.00   0.01   0.00    -0.00  -0.00  -0.00
  50   6    -0.00   0.00   0.00     0.00  -0.00   0.00    -0.00  -0.00   0.00
  51   6     0.00  -0.00   0.00    -0.00   0.00  -0.00     0.00  -0.00   0.00
  52   6     0.00  -0.00  -0.00    -0.01   0.00   0.00     0.01  -0.00  -0.00
  53   6    -0.00  -0.00   0.00    -0.00  -0.00   0.00     0.00   0.00  -0.00
  54   6     0.00  -0.00   0.00    -0.00   0.00  -0.00    -0.00   0.00  -0.00
  55   6     0.00  -0.00  -0.00    -0.00   0.00   0.00    -0.00   0.00   0.00
  56   6    -0.00   0.00  -0.00     0.00  -0.00   0.00    -0.00   0.00   0.00
  57   7    -0.00  -0.00   0.00    -0.00   0.00  -0.00     0.00   0.00  -0.00
  58   6    -0.00   0.00   0.00    -0.00   0.00  -0.00     0.00  -0.00  -0.00
  59   6    -0.00   0.00  -0.00     0.00  -0.00   0.00     0.00  -0.00   0.00
  60   6     0.00   0.00  -0.00    -0.00  -0.00   0.00    -0.00  -0.00   0.00
  61   6     0.00   0.00  -0.00    -0.00  -0.00   0.00    -0.00  -0.00   0.00
  62   6     0.00  -0.00   0.00    -0.00   0.00  -0.00    -0.00   0.00  -0.00
  63   6    -0.00  -0.00   0.00     0.00   0.00  -0.00     0.00   0.00  -0.00
  64   6     0.09   0.21   0.15     0.00  -0.01  -0.00    -0.00  -0.00  -0.00
  65   6    -0.01   0.01   0.01    -0.00  -0.00  -0.00    -0.00   0.00   0.00
  66   6     0.00  -0.00  -0.00     0.00  -0.00  -0.00     0.00   0.00   0.00
  67   8     0.00  -0.00  -0.00     0.00  -0.00  -0.00    -0.00  -0.00  -0.00
  68   1    -0.00   0.00   0.00     0.00   0.00  -0.00     0.00  -0.00  -0.00
  69   1     0.00   0.00  -0.00    -0.00  -0.00   0.00    -0.00  -0.00   0.00
  70   1    -0.00  -0.00  -0.00     0.00   0.00   0.00     0.00   0.00   0.00
  71   1     0.00   0.00  -0.00    -0.00  -0.00   0.00    -0.00  -0.00   0.00
  72   1    -0.00   0.00  -0.00     0.00  -0.00   0.00    -0.00   0.00  -0.00
  73   1    -0.00  -0.00  -0.00     0.00   0.00   0.00     0.00   0.00   0.00
  74   1     0.00  -0.00  -0.00    -0.00   0.00   0.00    -0.00  -0.00   0.00
  75   1    -0.00   0.00  -0.00     0.00   0.00  -0.00     0.00   0.00   0.00
  76   1    -0.00  -0.00   0.00     0.00   0.00   0.00    -0.00   0.00  -0.00
  77   1     0.01  -0.01  -0.01    -0.00   0.00   0.00    -0.00   0.00   0.00
  78   1    -0.02  -0.02  -0.01     0.00   0.00   0.00     0.00   0.00   0.00
  79   1     0.00   0.00   0.00     0.00   0.00   0.00     0.00   0.00   0.00
  80   1    -0.00   0.00   0.00    -0.00   0.00   0.00     0.00  -0.00  -0.00
  81   1     0.00   0.00  -0.00    -0.00  -0.00   0.00    -0.00  -0.00   0.00
  82   1     0.00  -0.00   0.00    -0.00   0.00  -0.00    -0.00   0.00  -0.00
  83   1    -0.00   0.00   0.00     0.00  -0.00  -0.00     0.00  -0.00  -0.00
  84   1    -0.00  -0.00  -0.00     0.00   0.00   0.00    -0.00  -0.00  -0.00
  85   1     0.00   0.00  -0.00    -0.00  -0.00   0.00    -0.00  -0.00   0.00
  86   1     0.00  -0.00   0.00    -0.00   0.00  -0.00    -0.00   0.00  -0.00
  87   1     0.00   0.00  -0.00    -0.00  -0.00   0.00    -0.00  -0.00   0.00
  88   1    -0.00   0.00   0.00     0.00  -0.00  -0.00     0.00  -0.00  -0.00
  89   1    -0.00  -0.00  -0.00     0.00   0.00   0.00    -0.00  -0.00  -0.00
  90   1     0.00   0.00   0.00    -0.00  -0.01  -0.00    -0.00  -0.00  -0.00
  91   1    -0.00   0.00   0.00     0.02  -0.01  -0.01     0.00  -0.00  -0.00
  92   1     0.01  -0.01  -0.01     0.61  -0.51  -0.53    -0.00   0.00   0.00
  93   1     0.07  -0.01   0.01    -0.00   0.00  -0.00    -0.02   0.00  -0.00
  94   1     0.01  -0.03   0.01    -0.00   0.00  -0.00    -0.04   0.09  -0.03
  95   1    -0.00  -0.01   0.00     0.00   0.00  -0.00     0.10   0.14  -0.04
  96   1     0.01  -0.00   0.00     0.00  -0.00   0.00     0.93  -0.05   0.09
  97   1     0.00   0.00   0.00    -0.00  -0.00  -0.00    -0.02  -0.00  -0.02
  98   1    -0.00  -0.00   0.00     0.00   0.00  -0.00     0.00   0.00  -0.01
  99   1    -0.01  -0.00   0.00     0.00   0.00  -0.00     0.01   0.00  -0.00
 100   1    -0.00  -0.00  -0.00     0.00   0.00   0.00     0.00   0.00   0.00
 101   1     0.00   0.00  -0.00    -0.00  -0.00   0.00    -0.00  -0.00   0.00
 102   1     0.01  -0.00  -0.01     0.01  -0.00  -0.01     0.00  -0.00  -0.00
 103   1    -0.00  -0.01  -0.00     0.00   0.00   0.00    -0.00  -0.00  -0.00
 104   1    -0.01  -0.00   0.00     0.02   0.01  -0.00    -0.01  -0.00   0.00
 105   1     0.00  -0.00  -0.00     0.01  -0.01  -0.02    -0.00   0.00   0.00
 106   1    -0.01  -0.01  -0.01    -0.01  -0.02  -0.01     0.00   0.00   0.00
 107   1    -0.01   0.00   0.00     0.03  -0.00  -0.00    -0.02   0.00   0.00
 108   1     0.00   0.00  -0.00     0.00   0.00  -0.00    -0.00  -0.00   0.00
 109   1    -0.00   0.00  -0.00     0.00  -0.00   0.00     0.00  -0.00   0.00
 110   1    -0.00   0.00   0.00     0.00  -0.00  -0.00     0.00  -0.00  -0.00
 111   1     0.00  -0.00   0.00    -0.00   0.00  -0.00    -0.00   0.00  -0.00
 112   1    -0.00  -0.00   0.01     0.00   0.00  -0.00     0.00   0.00  -0.01
 113   1    -0.01  -0.00   0.00     0.00   0.00  -0.00     0.01   0.00  -0.00
 114   1    -0.00   0.00  -0.00     0.00  -0.00   0.00     0.00  -0.00   0.00
 115   1     0.00   0.00  -0.00    -0.00  -0.00   0.00    -0.00  -0.00   0.00
 116   1    -0.31  -0.73  -0.53     0.01   0.01   0.01     0.00   0.00   0.00
                    340                    341                    342
                        a                      a                      a 
 Frequencies --  3114.5280              3137.6791              3145.5319
 Red. masses --     1.8448                 1.8146                 1.7890
 Frc consts  --     0.0000                 0.0000                 0.0000
 IR Inten    --   147.7425                 8.1943               111.5705
 Raman Activ --     0.0000                 0.0000                 0.0000
 Depolar     --     0.0000                 0.0000                 0.0000
 Atom AN      X      Y      Z        X      Y      Z        X      Y      Z
   1   6     0.00  -0.00  -0.00     0.00   0.00   0.00     0.00   0.00   0.00
   2   6     0.00  -0.00  -0.00     0.00   0.00   0.00     0.00   0.00   0.00
   3   6     0.00  -0.00  -0.00     0.00   0.00   0.00     0.00   0.00   0.00
   4   6     0.00   0.00  -0.00    -0.00   0.00   0.00    -0.00   0.00   0.00
   5   6     0.00  -0.00  -0.00     0.01   0.00   0.00     0.01   0.00   0.00
   6   6     0.00  -0.00  -0.00    -0.00  -0.00  -0.00    -0.00  -0.00  -0.00
   7   6    -0.00  -0.00  -0.00    -0.00  -0.00  -0.00     0.00   0.00  -0.00
   8   6     0.00  -0.00  -0.00    -0.00  -0.00  -0.00    -0.00  -0.00  -0.00
   9   6    -0.00   0.00   0.00     0.00   0.00   0.00    -0.00   0.00   0.00
  10   6    -0.00  -0.00  -0.00     0.08   0.14   0.09     0.09   0.14   0.10
  11   5     0.00   0.00   0.00    -0.00   0.00   0.00    -0.00  -0.00   0.00
  12   6    -0.00  -0.00  -0.00    -0.00   0.00   0.00     0.00  -0.00  -0.00
  13   6    -0.00   0.00   0.00    -0.14   0.08   0.12     0.13  -0.07  -0.11
  14   6     0.00   0.00   0.00    -0.01  -0.00   0.00     0.01   0.00  -0.00
  15   6     0.00   0.00   0.00    -0.00   0.00   0.00     0.00  -0.00  -0.00
  16   6    -0.00   0.00   0.00    -0.00   0.00   0.00     0.00  -0.00  -0.00
  17   6     0.00   0.00  -0.00     0.00   0.00   0.00    -0.00  -0.00  -0.00
  18   6    -0.00   0.00   0.00    -0.00   0.00   0.00     0.00  -0.00  -0.00
  19   6     0.00   0.00   0.00     0.00  -0.00  -0.00    -0.00   0.00   0.00
  20   6    -0.00   0.00   0.00     0.00  -0.00  -0.00     0.00   0.00  -0.00
  21   6     0.00   0.00   0.00     0.00  -0.00  -0.00    -0.00   0.00   0.00
  22   8    -0.00   0.00   0.00    -0.00  -0.00  -0.00     0.00  -0.00  -0.00
  23   6    -0.00   0.00   0.00     0.00   0.00   0.00    -0.00   0.00   0.00
  24   6    -0.01   0.00   0.00    -0.00   0.00   0.00    -0.00   0.00   0.00
  25   6    -0.00  -0.00   0.00    -0.00   0.00   0.00    -0.00   0.00  -0.00
  26   7    -0.00  -0.00   0.00    -0.00  -0.00  -0.00     0.00   0.00  -0.00
  27   6     0.00   0.00   0.00    -0.00  -0.00   0.00     0.00  -0.00   0.00
  28   6     0.00  -0.00   0.00    -0.00   0.00  -0.00     0.00   0.00  -0.00
  29   6    -0.00   0.00  -0.00    -0.00   0.00  -0.00     0.00  -0.00   0.00
  30   6     0.00   0.00  -0.00     0.00   0.00  -0.00    -0.00  -0.00   0.00
  31   6     0.01  -0.00   0.00     0.00  -0.00   0.00    -0.00  -0.00  -0.00
  32   6    -0.00  -0.00   0.00     0.00  -0.00   0.00    -0.00   0.00  -0.00
  33   6    -0.00   0.00  -0.00     0.00  -0.00  -0.00     0.00  -0.00   0.00
  34   6    -0.00  -0.00   0.00    -0.00  -0.00   0.00    -0.00   0.00  -0.00
  35   6     0.00   0.00  -0.00     0.00   0.00  -0.00     0.00   0.00  -0.00
  36   6    -0.00  -0.00  -0.00     0.00  -0.00   0.00     0.00  -0.00   0.00
  37   6    -0.00  -0.00   0.00    -0.00  -0.00   0.00    -0.00  -0.00   0.00
  38   6    -0.00  -0.00   0.00     0.00   0.00  -0.00    -0.00  -0.00   0.00
  39   6    -0.00   0.00  -0.00     0.00   0.00   0.00    -0.00   0.00  -0.00
  40   6    -0.00   0.00  -0.00    -0.00  -0.00   0.00    -0.00   0.00  -0.00
  41   6     0.00   0.00  -0.00    -0.00   0.00  -0.00     0.00   0.00  -0.00
  42   6    -0.00  -0.00   0.00    -0.00  -0.00  -0.00    -0.00   0.00  -0.00
  43   6    -0.00   0.00  -0.00     0.00  -0.00  -0.00     0.00  -0.00   0.00
  44   6    -0.00  -0.00   0.00     0.00  -0.00  -0.00    -0.00  -0.00   0.00
  45   6    -0.00   0.00   0.01    -0.00   0.00   0.00     0.00  -0.00  -0.00
  46   6     0.00   0.00   0.00     0.00   0.00   0.00    -0.00  -0.00  -0.00
  47   6     0.00   0.00  -0.00     0.00   0.00  -0.00    -0.00  -0.00   0.00
  48   6     0.00  -0.00  -0.00    -0.00   0.00   0.00    -0.00   0.00   0.00
  49   6    -0.00  -0.00  -0.00     0.00   0.00   0.00     0.00   0.00   0.00
  50   6     0.00   0.00  -0.00     0.00  -0.00   0.00    -0.00  -0.00   0.00
  51   6     0.00  -0.01   0.00    -0.00   0.00  -0.00     0.00  -0.00   0.00
  52   6     0.26  -0.04  -0.03    -0.00   0.00   0.00     0.00  -0.00  -0.00
  53   6     0.03   0.04  -0.02     0.00   0.00  -0.00     0.00   0.00  -0.00
  54   6    -0.01   0.02  -0.01    -0.00   0.00  -0.00    -0.00   0.00  -0.00
  55   6    -0.00   0.00   0.00    -0.00   0.00   0.00    -0.00  -0.00   0.00
  56   6    -0.00   0.00  -0.00     0.00   0.00   0.00    -0.00   0.00  -0.00
  57   7     0.00  -0.00   0.00     0.00  -0.00   0.00     0.00  -0.00   0.00
  58   6    -0.00   0.00   0.00     0.00   0.00   0.00    -0.00  -0.00   0.00
  59   6    -0.00   0.00  -0.00     0.00  -0.00   0.00     0.00   0.00   0.00
  60   6    -0.00  -0.00   0.00    -0.00  -0.00   0.00    -0.00  -0.00   0.00
  61   6    -0.00  -0.00   0.00    -0.00   0.00   0.00    -0.00  -0.00   0.00
  62   6    -0.00   0.00  -0.00     0.00  -0.00   0.00    -0.00   0.00  -0.00
  63   6     0.00  -0.00   0.00    -0.00  -0.00   0.00     0.00   0.00  -0.00
  64   6    -0.00  -0.00  -0.00     0.00   0.00   0.00    -0.00  -0.00  -0.00
  65   6    -0.00  -0.00  -0.00    -0.00   0.00   0.00    -0.00  -0.00  -0.00
  66   6     0.00  -0.00  -0.00    -0.00  -0.00  -0.00     0.00   0.00   0.00
  67   8    -0.00  -0.00  -0.00     0.00   0.00  -0.00     0.00   0.00   0.00
  68   1    -0.00  -0.00   0.00     0.00   0.00  -0.00     0.00   0.00  -0.00
  69   1    -0.00  -0.00   0.00    -0.00  -0.00   0.00     0.00  -0.00   0.00
  70   1     0.00   0.00   0.00    -0.00  -0.00  -0.00    -0.00  -0.00  -0.00
  71   1    -0.00  -0.00   0.00    -0.00   0.00  -0.00    -0.00   0.00  -0.00
  72   1     0.00  -0.00   0.00     0.00  -0.00   0.00     0.00  -0.00   0.00
  73   1     0.00   0.00   0.00    -0.00  -0.00  -0.00    -0.00  -0.00  -0.00
  74   1    -0.00   0.00   0.00     0.00  -0.00  -0.00     0.00  -0.00  -0.00
  75   1    -0.00   0.00   0.00     0.00  -0.00  -0.01     0.00  -0.00  -0.01
  76   1     0.00  -0.00   0.00     0.00  -0.01   0.00     0.01  -0.01   0.00
  77   1    -0.00   0.00   0.00    -0.00   0.01   0.00    -0.00   0.00   0.00
  78   1     0.00   0.00   0.00     0.00   0.00   0.00    -0.00  -0.00  -0.00
  79   1     0.00   0.00   0.00    -0.31  -0.48  -0.32    -0.33  -0.52  -0.34
  80   1     0.00  -0.00  -0.00     0.51  -0.26  -0.41    -0.47   0.24   0.38
  81   1    -0.00  -0.00   0.00     0.00   0.00  -0.00    -0.00  -0.00   0.00
  82   1     0.00  -0.00   0.00     0.00  -0.00   0.00    -0.00   0.00  -0.00
  83   1     0.00  -0.00  -0.00     0.00  -0.00  -0.00    -0.00   0.00   0.00
  84   1     0.00   0.00   0.00    -0.01  -0.00  -0.01     0.00   0.00   0.01
  85   1    -0.00  -0.00   0.00    -0.00  -0.00   0.00     0.00   0.00   0.00
  86   1     0.00  -0.00   0.00     0.00  -0.01   0.00    -0.00   0.01  -0.00
  87   1    -0.00  -0.00   0.00     0.00   0.00   0.00     0.00   0.00  -0.00
  88   1     0.00  -0.00  -0.00     0.00  -0.00  -0.00    -0.00   0.00   0.00
  89   1     0.00   0.00   0.00    -0.00  -0.00  -0.00     0.00  -0.00   0.00
  90   1    -0.00  -0.01  -0.00     0.00   0.01   0.00     0.00  -0.00  -0.00
  91   1     0.01  -0.00  -0.00    -0.00   0.00   0.00    -0.00   0.00   0.00
  92   1     0.02  -0.01  -0.02     0.00  -0.00  -0.00     0.00  -0.00  -0.00
  93   1     0.00   0.00   0.00     0.00  -0.00   0.00    -0.00   0.00  -0.00
  94   1     0.00  -0.00   0.00     0.00  -0.00   0.00    -0.00   0.00  -0.00
  95   1    -0.00  -0.00   0.00    -0.00  -0.00   0.00     0.00   0.00  -0.00
  96   1    -0.02   0.00  -0.00    -0.00   0.00  -0.00     0.00  -0.00   0.00
  97   1     0.00   0.00   0.00    -0.00  -0.00  -0.00    -0.00  -0.00  -0.00
  98   1     0.00   0.00  -0.00     0.00   0.00  -0.00     0.00   0.00  -0.00
  99   1     0.00   0.00  -0.00    -0.00  -0.00   0.00     0.00   0.00  -0.00
 100   1     0.00   0.00   0.00    -0.00  -0.00  -0.00     0.00   0.00   0.00
 101   1    -0.00  -0.00  -0.00     0.00   0.00  -0.00    -0.00  -0.00   0.00
 102   1     0.02  -0.01  -0.02     0.00  -0.00  -0.00    -0.00   0.00   0.00
 103   1    -0.00  -0.01  -0.00    -0.00  -0.00  -0.00     0.00   0.00   0.00
 104   1    -0.00  -0.00   0.00    -0.00  -0.00   0.00     0.00   0.00  -0.00
 105   1    -0.00   0.00   0.00     0.00  -0.00  -0.00     0.00  -0.00  -0.00
 106   1     0.00   0.00   0.00    -0.00  -0.00  -0.00    -0.00  -0.00  -0.00
 107   1    -0.93   0.13   0.09     0.00  -0.00  -0.00    -0.00   0.00   0.00
 108   1    -0.10  -0.12   0.07    -0.00  -0.00   0.00    -0.00  -0.00   0.00
 109   1     0.03  -0.07   0.02     0.00  -0.00   0.00     0.00  -0.00   0.00
 110   1     0.01  -0.00  -0.00     0.00  -0.00   0.00     0.00  -0.00  -0.00
 111   1     0.00  -0.00   0.00    -0.00   0.00  -0.00    -0.00  -0.00  -0.00
 112   1     0.00   0.00  -0.00     0.00   0.00  -0.00     0.00   0.00  -0.00
 113   1     0.00   0.00  -0.00     0.00   0.00  -0.00     0.00   0.00  -0.00
 114   1     0.00  -0.00   0.00    -0.00   0.00  -0.00     0.00  -0.00   0.00
 115   1     0.00   0.00  -0.00     0.00   0.00  -0.00    -0.00  -0.00   0.00
 116   1     0.00   0.01   0.01    -0.00  -0.00  -0.00     0.00   0.00   0.00
