$hessian                                                                        
        0.5254459348   0.1322533623  -0.1901787043  -0.2187752264   0.0467062891
        0.1381923908  -0.0531196745  -0.0449413991   0.0110498528  -0.0071737317
        0.0201999073   0.0123877817   0.0004391580  -0.0038737360  -0.0005301712
       -0.0003153373   0.0021144448   0.0002292366   0.0010118100  -0.0009894899
        0.0004687636   0.0002171430   0.0007399663  -0.0002813138   0.0003089605
       -0.0005536689   0.0000459755  -0.0003934257   0.0008669923  -0.0002051106
       -0.0002628944  -0.0004962668   0.0000784918   0.0009872398   0.0011196952
       -0.0004204717   0.0007359811  -0.0020236176   0.0000645776  -0.0034636466
        0.0015628745  -0.0002811076   0.0040590344   0.0001738556  -0.0001046934
       -0.0019215486   0.0017739985  -0.0000132749   0.0014128510   0.0008635090
       -0.0000419843  -0.0008220679   0.0001125127   0.0001757179   0.0014412367
       -0.0009878326  -0.0000274867  -0.0019685394  -0.0016565512   0.0001305734
        0.0000400820  -0.0000051268  -0.0000375520   0.0003372674   0.0002226183
       -0.0000043248  -0.0006157569  -0.0000903734   0.0000329837   0.0002300602
       -0.0005445514  -0.0000177485  -0.0000491700   0.0003721565   0.0000243519
       -0.0000288731  -0.0000114495  -0.0001345192  -0.0004891669   0.0002996319
       -0.0000112650   0.0007224042  -0.0008140714  -0.0000379942  -0.0001477973
        0.0006444272   0.0003334347   0.0004923473  -0.0002370326   0.0001326596
       -0.0002859903   0.0002825751   0.0000436885   0.0002269860  -0.0004536024
       -0.0002429234  -0.0006775068   0.0001939359  -0.0002046339   0.0004352109
        0.0001668022   0.0001145464  -0.0002053432   0.0001463490  -0.0002788550
       -0.0025479070  -0.0004252712   0.0001666632   0.0186940733  -0.0065157894
       -0.0160544917  -0.0826750463  -0.0257635369   0.0081415630  -0.1739420428
       -0.1312260469   0.0150022569  -0.0026327307   0.0016828832   0.0024926399
       -0.0004657632  -0.0049118457   0.0026825698   0.0001428656  -0.0002020975
        0.0000629090   0.0000498412  -0.0000523973   0.0000096246  -0.0000277137
       -0.0000572308   0.0000217445  -0.0000489689   0.0000051633   0.0000415692
        0.0000187927   0.0000395699   0.0000641447  -0.0000247788   0.0000534622
       -0.0000203335  -0.0000256120   0.0000567865  -0.0000039695   0.0000156463
       -0.0000477943  -0.0000509417   0.0000495619   0.0000063345  -0.0000123401
       -0.0000052268  -0.0000211404  -0.0000001270  -0.0000377920  -0.0000181665
        0.0000010268  -0.0000321772   0.0000145907  -0.0000037455   0.0000137523
        0.0000043589  -0.0000076774   0.0000048321   0.0000088774   0.0000209701
       -0.0000101974   0.0000133712   0.0000066684  -0.0000135508   0.0000064219
       -0.0000201354  -0.0000011779  -0.0000058412  -0.0000243501  -0.0000898014
        0.0000258023   0.0000779223  -0.0001405637  -0.0000049937   0.0000397812
       -0.0008201232  -0.0053396812   0.0027899820  -0.0032762018   0.0195370774
        0.0141251843
        0.1322533623   0.5460794182   0.1690260136  -0.0136944504  -0.0882797015
       -0.0152782438  -0.0002298750   0.0249761088   0.0150000226   0.0198562009
       -0.0104535935  -0.0164297888   0.0002624647  -0.0034406486   0.0020899792
       -0.0000957697   0.0017298863   0.0002848083   0.0007243590  -0.0012620344
        0.0000395364   0.0002639614   0.0009503262   0.0000061094   0.0000946987
       -0.0005232982   0.0001353999  -0.0002933298   0.0007518202  -0.0001655016
       -0.0000813870  -0.0004511046   0.0001410121   0.0005927121   0.0008710174
       -0.0004797711   0.0007977514  -0.0016725673   0.0000678358  -0.0033371885
        0.0011944274  -0.0001535809   0.0038997283   0.0002186448   0.0001478942
       -0.0018032313   0.0016510287  -0.0000033158   0.0013142346   0.0008116921
       -0.0000565376  -0.0007366915   0.0000873740   0.0001660720   0.0013564562
       -0.0008835098  -0.0000805283  -0.0018581586  -0.0016108101   0.0000947081
        0.0000304944  -0.0000288230  -0.0000367063   0.0003185077   0.0002149079
        0.0000061501  -0.0005657480  -0.0000912988   0.0000389539   0.0002046760
       -0.0004970635  -0.0000113753  -0.0000519210   0.0003339409   0.0000264984
       -0.0000278107  -0.0000088272  -0.0001200242  -0.0004874948   0.0002742784
       -0.0000090228   0.0006657250  -0.0007490359  -0.0000386135  -0.0001348110
        0.0005925730   0.0003006401   0.0004450593  -0.0002111981   0.0001163059
       -0.0002606608   0.0002580605   0.0000339317   0.0002018507  -0.0004123886
       -0.0002264320  -0.0006217395   0.0001711049  -0.0001952386   0.0004150073
        0.0002483883  -0.0002932249  -0.0002219042  -0.0001399002  -0.0000624409
       -0.0019314588   0.0000294735  -0.0001113779  -0.0516929839  -0.0547782556
       -0.0016601566   0.0348197009  -0.2384127086  -0.1352166340  -0.1312332861
       -0.1661042935   0.0066765585   0.0195533144  -0.0055363575  -0.0163021604
       -0.0053289470  -0.0008292887  -0.0019150718  -0.0000337133  -0.0000433832
        0.0000074139   0.0000231666  -0.0000473303   0.0000127687  -0.0000368883
       -0.0000638330  -0.0000538713  -0.0000508519  -0.0000023044   0.0000138659
        0.0000192566   0.0000529129   0.0001015500  -0.0000254251   0.0000610894
       -0.0000112656  -0.0000215348   0.0000516775  -0.0000089354   0.0000119033
       -0.0000382706  -0.0000443247   0.0000444003   0.0000075083  -0.0000048208
       -0.0000071136  -0.0000118973   0.0000071547  -0.0000318709  -0.0000130825
        0.0000070353  -0.0000261829   0.0000110641   0.0000020728   0.0000109483
        0.0000059723  -0.0000093635   0.0000045910   0.0000093602   0.0000120524
       -0.0000071442   0.0000090902   0.0000007237  -0.0000079457   0.0000023862
       -0.0000187190  -0.0000006136  -0.0000042738  -0.0000199088  -0.0000642273
        0.0000291960   0.0000153828  -0.0000702589   0.0001879724  -0.0000633951
       -0.0049758668  -0.0004469086  -0.0018892265   0.0018639532  -0.0048247101
       -0.0036088725
       -0.1901787043   0.1690260136   0.3323518815   0.1018204815  -0.0550139532
       -0.1447970765   0.0356768830   0.0432890845   0.0028472395   0.0120975876
       -0.0152950292  -0.0236161968  -0.0003054469   0.0006578384   0.0013230565
        0.0001835995  -0.0003574871  -0.0000053437  -0.0001853177  -0.0001680656
       -0.0002146005  -0.0000156056   0.0000749491   0.0001989351  -0.0001518565
        0.0000385311   0.0000326070   0.0000935741  -0.0001270639   0.0000355167
        0.0001315891   0.0000888353   0.0000273413  -0.0003182887  -0.0002296142
        0.0000043362   0.0000038747   0.0003205759  -0.0000034034   0.0002672742
       -0.0003267748   0.0000806979  -0.0003322608   0.0000487021   0.0001662322
        0.0001798289  -0.0001973681   0.0000045198  -0.0001299851  -0.0000778568
        0.0000048874   0.0000903878  -0.0000501907  -0.0000181061  -0.0001539284
        0.0001446758  -0.0000212825   0.0001861178   0.0001125445  -0.0000320632
       -0.0000031179  -0.0000097624  -0.0000179479  -0.0000346762  -0.0000215337
        0.0000077282   0.0000765837   0.0000055664  -0.0000152167  -0.0000380705
        0.0000661543   0.0000064373   0.0000039806  -0.0000430748  -0.0000173852
       -0.0000079575   0.0000070572   0.0000189020   0.0000520229  -0.0000339385
        0.0000002152  -0.0000793507   0.0000941204  -0.0000043971   0.0000143146
       -0.0000816585  -0.0000342876  -0.0000588097   0.0000286165  -0.0000113866
        0.0000299350  -0.0000371658   0.0000097537  -0.0000292352   0.0000589459
        0.0000323223   0.0000776497  -0.0000260005   0.0000315794  -0.0000258536
        0.0000837877  -0.0002466897   0.0000651648  -0.0002211200   0.0002371734
        0.0005216193   0.0002819584  -0.0001518447  -0.0420195877  -0.0292796240
        0.0107495749   0.0444696964  -0.0948009424  -0.1303582863   0.0148927147
        0.0066993462  -0.0381081990   0.0139124494  -0.0049189073  -0.0101784530
        0.0024999477  -0.0021083912   0.0051847662  -0.0001832692   0.0000330520
       -0.0000468254  -0.0000187995  -0.0000007699  -0.0000097804  -0.0000063220
       -0.0000095301  -0.0000672955   0.0000013391  -0.0000076138  -0.0000306871
       -0.0000027964   0.0000031042   0.0000073031   0.0000019260   0.0000024348
        0.0000144350   0.0000069873  -0.0000063318   0.0000081818  -0.0000051047
        0.0000095171   0.0000000487  -0.0000077648   0.0000008858  -0.0000065260
        0.0000003504   0.0000066486  -0.0000115779   0.0000057992   0.0000050327
       -0.0000082957   0.0000043488  -0.0000010659   0.0000006415  -0.0000003405
       -0.0000016558   0.0000051790  -0.0000000410  -0.0000074557   0.0000058870
        0.0000031947  -0.0000042450   0.0000092397   0.0000060347   0.0000018646
        0.0000087457   0.0000004694   0.0000068384   0.0000019567   0.0000241915
        0.0000031420  -0.0000315362   0.0001281381   0.0001837593  -0.0000675504
        0.0029206583  -0.0017001487   0.0050684217   0.0038417763  -0.0162192436
       -0.0103535025
       -0.2187752264  -0.0136944504   0.1018204815   0.5110533853   0.1174808460
       -0.1882600435  -0.2065910088  -0.1024127483   0.0429678756   0.0133789256
       -0.0504253826  -0.0387930535   0.0026610767   0.0070300209   0.0030020617
        0.0003784695  -0.0040336329  -0.0000541316  -0.0019135109   0.0017325319
       -0.0006396200  -0.0003910317  -0.0014246671   0.0004781042  -0.0004742721
        0.0009707584  -0.0001139834   0.0006040551  -0.0015551417   0.0003217845
        0.0006575501   0.0009018450  -0.0002799626  -0.0014194426  -0.0016902203
        0.0007471107  -0.0011758279   0.0032323133  -0.0001053790   0.0056499509
       -0.0025941794   0.0004538933  -0.0066717607  -0.0003346554   0.0001088605
        0.0031834794  -0.0028850150   0.0000163857  -0.0023402556  -0.0014485939
        0.0000730385   0.0013874067  -0.0001629186  -0.0002901451  -0.0023396336
        0.0016298331   0.0000592985   0.0032344745   0.0027353190  -0.0002013808
       -0.0000727340  -0.0000130004   0.0000499016  -0.0005504229  -0.0003494724
        0.0000036116   0.0010171983   0.0001506661  -0.0000592423  -0.0003874680
        0.0009131151   0.0000295932   0.0000871313  -0.0006220038  -0.0000391784
        0.0000384488   0.0000298984   0.0002205736   0.0007706054  -0.0005066747
        0.0000212295  -0.0011852631   0.0013314238   0.0000577295   0.0002594377
       -0.0010859296  -0.0005615051  -0.0008189849   0.0003956275  -0.0002251116
        0.0004837205  -0.0004753146  -0.0000712751  -0.0003753748   0.0007580432
        0.0004112153   0.0011450217  -0.0003251663   0.0003579815  -0.0005621699
       -0.0000637439  -0.0001400563   0.0003643514  -0.0001366926   0.0003957634
        0.0040469800   0.0011910798  -0.0001941921  -0.0370872570  -0.0184677255
        0.0115281571   0.0116770943   0.0676018604   0.0335530663  -0.0193814402
        0.0012467130   0.0133769003  -0.0423917938   0.0130438417   0.0143891349
       -0.0195543152  -0.0162256552   0.0037101354  -0.0002930912   0.0002209742
       -0.0001427023  -0.0000703867   0.0000507427  -0.0000003044   0.0000501543
        0.0000917952  -0.0000454388   0.0001020253  -0.0000180310  -0.0000435659
       -0.0000218681  -0.0000508156  -0.0001450377   0.0000245504  -0.0001117001
        0.0000337633   0.0000401964  -0.0000946792   0.0000063501  -0.0000362789
        0.0000840687   0.0000845300  -0.0000755939  -0.0000040659   0.0000187029
        0.0000076697   0.0000433172  -0.0000005076   0.0000514344   0.0000319883
       -0.0000043488   0.0000409972  -0.0000311932   0.0000015546  -0.0000323471
        0.0000032824   0.0000035751  -0.0000058488  -0.0000204666  -0.0000426094
        0.0000224180  -0.0000269483  -0.0000083419   0.0000242972  -0.0000095074
        0.0000384492  -0.0000064987   0.0000150137   0.0000327735   0.0001150301
       -0.0000964627  -0.0001271091  -0.0001953716  -0.0002179358  -0.0000631689
       -0.0003795550  -0.0000981092  -0.0001940713   0.0030184980  -0.0012040195
        0.0024718798
        0.0467062891  -0.0882797015  -0.0550139532   0.1174808460   0.5627733303
        0.1882752800  -0.1628757272  -0.2002143120   0.0130229539  -0.0099379411
       -0.0526978926  -0.0241329863  -0.0003646522  -0.0002056201  -0.0044077362
       -0.0001850597  -0.0020738705  -0.0007861966  -0.0006117808   0.0008462068
       -0.0001926349  -0.0002196140  -0.0006455076   0.0002183504  -0.0000653573
        0.0003520750  -0.0000421575   0.0001343823  -0.0005689616   0.0002175990
        0.0002179952   0.0003414206   0.0001411822  -0.0008661241  -0.0008113408
        0.0005232561  -0.0002631194   0.0011193875  -0.0000143620   0.0017956227
       -0.0011119522   0.0001340437  -0.0020913623  -0.0000146761   0.0000139214
        0.0010457576  -0.0009437163  -0.0000130125  -0.0007229230  -0.0004050054
        0.0000239318   0.0003899768  -0.0001323517  -0.0000926971  -0.0007162446
        0.0005899613   0.0000277203   0.0010047023   0.0007714601  -0.0000419709
       -0.0000646762  -0.0000918955   0.0000028086  -0.0001533245  -0.0000787854
        0.0000008139   0.0003372547   0.0000324015  -0.0000205977  -0.0001539490
        0.0003240159   0.0000110818   0.0000122806  -0.0002202208  -0.0000057014
        0.0000057091  -0.0000181094   0.0000804330   0.0003371691  -0.0001588554
        0.0000069350  -0.0004468563   0.0005022948   0.0000199767   0.0001246801
       -0.0004156980  -0.0002132398  -0.0003184392   0.0001643064  -0.0000803614
        0.0001889323  -0.0001829646  -0.0000301770  -0.0001549085   0.0002952465
        0.0001544542   0.0004404091  -0.0001474511   0.0001313748  -0.0001146754
        0.0002766475  -0.0000252567   0.0004187504  -0.0000856037   0.0002034434
        0.0010418781   0.0001538348  -0.0000879536  -0.0134197377  -0.0044034760
        0.0095216229   0.0255314414   0.0043830692  -0.0143525688  -0.0170188337
        0.0019711515   0.0117506440   0.0135457548  -0.2214261764  -0.1195174122
        0.0012536669   0.0024876932  -0.0000029446  -0.0001650510  -0.0000134456
       -0.0001177979  -0.0000344636   0.0000310032  -0.0000018991   0.0000058782
        0.0000385851  -0.0000261578   0.0000418812  -0.0000065534  -0.0000446137
       -0.0000006092  -0.0000165954  -0.0000906396  -0.0000127141  -0.0000419640
        0.0000143076   0.0000263432  -0.0000416305   0.0000032937  -0.0000221265
        0.0000440086   0.0000268699  -0.0000278450   0.0000087495   0.0000097880
        0.0000006048   0.0000403745   0.0000041968   0.0000218804   0.0000235783
        0.0000001155   0.0000179333  -0.0000208916   0.0000005110  -0.0000221814
        0.0000100766  -0.0000018790   0.0000021152  -0.0000188860  -0.0000289421
        0.0000217398  -0.0000221602  -0.0000018987   0.0000233414  -0.0000050276
        0.0000253393  -0.0000074552   0.0000171531   0.0000121879   0.0000458201
       -0.0000202746  -0.0000131532  -0.0003046663   0.0000852223  -0.0001048055
       -0.0001882666   0.0004624558   0.0004935369  -0.0006703513  -0.0026041363
       -0.0055662664
        0.1381923908  -0.0152782438  -0.1447970765  -0.1882600435   0.1882752800
        0.3484031881   0.0099061453  -0.0256348654  -0.0658190941  -0.0167646656
        0.0020594485   0.0105019669   0.0047662714  -0.0074246196   0.0016839194
       -0.0012588910   0.0000385975   0.0002950215   0.0005490177  -0.0004747193
        0.0002879740   0.0001116899   0.0004184004  -0.0002190998   0.0002042048
       -0.0002827665   0.0000186835  -0.0003085770   0.0004495545  -0.0001153423
       -0.0000554033  -0.0006183172   0.0000870553   0.0007467408   0.0006441379
       -0.0003594574   0.0006060177  -0.0014285558   0.0000424073  -0.0026788347
        0.0010135594  -0.0001763680   0.0031104035   0.0002056393  -0.0000995726
       -0.0014502777   0.0013280772  -0.0000133758   0.0010920805   0.0006940648
       -0.0000243045  -0.0007092446   0.0000252590   0.0001284954   0.0011474454
       -0.0006910421  -0.0000093265  -0.0015537196  -0.0013303135   0.0000880166
       -0.0000115409  -0.0000812733  -0.0000401552   0.0002783541   0.0002066964
        0.0000124203  -0.0004708903  -0.0000808722   0.0000246028   0.0001575478
       -0.0004019789  -0.0000015356  -0.0000497222   0.0002769873   0.0000076437
       -0.0000225617  -0.0000291122  -0.0000930954  -0.0002568071   0.0002334006
       -0.0000085883   0.0004924306  -0.0005463964  -0.0000369342  -0.0000871335
        0.0004317950   0.0002203131   0.0003227331  -0.0001495810   0.0000868985
       -0.0001909750   0.0001816122   0.0000328474   0.0001465583  -0.0002960458
       -0.0001677656  -0.0004579324   0.0001068683  -0.0001361153   0.0003338016
        0.0002377922   0.0001298110  -0.0002169089   0.0000799834  -0.0002199177
       -0.0020720053   0.0002006895   0.0003682733   0.0138895983   0.0122561726
       -0.0066061158   0.0078287741  -0.0425763005  -0.0289945304   0.0028120526
        0.0000874291  -0.0012615159   0.0134521792  -0.1194587568  -0.1143835958
        0.0140064105   0.0119989129  -0.0017940722   0.0001208277  -0.0001224973
        0.0000442979   0.0000298438  -0.0000241495   0.0000024089  -0.0000245161
       -0.0000305374   0.0000300327  -0.0000430315  -0.0000226574   0.0000431945
        0.0000457248   0.0000334673   0.0000453108  -0.0000194243   0.0000403705
       -0.0000218903  -0.0000043016   0.0000346597  -0.0000039496   0.0000091514
       -0.0000301627  -0.0000334202   0.0000301704   0.0000067083  -0.0000048251
       -0.0000028697  -0.0000064126   0.0000046340  -0.0000187208  -0.0000067347
        0.0000034381  -0.0000168150   0.0000080473  -0.0000006081   0.0000065879
        0.0000089223  -0.0000051348   0.0000041386   0.0000008259   0.0000082996
       -0.0000019204   0.0000045175   0.0000018481  -0.0000004307   0.0000026663
       -0.0000127580   0.0000008042   0.0000003320  -0.0000213011  -0.0000233532
        0.0000315198   0.0000634421  -0.0000396819   0.0001231675   0.0000450689
       -0.0000295882   0.0004972353   0.0001584870   0.0027006909  -0.0052158858
        0.0026108414
       -0.0531196745  -0.0002298750   0.0356768830  -0.2065910088  -0.1628757272
        0.0099061453   0.5399682639   0.1298679395  -0.2082426974  -0.0781242815
        0.0365905801   0.0407045093  -0.0005733981  -0.0281324809  -0.0105995087
       -0.0029772539   0.0011763235  -0.0015935295   0.0007344091  -0.0005252257
        0.0001069787   0.0001283087   0.0004409007  -0.0000653218   0.0003323319
       -0.0003103733   0.0000476647  -0.0005527050   0.0007391392  -0.0000065129
       -0.0005527717  -0.0018027908   0.0006821290   0.0003078531   0.0005608569
       -0.0000135168   0.0004705662  -0.0007715325   0.0001135368  -0.0011562321
        0.0008518277  -0.0001046496   0.0011063433  -0.0001714731  -0.0001099091
       -0.0005214676   0.0004488429   0.0000035328   0.0002799772   0.0000472160
       -0.0000098014   0.0001875312   0.0002081976   0.0000495834   0.0001700780
       -0.0003796168   0.0000355122  -0.0003562504  -0.0001639635   0.0000503857
        0.0001606610   0.0002582334   0.0000093609  -0.0000245681  -0.0000691989
       -0.0000043683  -0.0001066900   0.0000247028   0.0000126803   0.0001050069
       -0.0001509249   0.0000010795   0.0000288000   0.0000903579  -0.0000017587
       -0.0000073205   0.0001173388  -0.0000564591  -0.0005682255  -0.0000053245
       -0.0000143114   0.0003598897  -0.0004118824  -0.0000154090  -0.0001504397
        0.0003266676   0.0001679932   0.0002706768  -0.0001509171   0.0000513176
       -0.0001528321   0.0001519037   0.0000269974   0.0001437125  -0.0002500972
       -0.0001119949  -0.0003444443   0.0001780478  -0.0000936923   0.0002881629
       -0.0001928980   0.0000159105  -0.0009655896  -0.0003488139  -0.0001845837
       -0.0001745464  -0.0014374827  -0.0006094802   0.0097951121   0.0248499122
        0.0082806419  -0.0073578936  -0.0210716473  -0.0108428457  -0.0018337722
       -0.0007615854   0.0055751466   0.0003807327  -0.0006938161  -0.0007148944
       -0.1965923960   0.0248304185   0.1272881809   0.0000862240  -0.0001041615
        0.0001234389   0.0000422356  -0.0000784206   0.0000096201  -0.0000056493
       -0.0000746145   0.0000078002  -0.0000680195  -0.0001256106   0.0000077256
       -0.0000279641  -0.0000194188   0.0000021091  -0.0000076456   0.0000571384
       -0.0000203691  -0.0000466104   0.0000465433  -0.0000002696   0.0000273848
       -0.0000622610  -0.0000318897   0.0000415551  -0.0000214778  -0.0000118748
       -0.0000026982  -0.0000520987  -0.0000054678  -0.0000347705  -0.0000314881
        0.0000006586  -0.0000255280   0.0000215810  -0.0000029849   0.0000225719
       -0.0000049109  -0.0000053305  -0.0000039576   0.0000284797   0.0000304239
       -0.0000262159   0.0000252686   0.0000024737  -0.0000336973   0.0000047492
       -0.0000262602   0.0000037072  -0.0000259532  -0.0000071820  -0.0000630511
        0.0000280409   0.0000157333  -0.0006484493   0.0001327254  -0.0004791302
       -0.0019962431  -0.0002868645   0.0055270935   0.0003521657  -0.0003090057
       -0.0005472427
       -0.0449413991   0.0249761088   0.0432890845  -0.1024127483  -0.2002143120
       -0.0256348654   0.1298679395   0.5243146346   0.1623382266  -0.0031560716
       -0.2073673675  -0.0921979515  -0.0153123775  -0.0486689450  -0.0095518694
       -0.0039834845   0.0065996370  -0.0012057480   0.0024681424  -0.0031027271
        0.0007598539   0.0008748669   0.0028819875  -0.0005086343   0.0001755604
       -0.0014801626   0.0002370948  -0.0009611585   0.0024096379  -0.0004206954
       -0.0013413000  -0.0028462197   0.0008705209   0.0029628012   0.0027435369
       -0.0011033802   0.0012609498  -0.0045291249   0.0002352575  -0.0074927732
        0.0040104599  -0.0006827508   0.0092885836   0.0006988689   0.0000879429
       -0.0045202012   0.0041485814  -0.0000038316   0.0034064024   0.0022317573
       -0.0001260359  -0.0023711012   0.0001590306   0.0004150817   0.0034159078
       -0.0023648300  -0.0001789994  -0.0045931797  -0.0040791230   0.0002545568
        0.0000483693  -0.0000287731  -0.0000919867   0.0008547773   0.0004990609
       -0.0000022529  -0.0014968085  -0.0002208461   0.0000967966   0.0005478707
       -0.0013986743  -0.0000538599  -0.0001057573   0.0009864427   0.0000666895
       -0.0000898586  -0.0002002202  -0.0002985625  -0.0007261800   0.0008577324
       -0.0000148080   0.0016386755  -0.0018368246  -0.0000875890  -0.0003216531
        0.0015156855   0.0007794274   0.0011384509  -0.0005442421   0.0003174908
       -0.0006658173   0.0006572631   0.0000903346   0.0005112222  -0.0010504517
       -0.0005851116  -0.0015917753   0.0004118892  -0.0005082416   0.0004686652
       -0.0003985701  -0.0001903545  -0.0002909994  -0.0001037190  -0.0005008410
       -0.0024959010  -0.0022008205  -0.0010652154   0.0508154625   0.0034418944
       -0.0355586717  -0.0160373431  -0.0371937824  -0.0094812142  -0.0005374664
        0.0019464160  -0.0024997207  -0.0185435833  -0.0210326185  -0.0009383770
        0.0252846607  -0.0465114894  -0.0251315607   0.0006020227  -0.0002787829
        0.0001206832   0.0001170853  -0.0001099890   0.0000246512  -0.0000555045
       -0.0001703172  -0.0000036970  -0.0001290910  -0.0001222235   0.0000824846
        0.0000511249   0.0001482502   0.0002865120  -0.0000710036   0.0001193404
       -0.0000234946  -0.0000445040   0.0001046182  -0.0000146159   0.0000329535
       -0.0000588473  -0.0001059898   0.0000790517   0.0000163815  -0.0000183654
       -0.0000153713  -0.0000425298   0.0000095613  -0.0000617538  -0.0000377946
        0.0000082632  -0.0000515923   0.0000374803   0.0000023874   0.0000273713
       -0.0000036378  -0.0000081501   0.0000160955   0.0000220203   0.0000406678
       -0.0000307004   0.0000352294   0.0000109632  -0.0000261341   0.0000056622
       -0.0000531115  -0.0000030847  -0.0000094802  -0.0000490193  -0.0001547187
        0.0000913955   0.0001550752  -0.0002492298   0.0005645742  -0.0001519354
       -0.0008862172   0.0021439413  -0.0019737157  -0.0001871697  -0.0005720719
        0.0004456161
        0.0110498528   0.0150000226   0.0028472395   0.0429678756   0.0130229539
       -0.0658190941  -0.2082426974   0.1623382266   0.3460897979   0.0114336084
       -0.1240363182  -0.1255340177  -0.0030413516  -0.0051741257   0.0024981221
        0.0003799910   0.0023971668   0.0009820572   0.0007171760  -0.0004393106
        0.0001219975   0.0000460578   0.0002781220  -0.0001118627   0.0003499705
       -0.0003229919   0.0000783437  -0.0002818745   0.0005609757  -0.0002277939
       -0.0001250204  -0.0002748954   0.0000232732   0.0007646758   0.0005454937
       -0.0003616852   0.0003581793  -0.0009043206  -0.0000562931  -0.0022357753
        0.0004786248   0.0000762336   0.0025942049   0.0001247670   0.0000780137
       -0.0012271802   0.0011433048   0.0000006185   0.0009196882   0.0005702294
       -0.0000212448  -0.0005551335   0.0000009000   0.0001067559   0.0009120455
       -0.0005758211  -0.0000357796  -0.0012868478  -0.0011476176   0.0000190425
        0.0000026459  -0.0000602252  -0.0000414726   0.0002170836   0.0001644377
        0.0000026133  -0.0003879217  -0.0000682969   0.0000139711   0.0001263385
       -0.0003241575  -0.0000073354  -0.0000398175   0.0002066774   0.0000053351
       -0.0000255270  -0.0000103788  -0.0000761361  -0.0002642434   0.0001753400
       -0.0000127752   0.0004266039  -0.0004763054  -0.0000247609  -0.0000807698
        0.0003634299   0.0001940198   0.0002773152  -0.0001315853   0.0000760028
       -0.0001633251   0.0001541748   0.0000305820   0.0001234319  -0.0002509696
       -0.0001340948  -0.0003871506   0.0000999146  -0.0001101287   0.0003621809
        0.0001562573  -0.0002461418  -0.0003392306  -0.0000192163  -0.0008565611
       -0.0017071338   0.0013416582   0.0000288506   0.0282839823  -0.0142721391
       -0.0275177208  -0.0084475512  -0.0069972068  -0.0033497536   0.0056847864
       -0.0025939155   0.0022042963  -0.0109526148  -0.0126044757   0.0005864695
        0.1274552872  -0.0251648190  -0.1342339195   0.0001921550  -0.0002170278
        0.0000437188   0.0000157188  -0.0000022506  -0.0000106556  -0.0000265440
       -0.0000402366  -0.0000160506  -0.0000020310   0.0000239128   0.0000180288
        0.0000307381   0.0000337617   0.0001058725  -0.0000070076   0.0000015850
        0.0000035000  -0.0000025263   0.0000237408   0.0000011381  -0.0000047171
       -0.0000053658  -0.0000245859   0.0000219988   0.0000133099  -0.0000098338
       -0.0000066489   0.0000029062  -0.0000036712  -0.0000213729  -0.0000044204
       -0.0000044405  -0.0000177732   0.0000068955  -0.0000022926   0.0000037945
        0.0000080899  -0.0000061903   0.0000112542  -0.0000038672   0.0000103152
       -0.0000012853   0.0000038102   0.0000156504  -0.0000004085   0.0000032260
       -0.0000028181  -0.0000087457   0.0000079281  -0.0000162201  -0.0000292192
       -0.0000438174   0.0000379827  -0.0006595059  -0.0003176654   0.0000221234
        0.0052867177  -0.0026943232   0.0020835523  -0.0004364070  -0.0000737767
        0.0004698122
       -0.0071737317   0.0198562009   0.0120975876   0.0133789256  -0.0099379411
       -0.0167646656  -0.0781242815  -0.0031560716   0.0114336084   0.5093598948
        0.0850637442  -0.1761921094  -0.1648791357  -0.0772482499   0.0098497582
        0.0065952670  -0.0174045753  -0.0024144719  -0.0026778810   0.0060066169
       -0.0013316185  -0.0015394926  -0.0042201122   0.0014626113   0.0007396743
        0.0017443612  -0.0001477631   0.0004814081  -0.0027249419   0.0008245499
        0.0022544352   0.0057190176  -0.0011036478  -0.0081660235  -0.0024342263
        0.0004249929  -0.0010216220   0.0030940390  -0.0001863603   0.0056830083
       -0.0051088746   0.0012757020  -0.0074536008  -0.0004985892   0.0001649878
        0.0039580003  -0.0037263798  -0.0000080604  -0.0030144604  -0.0020922411
        0.0000887409   0.0024194816  -0.0003824455  -0.0003761898  -0.0028242326
        0.0025708805   0.0001646287   0.0037658821   0.0033217434  -0.0003597083
       -0.0001730782  -0.0004025902   0.0000705038  -0.0007911476  -0.0001278698
        0.0000306199   0.0013707962   0.0001380842  -0.0000885091  -0.0005616252
        0.0015589229   0.0000710731   0.0000370811  -0.0012412809  -0.0000574470
        0.0001379631   0.0004339937   0.0002767244   0.0003816814  -0.0009593090
        0.0000001935  -0.0015171406   0.0016912503   0.0000822556   0.0003435622
       -0.0015504018  -0.0008331046  -0.0011847181   0.0005652612  -0.0003624347
        0.0007116016  -0.0007009906  -0.0001168478  -0.0005284832   0.0010951178
        0.0006201555   0.0016341075  -0.0004354011   0.0005487486   0.0002217305
        0.0016710381  -0.0005085785   0.0012601664  -0.0016168332   0.0005033905
       -0.0269245753  -0.0146952991   0.0049735056  -0.1891979916   0.0461105806
        0.1259569757  -0.0515834932  -0.0438288172   0.0073389509   0.0006687155
        0.0007755335   0.0004161232  -0.0001779272  -0.0051492926   0.0036016093
       -0.0039544864   0.0188533533   0.0147465921  -0.0003091043   0.0012351880
       -0.0007534829  -0.0002291227   0.0003570034  -0.0000580893   0.0000496652
        0.0002644345  -0.0002003514   0.0003258774   0.0003828765  -0.0001325770
       -0.0003189774  -0.0000264624  -0.0002333126   0.0000396510  -0.0001112912
        0.0000236265   0.0000472138  -0.0000851082   0.0000047343  -0.0000559315
        0.0001077985   0.0001089633  -0.0000750116   0.0000088216   0.0000363266
        0.0000016536   0.0000752417   0.0000123287   0.0000437125   0.0000466505
       -0.0000003637   0.0000346178  -0.0000468934   0.0000010064  -0.0000396042
        0.0000243403  -0.0000108224   0.0000023362  -0.0000257030  -0.0000706708
        0.0000418878  -0.0000410003  -0.0000070181   0.0000380895  -0.0000131516