102
 energy: -132.778723378403 gnorm: 0.000034089834 xtb: 6.7.1 (edcfbbe)
C            7.63151366658807        3.99650605565401       -1.97777877466504
C            7.23083000650828        3.70987642472870       -0.52741385359632
C            7.02512655217118        5.05437506292675        0.18633960460015
C            8.37515960682526        2.93463738949020        0.14289540384443
C            5.95361266750422        2.89000270243051       -0.42257657122263
C            5.44791615001611        2.56699727697086        0.83591815186333
C            4.29304755111618        1.82448769818218        0.98338538702147
C            3.60735022206774        1.37608227058434       -0.13844549006824
N            2.40900692141320        0.61217027766589       -0.00415763731708
C            2.51882839777647       -0.75353655148283        0.18393266181639
C            3.79232215586452       -1.32563890466119        0.30614897296899
C            3.94288505161333       -2.66288465960005        0.58090817391835
C            2.83779278037647       -3.49815888227783        0.76703769279595
C            3.05768188343950       -4.95718811983699        1.13975053157037
C            3.85651114321373       -5.64735122388482        0.02392136917744
C            1.74484968046931       -5.72285349284826        1.32790944111063
C            3.84325944407491       -5.02487559700057        2.45816235214657
C            1.58975078076757       -2.93256367732989        0.59226966252718
C            1.38178797604861       -1.58563969784587        0.26356871900590
B            0.00127302938080       -0.94239221590759        0.00845986462191
C           -1.37732276572167       -1.58874798895939       -0.24910892555681
C           -1.58123254340762       -2.93541912580849       -0.58134634971757
C           -2.82737725435167       -3.50314429900831       -0.76244831032788
C           -3.04274890125409       -4.96065763730975       -1.14344148517301
C           -3.80872113600916       -5.02079669570298       -2.47371358134588
C           -3.85814254050210       -5.65554233960360       -0.04264613734023
C           -1.72796303517798       -5.72670753603703       -1.31562808265785
C           -3.93501864773888       -2.67071020856449       -0.57873958786205
C           -3.78829420175253       -1.33382624127703       -0.30009095537980
C           -2.51647920836742       -0.75939572387220       -0.17142077765096
N           -2.41048419831375        0.60614007526850        0.02006157408749
C           -3.61139136476510        1.36750288565242        0.14613738783169
C           -4.11655120365042        1.66642222458397        1.40139828260232
C           -5.27634827078538        2.41265029184550        1.52805415113989
C           -5.96225502598343        2.87750433323888        0.41193061658054
C           -7.24089352931812        3.69640143702924        0.50656063335963
C           -7.66466364795651        3.96526550731348        1.95377264794997
C           -7.02306097895689        5.04933676333455       -0.18741048383661
C           -8.37486262587546        2.93034136913298       -0.19135579540628
C           -5.43989210416121        2.56524718138431       -0.84246076876120
C           -4.28287016065308        1.82440552142333       -0.98086185027225
C           -1.21529820812105        1.29447016531326        0.01806473067845
C           -1.20822146729418        2.69089207210748        0.03172611742783
C           -0.00412747302695        3.36718111447949        0.01551550744267
C            1.20161633814420        2.69395102846060       -0.00447613666814
C            1.21209691390420        1.29751896599105        0.00258865259383
C           -0.00069458732334        0.57608035394289        0.00957353755095
C            4.09620552413199        1.68533245124028       -1.39768718049284
C            5.25356457242631        2.43364879726294       -1.53341572421991
H            6.85752076061831        4.56039775990340       -2.49356973882321
H            7.82483634959526        3.07441269554845       -2.52121541034201
H            8.54370608371727        4.58974012800164       -1.99001334950877
H            6.19676784228735        5.59756707686286       -0.26459584423201
H            6.80763943920104        4.91608671427432        1.24172218961407
H            7.92317649746026        5.66261704916918        0.10165363443944
H            8.17028528672675        2.75582712823899        1.19490850570957
H            9.30272337744333        3.49811027126401        0.06710140846032
H            8.51495746636397        1.97219757975236       -0.34577696306084
H            5.95946779759333        2.89878995102507        1.72649182296794
H            3.91503480010998        1.58607811728082        1.96729569914793
H            4.67389280879667       -0.71075255380185        0.19934109041650
H            4.94530413791762       -3.05542868931197        0.67145351989702
H            4.82910182792432       -5.18191556766823       -0.11273013610070
H            4.01228227842419       -6.69681739617777        0.26684213255664
H            3.31475239963072       -5.58719603138029       -0.91832056872137
H            1.14096193956759       -5.27802759625444        2.11591101722315
H            1.96101651982026       -6.75224852228102        1.60864356782435
H            1.17133781863932       -5.74071115485831        0.40430029712500
H            3.98702419088152       -6.06133098914044        2.75792764285810
H            3.29819398701128       -4.50930438280098        3.24689262890439
H            4.82119290770621       -4.56083596722472        2.36106871123263
H            0.70996656250736       -3.53535139074453        0.73563546973006
H           -0.69966741435825       -3.53601713341678       -0.72288956588562
H           -3.95728550231051       -6.05570214492253       -2.77643937827418
H           -3.24690626594098       -4.50959040160873       -3.25349351561226
H           -4.78344084936681       -4.54722138914095       -2.39116000451349
H           -4.83440029564898       -5.19371791112786        0.07894885743304
H           -3.33222617970050       -5.59590684085048        0.90857276061695
H           -4.00667173758823       -6.70492233905702       -0.29042999012299
H           -1.11346846787897       -5.28111096221129       -2.09492231045073
H           -1.94099675889275       -6.75546895354200       -1.60103401599283
H           -1.16674871325838       -5.74628043202727       -0.38448625669992
H           -4.93623847568669       -3.06496545439823       -0.67489733179935
H           -4.67146330305679       -0.72076262283419       -0.19585727267955
H           -3.59604540479550        1.31328240939178        2.28001752350513
H           -5.63547686859988        2.62441303143346        2.52157189641193
H           -7.86419535685052        3.03639562093265        2.48325816153066
H           -6.90019363174728        4.52478559314607        2.48817252651338
H           -8.57829301073718        4.55638600151621        1.95867559491764
H           -7.92307437368606        5.65596917004310       -0.11256823464634
H           -6.20374703047482        5.58776994511654        0.28527002268009
H           -6.78551986533840        4.92336514183733       -1.24002291683578
H           -8.52254707692943        1.96180609533387        0.28273191513018
H           -8.15393112496316        2.76495536179190       -1.24229456570688
H           -9.30330574391427        3.49329419368427       -0.12273923641204
H           -5.93973180250008        2.90439900550948       -1.73690177700942
H           -3.89176493123087        1.59427839606499       -1.96162221922607
H           -2.13217654993839        3.24784786667437        0.04324214116006
H           -0.00547260512315        4.44845299344401        0.01837975602234
H            2.12429265542020        3.25310718320663       -0.01342166804009
H            3.56467175644061        1.33868204860286       -2.27228726199504
H            5.59959500506696        2.65361432978736       -2.52978829539830
