53
 energy: -91.532713774440 gnorm: 0.000037391995 xtb: 6.7.1 (edcfbbe)
O            4.04705291655903        1.43799020778762        1.68790388191583
C            3.24789409612912        0.82126198916621        1.01593525772959
C            1.78985301190602        0.94150465743204        1.19416558434961
C            1.29467147743580        1.76264244135941        2.18558417497814
C           -0.08310183807144        1.88029366830463        2.37872795501934
C           -0.95994676071660        1.20530045744466        1.56884974988860
C           -0.49198979712466        0.37490016052293        0.53026313290688
C           -1.35963319541633       -0.35168129028036       -0.33344267723006
N           -2.75175083647500       -0.19970558300054       -0.21566921441417
C           -3.35955461436028        1.01893370013203       -0.54213906822365
C           -2.63235253921108        2.10535308945443       -1.01245855249995
C           -3.26277706333144        3.30142539575023       -1.31707214641561
C           -4.63029725656885        3.42607474905074       -1.17300439608082
C           -5.37475084897323        2.33821049405835       -0.74406791076078
C           -4.75055858296579        1.14221959937030       -0.43789210527454
O           -5.55466138996960        0.10139378236216       -0.04989272073808
C           -4.95440980927434       -1.11023416638202        0.18145108409849
C           -5.78411406073785       -2.16517403686307        0.51579071803636
C           -5.24995989417966       -3.41118731401182        0.80530498406758
C           -3.88115387261136       -3.58833521496858        0.77531378819535
C           -3.04530538085739       -2.53573745684254        0.43642335558563
C           -3.56665485728066       -1.28980007626282        0.11140418503459
C           -0.83664962728762       -1.21084288666459       -1.27989663990708
C            0.53886084132449       -1.35623319535581       -1.43061149034915
C            1.41137329785517       -0.64213537264423       -0.63260158937417
C            0.90810896398413        0.22480697184922        0.35880734478353
C            2.86072837174196       -0.80071496879692       -0.82190492550656
O            3.34299594823127       -1.54769122455346       -1.64702000088885
N            3.67088080730462       -0.04235950244141        0.01506087455368
C            5.08773019863746       -0.17179864786883       -0.17001070640430
C            5.86358125519558       -0.72548041924070        0.83547059595820
C            7.22992375678590       -0.84227434890929        0.65333217368396
C            7.81370503893129       -0.41772961253539       -0.52802267635358
C            7.03100179590422        0.12984134709056       -1.53013217305920
C            5.66516069717732        0.25938802924646       -1.35339746087457
H            1.99276963108077        2.30078399956749        2.80880729129149
H           -0.45690074774331        2.50893462418492        3.17239916675601
H           -2.02340771363394        1.30276474309826        1.72684208084581
H           -1.56546272426625        2.01748548481366       -1.14413822899279
H           -2.67270834618060        4.13175086848684       -1.67242951541561
H           -5.12464474350149        4.35618251646366       -1.40394847903049
H           -6.44666896856291        2.39419621863496       -0.64285953838734
H           -6.84677253609516       -1.98636710078308        0.55045833864171
H           -5.90459092394313       -4.22832987220992        1.06328649540873
H           -3.44872817040667       -4.54613221669665        1.01950833156162
H           -1.97691777069446       -2.68411892240718        0.43511494413819
H           -1.50890502804616       -1.76007362152707       -1.92245674097309
H            0.94510157073431       -2.01392842855816       -2.18391314883053
H            5.39940120344002       -1.05465689850554        1.75268308530966
H            7.83851391344867       -1.26969362754176        1.43610729577761
H            8.88017372745402       -0.51370725465199       -0.66796196294041
H            7.48416652626447        0.46140033809255       -2.45236835335570
H            5.04681339407310        0.68596194242334       -2.12855456006800
