$hessian                                                                        
        0.3637193623   0.2226935786   0.2144528206  -0.2928575487  -0.1783621683
       -0.1696158427  -0.0735524457  -0.0323288049  -0.0300887207  -0.0013258198
       -0.0024036816  -0.0026196535   0.0042810626   0.0011889743   0.0021061054
       -0.0003327446  -0.0037937771  -0.0035370890  -0.0010793261   0.0015646623
       -0.0005131025  -0.0070150072   0.0055295918   0.0059582322   0.0028143239
       -0.0006504563  -0.0005719535  -0.0008406608   0.0003872468   0.0006746655
        0.0000164750   0.0001446633  -0.0001167653  -0.0000096885   0.0000871517
        0.0002640512   0.0000924779  -0.0000222160   0.0001546783  -0.0001275986
        0.0000304659  -0.0000668687  -0.0000298371   0.0004593031   0.0004209026
       -0.0006180015   0.0003305172  -0.0000458050  -0.0002739998  -0.0006533743
       -0.0001741689  -0.0000602041   0.0002093611  -0.0000781851   0.0001440225
       -0.0000779670  -0.0002546345   0.0000158232  -0.0001089289  -0.0000239929
        0.0004352500  -0.0002306782   0.0000103173  -0.0006128024   0.0001662355
       -0.0006478886   0.0090859248  -0.0084477024  -0.0057874187  -0.0101928972
       -0.0036985092  -0.0029025458   0.0075536963   0.0003266601  -0.0001252662
       -0.0080930730   0.0090515992   0.0085608506  -0.0009956845   0.0002862247
       -0.0012304125  -0.0014891046  -0.0017955180  -0.0013797073   0.0125005886
       -0.0142604133  -0.0127134707  -0.0018457672   0.0006637147   0.0005484233
       -0.0005643229   0.0024572810   0.0003631067   0.0006473335   0.0003440851
       -0.0002020183   0.0000668795  -0.0000752018   0.0003595541  -0.0006649469
        0.0002120091  -0.0002173009   0.0020382265   0.0004140282  -0.0009404897
       -0.0002356239   0.0004380410   0.0001859387  -0.0001477077   0.0001287953
        0.0001704238  -0.0001991393   0.0005144648  -0.0003021632  -0.0000304733
       -0.0001721290   0.0000245238  -0.0002836965  -0.0003177708  -0.0001262449
        0.0000073049  -0.0001766091   0.0000512743   0.0000216772   0.0000698034
       -0.0000846510   0.0000143781  -0.0000363612   0.0000243307   0.0001724218
        0.0001976969   0.0000109016  -0.0000457547   0.0003697931  -0.0000097533
        0.0000153772   0.0001588772  -0.0000919866   0.0000261673   0.0003095558
       -0.0002583956   0.0000755535  -0.0000120683  -0.0004411235  -0.0002366992
       -0.0003009521   0.0009467123   0.0000679478  -0.0001771158   0.0000986433
        0.0000095680  -0.0000991688   0.0000507596   0.0001103624  -0.0001723638
       -0.0000578059  -0.0001716288  -0.0003604446  -0.0002117906
        0.2226935786   0.2375846831   0.2085957658  -0.1791193682  -0.1934323093
       -0.1379024911  -0.0276981179   0.0016348147  -0.0128430265   0.0020290248
       -0.0023011571  -0.0014825825   0.0020130896   0.0014722193   0.0018350710
        0.0000633205  -0.0024387557  -0.0018763003   0.0004982955   0.0007774052
        0.0001957495  -0.0039136654   0.0038273013   0.0049248733   0.0006957419
        0.0003500356  -0.0003296727  -0.0002852458  -0.0005743543   0.0004239013
        0.0001912166   0.0002615537  -0.0000811979   0.0001322223   0.0000156591
        0.0002864724  -0.0000053539   0.0000122062   0.0001340770  -0.0001629943
        0.0000437795   0.0000185741  -0.0004590317   0.0001560183   0.0002171730
       -0.0000986152   0.0003132850   0.0000666719  -0.0005085750  -0.0003002539
       -0.0003207924  -0.0001029949   0.0000886414   0.0000274552  -0.0000929318
        0.0000003438  -0.0001773540   0.0002663844   0.0000322150  -0.0000075928
        0.0004022587  -0.0004474365   0.0001314158   0.0000645315   0.0005045922
       -0.0009162100   0.0060811244  -0.0062011652  -0.0040303876  -0.0069802710
       -0.0022809608  -0.0019123500   0.0047613096  -0.0007226930  -0.0011652212
       -0.0015717213   0.0075119637   0.0051729942   0.0069069126   0.0060703372
        0.0024473062  -0.0015071217  -0.0066675755  -0.0066099085  -0.0241009261
       -0.0424545082  -0.0543856591  -0.0017295669  -0.0021700703  -0.0003985044
        0.0010405718  -0.0014993340   0.0001347827  -0.0001186221   0.0000467136
       -0.0004162014   0.0000567493   0.0001491853   0.0001686454  -0.0001672954
       -0.0000361862   0.0000307823  -0.0000140370   0.0004036048   0.0007602580
        0.0002435812   0.0007057847   0.0010463023  -0.0002233475   0.0004354121
       -0.0001502516  -0.0000121410   0.0000111205   0.0000935030  -0.0000044605
       -0.0001901153  -0.0000646893  -0.0002087919  -0.0002182571  -0.0001211227
        0.0000045638  -0.0001458245   0.0000054229   0.0000186804   0.0000394605
       -0.0000937186   0.0000102036  -0.0000337028   0.0000017098   0.0001193975
        0.0001388513  -0.0000221325  -0.0000256368   0.0002744256  -0.0000172050
        0.0000025320   0.0000803831  -0.0000986046   0.0000072756   0.0001385540
       -0.0001661648   0.0000053581   0.0000193453  -0.0003278430   0.0005785444
       -0.0006918197  -0.0002986209   0.0000967166  -0.0000440441   0.0000706939
        0.0001936681  -0.0000170114  -0.0000785720   0.0000875009  -0.0001387885
       -0.0001977503  -0.0001535209  -0.0000935716  -0.0002974731
        0.2144528206   0.2085957658   0.2278053089  -0.1723126151  -0.1383582391
       -0.1880604553  -0.0249723788  -0.0110391098   0.0035542201   0.0021057709
       -0.0016623900  -0.0016800581   0.0015013837   0.0017111869   0.0015360717
        0.0002771949  -0.0018826944  -0.0015481076   0.0006152697   0.0019493485
       -0.0004100295  -0.0037674943   0.0035221195   0.0033146295   0.0013459591
       -0.0002745448  -0.0000723350  -0.0003066800  -0.0001427829   0.0003990896
        0.0001165429   0.0001260843  -0.0000184181   0.0000487938   0.0000887823
        0.0002173780   0.0000712290  -0.0000201506   0.0001006639  -0.0000939305
       -0.0000050894   0.0000004473  -0.0002315696   0.0002957864   0.0002738885
       -0.0002935573   0.0002172012   0.0000049934  -0.0003077328  -0.0003786215
       -0.0001423427  -0.0000511345   0.0000990693  -0.0000614306   0.0000405939
       -0.0000296785  -0.0001579668   0.0000729009  -0.0000445304  -0.0000023150
        0.0002865270  -0.0002354296   0.0000476826  -0.0001939990   0.0003527447
       -0.0004090595   0.0056030340  -0.0050528320  -0.0036340894  -0.0061685848
       -0.0020348728  -0.0018573693   0.0041488723  -0.0004830146  -0.0007762609
       -0.0005332717   0.0029945347   0.0065602881   0.0072373250   0.0012040041
        0.0048037485  -0.0019045715  -0.0063639944  -0.0066773632  -0.0244434941
       -0.0543680988  -0.0423022934  -0.0030827771   0.0008455562  -0.0018694013
        0.0009910416  -0.0000296774  -0.0007357551  -0.0002404415  -0.0000349733
       -0.0001957962   0.0001068197  -0.0000010318   0.0002148501  -0.0004100338
       -0.0001470185   0.0000028117   0.0000975314  -0.0002444457   0.0004635806
        0.0000401588   0.0011513570   0.0008060268  -0.0002132311   0.0001322723
        0.0001362737   0.0000343358   0.0003278271  -0.0000515122  -0.0000187576
       -0.0001164933  -0.0000496447  -0.0002076650  -0.0002354031  -0.0001020774
        0.0000031674  -0.0001484644   0.0000285684   0.0000139168   0.0000358792
       -0.0000743580   0.0000130846  -0.0000359455   0.0000142544   0.0001242427
        0.0001502940  -0.0000127058  -0.0000275056   0.0002581392  -0.0000273185
        0.0000103482   0.0000815234  -0.0001086373   0.0000429063   0.0001850886
       -0.0001046444   0.0000945623  -0.0000239708  -0.0002369721   0.0000626877
       -0.0006749208   0.0007791751   0.0000980505  -0.0000826171   0.0001433292
        0.0001156416  -0.0000643301   0.0000700659   0.0001000148  -0.0000329296
       -0.0000524316  -0.0000913021  -0.0000762695   0.0001538029
       -0.2928575487  -0.1791193682  -0.1723126151   0.6259515952   0.1142838655
        0.1021469072  -0.1711437489   0.0214352308   0.0225714098  -0.0216280086
        0.0171006348   0.0204701305   0.0001447549  -0.0013554287  -0.0040727311
       -0.0020549212   0.0062765478   0.0057849703  -0.0011649009  -0.0083629163
       -0.0054459535   0.0137080365  -0.0095019080  -0.0103633171  -0.0058603091
        0.0009026154   0.0008988248   0.0016358769  -0.0008293385  -0.0013008316
        0.0001583295  -0.0002760018   0.0001956070  -0.0000167134  -0.0000073652
       -0.0002951918  -0.0001445373   0.0000003501  -0.0001670733   0.0002148792
       -0.0000278409   0.0001544905  -0.0001867314  -0.0004235037  -0.0006207802
        0.0007058041  -0.0004178489   0.0000786047   0.0003023644   0.0008136204
        0.0003249963   0.0000945141  -0.0004512593   0.0000923747  -0.0003109849
        0.0002170990   0.0003099219  -0.0000180255   0.0001159923   0.0001006217
       -0.0006476634   0.0003316876  -0.0000215591   0.0011149651  -0.0002196500
        0.0013125039  -0.0173349978   0.0162252011   0.0112270960   0.0207119391
        0.0074972614   0.0067760273  -0.0242232468   0.0040061011   0.0051135103
       -0.0273093463  -0.0269935287  -0.0261862153   0.0339519419   0.0047670021
        0.0049637140  -0.0030672535  -0.0038042873  -0.0042648575  -0.1055114806
        0.0204155620   0.0175491704  -0.0202912041   0.0207212975   0.0235043653
       -0.0005013739  -0.0008290094   0.0020402806  -0.0009983548  -0.0009990292
        0.0000328993   0.0005830253  -0.0003198517   0.0004692345  -0.0017932719
       -0.0009264787   0.0001145328  -0.0035215757   0.0007423123  -0.0004946310
        0.0000725414  -0.0017013594  -0.0009161271   0.0004685102  -0.0003080446
       -0.0005789967   0.0004349382  -0.0010500547   0.0004677538  -0.0000212199
        0.0001515172   0.0000413281   0.0002954329   0.0003482271   0.0001744744
       -0.0000086286   0.0001792941  -0.0000561968  -0.0000180976  -0.0000682582
        0.0001098681  -0.0000093628   0.0000365538  -0.0000361632  -0.0001947581
       -0.0002075734  -0.0000266256   0.0000530620  -0.0004095579  -0.0000081277
       -0.0001092331  -0.0001875585   0.0000970291   0.0000222107  -0.0003952310
        0.0003747843   0.0001634566  -0.0001583116   0.0006350096  -0.0001118595
        0.0016097958  -0.0010315486   0.0000631040   0.0001074102  -0.0000735806
        0.0001427789   0.0002067533  -0.0000422325  -0.0002361493   0.0002088218
        0.0000229197   0.0003014467   0.0006498092   0.0001599943
       -0.1783621683  -0.1934323093  -0.1383582391   0.1142838655   0.3698324327
        0.2284635755   0.0188832371  -0.0575642127   0.0049498135   0.0227389892
       -0.0020362327  -0.0070972922  -0.0051508184  -0.0030213573  -0.0071697555
        0.0021805999   0.0039252128   0.0032126038  -0.0027967203   0.0007151652
       -0.0032938285   0.0033115663  -0.0039056248  -0.0068896642  -0.0000964096
       -0.0013198888   0.0003627649   0.0002091809   0.0008711629  -0.0004340070
       -0.0003429416  -0.0004977616   0.0002069426  -0.0005613721   0.0001804329
       -0.0003555876   0.0004161610   0.0001349679  -0.0003057269   0.0002825143
       -0.0003896092   0.0000664801   0.0009619945   0.0003334317  -0.0001481716
       -0.0005677861  -0.0001533007  -0.0002695838   0.0011110470  -0.0003493023
        0.0008588617   0.0002105604   0.0001695517  -0.0003120011   0.0004801788
       -0.0002260623   0.0002603268  -0.0007401215  -0.0001882350   0.0000127990
       -0.0005388584   0.0008352003  -0.0002944018  -0.0006782814  -0.0006403679
        0.0019942382  -0.0056716138   0.0074767861   0.0039636435   0.0064595033
        0.0012751593   0.0019221158   0.0044132265  -0.0022587221   0.0000266193
       -0.0094422978  -0.0006729517  -0.0015317923  -0.0263084313  -0.0312254983
       -0.0254896961   0.0030180829   0.0068912788   0.0029612589   0.0397483802
       -0.0905713441  -0.0591406012   0.0173672772  -0.0017389669  -0.0008080829
       -0.0015953991  -0.0003211397  -0.0016994970   0.0006078370  -0.0001342875
        0.0000634518  -0.0005764603   0.0001098742  -0.0007501584   0.0017677839
       -0.0006831956   0.0010931247  -0.0061175443  -0.0003829801   0.0011303290
        0.0004721025  -0.0012867214   0.0000891061   0.0012137750  -0.0009721902
        0.0004072995   0.0000614721   0.0003593376  -0.0001355437  -0.0000509289
        0.0001410221   0.0001203203   0.0001405319   0.0002309155   0.0001104177
       -0.0000203673   0.0001182871   0.0000486452  -0.0000161549  -0.0000369984
        0.0001067332  -0.0000153079   0.0000237634   0.0000262537  -0.0001181731
       -0.0000929922   0.0000301364   0.0000348429  -0.0002759418  -0.0000135409
       -0.0000057869  -0.0000279448   0.0000296336   0.0001242779   0.0000456196
        0.0002126649  -0.0000188610   0.0000220585   0.0007170939   0.0003472580
        0.0002177719   0.0003429282  -0.0004439328   0.0001872909  -0.0001931205
       -0.0003375183   0.0000812889   0.0001397392  -0.0005250697   0.0001684310
        0.0004246215   0.0002530786   0.0000596964   0.0003357498
       -0.1696158427  -0.1379024911  -0.1880604553   0.1021469072   0.2284635755
        0.3819085226   0.0192148184  -0.0001138022  -0.0576092399   0.0253734881
       -0.0058418933  -0.0066289160  -0.0044422946  -0.0078178032  -0.0032487512
        0.0018379043   0.0031134953   0.0026173772  -0.0025869649  -0.0062108634
        0.0012010321   0.0025844569  -0.0025735911  -0.0023407769  -0.0018566155
        0.0003222204  -0.0001420071   0.0001553131  -0.0000913406  -0.0005560040
       -0.0002166511  -0.0002071643   0.0000281398  -0.0002841663  -0.0000125832
       -0.0002067950   0.0001919933   0.0001936843  -0.0002187485   0.0001306297
       -0.0002726972   0.0001343249   0.0005341781   0.0000618559  -0.0004472207
       -0.0000826295  -0.0001543021   0.0000233304   0.0005853840  -0.0000269247
        0.0003138828   0.0000933051   0.0001747334  -0.0000543868   0.0001933218
       -0.0001851540   0.0002547089  -0.0003275500   0.0000152275   0.0000165324
       -0.0002415248   0.0003276687  -0.0000632277   0.0000585831  -0.0002057434
        0.0005273886  -0.0040571963   0.0041461721   0.0027404761   0.0038036895
        0.0017248228   0.0004795469   0.0075512610  -0.0016477402  -0.0024177048
       -0.0131979170   0.0052746483   0.0021045261  -0.0279557828  -0.0237479933
       -0.0276655732   0.0049168285   0.0026959588   0.0056456902   0.0369048031
       -0.0567380361  -0.1032527087   0.0239251835  -0.0028248352  -0.0031691564
       -0.0046726675  -0.0007451280  -0.0009370953   0.0006821644  -0.0006026774
       -0.0006891660  -0.0010946338   0.0002669981  -0.0008500973   0.0025317163
       -0.0005349682   0.0006445355  -0.0036131240  -0.0000810652   0.0022351889
        0.0010563130   0.0001108081  -0.0015726192   0.0012007915  -0.0003999245
       -0.0002274524  -0.0000932838   0.0000985981  -0.0003601300   0.0000030899
        0.0000237792   0.0000710475   0.0001790234   0.0002776652   0.0000799185
       -0.0000180131   0.0001377869  -0.0000136312  -0.0000232980  -0.0000422124
        0.0000598399  -0.0000235392   0.0000255834  -0.0000143207  -0.0001496246
       -0.0001401853  -0.0000033841   0.0000406124  -0.0002812481   0.0000035670
       -0.0000144104  -0.0000267161   0.0000300464   0.0000447321  -0.0002406736
        0.0002272595  -0.0002317998   0.0002074186   0.0004827560  -0.0003504454
        0.0011607962  -0.0006573650  -0.0004342277   0.0003351785  -0.0002463279
       -0.0002842627   0.0002448801   0.0000056034  -0.0003291655  -0.0000239154
        0.0002038862   0.0002571395   0.0002901170  -0.0003858665
       -0.0735524457  -0.0276981179  -0.0249723788  -0.1711437489   0.0188832371
        0.0192148184   0.5840139966   0.0142161417   0.0087036822  -0.0934625709
        0.0479858300   0.0511302648  -0.0330132112   0.0194940010   0.0231267294
        0.0088966264  -0.0006284688  -0.0012934624  -0.0364931911  -0.0100672975
       -0.0118544155  -0.0128710571   0.0101912029   0.0112048070   0.0004243863
       -0.0012092681  -0.0012275027  -0.0000909856  -0.0014826216   0.0011754732
        0.0003264271   0.0010174291  -0.0002759836   0.0005279418  -0.0003740022
        0.0002130438  -0.0002298925  -0.0000146205   0.0001323096  -0.0003421680
        0.0001009817  -0.0000700404  -0.0008305070  -0.0001720246   0.0005890143
        0.0005403448   0.0001460606  -0.0001702267  -0.0010272873   0.0000879338
       -0.0001801016  -0.0003251363   0.0001761595  -0.0000671959  -0.0001487515
       -0.0000678898  -0.0002107022   0.0006037154   0.0002050856  -0.0002508067
        0.0006938581  -0.0009219576   0.0002249698   0.0000502536   0.0019179607
       -0.0010590193   0.0110375204  -0.0119910945  -0.0092222547  -0.0106375155
       -0.0012206454  -0.0007914556   0.0357418336  -0.0154627776  -0.0177229083
       -0.1700109528  -0.0585931117  -0.0622635387  -0.0266052952  -0.0020705525
       -0.0039300751   0.0042599107  -0.0048496797  -0.0042099305  -0.0196445006
        0.0316918457   0.0336774559   0.0020113809   0.0007460643   0.0015580711
        0.0003420367  -0.0002137945  -0.0002321614   0.0002570769  -0.0001146652
       -0.0001723195   0.0000239560   0.0000323345   0.0000485761   0.0001400672
       -0.0002034384   0.0001102929  -0.0011517043  -0.0001262430   0.0001114731
        0.0068704287  -0.0112989623  -0.0124965183  -0.0060086432   0.0005011447
        0.0019078373   0.0007380029   0.0006046137  -0.0004269443  -0.0001472491
       -0.0002204841  -0.0000347559  -0.0001054223  -0.0001247995  -0.0000722739
       -0.0000028682  -0.0000353650  -0.0000021320  -0.0000046114   0.0000507956
       -0.0000649024  -0.0000169636  -0.0000157102   0.0000514362   0.0000639063
        0.0000581973   0.0000614721  -0.0000371146   0.0001561327   0.0000305320
        0.0000551065   0.0002309122  -0.0000897248   0.0000869194   0.0005082210
       -0.0003068505   0.0003411679   0.0003814382   0.0004178103  -0.0000967316
       -0.0001030784   0.0000487940   0.0000210584  -0.0000059429   0.0000041818
       -0.0000036095  -0.0000285727   0.0000050486  -0.0000546128   0.0000024932
        0.0000317578  -0.0000091745  -0.0000710306  -0.0001092697
       -0.0323288049   0.0016348147  -0.0110391098   0.0214352308  -0.0575642127
       -0.0001138022   0.0142161417   0.3501470103   0.2598482894   0.0205486726
       -0.1399766496  -0.1028206071   0.0422831844  -0.0021629070  -0.0058801520
       -0.0054356453  -0.0077172300  -0.0049383044  -0.0283755904  -0.0032858825
       -0.0038504776   0.0078635469   0.0128353320   0.0117396227   0.0004723845
        0.0003110992  -0.0007485846  -0.0007297956   0.0025068201  -0.0006809496
       -0.0011812864  -0.0008381505   0.0002785681  -0.0005607482   0.0001931207
       -0.0003421081   0.0002436975   0.0000256940  -0.0001982317   0.0004318950
       -0.0001477615  -0.0000358201   0.0014289001   0.0006622524  -0.0004474128
       -0.0010556124  -0.0000935585   0.0000056903   0.0010023622  -0.0006863990
        0.0002716661   0.0003505810   0.0003881666  -0.0000183379   0.0007584891
       -0.0002969762   0.0000677959  -0.0010137419  -0.0005340198   0.0000679260
       -0.0000706225   0.0014064949  -0.0003430825  -0.0004364745  -0.0017921025
        0.0000788005  -0.0008297049  -0.0036051089  -0.0031263325   0.0085345388
        0.0043616097  -0.0023215274  -0.0102343349  -0.0300856513  -0.0334909787
       -0.0656898111  -0.1101386191  -0.0698279757   0.0043264072  -0.0013963666
        0.0016037005  -0.0020576738   0.0016861400   0.0011240769   0.0218713508
       -0.0081074903  -0.0121562963   0.0003051802   0.0002451518  -0.0054212301
       -0.0003805843   0.0000841921   0.0000169989  -0.0002932647  -0.0000061260
       -0.0000779728  -0.0000722496   0.0000831383  -0.0002290780   0.0003060637
        0.0001381728  -0.0002405617   0.0015791971  -0.0001597886   0.0000253879
        0.0029567758  -0.0108782354  -0.0137116663   0.0003023032   0.0048641811
       -0.0036161498  -0.0000784528  -0.0008097492   0.0001097762  -0.0001527184
        0.0002970296   0.0000414337  -0.0000141386   0.0000828393   0.0000122041
        0.0000309625  -0.0000055264   0.0001177954   0.0000211325  -0.0000001458
        0.0000732309   0.0000249420   0.0000056668  -0.0000221498   0.0000014872
        0.0000392826   0.0000317041   0.0000222021  -0.0000576094   0.0000021222
        0.0000157328  -0.0001616544   0.0001410476   0.0001118260  -0.0004245380
        0.0003178134  -0.0005315579  -0.0009431734  -0.0002678669  -0.0000753466
       -0.0000625786  -0.0000477848  -0.0000475271  -0.0000239157  -0.0000124986
        0.0000146680   0.0000212095   0.0000063783   0.0001289520  -0.0000451133
       -0.0000460799   0.0000568790  -0.0000121783   0.0000911006
       -0.0300887207  -0.0128430265   0.0035542201   0.0225714098   0.0049498135
       -0.0576092399   0.0087036822   0.2598482894   0.3912788874   0.0234301090
       -0.1045051952  -0.1573881000   0.0489069736  -0.0039533047  -0.0050253741
       -0.0069811472  -0.0048758836  -0.0122127007  -0.0312568543  -0.0050141721
       -0.0004497501   0.0090655449   0.0065204761   0.0165755065  -0.0003811368
        0.0006918445  -0.0004465120  -0.0005829096   0.0024014249  -0.0007845366
       -0.0011469397  -0.0008471941   0.0002599905  -0.0004682424   0.0001453509
       -0.0003244856   0.0001233049  -0.0000078627  -0.0001471301   0.0004327599
       -0.0000639567  -0.0000460641   0.0013867309   0.0005970919  -0.0005989148
       -0.0009736390  -0.0002022336   0.0001371210   0.0009218832  -0.0005750255
        0.0001249469   0.0003439220   0.0003295737   0.0000728562   0.0006918479
       -0.0002540012   0.0000800539  -0.0009694367  -0.0005099606   0.0000943008
       -0.0001156847   0.0014183127  -0.0002819215  -0.0002799998  -0.0018118299
       -0.0002440367  -0.0018817426  -0.0031730543  -0.0026958606   0.0093558794
       -0.0003204183   0.0028985603  -0.0115764001  -0.0322225267  -0.0328378737
       -0.0708882717  -0.0701055215  -0.1245154728   0.0038672922   0.0008827084
        0.0010904835  -0.0019692222   0.0015007377   0.0011091632   0.0247928406
       -0.0157331140  -0.0106751251  -0.0002442750  -0.0049690063  -0.0009310289
        0.0006102988  -0.0001676388  -0.0000696818  -0.0001862935   0.0001964246
        0.0002052868   0.0000472199   0.0000333124  -0.0000652391  -0.0001030555
        0.0004538973   0.0000569422   0.0007872183   0.0002553863  -0.0000580096
        0.0033637208  -0.0132365296  -0.0129205855   0.0010348786  -0.0038269604
        0.0041901218  -0.0001654612  -0.0006199680  -0.0001670483  -0.0000588956
        0.0002615149   0.0000697941   0.0000077431   0.0000659435   0.0000135664
        0.0000207775  -0.0000007259   0.0001038503   0.0000128164  -0.0000068148
        0.0000733405   0.0000252518   0.0000000261  -0.0000402137  -0.0000058903
        0.0000230789   0.0000149883   0.0000173367  -0.0000840899   0.0000008571
       -0.0000095122  -0.0001799542   0.0000785034   0.0001073039   0.0006764601
       -0.0008103627  -0.0004850684  -0.0007856428  -0.0005903432   0.0000926152
       -0.0000992292  -0.0001679608   0.0000614146  -0.0000143675   0.0000053225
        0.0000265114  -0.0000344750  -0.0000264662   0.0000300370  -0.0001026594
       -0.0000410311  -0.0000205256  -0.0001053252   0.0000824055
       -0.0013258198   0.0020290248   0.0021057709  -0.0216280086   0.0227389892
        0.0253734881  -0.0934625709   0.0205486726   0.0234301090   0.6942587966
        0.0304330478   0.0107187436  -0.3473438096   0.0487083633   0.0690517891
       -0.0608679518  -0.0410868707  -0.0434739715  -0.0209473734   0.0106067940
        0.0138433640   0.0028987668  -0.0017834764   0.0007375959   0.0013020089
       -0.0000746359  -0.0008116113  -0.0010519352   0.0032498284  -0.0007554512
       -0.0012560311  -0.0013752086   0.0003475064  -0.0008288695   0.0003804070
       -0.0003453102   0.0004009343   0.0000453205  -0.0002140022   0.0005230421
       -0.0001706766  -0.0000628312   0.0020427808   0.0008654150  -0.0005508330
       -0.0014388247  -0.0001141255   0.0000625914   0.0014527874  -0.0009214959
        0.0003935954   0.0004687764   0.0003791121  -0.0000164565   0.0008668300
       -0.0003127217   0.0001244292  -0.0012984574  -0.0006402012   0.0001985347
       -0.0004885375   0.0017332382  -0.0004672872  -0.0009263334  -0.0025766681
        0.0004033436  -0.0063872137   0.0033385228   0.0034519766   0.0092092091
        0.0017991962   0.0014460029  -0.0145758656  -0.0033721530  -0.0030171518
        0.0309083619  -0.0017343273  -0.0062592480   0.0154653051  -0.0050677465
       -0.0037362016  -0.0048560769   0.0061071326   0.0055360445  -0.0088716532
       -0.0045460656  -0.0043757444   0.0005437751   0.0008722262   0.0006942661
       -0.0003034467  -0.0000170190   0.0000234120  -0.0000301966  -0.0001240173
       -0.0001762873  -0.0001211910   0.0000544353  -0.0000895836   0.0001466157
       -0.0001760034   0.0001076432  -0.0003315623   0.0001334384   0.0001857962
       -0.1565834154  -0.0910605939  -0.0947434864  -0.0133274140   0.0035351173
        0.0034236502  -0.0019792105  -0.0025909968  -0.0024996645  -0.0002402358
        0.0002128989  -0.0000260590  -0.0000777995   0.0001032417  -0.0000125422
        0.0000277748  -0.0000406140   0.0001418990   0.0000186899   0.0000094415
        0.0000763229   0.0000266384  -0.0000132298  -0.0000442164   0.0000111998
        0.0000709154  -0.0000090943   0.0000206704  -0.0000597516  -0.0000143807
       -0.0000643142  -0.0001888338   0.0001183345   0.0000337194   0.0001333321
       -0.0001266787   0.0000070866  -0.0002055107  -0.0002029660   0.0000679156
        0.0000328443   0.0000219289  -0.0000849654   0.0000133976  -0.0000359111
       -0.0000040788   0.0000722424   0.0000246374  -0.0000512384  -0.0000504560
        0.0000065916   0.0000527158   0.0000968034   0.0000176026
       -0.0024036816  -0.0023011571  -0.0016623900   0.0171006348  -0.0020362327
       -0.0058418933   0.0479858300  -0.1399766496  -0.1045051952   0.0304330478
        0.3302012441   0.2452159744  -0.0003063889  -0.0636496899  -0.0254473171
       -0.0094633139   0.0071332972   0.0085486387   0.0166124964   0.0035310871
        0.0051177370  -0.0076041809  -0.0041566013  -0.0054713154  -0.0000746077
        0.0002565603   0.0003157076   0.0007635880  -0.0029753102   0.0006161292
        0.0011540375   0.0012223918  -0.0004178103   0.0009037998  -0.0004408390
        0.0003542945  -0.0005045231  -0.0000784558   0.0002465459  -0.0005370052
        0.0003212947   0.0000196174  -0.0016909778  -0.0008938335   0.0004376327
        0.0015119436  -0.0000416610   0.0000498640  -0.0015083647   0.0011166643
       -0.0005197333  -0.0004727151  -0.0004297648   0.0000981426  -0.0008821323
        0.0003343703  -0.0001474409   0.0013044365   0.0005849208  -0.0001838139
        0.0004219459  -0.0017210538   0.0004664781   0.0010948394   0.0024406851
       -0.0006764136   0.0038567848  -0.0015480602  -0.0004737903  -0.0068509321
       -0.0037998029  -0.0026181584   0.0073218054   0.0043714075  -0.0017015534
       -0.0174317607  -0.0215890832  -0.0239502715  -0.0108784341   0.0026727067
        0.0028915422   0.0032647744  -0.0040921670  -0.0037516887   0.0024536751
        0.0050226053   0.0026997992  -0.0005558698   0.0000118759  -0.0001040905
        0.0003143239  -0.0002513152   0.0002372561  -0.0000284589   0.0000285918
        0.0000645919   0.0001872060  -0.0001024519   0.0003334987  -0.0004126104
        0.0002720797  -0.0002414802   0.0003033437  -0.0000874172  -0.0001868048
       -0.0908295867  -0.1095571848  -0.0801322075   0.0186468179  -0.0016143580
       -0.0048333813  -0.0029832929   0.0016258987  -0.0041768530  -0.0000061111
       -0.0002753127  -0.0000792812   0.0000076082  -0.0000656059  -0.0000202344
       -0.0000229807   0.0000059038  -0.0001078755  -0.0000196615   0.0000153096
       -0.0000844340  -0.0000235096  -0.0000011420   0.0000310371  -0.0000030416
       -0.0000285326  -0.0000003383  -0.0000244441   0.0000701059   0.0000118958
        0.0000128611   0.0001902777  -0.0001127067  -0.0000450080   0.0002169880
       -0.0000221494  -0.0001362759   0.0001554924  -0.0001612070   0.0000077660
        0.0000194872  -0.0000140796   0.0000296226   0.0000325964  -0.0000030643
       -0.0000013522  -0.0000710718  -0.0000345519   0.0000201351   0.0000039292
       -0.0000032981  -0.0000121028  -0.0000730173  -0.0000695600
       -0.0026196535  -0.0014825825  -0.0016800581   0.0204701305  -0.0070972922
       -0.0066289160   0.0511302648  -0.1028206071  -0.1573881000   0.0107187436
        0.2452159744   0.3684901749   0.0130090631  -0.0268792786  -0.0718964933
       -0.0072386789   0.0080928861   0.0120921486   0.0171221355   0.0074268527
        0.0024403582  -0.0068519256  -0.0050122595  -0.0081046976  -0.0005664053
       -0.0003451920  -0.0000058948   0.0013874424  -0.0035846041   0.0013393700
        0.0014659575   0.0014686481  -0.0003344979   0.0009705667  -0.0004245256
        0.0003446811  -0.0004870264  -0.0001060702   0.0002378153  -0.0006160483
        0.0002946296  -0.0000304631  -0.0021876280  -0.0010449899   0.0008241584
        0.0017252573   0.0001443268  -0.0001821991  -0.0016705366   0.0011068597
       -0.0002982567  -0.0005165111  -0.0004736579  -0.0000053568  -0.0010214567
        0.0003582512  -0.0001803365   0.0014856348   0.0006712441  -0.0002431000
        0.0004069972  -0.0019329321   0.0005047064   0.0012476976   0.0029631008
       -0.0003001919   0.0032320320  -0.0002699763  -0.0000975799  -0.0060777582
       -0.0042041108  -0.0032961092   0.0063491432  -0.0013137824   0.0034574397
       -0.0166308891  -0.0272901823  -0.0255170747  -0.0122037037   0.0042551385
        0.0020689607   0.0036352555  -0.0046804681  -0.0043177149   0.0010337700
        0.0045909720   0.0068210952   0.0001002535  -0.0001247383   0.0003554660
       -0.0000257687   0.0001291664  -0.0000504694   0.0001414890   0.0000574802