$hessian                                                                        
        0.6340681730   0.0154771842  -0.0368530916  -0.3359826411  -0.0141066720
        0.0223857521  -0.0380885415  -0.0458442127   0.0256755777   0.0146249682
        0.0032712803  -0.0021667582  -0.0001302118   0.0006908125  -0.0013651019
       -0.0021097970  -0.0044690958   0.0012737038   0.0122660709   0.0006476708
       -0.0044797963  -0.0127647182  -0.0033986378   0.0047500976   0.0063401284
       -0.0037546446  -0.0019627230  -0.0037797217  -0.0037092656   0.0021373146
        0.0027336627   0.0014456697  -0.0015394036  -0.0037273238   0.0014429159
        0.0015237006   0.0037940054   0.0067942633  -0.0025266135   0.0003421161
       -0.0004293738  -0.0000807522   0.0014110340  -0.0019953567  -0.0004616907
       -0.0037383297   0.0019519550   0.0014385676   0.0030289013   0.0036740332
       -0.0009445817  -0.0004488315  -0.0034052867   0.0002223147  -0.0003804203
        0.0005212262   0.0002971074  -0.0049586071   0.0040400552   0.0006873057
        0.0002589134  -0.0018512768   0.0011741478  -0.0265848935  -0.0030971411
        0.0016058138   0.0391499316   0.0419568922  -0.0235515422   0.0029232994
       -0.0058535624   0.0030930370  -0.0017113832  -0.0004532292  -0.0003028054
        0.0005085950  -0.0001902519   0.0003172722  -0.0001939273   0.0000170145
       -0.0002709030   0.0000354298  -0.0004013402  -0.0000481279   0.0002157351
        0.0003579119   0.0001627601  -0.0002581507  -0.0006484231  -0.0001795328
        0.0005093226   0.0002143698   0.0003129059  -0.0002801042  -0.0002992949
       -0.0001705772   0.0002626881   0.0000478511   0.0002033000  -0.0000407897
        0.0003622952   0.0000734917   0.0000178379  -0.0003813877  -0.0000935120
        0.0006530192   0.0015559441  -0.0000139487  -0.1743819057   0.0559899679
       -0.0208707517  -0.0684877876  -0.0651809917   0.0373560418  -0.0237691810
       -0.0003066235   0.0023789997   0.0000911980  -0.0001521523  -0.0001490220
        0.0001566775  -0.0000160916   0.0004363747   0.0000698708  -0.0000711191
        0.0001014879   0.0000654738  -0.0001067069  -0.0000251210   0.0000586934
        0.0000023726  -0.0000291625   0.0000509994   0.0001021476  -0.0000133992
        0.0000306991  -0.0000303283  -0.0000631057  -0.0000019313   0.0000931965
       -0.0000294626  -0.0000352467   0.0000998315  -0.0000537387  -0.0000332228
        0.0000459575   0.0000341326   0.0000748923   0.0004222512   0.0000066513
        0.0000475900   0.0005285975   0.0000769085  -0.0004194204   0.0000369986
       -0.0003680584   0.0000306042   0.0000855597   0.0000361834   0.0000315449
        0.0000172120   0.0000636760   0.0000795598  -0.0000570864  -0.0000182412
        0.0000763169  -0.0000589589   0.0000489458   0.0000091661  -0.0000711117
       -0.0001062285  -0.0000393195  -0.0000537242  -0.0000394076  -0.0000510453
        0.0001026354   0.0000596803  -0.0216196657   0.0183972745  -0.0091560914
        0.0154771842   0.5252997131  -0.2261087353  -0.0799276888  -0.0853469678
        0.0278209129  -0.0185898193  -0.0052683883   0.0051612592  -0.0049285456
       -0.0051881472   0.0044130542   0.0000853797  -0.0000128237  -0.0000017829
        0.0009519109   0.0017967843  -0.0005225255  -0.0048021336  -0.0000101898
        0.0015923929   0.0049449443   0.0013014179  -0.0018927958  -0.0024173153
        0.0015867566   0.0007286784   0.0013423441   0.0014518378  -0.0007808434
       -0.0011038592  -0.0004466801   0.0006050862   0.0015040339  -0.0007127817
       -0.0005712096  -0.0015767716  -0.0025603760   0.0010373124  -0.0000196875
       -0.0000326852  -0.0000186209  -0.0006485495   0.0009350151   0.0002404151
        0.0015014271  -0.0009013839  -0.0005787243  -0.0012105184  -0.0014895367
        0.0003596396   0.0002569760   0.0013261900  -0.0001286364  -0.0000199161
       -0.0001598890  -0.0000572432   0.0022767895  -0.0019880908  -0.0001859940
       -0.0017011081   0.0000794713  -0.0001948567   0.0079939627   0.0049851996
       -0.0038302906  -0.0007290910  -0.0452921860   0.0236880650  -0.0016728808
       -0.0026725876   0.0038781088   0.0004042892  -0.0003766977   0.0002510126
       -0.0002825562   0.0001840000  -0.0002218393   0.0000902944   0.0000957487
        0.0001572451   0.0000389014   0.0003089604   0.0000966085  -0.0001663691
       -0.0003526590  -0.0002357690   0.0005078541   0.0000747793   0.0000969892
        0.0002020878  -0.0004843513  -0.0002301711   0.0003206001   0.0003154906
        0.0002219021  -0.0001895308  -0.0001573087  -0.0001806803  -0.0001070617
       -0.0001186553  -0.0000579720  -0.0002265125   0.0000787639  -0.0001368961
        0.0001387235  -0.0003906482   0.0006282262   0.1288407714  -0.1749308302
        0.0637687250  -0.0651227095  -0.2167003623   0.1024781260   0.0202647625
        0.0019821232  -0.0008891467  -0.0002190586   0.0001278140   0.0001109178
       -0.0000273464   0.0000079247  -0.0000823413  -0.0000365636  -0.0000354048
       -0.0000161528   0.0000167202  -0.0000058309   0.0000005891   0.0000297437
        0.0000085893  -0.0000190640   0.0000052469   0.0000089588  -0.0000157326
        0.0000165517   0.0000187014  -0.0000133894   0.0000195725   0.0000098424
        0.0000102539  -0.0000160167   0.0000028701   0.0000271525  -0.0000387219
        0.0000138528   0.0000216602  -0.0000341446   0.0000242649  -0.0000331730
        0.0001475277   0.0001966748  -0.0004313700   0.0003155246   0.0001004942
        0.0002714555  -0.0000328218  -0.0000417774  -0.0000408802  -0.0000506798
        0.0000073402  -0.0000555819  -0.0000617600   0.0000545927   0.0000148453
       -0.0000696658   0.0000282233  -0.0000081715   0.0000080522   0.0000672693
        0.0000461515   0.0000334196   0.0000510631   0.0000284057   0.0000919162
       -0.0000891730   0.0000148110  -0.0017981082   0.0032356847  -0.0002294120
       -0.0368530916  -0.2261087353   0.2317972914   0.0574959993   0.0254250381
       -0.0585116795   0.0121621808   0.0046830911  -0.0013329847   0.0017884701
        0.0042191534   0.0010910480  -0.0004511850   0.0001313822  -0.0004704365
       -0.0004699503  -0.0008959609   0.0002289914   0.0020282229   0.0003887579
       -0.0007237328  -0.0022494371  -0.0006473670   0.0007389489   0.0010604455
       -0.0007273523  -0.0003865923  -0.0006472445  -0.0007362350   0.0003794811
        0.0004245225   0.0003703425  -0.0002654645  -0.0004413832   0.0002712203
        0.0002292578   0.0005580105   0.0013033797  -0.0003554724   0.0000464027
       -0.0001834034  -0.0000587413   0.0002550435  -0.0001618172  -0.0000708492
       -0.0004347130   0.0002904800   0.0002191105   0.0004123628   0.0005917711
       -0.0001330595  -0.0000581669  -0.0006031371   0.0000420744  -0.0000217181
        0.0002113416   0.0000315608  -0.0007832717   0.0007126627   0.0003865075
        0.0013347498   0.0004363597  -0.0002801857  -0.0024381562  -0.0033850842
       -0.0007106829  -0.0039495079   0.0209425291  -0.0118622865   0.0021770734
        0.0045633796   0.0039036669   0.0001473501  -0.0005312795   0.0002156482
       -0.0000167458   0.0000097505   0.0000564490  -0.0000777801  -0.0000702126
       -0.0000412032  -0.0000187829  -0.0000831714  -0.0000418729   0.0000636439
        0.0000650787   0.0000602950   0.0001722387   0.0000371607  -0.0000331633
        0.0000758286   0.0004104484   0.0000321770  -0.0001513767  -0.0000149802
       -0.0000757034   0.0000594995   0.0000273498   0.0000286375   0.0000125974
        0.0000749945   0.0000384288  -0.0000802608  -0.0000903478  -0.0000389814
       -0.0007241133   0.0011655650  -0.0006068670  -0.0599482746   0.0686288517
       -0.0755980068   0.0372531111   0.1024217107  -0.0920601822  -0.0103613048
       -0.0000664568   0.0022010094   0.0000257801  -0.0001178973  -0.0000160308
        0.0000094188   0.0000345912   0.0002044949   0.0000265912   0.0000284325
        0.0000266827  -0.0000146070   0.0000141635   0.0000165741  -0.0000303992
       -0.0000057192   0.0000067077  -0.0000100692  -0.0000166360   0.0000121050
       -0.0000350764  -0.0000047258  -0.0000483351  -0.0000084465  -0.0000203548
        0.0000036393   0.0000083645  -0.0000120658  -0.0000231680   0.0000365606
       -0.0000185017   0.0000140868   0.0000373244  -0.0000291487  -0.0000877176
       -0.0001164747  -0.0003014397  -0.0001160241  -0.0000925223  -0.0000666731
       -0.0001024641   0.0000230963   0.0000188713   0.0000234346   0.0000376579
       -0.0000065594   0.0000094423   0.0000173818  -0.0000285454   0.0000351292
       -0.0000009340   0.0000160259   0.0000293657   0.0000050336  -0.0000229561
       -0.0000194651  -0.0000075572  -0.0000026744  -0.0000043756  -0.0000080282
        0.0000314039  -0.0000165080   0.0027456171  -0.0025658495   0.0020299901
       -0.3359826411  -0.0799276888   0.0574959993   0.6806368572  -0.0289305313
       -0.0068585573  -0.0757582053  -0.0246963272   0.0155402034  -0.0333968823
       -0.0312716632   0.0157786424  -0.0004935884  -0.0007656474   0.0014771468
        0.0027127091   0.0049825082  -0.0015592347  -0.0140839712  -0.0010049466
        0.0050843170   0.0146701916   0.0038379580  -0.0053611203  -0.0072321503
        0.0045316350   0.0022313176   0.0042570458   0.0044001785  -0.0024869633
       -0.0030975554  -0.0016020405   0.0017428832   0.0042645103  -0.0018490343
       -0.0017185234  -0.0043139118  -0.0078825404   0.0029235609  -0.0003106530
        0.0002178888   0.0000785910  -0.0017386697   0.0023752482   0.0005923547
        0.0042511783  -0.0023134617  -0.0016625267  -0.0034930084  -0.0041719133
        0.0011019125   0.0006085418   0.0039291723  -0.0002752214   0.0000354798
       -0.0005543908  -0.0003193298   0.0048549297  -0.0063988285  -0.0010170719
       -0.0047995124   0.0024475613   0.0000992601   0.0246442666   0.0117956450
       -0.0050989689  -0.0183836329  -0.0177964961   0.0093865089  -0.0009153688
        0.0005541969  -0.0004539317   0.0008064831   0.0000965131   0.0002701988
       -0.0001248707   0.0000356228  -0.0001480664   0.0000023284  -0.0000884578
        0.0001429596  -0.0000297666   0.0000315082  -0.0000298364   0.0000206615
        0.0000360592   0.0000207647  -0.0000453376   0.0001181179  -0.0000530548
       -0.0000384194   0.0000657094  -0.0001214106   0.0000499059   0.0000193043
        0.0000023784  -0.0000461966   0.0000155443  -0.0000636241  -0.0000489042
       -0.0000664005   0.0000812811  -0.0001009699   0.0001401110   0.0000294754
       -0.0000150214  -0.0006881900   0.0000661783  -0.0671143027   0.0552159240
       -0.0264791763  -0.0122027652  -0.0045031342   0.0027282702  -0.1507989109
        0.1140567860  -0.0621224756  -0.0024992882  -0.0007361716   0.0012866696
       -0.0000544750  -0.0000650500  -0.0003795575  -0.0000917160   0.0000380168
       -0.0000881306  -0.0000423550   0.0000742041   0.0000243602  -0.0000574918
       -0.0000119629   0.0000409596  -0.0000310434  -0.0000786743  -0.0000043985
       -0.0000285274   0.0000017856   0.0000730241   0.0000127652  -0.0000822828
        0.0000410595   0.0000381421  -0.0001005471   0.0000864833  -0.0000083035
       -0.0000259993  -0.0000224220  -0.0000597435  -0.0001282144   0.0001102658
       -0.0025975071   0.0032896860  -0.0015975828   0.0000921596   0.0001391867
        0.0000610705  -0.0000210498  -0.0000102020  -0.0000281781   0.0000135890
        0.0000007141  -0.0000398115  -0.0000355529   0.0000104437   0.0000163146
       -0.0000372473   0.0000129273   0.0000116257   0.0000233929   0.0000265295
        0.0000159768   0.0000093279   0.0000159612   0.0000259081   0.0000802768
       -0.0000533114  -0.0001276539  -0.0019552254   0.0032914613  -0.0005510936
       -0.0141066720  -0.0853469678   0.0254250381  -0.0289305313   0.4698415232
       -0.1986568916  -0.0330103224  -0.1883688140   0.0741459767  -0.0382671801
       -0.0110842723   0.0067969447   0.0027272466  -0.0027131838   0.0025362603
        0.0021012594   0.0066519543  -0.0020898968  -0.0167432797  -0.0026373132
        0.0060100652   0.0184505308   0.0051169067  -0.0064540809  -0.0092532650
        0.0058831863   0.0029012946   0.0055238505   0.0059642624  -0.0033493215
       -0.0037774620  -0.0026635538   0.0022281794   0.0047630604  -0.0022863596
       -0.0020503734  -0.0050281288  -0.0106307878   0.0036071669  -0.0006337103
        0.0011407143   0.0001924994  -0.0021858449   0.0024117858   0.0007551500
        0.0049278835  -0.0027771220  -0.0019787059  -0.0041785074  -0.0053095044
        0.0013294187   0.0008073327   0.0050784259  -0.0003623060   0.0005616644
       -0.0008297104  -0.0006778916   0.0050443611  -0.0054587045  -0.0009725350
        0.0008719255   0.0043531025   0.0003824183   0.0131082371  -0.0314744541
        0.0201127898  -0.0060738867   0.0027476008  -0.0044214586   0.0018012613
       -0.0025366782   0.0009222777  -0.0011187961  -0.0002281947  -0.0001420742
        0.0000697449   0.0004726031   0.0002015332   0.0001245354   0.0000300471
        0.0001970418   0.0001493158   0.0006118823   0.0001923335  -0.0003811600
       -0.0006306762  -0.0004639663   0.0004690336   0.0001704386   0.0004097639
        0.0000324288  -0.0007223841  -0.0001916427   0.0004911600   0.0007188517
        0.0005363834  -0.0005442248  -0.0002713509  -0.0004679690  -0.0001677985
       -0.0002829845   0.0000946080  -0.0004339078  -0.0000723994  -0.0004144463
        0.0004858921   0.0013331846  -0.0002958189   0.0068292174   0.0105451048
       -0.0066681044  -0.0251575645  -0.0061255826   0.0048950777   0.1129263965
       -0.1587795077   0.0692510057   0.0014052802   0.0002787081  -0.0005071265
        0.0000115179  -0.0001069376  -0.0005112684  -0.0001004358  -0.0000550937
       -0.0000892230   0.0000275071   0.0000192193   0.0000011703   0.0000308862
        0.0000105729   0.0000394122  -0.0000040509  -0.0000096528  -0.0000437715
        0.0000661556   0.0000426764   0.0001230736   0.0000481929  -0.0000139340
        0.0000317974   0.0000012739  -0.0000384683   0.0001209855  -0.0000646282
       -0.0000157896  -0.0000213022   0.0000575471  -0.0002759330   0.0000471330
        0.0026690427  -0.0009344542   0.0035644247   0.0001409998  -0.0001085577
       -0.0000354212  -0.0000531435  -0.0000741237  -0.0000489987  -0.0000695468
        0.0000008465  -0.0000818535  -0.0000788288   0.0000910407  -0.0000081905
       -0.0001074004   0.0000629378  -0.0000169017   0.0000359216   0.0001176885
        0.0000174561   0.0000466208   0.0000712064   0.0000622065   0.0001788971
       -0.0000684703  -0.0000137196   0.0034840964  -0.0008345504   0.0039043739
        0.0223857521   0.0278209129  -0.0585116795  -0.0068585573  -0.1986568916
        0.2161026541   0.0274539802   0.0743947569  -0.0891198689   0.0148249724
        0.0067276407  -0.0025482328   0.0004737648  -0.0004466256  -0.0025247946
       -0.0018260540  -0.0032331817   0.0008387830   0.0087340292   0.0009139941
       -0.0030991048  -0.0089108454  -0.0022794398   0.0032144417   0.0043085868
       -0.0028807504  -0.0014052592  -0.0025223834  -0.0027387797   0.0014708612
        0.0018061372   0.0010470149  -0.0010373863  -0.0024216065   0.0011910247
        0.0009683022   0.0025731982   0.0049055858  -0.0016330660   0.0001599383
       -0.0002337617  -0.0001239799   0.0010794170  -0.0013189537  -0.0003479157
       -0.0023939247   0.0013624479   0.0009657417   0.0020405573   0.0024913503
       -0.0005252527  -0.0003966235  -0.0024144793   0.0002390262  -0.0002257722
        0.0003474915  -0.0005190136  -0.0035258090   0.0032383242   0.0008808288
        0.0009675763  -0.0001006170   0.0047080819  -0.0122697213   0.0189307874
       -0.0099807506   0.0052158980  -0.0021035849  -0.0023760706  -0.0008970931
        0.0012010841  -0.0007882440   0.0005075853   0.0001310739   0.0000589637
       -0.0000702253  -0.0001535089  -0.0000727062   0.0000234067  -0.0000035681
       -0.0000588186  -0.0000446241  -0.0001596550  -0.0000453943   0.0000958590
        0.0001565281   0.0001201786  -0.0000867613  -0.0000342798  -0.0000941278
        0.0000153415   0.0001128373   0.0000865822  -0.0001251061  -0.0001698789
       -0.0001303324   0.0001496845   0.0000810190   0.0001288342   0.0000397313
        0.0000520997  -0.0000648498   0.0000831767   0.0001200854   0.0001843069
       -0.0002001284  -0.0004725295   0.0001387172  -0.0011030600  -0.0080209155
        0.0068103253   0.0143624618   0.0040251057  -0.0019429164  -0.0607750691
        0.0683677281  -0.0681305290  -0.0001618032   0.0004968946   0.0002286590
        0.0000058228   0.0001225876   0.0004910535   0.0000543496   0.0000456477
        0.0000871327  -0.0000227873   0.0000088031   0.0000144140  -0.0000087032
        0.0000012097   0.0000191028  -0.0000146432  -0.0000056771   0.0000131691
       -0.0000184863  -0.0000146480   0.0000002681  -0.0000371867  -0.0000020869
       -0.0000469728  -0.0000069061   0.0000080735  -0.0000787356   0.0000159111
        0.0000037211  -0.0000443941  -0.0000164947   0.0002180211  -0.0002697160
       -0.0010677746   0.0033878874   0.0036951299  -0.0000309689  -0.0000049668
        0.0000387530   0.0000223218   0.0000174505   0.0000169110   0.0000246745
       -0.0000067106   0.0000348979   0.0000308449  -0.0000322535  -0.0000083278
        0.0000407510  -0.0000243677   0.0000000061  -0.0000170414  -0.0000442004
       -0.0000001998  -0.0000151252  -0.0000147705  -0.0000218955  -0.0001113811
        0.0000765906  -0.0000211603  -0.0013130636   0.0035653031   0.0040155696
       -0.0380885415  -0.0185898193   0.0121621808  -0.0757582053  -0.0330103224
        0.0274539802   0.5828870283  -0.0110121517  -0.0179840987  -0.2279263964
       -0.0218992267   0.0245272598  -0.0476153512   0.0149192886  -0.0039221522
        0.0022042793  -0.0054760908   0.0011814454   0.0271899408   0.0020683462
       -0.0098535596  -0.0331536369  -0.0098417542   0.0121037791   0.0179278125
       -0.0107469161  -0.0056925020  -0.0111997340  -0.0119260090   0.0066688457
        0.0075397199   0.0056174047  -0.0044725994  -0.0092970332   0.0041309592
        0.0039464590   0.0094690739   0.0205951593  -0.0068021794   0.0015448715
       -0.0025921201  -0.0004912752   0.0045886357  -0.0050773770  -0.0015196300
       -0.0105924169   0.0058697148   0.0041717092   0.0088416465   0.0109098614
       -0.0027435693  -0.0019315606  -0.0098649968   0.0007569063  -0.0017804293
       -0.0000880208   0.0007806829  -0.0022611299   0.0095421017   0.0011989068
       -0.0269972894  -0.0321181342   0.0130388542  -0.1325649390   0.0825793088
       -0.0480305635  -0.0648815830   0.0008031543   0.0040090522  -0.0029178711
       -0.0021811261   0.0002161902  -0.0015925609   0.0004448895   0.0003316276
        0.0002088104  -0.0006333910   0.0001426530  -0.0002364583  -0.0002113838
       -0.0005242475  -0.0002596667  -0.0010205405  -0.0003403554   0.0007236583
        0.0012975368   0.0007019438  -0.0011817921  -0.0004806342  -0.0010007139
       -0.0000238949   0.0015240677   0.0002057185  -0.0009675938  -0.0013350807
       -0.0009244821   0.0009691758   0.0004238632   0.0008198978   0.0003288284
        0.0007342276   0.0000842527   0.0007980065  -0.0007148728   0.0004310938
       -0.0000866889  -0.0000106948  -0.0001882635   0.0171445604   0.0057234050
       -0.0041727399  -0.0054671378  -0.0012207247   0.0007253207   0.0056561167
        0.0151394314  -0.0098329553   0.0009737147  -0.0015021993  -0.0000561261
       -0.0003915779   0.0000744590   0.0014755185   0.0002338905  -0.0000914306
        0.0001682518   0.0001131557  -0.0002108051  -0.0000207201   0.0000729082
        0.0000148444  -0.0001351546   0.0001019067   0.0001981893   0.0000085242
        0.0000318595  -0.0000507675  -0.0001936633  -0.0000242737   0.0002062986
       -0.0000792831  -0.0000864011   0.0002520086  -0.0002063021  -0.0000798219
        0.0000435919   0.0001141709   0.0002545771   0.0016127333  -0.0011274049
        0.0067417971  -0.0030121044   0.0032576531  -0.0002485512   0.0001393158
        0.0000054198   0.0000913565   0.0001792673   0.0001023563   0.0000640621
        0.0000126234   0.0001276947   0.0001098593  -0.0001243917   0.0000269703
        0.0001522095  -0.0001197045   0.0000711510  -0.0000147898  -0.0001638375
       -0.0001896100  -0.0000812170  -0.0001717509  -0.0001150014  -0.0000196776
        0.0004796904   0.0003966187   0.0007647596  -0.0000373636  -0.0007939369
       -0.0458442127  -0.0052683883   0.0046830911  -0.0246963272  -0.1883688140
        0.0743947569  -0.0110121517   0.4727295216  -0.1768298928  -0.0262200440
       -0.0764081451   0.0150884023   0.0191350841   0.0062276920  -0.0051087408
        0.0009156011  -0.0093154246   0.0022006190   0.0105305854   0.0029345730
       -0.0044162652  -0.0117184052  -0.0032846172   0.0041845093   0.0059312536
       -0.0039090448  -0.0018596017  -0.0035826087  -0.0041623984   0.0021462068
        0.0021647151   0.0021524851  -0.0013652850  -0.0025578394   0.0014389167
        0.0009767870   0.0028238540   0.0073386265  -0.0019759469   0.0005621756
       -0.0015853808  -0.0003161293   0.0012742319  -0.0009282949  -0.0004117733
       -0.0025575299   0.0014658279   0.0010222021   0.0023114192   0.0032232580
       -0.0006012636  -0.0005063074  -0.0031858462   0.0002422610  -0.0015061940
        0.0008428810   0.0002758866  -0.0042678082  -0.0022300648   0.0015644539
       -0.0278774841  -0.0078754860   0.0059491665   0.0732757551  -0.1592575315
        0.0555153807   0.0299760718   0.0002355849  -0.0020176256  -0.0076113866
        0.0091757041   0.0002979904   0.0026868771   0.0004446638   0.0007985554
       -0.0004664163  -0.0004733587  -0.0004406383   0.0004014296  -0.0000042109
        0.0001189039  -0.0001394621   0.0000725699  -0.0000389304  -0.0000200968
       -0.0000801151   0.0000410547   0.0002786526   0.0006937213   0.0000205761
       -0.0007169337   0.0000942180  -0.0003420104  -0.0000095508  -0.0001424960
       -0.0002285798   0.0000502824   0.0001810551   0.0001434583   0.0002548627
       -0.0001998377  -0.0003465530   0.0004263382   0.0005573429   0.0003850656
       -0.0016150524  -0.0027893482   0.0005323276   0.0086193830  -0.0072702379
        0.0028506002  -0.0000306839   0.0030865600   0.0034044945  -0.0031457741
       -0.0178672430   0.0101888178  -0.0002115552   0.0004249557   0.0001956128
        0.0013126949   0.0000312534   0.0001864046  -0.0000055387   0.0000725875
        0.0000991482  -0.0000759520   0.0000307087   0.0000228659  -0.0000205193
        0.0000108065   0.0000136063  -0.0000323512  -0.0000371354   0.0000214833
       -0.0000574990  -0.0000570654   0.0000289530  -0.0000526441  -0.0000349544
       -0.0000431705  -0.0000007927  -0.0000346206  -0.0001075575  -0.0000509541
        0.0000057942   0.0000093546  -0.0002640336   0.0007104685   0.0001209099
        0.0139370380  -0.0185501429   0.0090329527  -0.0000781511  -0.0000140031
        0.0000842900  -0.0000054478  -0.0000314724   0.0000004062  -0.0000411894
       -0.0000087280   0.0000109558  -0.0000136226   0.0000314926  -0.0000019113
        0.0000107815   0.0000430711  -0.0000846330  -0.0000694059   0.0000156310
        0.0001093459   0.0000219487   0.0000190969   0.0000057620   0.0000088678
       -0.0003903640   0.0000646435   0.0001720227  -0.0005262980  -0.0004957536
        0.0256755777   0.0051612592  -0.0013329847   0.0155402034   0.0741459767
       -0.0891198689  -0.0179840987  -0.1768298928   0.2095645695   0.0249407725
        0.0127945772  -0.0486678798   0.0011996415  -0.0025556358   0.0030899956
       -0.0001428017   0.0034623392   0.0013020714  -0.0062100820  -0.0012959391
        0.0012756100   0.0070798272   0.0020845326  -0.0016567702  -0.0034075879
        0.0022199578   0.0011939588   0.0020545062   0.0023166941  -0.0014181573
       -0.0013183533  -0.0012005345   0.0008275072   0.0013659304  -0.0008365085
       -0.0010419323  -0.0015635519  -0.0041226278   0.0014438462  -0.0002948608
        0.0007773417  -0.0000042246  -0.0007360331   0.0005076453   0.0001641421
        0.0014636704  -0.0008687840  -0.0007644619  -0.0013575624  -0.0018703867
        0.0005527838   0.0002477658   0.0018793626  -0.0000563976   0.0007716897
       -0.0005615827  -0.0002767672   0.0018237242  -0.0002366437   0.0015172107
        0.0083777369   0.0042691937   0.0001936272  -0.0362385304   0.0565747109
       -0.0729510678  -0.0119465654  -0.0018467134   0.0000546515   0.0028201025
        0.0021968983   0.0065283855  -0.0003363147  -0.0011036897   0.0012354674
        0.0000524524  -0.0000298826   0.0000653185   0.0000627598   0.0000081899
       -0.0000908418  -0.0000267446   0.0000739509   0.0000215587   0.0000934760
       -0.0001032329  -0.0001388345   0.0002334726   0.0001127226   0.0002442098
        0.0000094461   0.0002717652  -0.0001889090  -0.0000297890   0.0000283577
        0.0000292676  -0.0000507272  -0.0000477162  -0.0000577796   0.0000206302
       -0.0000462754   0.0000737580   0.0000404230  -0.0002715702  -0.0000494216
       -0.0002801567   0.0008514169  -0.0005523569  -0.0054020611   0.0010816980
       -0.0065910536   0.0009162809   0.0030882474   0.0067214732   0.0018477509
        0.0098488549  -0.0040107643  -0.0001375672  -0.0001085373  -0.0009595773
       -0.0002007515  -0.0000105247  -0.0002078361  -0.0000215008  -0.0000048824
       -0.0000140764   0.0000074801  -0.0000051857  -0.0000393979   0.0000579848
        0.0000093875   0.0001121753  -0.0000066286  -0.0000031843  -0.0000561607
        0.0001094626   0.0000088647   0.0002854801   0.0000058465   0.0000006953
       -0.0000339660   0.0000107360  -0.0000119915   0.0000644142  -0.0000484295
        0.0000049580  -0.0001350152  -0.0003062865  -0.0003174401  -0.0009302028
       -0.0085658116   0.0105948433  -0.0046971435  -0.0000325012   0.0000044380
        0.0000339347   0.0000024076   0.0000029126   0.0000074540  -0.0000234652
       -0.0000053098   0.0000341224   0.0000521652   0.0000026394  -0.0000162664
       -0.0000214134   0.0000186534   0.0000254293   0.0000163945   0.0000109787
       -0.0000165606   0.0000048759   0.0000141938   0.0000062244  -0.0000381533
        0.0001686720   0.0000800204  -0.0001768637  -0.0003022581  -0.0006719910
        0.0146249682  -0.0049285456   0.0017884701  -0.0333968823  -0.0382671801
        0.0148249724  -0.2279263964  -0.0262200440   0.0249407725   0.5897360144
       -0.0024113912  -0.0510847787  -0.1245786434   0.0913876434  -0.0017686936
       -0.0557999344   0.0229095794   0.0038689246  -0.0118853931  -0.0038164149
        0.0042810226   0.0268634453   0.0102496560  -0.0104480855  -0.0171004625
        0.0092702850   0.0057620693   0.0123306009   0.0132844568  -0.0073656056
       -0.0061644543  -0.0095084667   0.0043010486   0.0051929799  -0.0022297442
       -0.0024547926  -0.0054085532  -0.0226789572   0.0048498988  -0.0038000526
        0.0059414466   0.0014375693  -0.0044142524   0.0006879133   0.0013265967
        0.0079483975  -0.0038740500  -0.0031383442  -0.0072423726  -0.0100788203
        0.0021697484   0.0017034998   0.0109888461  -0.0003961387  -0.0024004865
       -0.0010057078   0.0013854761  -0.0241310694  -0.0317556172   0.0057440841
       -0.0829904367  -0.0531172415   0.0072430277  -0.0613132408   0.0232648546
       -0.0041463793   0.0120035723   0.0101702866  -0.0060033479  -0.0010660199
       -0.0007943421   0.0004954433  -0.0010687800  -0.0002089809  -0.0010792415
       -0.0001724869   0.0014617164   0.0001014890   0.0005858210   0.0003845555
        0.0005880180   0.0004642396   0.0019396275   0.0007008517  -0.0014667468
       -0.0022935096  -0.0015125509   0.0021802644   0.0005200095   0.0014927327
        0.0001050734  -0.0027851050  -0.0004981645   0.0016677667   0.0022701628
        0.0015812715  -0.0015313153  -0.0008809365  -0.0012536977  -0.0003347866
       -0.0009268779  -0.0002122781  -0.0012837419   0.0001555608  -0.0009888827
        0.0001217368   0.0016558993   0.0005016362  -0.0069413484  -0.0001092623
        0.0009112631   0.0000262985   0.0000691570   0.0002956794   0.0001327770
        0.0014213975   0.0000812675   0.0062090648  -0.0048623881   0.0006546089
       -0.0049532671  -0.0004761350   0.0014659887  -0.0001519717  -0.0000607932
       -0.0001455763  -0.0000957262   0.0002297064  -0.0000150556  -0.0000828440
       -0.0000494365   0.0001874713  -0.0000962088  -0.0001877939   0.0000348370
       -0.0000977378  -0.0000689651   0.0001836897   0.0000133835  -0.0002005200
        0.0000551036   0.0001134647  -0.0002458542   0.0002259520   0.0002459822
       -0.0003518090  -0.0003067221   0.0053111151   0.0173722028  -0.0007631345
        0.0004802034  -0.0016280443   0.0003658586   0.0000161849  -0.0001931555
       -0.0000418371  -0.0001315532  -0.0002440568  -0.0001447917  -0.0001271022
       -0.0000243664  -0.0001185977  -0.0001508185   0.0001596998  -0.0000588637
       -0.0001708539   0.0001283749  -0.0000852899   0.0000068099   0.0001861027
        0.0001950127   0.0001534324   0.0001941203   0.0001512142   0.0001254631
        0.0000694636  -0.0000985234   0.0001133802   0.0001117884  -0.0000636972
        0.0032712803  -0.0051881472   0.0042191534  -0.0312716632  -0.0110842723
        0.0067276407  -0.0218992267  -0.0764081451   0.0127945772  -0.0024113912
        0.4965288292  -0.0695902416   0.0447951134  -0.1622152045   0.0200631826
        0.0370660449   0.0004919205  -0.0062783606  -0.0137193697   0.0260111300
       -0.0009243989   0.0023290567  -0.0058569375   0.0001734479   0.0005497942
        0.0024253246  -0.0009472513  -0.0059586236  -0.0070271850   0.0033200973
       -0.0066756901   0.0170594873   0.0008831697   0.0176191664  -0.0081474765
       -0.0067168217  -0.0143107265   0.0148586753   0.0068305699   0.0058864099
       -0.0207010167  -0.0041764259  -0.0053068802   0.0242526234   0.0022494618