 Entering Gaussian System
 *********************************************
 Gaussian 98:
 frequency output generated by the xtb code
 *********************************************
                         Standard orientation:
 --------------------------------------------------------------------
  Center     Atomic     Atomic              Coordinates (Angstroms)
  Number     Number      Type              X           Y           Z
 --------------------------------------------------------------------
    1          6             0       -2.285779   -3.323807    1.746051
    2          6             0       -0.942415   -3.110058    1.564336
    3          6             0       -0.453997   -1.933234    0.926910
    4          6             0        0.934396   -1.697127    0.732637
    5          6             0        1.910636   -2.740849    0.808640
    6          6             0        3.214519   -2.510399    0.538145
    7          6             0        3.711618   -1.208677    0.179763
    8          6             0        5.005880   -0.990119   -0.307982
    9          6             0        5.918691   -2.060634   -0.554066
   10          6             0        7.138315   -1.850295   -1.125729
   11          6             0        7.527534   -0.555714   -1.495704
   12          6             0        6.684204    0.509474   -1.242953
   13          6             0        5.443089    0.344561   -0.635316
   14          6             0        4.592958    1.469805   -0.300417
   15          6             0        5.055815    2.789826   -0.380948
   16          6             0        4.255553    3.864280   -0.042268
   17          6             0        2.967431    3.643988    0.409960
   18          6             0        2.493632    2.347184    0.515127
   19          6             0        3.273910    1.248106    0.155131
   20          6             0        2.771405   -0.115690    0.280531
   21          6             0        1.444887   -0.386800    0.485606
   22          6             0       -1.430438   -1.009794    0.476420
   23          6             0       -2.775629   -1.237340    0.658454
   24          7             0       -3.710302   -0.290818    0.206326
   25          6             0       -4.805033   -0.553257   -0.588962
   26          6             0       -5.219424   -1.753224   -1.152443
   27          6             0       -6.354743   -1.737148   -1.940971
   28          6             0       -7.059224   -0.558479   -2.176533
   29          6             0       -6.638410    0.643559   -1.636773
   30          6             0       -5.502617    0.652569   -0.840169
   31          6             0       -4.781594    1.689805   -0.151802
   32          6             0       -4.974458    3.056506   -0.009090
   33          6             0       -4.077746    3.775135    0.760477
   34          6             0       -3.009888    3.144319    1.395322
   35          6             0       -2.797661    1.784366    1.268325
   36          6             0       -3.680079    1.061218    0.476337
   37          6             0       -3.227175   -2.398550    1.304979
   38          1             0       -2.622699   -4.218493    2.249773
   39          1             0       -0.242910   -3.833516    1.950932
   40          1             0        1.595631   -3.745066    1.046022
   41          1             0        3.906261   -3.335682    0.592954
   42          1             0        5.631159   -3.068198   -0.301504
   43          1             0        7.804669   -2.681394   -1.307972
   44          1             0        8.481686   -0.391965   -1.973496
   45          1             0        7.010371    1.492807   -1.543863
   46          1             0        6.066669    2.989208   -0.698535
   47          1             0        4.643949    4.869538   -0.119517
   48          1             0        2.335107    4.473148    0.691844
   49          1             0        1.499047    2.199877    0.905548
   50          1             0        0.743150    0.429636    0.508218
   51          1             0       -1.129030   -0.131263   -0.071947
   52          1             0       -4.667272   -2.666339   -0.989583
   53          1             0       -6.700167   -2.657526   -2.388382
   54          1             0       -7.941724   -0.586254   -2.798517
   55          1             0       -7.178098    1.557811   -1.832934
   56          1             0       -5.810686    3.545110   -0.486118
   57          1             0       -4.208657    4.840405    0.880961
   58          1             0       -2.335922    3.729937    2.003344
   59          1             0       -1.980362    1.297878    1.778887
   60          1             0       -4.280811   -2.547367    1.479514
 --------------------------------------------------------------------
     1 basis functions        1 primitive gaussians
     1 alpha electrons        1 beta electrons
 
 Harmonic frequencies (cm**-1), IR intensities (km*mol⁻¹),
 Raman scattering activities (A**4/amu), Raman depolarization ratios,
 reduced masses (AMU), force constants (mDyne/A) and normal coordinates:
                      1                      2                      3
                        a                      a                      a 
 Frequencies --    13.1011                17.3267                23.9413
 Red. masses --    10.9101                10.8700                11.0135
 Frc consts  --     0.0000                 0.0000                 0.0000
 IR Inten    --     0.0832                 2.3109                 0.4908
 Raman Activ --     0.0000                 0.0000                 0.0000
 Depolar     --     0.0000                 0.0000                 0.0000
 Atom AN      X      Y      Z        X      Y      Z        X      Y      Z
   1   6     0.01  -0.05  -0.10     0.01  -0.00   0.00     0.02   0.10  -0.01
   2   6     0.00  -0.05  -0.12     0.00  -0.02  -0.05     0.02   0.10  -0.04
   3   6    -0.00  -0.04  -0.11    -0.01  -0.04  -0.08     0.01   0.10  -0.06
   4   6    -0.01  -0.03  -0.12    -0.01  -0.04  -0.09     0.01   0.06  -0.09
   5   6     0.00  -0.02  -0.10    -0.01  -0.04  -0.14    -0.02   0.03  -0.14
   6   6     0.01  -0.01  -0.05    -0.01  -0.03  -0.12    -0.02  -0.01  -0.13
   7   6     0.02  -0.00  -0.02    -0.01  -0.01  -0.05     0.03  -0.01  -0.07
   8   6     0.06   0.01   0.09     0.00   0.02  -0.02     0.06  -0.04  -0.02
   9   6     0.12   0.03   0.24     0.01   0.03  -0.05     0.03  -0.06  -0.01
  10   6     0.16   0.03   0.34     0.02   0.07  -0.03     0.06  -0.09   0.04
  11   6     0.15   0.03   0.30     0.02   0.08   0.04     0.12  -0.09   0.08
  12   6     0.10   0.01   0.17     0.01   0.07   0.08     0.14  -0.07   0.08
  13   6     0.05   0.01   0.07     0.01   0.04   0.06     0.11  -0.05   0.03
  14   6    -0.01   0.00  -0.06    -0.00   0.02   0.10     0.14  -0.03   0.04
  15   6    -0.04   0.01  -0.10    -0.00   0.02   0.18     0.18  -0.04   0.09
  16   6    -0.09   0.01  -0.21    -0.01   0.01   0.22     0.21  -0.03   0.09
  17   6    -0.11  -0.00  -0.27    -0.02  -0.02   0.18     0.19   0.00   0.04
  18   6    -0.08  -0.01  -0.23    -0.02  -0.03   0.10     0.14   0.02  -0.01
  19   6    -0.03  -0.01  -0.13    -0.01  -0.01   0.06     0.11  -0.00  -0.01
  20   6    -0.01  -0.02  -0.10    -0.01  -0.01  -0.01     0.06   0.01  -0.06
  21   6    -0.01  -0.03  -0.13    -0.01  -0.03  -0.04     0.05   0.05  -0.08
  22   6    -0.01  -0.03  -0.08    -0.01  -0.04  -0.07     0.01   0.10  -0.04
  23   6    -0.01  -0.03  -0.05    -0.01  -0.01  -0.02     0.01   0.09  -0.03
  24   7    -0.01  -0.01  -0.00    -0.01  -0.01  -0.01    -0.02   0.06  -0.04
  25   6    -0.05   0.02   0.03    -0.07  -0.02   0.07    -0.03  -0.01   0.00
  26   6    -0.08   0.04   0.02    -0.15  -0.04   0.18     0.03  -0.04   0.00
  27   6    -0.11   0.08   0.06    -0.20  -0.05   0.25     0.00  -0.11   0.05
  28   6    -0.10   0.09   0.11    -0.17  -0.04   0.22    -0.10  -0.16   0.09
  29   6    -0.07   0.07   0.13    -0.09  -0.02   0.11    -0.16  -0.14   0.09
  30   6    -0.04   0.04   0.08    -0.04  -0.01   0.04    -0.13  -0.06   0.04
  31   6    -0.00   0.01   0.08     0.05   0.01  -0.08    -0.18  -0.02   0.03
  32   6     0.02   0.01   0.12     0.11   0.02  -0.17    -0.29  -0.04   0.06
  33   6     0.06  -0.02   0.11     0.19   0.05  -0.28    -0.31   0.02   0.04
  34   6     0.07  -0.05   0.06     0.20   0.05  -0.30    -0.24   0.09  -0.01
  35   6     0.05  -0.05   0.02     0.13   0.03  -0.21    -0.14   0.11  -0.04
  36   6     0.01  -0.02   0.03     0.06   0.01  -0.10    -0.11   0.06  -0.02
  37   6     0.00  -0.04  -0.06     0.00   0.01   0.03     0.02   0.09  -0.02
  38   1     0.00  -0.02  -0.03     0.00   0.00   0.01     0.01   0.03   0.00
  39   1     0.00  -0.02  -0.04     0.00  -0.01  -0.02     0.01   0.03  -0.01
  40   1     0.00  -0.01  -0.04    -0.00  -0.01  -0.06    -0.02   0.01  -0.05
  41   1     0.00  -0.00  -0.01    -0.00  -0.01  -0.05    -0.01  -0.01  -0.05
  42   1     0.04   0.01   0.08     0.00   0.01  -0.03    -0.00  -0.02  -0.01
  43   1     0.06   0.01   0.13     0.01   0.02  -0.02     0.01  -0.03   0.01
  44   1     0.06   0.01   0.11     0.01   0.03   0.02     0.04  -0.03   0.04
  45   1     0.03   0.00   0.04     0.00   0.02   0.04     0.05  -0.02   0.04
  46   1    -0.01   0.01  -0.02     0.00   0.01   0.06     0.06  -0.02   0.04
  47   1    -0.03   0.00  -0.07    -0.00   0.00   0.08     0.07  -0.01   0.04
  48   1    -0.04  -0.00  -0.10    -0.01  -0.01   0.06     0.06   0.01   0.01
  49   1    -0.03  -0.00  -0.08    -0.01  -0.01   0.02     0.03   0.01  -0.01
  50   1    -0.01  -0.01  -0.05    -0.00  -0.01  -0.00     0.02   0.02  -0.02
  51   1    -0.01  -0.01  -0.02    -0.00  -0.02  -0.03     0.00   0.03  -0.01
  52   1    -0.03   0.01  -0.01    -0.05  -0.02   0.06     0.03   0.00  -0.01
  53   1    -0.04   0.03   0.01    -0.08  -0.02   0.10     0.01  -0.04   0.02
  54   1    -0.04   0.03   0.04    -0.06  -0.02   0.08    -0.03  -0.06   0.04
  55   1    -0.02   0.02   0.05    -0.02  -0.00   0.03    -0.07  -0.05   0.04
  56   1     0.00   0.01   0.05     0.03   0.01  -0.05    -0.10  -0.03   0.03
  57   1     0.02  -0.01   0.04     0.07   0.02  -0.10    -0.11   0.00   0.02
  58   1     0.03  -0.02   0.01     0.07   0.02  -0.11    -0.07   0.04  -0.01
  59   1     0.02  -0.02  -0.01     0.04   0.01  -0.06    -0.02   0.05  -0.03
  60   1     0.00  -0.01  -0.01     0.00   0.01   0.02     0.01   0.03  -0.00
                      4                      5                      6
                        a                      a                      a 
 Frequencies --    38.8338                54.6783                66.1212
 Red. masses --    10.7907                 9.9032                10.2481
 Frc consts  --     0.0000                 0.0000                 0.0000
 IR Inten    --     0.3220                 0.5396                 0.3326
 Raman Activ --     0.0000                 0.0000                 0.0000
 Depolar     --     0.0000                 0.0000                 0.0000
 Atom AN      X      Y      Z        X      Y      Z        X      Y      Z
   1   6     0.01   0.04   0.19     0.01  -0.01   0.03     0.06   0.07   0.20
   2   6    -0.00   0.01   0.08     0.01   0.03   0.08     0.04   0.11   0.14
   3   6    -0.03  -0.01   0.03     0.01   0.02   0.05    -0.02   0.05  -0.03
   4   6    -0.04  -0.04  -0.10     0.00   0.04   0.08    -0.03   0.06  -0.10
   5   6    -0.07  -0.07  -0.27     0.02   0.07   0.19    -0.03   0.07  -0.03
   6   6    -0.08  -0.07  -0.32     0.01   0.07   0.14    -0.02   0.06   0.01
   7   6    -0.06  -0.04  -0.19    -0.03   0.04  -0.02    -0.00   0.05  -0.00
   8   6    -0.03  -0.01  -0.10    -0.05   0.00  -0.09     0.03   0.02   0.08
   9   6    -0.01  -0.00  -0.12    -0.19  -0.06  -0.34     0.09   0.04   0.24
  10   6     0.04   0.03   0.01    -0.14  -0.07  -0.24     0.04   0.01   0.11
  11   6     0.09   0.06   0.16     0.05  -0.02   0.13    -0.08  -0.04  -0.18
  12   6     0.07   0.05   0.17     0.14   0.01   0.28    -0.09  -0.03  -0.23
  13   6     0.01   0.01   0.03     0.06   0.01   0.12     0.00   0.00  -0.05
  14   6    -0.02  -0.01   0.02     0.07   0.02   0.12     0.04   0.01   0.01
  15   6    -0.03  -0.00   0.07     0.12   0.01   0.22     0.16  -0.02   0.22
  16   6    -0.06  -0.01   0.04     0.08   0.03   0.05     0.20   0.00   0.24
  17   6    -0.09  -0.03  -0.04    -0.03   0.06  -0.24     0.11   0.04   0.01
  18   6    -0.08  -0.04  -0.09    -0.07   0.07  -0.30     0.01   0.06  -0.16
  19   6    -0.05  -0.03  -0.06    -0.01   0.04  -0.09    -0.00   0.04  -0.12
  20   6    -0.04  -0.04  -0.11    -0.02   0.05  -0.04    -0.03   0.05  -0.15
  21   6    -0.04  -0.04  -0.07    -0.02   0.04   0.00    -0.04   0.05  -0.21
  22   6    -0.04   0.01   0.10    -0.01  -0.02  -0.01    -0.07  -0.04  -0.08
  23   6    -0.03   0.03   0.19    -0.01  -0.05  -0.04    -0.06  -0.07  -0.00
  24   7    -0.05   0.02   0.19    -0.00  -0.05  -0.05    -0.09  -0.10   0.00
  25   6     0.03   0.00   0.09    -0.02  -0.02  -0.03    -0.08  -0.04  -0.02
  26   6     0.06  -0.02   0.11    -0.05  -0.01  -0.04    -0.15  -0.03   0.00
  27   6     0.15  -0.03  -0.02    -0.06   0.02  -0.02    -0.12   0.03  -0.04
  28   6     0.21  -0.03  -0.16    -0.05   0.03   0.01    -0.03   0.07  -0.09
  29   6     0.17  -0.01  -0.17    -0.02   0.02   0.02     0.02   0.05  -0.09
  30   6     0.08   0.00  -0.04    -0.01  -0.01  -0.00    -0.01  -0.01  -0.05
  31   6     0.04   0.02  -0.02     0.02  -0.03   0.01     0.02  -0.04  -0.02
  32   6     0.06   0.03  -0.11     0.04  -0.03   0.03     0.08  -0.03  -0.01
  33   6     0.01   0.05  -0.06     0.05  -0.06   0.04     0.08  -0.09   0.05
  34   6    -0.06   0.05   0.06     0.05  -0.08   0.02     0.02  -0.15   0.09
  35   6    -0.08   0.04   0.15     0.03  -0.08  -0.01    -0.03  -0.16   0.06
  36   6    -0.04   0.03   0.11     0.02  -0.05  -0.02    -0.04  -0.10   0.01
  37   6    -0.01   0.05   0.24    -0.00  -0.05  -0.03     0.00  -0.02   0.12
  38   1     0.01   0.02   0.07     0.00  -0.00   0.01     0.03   0.03   0.09
  39   1     0.01   0.00   0.01     0.00   0.02   0.04     0.02   0.06   0.06
  40   1    -0.02  -0.03  -0.11     0.02   0.03   0.09    -0.01   0.02  -0.01
  41   1    -0.03  -0.03  -0.13     0.01   0.03   0.08    -0.01   0.02   0.01
  42   1    -0.01  -0.01  -0.07    -0.10  -0.03  -0.19     0.05   0.02   0.13
  43   1     0.01   0.01   0.00    -0.07  -0.03  -0.13     0.02   0.01   0.07
  44   1     0.04   0.03   0.08     0.03  -0.00   0.07    -0.04  -0.02  -0.09
  45   1     0.03   0.02   0.08     0.08   0.01   0.14    -0.05  -0.01  -0.12
  46   1    -0.01   0.01   0.04     0.05  -0.00   0.12     0.07  -0.02   0.12
  47   1    -0.02  -0.00   0.02     0.04   0.01   0.04     0.08  -0.01   0.12
  48   1    -0.03  -0.01  -0.02    -0.02   0.02  -0.12     0.03   0.02  -0.00
  49   1    -0.03  -0.01  -0.05    -0.05   0.03  -0.15    -0.02   0.03  -0.09
  50   1    -0.01  -0.01   0.00    -0.01   0.01  -0.00    -0.01   0.01  -0.09
  51   1    -0.02   0.00   0.02    -0.00  -0.01  -0.01    -0.04  -0.02  -0.05
  52   1     0.01  -0.01   0.06    -0.02  -0.01  -0.02    -0.06  -0.02   0.01
  53   1     0.05  -0.01  -0.00    -0.02   0.01  -0.01    -0.05   0.01  -0.01
  54   1     0.08  -0.01  -0.08    -0.02   0.02   0.01    -0.00   0.03  -0.04
  55   1     0.06  -0.00  -0.08    -0.00   0.01   0.01     0.02   0.02  -0.04
  56   1     0.03   0.01  -0.06     0.01  -0.00   0.02     0.04   0.01  -0.01
  57   1     0.01   0.02  -0.04     0.02  -0.02   0.02     0.03  -0.03   0.02
  58   1    -0.03   0.02   0.03     0.02  -0.03   0.01     0.01  -0.06   0.04
  59   1    -0.04   0.01   0.07     0.01  -0.03  -0.01    -0.02  -0.06   0.02
  60   1    -0.00   0.02   0.09    -0.00  -0.02  -0.02     0.00  -0.02   0.04
                      7                      8                      9
                        a                      a                      a 
 Frequencies --    72.2828                75.0599                97.1440
 Red. masses --    10.4201                10.4532                 9.9540
 Frc consts  --     0.0000                 0.0000                 0.0000
 IR Inten    --     0.5233                 1.3757                 7.8547
 Raman Activ --     0.0000                 0.0000                 0.0000
 Depolar     --     0.0000                 0.0000                 0.0000
 Atom AN      X      Y      Z        X      Y      Z        X      Y      Z
   1   6    -0.00  -0.23  -0.37    -0.06   0.08   0.06    -0.03  -0.06  -0.03
   2   6    -0.01  -0.17  -0.33    -0.05  -0.04  -0.01    -0.02   0.02   0.15
   3   6    -0.01  -0.01  -0.05     0.02  -0.10  -0.06    -0.01   0.05   0.22
   4   6    -0.02   0.03   0.00     0.03  -0.14  -0.04    -0.02   0.05   0.20
   5   6     0.00   0.04   0.04     0.06  -0.10   0.06    -0.09  -0.03  -0.19
   6   6     0.01   0.05   0.09     0.07  -0.06   0.10    -0.12  -0.05  -0.34
   7   6     0.00   0.04   0.06     0.03  -0.06   0.05    -0.07  -0.00  -0.09
   8   6     0.01   0.01   0.07     0.03  -0.02   0.07    -0.02  -0.00   0.02
   9   6     0.00   0.00   0.09     0.08   0.02   0.07     0.03   0.02   0.11
  10   6    -0.04  -0.03  -0.00     0.02   0.07  -0.05     0.00   0.02   0.06
  11   6    -0.06  -0.05  -0.11    -0.09   0.07  -0.16    -0.06  -0.00  -0.08
  12   6    -0.04  -0.03  -0.08    -0.11   0.04  -0.10    -0.07  -0.01  -0.07
  13   6     0.01  -0.01   0.03    -0.03  -0.01   0.05    -0.01  -0.00   0.04
  14   6     0.04   0.00   0.05    -0.05  -0.03   0.09     0.01   0.00   0.07
  15   6     0.11  -0.02   0.13    -0.02  -0.03   0.27     0.07  -0.02   0.10
  16   6     0.11   0.01   0.05    -0.10  -0.05   0.17     0.08   0.02  -0.02
  17   6     0.04   0.05  -0.13    -0.20  -0.08  -0.12     0.02   0.07  -0.17
  18   6    -0.01   0.06  -0.16    -0.19  -0.09  -0.22    -0.02   0.08  -0.13
  19   6     0.00   0.03  -0.04    -0.09  -0.07  -0.07    -0.01   0.03   0.04
  20   6    -0.01   0.04  -0.00    -0.02  -0.10  -0.06    -0.02   0.03   0.09
  21   6    -0.01   0.03   0.01    -0.01  -0.14  -0.09     0.01   0.06   0.34
  22   6    -0.04   0.07   0.15     0.08  -0.05  -0.09     0.01   0.05   0.19
  23   6    -0.03   0.01   0.11     0.07   0.07  -0.02    -0.00  -0.03   0.01
  24   7    -0.07   0.02   0.23     0.12   0.11  -0.06     0.02  -0.03  -0.03
  25   6    -0.02  -0.00   0.15     0.10   0.06  -0.02     0.01  -0.02  -0.02
  26   6     0.00  -0.02   0.17     0.19   0.05  -0.05     0.09   0.02  -0.16
  27   6     0.05  -0.05   0.10     0.17  -0.01  -0.03     0.08   0.03  -0.15
  28   6     0.08  -0.05  -0.00     0.07  -0.06   0.05    -0.01   0.01   0.01
  29   6     0.07  -0.03  -0.05    -0.02  -0.04   0.09    -0.08  -0.03   0.13
  30   6     0.02  -0.01   0.03     0.01   0.02   0.05    -0.05  -0.03   0.09
  31   6    -0.00   0.02   0.00    -0.02   0.05   0.05    -0.03  -0.04   0.08
  32   6     0.04   0.04  -0.14    -0.11   0.03   0.10    -0.01  -0.04   0.07
  33   6     0.01   0.09  -0.16    -0.10   0.07   0.05     0.08  -0.02  -0.06
  34   6    -0.07   0.11  -0.01     0.00   0.14  -0.07     0.13  -0.01  -0.14
  35   6    -0.10   0.09   0.13     0.08   0.15  -0.11     0.09  -0.02  -0.10
  36   6    -0.06   0.04   0.13     0.06   0.10  -0.03     0.02  -0.03  -0.00
  37   6    -0.02  -0.13  -0.12     0.00   0.15   0.07    -0.02  -0.10  -0.12
  38   1     0.00  -0.10  -0.17    -0.03   0.04   0.03    -0.02  -0.03  -0.03
  39   1    -0.00  -0.08  -0.15    -0.02  -0.03  -0.01    -0.00   0.02   0.06
  40   1     0.01   0.01   0.02     0.03  -0.03   0.04    -0.04  -0.02  -0.12
  41   1     0.00   0.02   0.04     0.03  -0.01   0.05    -0.05  -0.04  -0.20
  42   1     0.01   0.00   0.05     0.04   0.01   0.04     0.03   0.01   0.07
  43   1    -0.01  -0.01  -0.00     0.01   0.03  -0.02     0.01   0.01   0.04
  44   1    -0.03  -0.02  -0.06    -0.05   0.03  -0.08    -0.03  -0.00  -0.05
  45   1    -0.02  -0.01  -0.04    -0.06   0.02  -0.05    -0.03  -0.00  -0.04
  46   1     0.05  -0.02   0.08     0.01  -0.01   0.14     0.03  -0.02   0.06
  47   1     0.04  -0.00   0.04    -0.02  -0.01   0.09     0.03   0.00  -0.00
  48   1     0.01   0.02  -0.06    -0.08  -0.03  -0.07    -0.00   0.03  -0.09
  49   1    -0.02   0.03  -0.08    -0.08  -0.03  -0.12    -0.02   0.04  -0.07
  50   1    -0.00   0.01  -0.00    -0.01  -0.05  -0.04     0.01   0.02   0.17
  51   1    -0.02   0.05   0.09     0.03  -0.03  -0.04     0.01   0.02   0.07
  52   1    -0.00  -0.01   0.07     0.08   0.03  -0.03     0.05   0.01  -0.08
  53   1     0.02  -0.02   0.04     0.07  -0.01  -0.02     0.04   0.02  -0.08
  54   1     0.04  -0.02  -0.02     0.02  -0.03   0.02    -0.01   0.00   0.01
  55   1     0.03  -0.01  -0.04    -0.03  -0.02   0.04    -0.04  -0.01   0.07
  56   1     0.03   0.01  -0.07    -0.05  -0.01   0.05    -0.02  -0.01   0.04
  57   1     0.01   0.03  -0.08    -0.05   0.02   0.03     0.03  -0.00  -0.03
  58   1    -0.03   0.04  -0.00     0.01   0.05  -0.04     0.06   0.00  -0.07
  59   1    -0.04   0.03   0.07     0.05   0.06  -0.05     0.04  -0.00  -0.04
  60   1    -0.00  -0.05  -0.03    -0.00   0.07   0.04    -0.01  -0.05  -0.08
                     10                     11                     12
                        a                      a                      a 
 Frequencies --   103.7754               118.9805               141.4731
 Red. masses --    10.4069                10.7120                10.0606
 Frc consts  --     0.0000                 0.0000                 0.0000
 IR Inten    --     0.1329                 0.3279                 0.8893
 Raman Activ --     0.0000                 0.0000                 0.0000
 Depolar     --     0.0000                 0.0000                 0.0000
 Atom AN      X      Y      Z        X      Y      Z        X      Y      Z
   1   6     0.02  -0.04   0.01    -0.08  -0.06  -0.09    -0.03  -0.03  -0.05
   2   6     0.01  -0.01  -0.03    -0.06  -0.03   0.09    -0.03  -0.08  -0.11
   3   6    -0.03   0.00  -0.05     0.00  -0.00   0.19    -0.02  -0.05  -0.05
   4   6    -0.04   0.03  -0.08    -0.00  -0.00   0.19    -0.03   0.02   0.02
   5   6    -0.01   0.08   0.10     0.04   0.03   0.24    -0.04   0.02  -0.03
   6   6    -0.00   0.07   0.13    -0.01   0.02  -0.01    -0.06   0.04  -0.05
   7   6    -0.04   0.04  -0.03    -0.07  -0.02  -0.22    -0.10   0.06  -0.04
   8   6    -0.05   0.01  -0.06    -0.07  -0.01  -0.22    -0.09   0.02  -0.03
   9   6    -0.07  -0.01  -0.03     0.01   0.02  -0.05    -0.11  -0.01   0.03
  10   6    -0.02  -0.03   0.07     0.13   0.07   0.20    -0.07  -0.04   0.10
  11   6     0.04  -0.04   0.12     0.12   0.06   0.18    -0.04  -0.06   0.08
  12   6     0.02  -0.02   0.02    -0.01   0.02  -0.09    -0.04  -0.04  -0.01
  13   6    -0.03   0.00  -0.09    -0.08  -0.01  -0.23    -0.06   0.00  -0.04
  14   6    -0.03   0.01  -0.11    -0.08  -0.02  -0.21    -0.04   0.02  -0.04
  15   6    -0.01   0.01  -0.08    -0.01  -0.03   0.00     0.03  -0.00  -0.02
  16   6     0.04   0.00   0.07     0.07  -0.05   0.24     0.09   0.03   0.02
  17   6     0.07   0.00   0.16     0.05  -0.05   0.18     0.08   0.08   0.01
  18   6     0.03   0.01   0.06    -0.04  -0.04  -0.08     0.01   0.10  -0.02
  19   6    -0.02   0.02  -0.09    -0.08  -0.02  -0.22    -0.04   0.06  -0.02
  20   6    -0.05   0.03  -0.12    -0.07  -0.03  -0.21    -0.08   0.07   0.01
  21   6    -0.07   0.03  -0.20    -0.04  -0.02   0.01    -0.06   0.05   0.11
  22   6    -0.07  -0.02  -0.01     0.04   0.02   0.16     0.01  -0.05  -0.07
  23   6    -0.05  -0.04   0.07     0.02   0.01  -0.01     0.01  -0.00  -0.01
  24   7    -0.09  -0.04   0.16     0.08   0.03  -0.07     0.07   0.01  -0.04
  25   6    -0.07  -0.03   0.12     0.08   0.02  -0.07     0.01  -0.01   0.06
  26   6     0.10   0.02  -0.10     0.06   0.01  -0.03    -0.08  -0.07   0.25
  27   6     0.22   0.04  -0.26    -0.02  -0.02   0.08    -0.02  -0.09   0.17
  28   6     0.13   0.01  -0.14    -0.06  -0.03   0.13     0.17  -0.04  -0.13
  29   6    -0.07  -0.04   0.12    -0.00  -0.01   0.04     0.19  -0.01  -0.21
  30   6    -0.13  -0.05   0.22     0.07   0.02  -0.06     0.07  -0.00  -0.04
  31   6    -0.13  -0.05   0.22     0.07   0.03  -0.08     0.05   0.00  -0.01
  32   6    -0.06  -0.03   0.13     0.04   0.02  -0.07    -0.12  -0.05   0.26
  33   6     0.12   0.02  -0.13    -0.03   0.02   0.01    -0.12  -0.06   0.27
  34   6     0.21   0.05  -0.25    -0.07   0.02   0.07     0.12   0.01  -0.07
  35   6     0.10   0.02  -0.10    -0.02   0.03   0.03     0.24   0.05  -0.27
  36   6    -0.06  -0.03   0.13     0.06   0.03  -0.05     0.13   0.03  -0.13
  37   6    -0.01  -0.05   0.06    -0.04  -0.05  -0.14    -0.01   0.04   0.05
  38   1     0.02  -0.02   0.00    -0.04  -0.03  -0.05    -0.01  -0.01  -0.02
  39   1     0.01  -0.00  -0.01    -0.03  -0.02   0.03    -0.01  -0.04  -0.05
  40   1     0.01   0.03   0.07     0.03   0.02   0.13    -0.01   0.00  -0.02
  41   1     0.01   0.03   0.09     0.00   0.01   0.00    -0.01   0.01  -0.02
  42   1    -0.04  -0.00  -0.02     0.00   0.01  -0.02    -0.04   0.00   0.01
  43   1    -0.01  -0.01   0.03     0.06   0.03   0.12    -0.02  -0.02   0.05
  44   1     0.03  -0.01   0.06     0.06   0.02   0.10    -0.00  -0.03   0.04
  45   1     0.02  -0.01   0.01    -0.01   0.01  -0.04    -0.00  -0.02  -0.01
  46   1    -0.01   0.00  -0.04     0.00  -0.01   0.01     0.01  -0.01  -0.01
  47   1     0.02  -0.00   0.03     0.04  -0.02   0.13     0.04   0.00   0.02
  48   1     0.04  -0.00   0.09     0.03  -0.02   0.10     0.03   0.03   0.01
  49   1     0.02  -0.00   0.03    -0.02  -0.01  -0.04    -0.00   0.04  -0.01
  50   1    -0.02   0.01  -0.10    -0.01  -0.01   0.01    -0.02   0.01   0.07
  51   1    -0.03  -0.01  -0.01     0.02   0.02   0.07     0.01  -0.03  -0.04
  52   1     0.05   0.01  -0.05     0.03   0.01  -0.02    -0.05  -0.03   0.12
  53   1     0.11   0.03  -0.14    -0.01  -0.01   0.04    -0.02  -0.04   0.09
  54   1     0.06   0.01  -0.08    -0.04  -0.02   0.07     0.08  -0.01  -0.08
  55   1    -0.04  -0.02   0.06    -0.01  -0.01   0.02     0.08   0.00  -0.12
  56   1    -0.04  -0.01   0.06     0.01   0.00  -0.03    -0.08  -0.03   0.14
  57   1     0.06   0.01  -0.07    -0.02   0.00   0.01    -0.08  -0.03   0.15
  58   1     0.11   0.03  -0.14    -0.04   0.00   0.04     0.05   0.00  -0.04
  59   1     0.05   0.01  -0.05    -0.01   0.01   0.02     0.11   0.02  -0.13
  60   1    -0.00  -0.02   0.03    -0.02  -0.02  -0.08    -0.00   0.03   0.04
                     13                     14                     15
                        a                      a                      a 
 Frequencies --   143.4690               177.7563               199.8292
 Red. masses --    10.6889                10.1921                10.6809
 Frc consts  --     0.0000                 0.0000                 0.0000
 IR Inten    --     0.1676                 2.6867                16.4483
 Raman Activ --     0.0000                 0.0000                 0.0000
 Depolar     --     0.0000                 0.0000                 0.0000
 Atom AN      X      Y      Z        X      Y      Z        X      Y      Z
   1   6     0.02  -0.05   0.00    -0.07   0.04   0.11    -0.15   0.13  -0.10
   2   6     0.03  -0.01   0.10    -0.07  -0.19  -0.23    -0.14   0.15  -0.05
   3   6     0.04   0.01   0.13    -0.01  -0.18  -0.16    -0.07   0.14  -0.01
   4   6     0.06  -0.04   0.13     0.03  -0.10   0.11    -0.03   0.06   0.09
   5   6     0.09  -0.03   0.12     0.08  -0.06   0.08    -0.04   0.05   0.13
   6   6     0.09  -0.06   0.02     0.05   0.00   0.02    -0.04  -0.03   0.01
   7   6     0.12  -0.07  -0.03    -0.01   0.02  -0.05     0.04  -0.07  -0.04
   8   6     0.11  -0.03  -0.04    -0.03   0.01  -0.12     0.05  -0.05  -0.04
   9   6     0.18   0.03  -0.07     0.02   0.04  -0.09     0.12   0.01  -0.06
  10   6     0.17   0.11  -0.07     0.09   0.09   0.09     0.13   0.09  -0.03
  11   6     0.11   0.13  -0.06     0.07   0.09   0.07     0.07   0.11  -0.04
  12   6     0.05   0.07  -0.04    -0.03   0.04  -0.09     0.01   0.05  -0.04
  13   6     0.07  -0.00  -0.02    -0.03   0.01  -0.11     0.03  -0.03  -0.01
  14   6     0.05  -0.03   0.00    -0.01  -0.01  -0.04     0.03  -0.04   0.03
  15   6     0.00  -0.02   0.03     0.09  -0.04  -0.00     0.01  -0.03   0.05
  16   6    -0.05  -0.05   0.01     0.16   0.01  -0.00    -0.04  -0.05  -0.03
  17   6    -0.05  -0.09  -0.03     0.13   0.07  -0.07    -0.04  -0.07  -0.05
  18   6     0.01  -0.11  -0.02     0.06   0.09  -0.05     0.01  -0.08   0.02
  19   6     0.05  -0.08  -0.01     0.00   0.02   0.04     0.04  -0.06   0.03
  20   6     0.10  -0.09   0.01    -0.01   0.02   0.13     0.05  -0.06   0.01
  21   6     0.10  -0.07   0.07     0.03  -0.03   0.37     0.04   0.01   0.05
  22   6     0.01   0.01   0.14     0.00  -0.17  -0.21    -0.05   0.14  -0.07
  23   6    -0.02  -0.02   0.04    -0.00   0.00   0.01    -0.05   0.13  -0.09
  24   7    -0.09  -0.04   0.06    -0.04  -0.01  -0.01    -0.11   0.08  -0.04
  25   6    -0.15  -0.03   0.10    -0.04  -0.00  -0.01    -0.12   0.04   0.04
  26   6    -0.29   0.01   0.11    -0.04   0.02  -0.07     0.01  -0.05   0.14
  27   6    -0.19   0.14  -0.05    -0.02   0.05  -0.09     0.08  -0.20   0.06
  28   6     0.00   0.22  -0.24    -0.05   0.04  -0.03     0.09  -0.23  -0.10
  29   6     0.04   0.15  -0.14    -0.08   0.02   0.05    -0.06  -0.15  -0.12
  30   6    -0.09  -0.00   0.05    -0.06  -0.00   0.02    -0.14   0.03   0.02
  31   6    -0.10  -0.02   0.06    -0.06  -0.01   0.02    -0.13   0.06   0.04
  32   6    -0.19  -0.04   0.07     0.01   0.01  -0.07     0.10   0.10   0.12
  33   6    -0.16   0.02  -0.04     0.03   0.00  -0.08     0.26  -0.04   0.08
  34   6    -0.05   0.07  -0.17    -0.05  -0.03   0.02     0.20  -0.14   0.08
  35   6    -0.01   0.07  -0.13    -0.10  -0.04   0.07    -0.01  -0.16   0.04
  36   6    -0.06  -0.01   0.00    -0.08  -0.02   0.04    -0.12   0.03   0.01
  37   6     0.01  -0.08  -0.04    -0.02   0.19   0.32    -0.12   0.14  -0.12
  38   1     0.01  -0.02  -0.01    -0.03   0.03   0.06    -0.05   0.04  -0.04
  39   1     0.01   0.00   0.04    -0.03  -0.10  -0.12    -0.05   0.04  -0.01
  40   1     0.03  -0.01   0.05     0.04  -0.02   0.02    -0.01   0.02   0.06
  41   1     0.02  -0.02  -0.00     0.03   0.01   0.00    -0.02  -0.02  -0.01
  42   1     0.07   0.00  -0.02     0.01   0.01  -0.04     0.05  -0.00  -0.02
  43   1     0.06   0.04  -0.02     0.05   0.03   0.06     0.05   0.04  -0.00
  44   1     0.03   0.05  -0.02     0.04   0.03   0.05     0.02   0.05  -0.01
  45   1    -0.00   0.03  -0.01    -0.02   0.01  -0.04    -0.02   0.02  -0.01
  46   1     0.00   0.01   0.02     0.03  -0.03   0.01     0.01  -0.00   0.03
  47   1    -0.02  -0.01   0.00     0.07  -0.00   0.01    -0.02  -0.01  -0.02
  48   1    -0.03  -0.03  -0.01     0.04   0.03  -0.04    -0.02  -0.02  -0.03
  49   1     0.00  -0.04  -0.01     0.01   0.05  -0.03     0.01  -0.03   0.01
  50   1     0.03  -0.02   0.02     0.00  -0.01   0.19     0.02   0.01   0.01
  51   1     0.01   0.01   0.06     0.01  -0.07  -0.09    -0.01   0.04  -0.02
  52   1    -0.13  -0.02   0.05    -0.01   0.00  -0.02     0.03   0.01   0.07
  53   1    -0.07   0.05  -0.02     0.00   0.02  -0.04     0.04  -0.07   0.03
  54   1     0.04   0.09  -0.12    -0.02   0.02  -0.01     0.05  -0.09  -0.06
  55   1     0.06   0.07  -0.06    -0.03   0.01   0.03    -0.04  -0.07  -0.08
  56   1    -0.08  -0.03   0.04     0.02   0.01  -0.04     0.05   0.08   0.06
  57   1    -0.06   0.00  -0.01     0.03   0.01  -0.05     0.12  -0.01   0.02
  58   1     0.00   0.03  -0.08    -0.02  -0.01   0.01     0.08  -0.07   0.02
  59   1     0.02   0.04  -0.05    -0.04  -0.02   0.03    -0.03  -0.10   0.00
  60   1     0.00  -0.04  -0.03    -0.00   0.11   0.16    -0.04   0.06  -0.04
                     16                     17                     18
                        a                      a                      a 
 Frequencies --   215.7776               233.9399               241.1841
 Red. masses --    10.6448                10.5411                10.2796
 Frc consts  --     0.0000                 0.0000                 0.0000
 IR Inten    --     2.9627                 1.1936                 2.9362
 Raman Activ --     0.0000                 0.0000                 0.0000
 Depolar     --     0.0000                 0.0000                 0.0000
 Atom AN      X      Y      Z        X      Y      Z        X      Y      Z
   1   6    -0.18  -0.07   0.03    -0.15  -0.07   0.04     0.14   0.01  -0.01
   2   6    -0.17  -0.18  -0.13    -0.12   0.01   0.26     0.11   0.06  -0.11
   3   6    -0.09  -0.05   0.13    -0.09  -0.14  -0.01     0.02   0.14  -0.01
   4   6    -0.09  -0.01  -0.01    -0.09  -0.09  -0.10    -0.01   0.07  -0.15
   5   6    -0.03   0.04   0.01    -0.05  -0.05  -0.01    -0.05   0.02  -0.08
   6   6    -0.02   0.03  -0.00    -0.03  -0.02   0.06    -0.01  -0.02   0.14
   7   6     0.04   0.02   0.01    -0.02  -0.02   0.05     0.00  -0.05   0.09
   8   6     0.09   0.03   0.09    -0.03  -0.02  -0.01    -0.09  -0.08  -0.17
   9   6     0.12   0.06   0.04     0.04   0.06  -0.10    -0.08  -0.06  -0.22
  10   6     0.04   0.07  -0.14     0.08   0.19   0.00     0.10   0.06   0.19
  11   6     0.04   0.08  -0.11     0.03   0.21   0.03     0.03   0.07   0.16
  12   6     0.10   0.07   0.08    -0.08   0.11  -0.02    -0.19  -0.01  -0.22
  13   6     0.11   0.03   0.10    -0.05  -0.02   0.02    -0.14  -0.07  -0.14
  14   6     0.06   0.01   0.02     0.01  -0.04   0.09    -0.01  -0.05   0.10
  15   6     0.05   0.01  -0.06     0.14  -0.09   0.02     0.06  -0.08   0.21
  16   6     0.06   0.02  -0.09     0.19  -0.01  -0.19    -0.03  -0.06  -0.07
  17   6     0.10   0.00   0.02     0.20   0.07  -0.13    -0.08  -0.02  -0.19
  18   6     0.09   0.01   0.03     0.13   0.10   0.10     0.01  -0.02   0.14
  19   6     0.04  -0.01  -0.03     0.01   0.00   0.12     0.03  -0.02   0.19
  20   6    -0.01  -0.02  -0.08    -0.05  -0.02   0.04     0.04  -0.01   0.12
  21   6    -0.04  -0.03  -0.17    -0.08  -0.07  -0.15     0.01   0.05  -0.10
  22   6    -0.12   0.02   0.34    -0.09  -0.22  -0.14    -0.02   0.19   0.20
  23   6    -0.14   0.01   0.25    -0.09  -0.14  -0.09    -0.00   0.05   0.14
  24   7    -0.04  -0.01  -0.01     0.00   0.01   0.05    -0.03  -0.03   0.04
  25   6     0.03   0.01  -0.11     0.02   0.04   0.04     0.03  -0.02  -0.05
  26   6     0.05   0.01  -0.15     0.07   0.02   0.05     0.01  -0.00  -0.09
  27   6    -0.01  -0.01  -0.06     0.07  -0.01   0.07    -0.02   0.02  -0.04
  28   6    -0.10  -0.03   0.07     0.06  -0.02   0.05    -0.06   0.01   0.05
  29   6    -0.05  -0.02  -0.00     0.05   0.01   0.00    -0.00   0.01   0.01
  30   6     0.04   0.02  -0.13     0.04   0.04   0.02     0.05  -0.01  -0.07
  31   6     0.05   0.02  -0.12     0.04   0.03   0.02     0.05  -0.01  -0.07
  32   6     0.01  -0.01   0.04    -0.00   0.02  -0.02    -0.00  -0.03   0.02
  33   6    -0.02  -0.06   0.12    -0.05   0.07  -0.00    -0.03  -0.05   0.06
  34   6     0.06  -0.06  -0.02    -0.04   0.10   0.00     0.03  -0.03  -0.03
  35   6     0.09  -0.04  -0.14     0.01   0.09   0.02     0.05  -0.02  -0.08
  36   6     0.03  -0.00  -0.11     0.04   0.03   0.05     0.03  -0.02  -0.05
  37   6    -0.19   0.05   0.29    -0.15  -0.20  -0.21     0.08   0.00   0.10
  38   1    -0.05  -0.04  -0.03    -0.05  -0.00   0.04     0.06  -0.01  -0.02
  39   1    -0.07  -0.12  -0.13    -0.04   0.05   0.17     0.05   0.01  -0.07
  40   1     0.01   0.01   0.03    -0.01  -0.01   0.00    -0.03   0.01  -0.03
  41   1    -0.01   0.01   0.01     0.00   0.00   0.04    -0.00  -0.00   0.08
  42   1     0.05   0.02   0.02     0.03   0.00  -0.06    -0.04  -0.03  -0.12
  43   1    -0.00   0.02  -0.08     0.04   0.07   0.00     0.07   0.04   0.12
  44   1    -0.00   0.02  -0.06     0.01   0.08   0.02     0.03   0.04   0.10
  45   1     0.03   0.03   0.04    -0.06   0.04  -0.02    -0.09  -0.01  -0.11
  46   1     0.01   0.00  -0.03     0.05  -0.06   0.02     0.03  -0.03   0.10
  47   1     0.01   0.01  -0.05     0.06  -0.01  -0.10    -0.02  -0.02  -0.05
  48   1     0.04   0.00   0.02     0.07   0.04  -0.07    -0.05   0.01  -0.13
  49   1     0.03   0.00   0.02     0.04   0.06   0.05     0.01  -0.00   0.07
  50   1    -0.00   0.00  -0.09    -0.02  -0.02  -0.07     0.01   0.02  -0.05
  51   1    -0.04   0.01   0.11    -0.02  -0.07  -0.04    -0.02   0.07   0.07
  52   1     0.02   0.01  -0.05     0.03   0.01   0.01     0.00  -0.00  -0.04
  53   1    -0.01  -0.00  -0.02     0.02  -0.01   0.02    -0.01   0.01  -0.01
  54   1    -0.06  -0.02   0.06     0.02  -0.01   0.02    -0.04   0.00   0.04
  55   1    -0.03  -0.01   0.02     0.01  -0.00  -0.01    -0.00   0.00   0.01
  56   1    -0.01   0.01   0.04    -0.00  -0.01  -0.02    -0.01  -0.01   0.02
  57   1    -0.03  -0.02   0.08    -0.03   0.02  -0.00    -0.02  -0.02   0.04
  58   1     0.02  -0.03  -0.00    -0.02   0.03   0.00     0.01  -0.01  -0.01
  59   1     0.03  -0.02  -0.05     0.01   0.04   0.01     0.02  -0.01  -0.03
  60   1    -0.05   0.03   0.09    -0.05  -0.07  -0.09     0.03  -0.02   0.03
                     19                     20                     21
                        a                      a                      a 
 Frequencies --   253.4694               270.0828               283.9449
 Red. masses --    10.3580                10.2432                10.9242
 Frc consts  --     0.0000                 0.0000                 0.0000
 IR Inten    --     1.7552                 0.0332                 0.5370
 Raman Activ --     0.0000                 0.0000                 0.0000
 Depolar     --     0.0000                 0.0000                 0.0000
 Atom AN      X      Y      Z        X      Y      Z        X      Y      Z
   1   6    -0.03   0.04   0.02     0.00  -0.00   0.02    -0.04   0.11  -0.04
   2   6    -0.02   0.04   0.06     0.00  -0.02  -0.00    -0.03  -0.04  -0.07
   3   6     0.00   0.01   0.04     0.01  -0.03  -0.00     0.07   0.01   0.09
   4   6     0.02  -0.12  -0.13     0.01  -0.01   0.00     0.04  -0.08  -0.02
   5   6    -0.02  -0.16  -0.35     0.02   0.00   0.02     0.02  -0.09   0.07
   6   6     0.09  -0.03   0.22     0.01   0.01  -0.02    -0.02  -0.07  -0.05
   7   6     0.11   0.01   0.37    -0.01   0.01  -0.04    -0.10  -0.05  -0.07
   8   6     0.02   0.01   0.11    -0.00   0.01  -0.02    -0.07  -0.04   0.05
   9   6    -0.02   0.02  -0.08    -0.01  -0.00   0.01    -0.03   0.01   0.05
  10   6    -0.02   0.06  -0.08    -0.01  -0.02   0.02    -0.07   0.09  -0.00
  11   6     0.04   0.09   0.11    -0.01  -0.02  -0.01    -0.13   0.11   0.03
  12   6    -0.04   0.04   0.02     0.01  -0.01  -0.01    -0.14   0.07   0.12
  13   6    -0.07  -0.01  -0.07     0.01   0.01  -0.00    -0.11  -0.03   0.12
  14   6    -0.11  -0.01  -0.20     0.01   0.01   0.02    -0.08  -0.03   0.08
  15   6    -0.04  -0.03  -0.21     0.01   0.01   0.02     0.05  -0.09  -0.02
  16   6     0.15  -0.02   0.18    -0.01   0.01  -0.02     0.13  -0.01  -0.14
  17   6     0.11   0.02   0.08    -0.01   0.01  -0.01     0.16   0.06  -0.01
  18   6    -0.07   0.06  -0.24     0.01   0.00   0.02     0.03   0.10   0.07
  19   6    -0.08   0.01  -0.12     0.01   0.01   0.01    -0.09   0.02   0.01
  20   6     0.04  -0.02   0.17    -0.01   0.01  -0.02    -0.07  -0.02  -0.12
  21   6     0.05  -0.09   0.09    -0.00  -0.00  -0.01    -0.06  -0.08  -0.21
  22   6     0.02   0.10   0.17     0.01  -0.02  -0.00     0.20   0.17   0.16
  23   6     0.00   0.05   0.02     0.01  -0.01   0.00     0.20   0.15  -0.05
  24   7    -0.01   0.02  -0.03     0.00   0.00  -0.01     0.19   0.02  -0.21
  25   6    -0.02   0.01  -0.02     0.18   0.05  -0.26     0.05  -0.09   0.01
  26   6    -0.02   0.00  -0.00     0.13   0.04  -0.19    -0.11  -0.07   0.07
  27   6    -0.03  -0.03   0.01    -0.16  -0.05   0.22    -0.07   0.04   0.01
  28   6    -0.02  -0.04  -0.03    -0.08  -0.02   0.11     0.06   0.09  -0.11
  29   6    -0.02  -0.02  -0.05     0.18   0.06  -0.27     0.03   0.02   0.06
  30   6    -0.03   0.01  -0.02     0.12   0.04  -0.19    -0.03  -0.11   0.14
  31   6    -0.05   0.02   0.01    -0.13  -0.03   0.18    -0.05  -0.10   0.11
  32   6    -0.01   0.02   0.05    -0.19  -0.05   0.27    -0.03  -0.10   0.00
  33   6     0.06  -0.01   0.01     0.08   0.03  -0.12     0.06  -0.06  -0.14
  34   6     0.05  -0.03  -0.01     0.15   0.05  -0.22    -0.03  -0.06   0.01
  35   6    -0.02  -0.04   0.01    -0.14  -0.03   0.20    -0.05  -0.07   0.11
  36   6    -0.05   0.01  -0.00    -0.18  -0.05   0.26     0.03  -0.04  -0.00
  37   6    -0.02   0.01  -0.08     0.00   0.00   0.02     0.08   0.22  -0.03
  38   1    -0.01   0.02   0.01    -0.00   0.00   0.01    -0.04   0.03  -0.03
  39   1    -0.00   0.01   0.03    -0.00  -0.01  -0.00    -0.03  -0.05  -0.06
  40   1    -0.03  -0.07  -0.21     0.01   0.00   0.02     0.01  -0.02   0.06
  41   1     0.03  -0.00   0.09     0.00   0.00  -0.00     0.01  -0.01  -0.01
  42   1    -0.02  -0.00  -0.06    -0.00   0.00   0.01     0.01  -0.00   0.01
  43   1    -0.02   0.02  -0.06    -0.00  -0.01   0.01    -0.01   0.04  -0.02
  44   1     0.03   0.04   0.06    -0.00  -0.01  -0.00    -0.05   0.05  -0.01
  45   1    -0.02   0.01  -0.00     0.01  -0.00  -0.00    -0.05   0.02   0.04
  46   1    -0.02  -0.02  -0.09     0.00   0.00   0.01     0.02  -0.05  -0.00
  47   1     0.08  -0.01   0.13    -0.01   0.00  -0.01     0.05  -0.01  -0.08
  48   1     0.06   0.01   0.07    -0.01   0.00  -0.01     0.07   0.03  -0.00
  49   1    -0.04   0.03  -0.11     0.00  -0.00   0.01     0.01   0.06   0.04
  50   1     0.01  -0.03   0.02    -0.00  -0.00   0.00    -0.01  -0.02  -0.07
  51   1     0.01   0.04   0.07     0.00  -0.00   0.00     0.08   0.05   0.06
  52   1    -0.00   0.00   0.00     0.04   0.01  -0.07    -0.06  -0.04   0.02
  53   1    -0.01  -0.01   0.01    -0.12  -0.03   0.16    -0.04   0.02   0.00
  54   1    -0.00  -0.01  -0.01    -0.07  -0.02   0.09     0.05   0.05  -0.08
  55   1    -0.01  -0.01  -0.02     0.07   0.02  -0.11     0.03   0.02   0.03
  56   1    -0.00   0.02   0.03    -0.08  -0.02   0.11    -0.01  -0.03  -0.00
  57   1     0.03   0.00  -0.00     0.07   0.02  -0.10     0.05  -0.01  -0.09
  58   1     0.03  -0.01  -0.01     0.11   0.04  -0.16    -0.02  -0.01   0.01
  59   1    -0.01  -0.02   0.00    -0.05  -0.01   0.07    -0.03  -0.02   0.05
  60   1    -0.01  -0.01  -0.05     0.00   0.00   0.00     0.02   0.10  -0.02
                     22                     23                     24
                        a                      a                      a 
 Frequencies --   289.2643               310.9152               350.5338
 Red. masses --    10.6447                10.9568                 9.5564
 Frc consts  --     0.0000                 0.0000                 0.0000
 IR Inten    --     0.1676                47.5062                13.8157
 Raman Activ --     0.0000                 0.0000                 0.0000
 Depolar     --     0.0000                 0.0000                 0.0000
 Atom AN      X      Y      Z        X      Y      Z        X      Y      Z
   1   6     0.21  -0.03  -0.04    -0.25   0.10  -0.03    -0.03   0.14   0.11
   2   6     0.16   0.11  -0.12    -0.25   0.13  -0.09    -0.05   0.12  -0.03
   3   6    -0.02   0.17  -0.11    -0.11   0.11  -0.06    -0.03   0.01  -0.19
   4   6    -0.04   0.16   0.10    -0.10   0.14   0.00    -0.01  -0.15  -0.25
   5   6    -0.13   0.08   0.16    -0.14   0.12  -0.07     0.06  -0.09  -0.08
   6   6    -0.15  -0.09  -0.02    -0.09   0.04   0.06     0.10   0.08   0.24
   7   6    -0.06  -0.12  -0.00     0.05   0.01   0.11    -0.09   0.01  -0.29
   8   6    -0.01  -0.15   0.11     0.04  -0.00   0.01    -0.05   0.00  -0.17
   9   6     0.13  -0.02   0.04     0.05   0.01  -0.06     0.07   0.03   0.15
  10   6     0.03   0.16  -0.14     0.07   0.00  -0.03     0.00  -0.01  -0.01
  11   6    -0.05   0.22  -0.02     0.11   0.00  -0.01    -0.05  -0.03  -0.13
  12   6    -0.11   0.09   0.20     0.06  -0.01  -0.07     0.10   0.03   0.16
  13   6    -0.10  -0.13   0.13     0.06  -0.01  -0.06     0.00   0.01  -0.04
  14   6    -0.11  -0.13  -0.04     0.05  -0.00  -0.06    -0.03  -0.03   0.03
  15   6    -0.04  -0.18  -0.16    -0.02   0.03  -0.00     0.00  -0.04   0.06
  16   6     0.10  -0.14   0.01    -0.06  -0.02   0.07     0.00  -0.01  -0.07
  17   6     0.11  -0.06   0.06    -0.08  -0.06  -0.00     0.02   0.02  -0.00
  18   6    -0.06  -0.01  -0.11    -0.00  -0.08  -0.05     0.01   0.02   0.07
  19   6    -0.10  -0.05  -0.07     0.07  -0.03  -0.02    -0.05  -0.01   0.00
  20   6    -0.02  -0.05  -0.00     0.05   0.00   0.08    -0.09  -0.01  -0.15
  21   6    -0.02   0.10   0.09     0.01   0.11   0.05    -0.01  -0.06   0.27
  22   6    -0.06   0.07  -0.19    -0.06   0.08  -0.10    -0.00   0.19   0.11
  23   6    -0.01  -0.02   0.01    -0.01  -0.02  -0.04     0.00   0.06   0.02
  24   7    -0.08  -0.04   0.14     0.11  -0.06  -0.03    -0.10  -0.03   0.17
  25   6     0.03  -0.01  -0.01     0.12  -0.14   0.03    -0.02  -0.05   0.07
  26   6     0.06   0.01  -0.07     0.04  -0.11   0.01     0.02  -0.02  -0.05
  27   6     0.02   0.02  -0.00     0.01   0.08   0.05     0.00   0.02  -0.02
  28   6    -0.03   0.01   0.09     0.11   0.15   0.08    -0.04   0.01   0.07
  29   6     0.04   0.03  -0.00     0.18   0.08   0.13     0.05   0.01  -0.01
  30   6     0.08   0.01  -0.07     0.16  -0.14   0.11     0.05  -0.04  -0.02
  31   6     0.07  -0.01  -0.04     0.13  -0.18   0.10     0.05  -0.03  -0.05
  32   6    -0.01  -0.03  -0.01    -0.05  -0.22  -0.05     0.01  -0.05  -0.03
  33   6    -0.06  -0.01   0.04    -0.08  -0.12  -0.13    -0.04  -0.06   0.04
  34   6     0.01   0.02  -0.04    -0.07  -0.02  -0.05     0.02  -0.02  -0.03
  35   6     0.04   0.02  -0.03     0.07  -0.02   0.10     0.05  -0.02  -0.03
  36   6     0.01  -0.02   0.03     0.15  -0.10   0.08     0.00  -0.02   0.03
  37   6     0.13  -0.04   0.08    -0.21   0.10  -0.02    -0.03  -0.02  -0.17
  38   1     0.09  -0.02  -0.01    -0.06   0.03  -0.00     0.00   0.07   0.08
  39   1     0.07   0.06  -0.04    -0.08   0.03  -0.03    -0.00   0.05   0.01
  40   1    -0.06   0.03   0.05    -0.06   0.03  -0.05     0.05  -0.02   0.04
  41   1    -0.06  -0.04  -0.05    -0.05  -0.01   0.01     0.08   0.07   0.23
  42   1     0.08  -0.02   0.01     0.01   0.00  -0.02     0.05   0.02   0.12
  43   1     0.02   0.07  -0.09     0.02  -0.00  -0.01     0.01  -0.00   0.02
  44   1    -0.03   0.10  -0.02     0.04  -0.00   0.01    -0.03  -0.01  -0.07
  45   1    -0.06   0.04   0.09     0.01  -0.00  -0.03     0.07   0.01   0.11
  46   1    -0.02  -0.06  -0.06    -0.01   0.03   0.00     0.00  -0.02   0.03
  47   1     0.06  -0.05   0.02    -0.02  -0.00   0.05    -0.00  -0.01  -0.05
  48   1     0.07  -0.01   0.06    -0.03  -0.03   0.00     0.01   0.01  -0.01
  49   1    -0.03   0.03  -0.05     0.00  -0.04  -0.02     0.00   0.02   0.03
  50   1     0.00   0.04   0.02     0.01   0.04  -0.01    -0.00  -0.02   0.26
  51   1    -0.04   0.02  -0.07    -0.04   0.02  -0.04    -0.01   0.09   0.08
  52   1     0.02   0.00  -0.03    -0.02  -0.05  -0.02     0.01  -0.01  -0.04
  53   1    -0.00   0.01  -0.00    -0.03   0.04   0.00     0.00   0.01  -0.02
  54   1    -0.03  -0.00   0.06     0.03   0.07   0.02    -0.02   0.00   0.04
  55   1     0.01   0.01   0.00     0.08   0.05   0.06     0.03   0.01  -0.01
  56   1    -0.01  -0.02  -0.00    -0.03  -0.11  -0.03     0.00  -0.02  -0.01
  57   1    -0.04  -0.01   0.03    -0.03  -0.03  -0.07    -0.03  -0.02   0.03
  58   1     0.01   0.01  -0.02    -0.04   0.03  -0.02     0.01   0.00  -0.02
  59   1     0.02   0.02  -0.02     0.03   0.03   0.05     0.02  -0.00  -0.01
  60   1     0.05  -0.03   0.06    -0.07   0.08  -0.01    -0.01  -0.02  -0.10
                     25                     26                     27
                        a                      a                      a 
 Frequencies --   361.4951               376.0343               388.6188
 Red. masses --    10.8290                10.2883                10.5390
 Frc consts  --     0.0000                 0.0000                 0.0000
 IR Inten    --     2.0040                 0.1776                 0.8271
 Raman Activ --     0.0000                 0.0000                 0.0000
 Depolar     --     0.0000                 0.0000                 0.0000
 Atom AN      X      Y      Z        X      Y      Z        X      Y      Z
   1   6    -0.10   0.06  -0.09    -0.02  -0.04  -0.16    -0.08  -0.06  -0.19
   2   6    -0.10   0.14   0.02    -0.01   0.06   0.08    -0.04   0.04   0.13
   3   6     0.02   0.05  -0.05     0.02   0.04   0.08     0.03   0.01   0.14
   4   6     0.09  -0.15   0.03     0.04  -0.05   0.14     0.03   0.02   0.02
   5   6     0.09  -0.17   0.19    -0.01  -0.11  -0.05     0.12   0.07  -0.08
   6   6     0.02  -0.17  -0.16    -0.00  -0.08   0.01     0.11   0.14  -0.04
   7   6     0.03  -0.11  -0.03    -0.03  -0.01   0.14     0.11   0.13   0.04
   8   6     0.00  -0.01   0.00    -0.08   0.15   0.08     0.10  -0.11  -0.08
   9   6    -0.07  -0.05  -0.09    -0.14   0.15   0.14     0.21  -0.11   0.03
  10   6     0.01  -0.05   0.11    -0.25   0.08  -0.06     0.15  -0.13  -0.15
  11   6    -0.08  -0.05   0.04    -0.03   0.06   0.09     0.08  -0.09  -0.02
  12   6    -0.11  -0.04  -0.07     0.06   0.11   0.04     0.04  -0.10   0.10
  13   6    -0.02   0.05   0.12    -0.04   0.09  -0.17    -0.07  -0.10  -0.14
  14   6     0.05   0.13   0.11     0.01   0.06  -0.24    -0.21  -0.12  -0.05
  15   6    -0.05   0.18  -0.14     0.18   0.03   0.17    -0.12  -0.17   0.10
  16   6     0.04   0.19   0.06     0.03  -0.02  -0.07    -0.01  -0.06   0.03
  17   6     0.05   0.14   0.07     0.02  -0.15  -0.14    -0.08   0.20  -0.05
  18   6    -0.01   0.12  -0.15     0.17  -0.17   0.17    -0.14   0.22   0.15
  19   6     0.05   0.06   0.11     0.05  -0.09  -0.21    -0.21   0.13   0.09
  20   6     0.12  -0.03   0.07    -0.02  -0.06  -0.06    -0.03   0.09   0.06
  21   6     0.12  -0.18  -0.14     0.00  -0.05   0.02    -0.04   0.00  -0.09
  22   6     0.02   0.08  -0.08     0.07   0.00  -0.15     0.05  -0.07  -0.10
  23   6     0.02   0.09   0.06     0.07   0.10   0.04     0.04   0.09   0.08
  24   7    -0.17  -0.03   0.28    -0.09  -0.01   0.18    -0.03   0.01   0.08
  25   6    -0.04  -0.07   0.10    -0.03  -0.04   0.07    -0.01  -0.03   0.05
  26   6     0.04  -0.01  -0.09     0.03   0.00  -0.07     0.04   0.01  -0.08
  27   6     0.00   0.03  -0.04    -0.01   0.02  -0.02    -0.03   0.01   0.02
  28   6    -0.08   0.01   0.10    -0.07   0.01   0.05    -0.04   0.01   0.03
  29   6     0.07   0.02  -0.05     0.04   0.01  -0.05     0.05   0.02  -0.07
  30   6     0.06  -0.04  -0.05     0.02  -0.03  -0.02    -0.03  -0.04   0.04
  31   6     0.04  -0.03  -0.07    -0.02  -0.01  -0.02    -0.06  -0.02   0.04
  32   6     0.02  -0.04  -0.08     0.03  -0.01  -0.07     0.04   0.00  -0.09
  33   6    -0.07  -0.09   0.08    -0.04  -0.06   0.06    -0.02  -0.05   0.03
  34   6     0.03  -0.05  -0.04     0.01  -0.04  -0.01    -0.02  -0.04   0.03
  35   6     0.07  -0.03  -0.06     0.04  -0.02  -0.06     0.05  -0.02  -0.08
  36   6    -0.06  -0.02   0.08    -0.07  -0.01   0.07    -0.07  -0.00   0.06
  37   6    -0.06   0.08  -0.06     0.06   0.12   0.03    -0.01   0.12   0.06
  38   1    -0.03   0.01  -0.04    -0.02  -0.03  -0.10    -0.04  -0.05  -0.13
  39   1    -0.03   0.04   0.02    -0.00   0.02   0.04    -0.02   0.00   0.04
  40   1     0.04  -0.04   0.11    -0.02  -0.04  -0.07     0.04   0.01  -0.05
  41   1     0.01  -0.05  -0.09    -0.01  -0.03  -0.04     0.03   0.04  -0.05
  42   1    -0.04  -0.01  -0.06    -0.04   0.05   0.07     0.09  -0.03   0.06
  43   1     0.02  -0.01   0.05    -0.10   0.00  -0.05     0.05  -0.03  -0.05
  44   1    -0.03  -0.01   0.00     0.01  -0.01   0.06     0.03   0.01   0.01
  45   1    -0.04  -0.02  -0.06     0.03   0.03   0.03     0.04  -0.02   0.07
  46   1    -0.04   0.05  -0.11     0.09   0.00   0.16    -0.02  -0.07   0.05
  47   1     0.01   0.05   0.03    -0.02   0.00  -0.01     0.05  -0.04   0.00
  48   1     0.01   0.03   0.03    -0.01  -0.05  -0.06     0.00   0.09  -0.05
  49   1    -0.04   0.04  -0.12     0.09  -0.07   0.16    -0.03   0.08   0.08
  50   1     0.02  -0.06  -0.08    -0.01  -0.02  -0.04    -0.01   0.00  -0.05
  51   1    -0.00   0.02  -0.03     0.03  -0.03  -0.10     0.02  -0.06  -0.09
  52   1     0.02  -0.00  -0.06     0.02   0.00  -0.05     0.03   0.01  -0.05
  53   1     0.01   0.02  -0.03    -0.00   0.01  -0.01    -0.01   0.00   0.01
  54   1    -0.05   0.00   0.06    -0.03   0.00   0.04    -0.02   0.00   0.01
  55   1     0.05   0.02  -0.03     0.03   0.01  -0.03     0.04   0.02  -0.04
  56   1     0.02  -0.01  -0.04     0.03   0.01  -0.04     0.04   0.02  -0.06
  57   1    -0.04  -0.03   0.06    -0.02  -0.02   0.03    -0.01  -0.01   0.01
  58   1     0.02  -0.00  -0.03     0.01  -0.01  -0.01    -0.01  -0.01   0.01
  59   1     0.03  -0.01  -0.04     0.03  -0.01  -0.05     0.04  -0.01  -0.06
  60   1    -0.02   0.04  -0.04     0.01   0.06   0.01    -0.01   0.05   0.02
                     28                     29                     30
                        a                      a                      a 
 Frequencies --   393.1137               396.3883               402.8872
 Red. masses --     9.5492                 9.7068                 9.6959
 Frc consts  --     0.0000                 0.0000                 0.0000
 IR Inten    --     7.8758                 3.5068                 5.0719
 Raman Activ --     0.0000                 0.0000                 0.0000
 Depolar     --     0.0000                 0.0000                 0.0000
 Atom AN      X      Y      Z        X      Y      Z        X      Y      Z
   1   6    -0.00  -0.03  -0.07    -0.04  -0.07  -0.18     0.01  -0.18  -0.27
   2   6    -0.00   0.06   0.02    -0.02   0.07   0.14     0.04   0.05   0.19
   3   6    -0.00   0.04  -0.00     0.01   0.02   0.09    -0.01   0.06   0.20
   4   6     0.02  -0.03  -0.01     0.01  -0.02   0.01    -0.05   0.02  -0.13
   5   6    -0.01  -0.07   0.07     0.05   0.01  -0.14    -0.14  -0.04  -0.14
   6   6    -0.02  -0.10  -0.01     0.07   0.11   0.06    -0.06  -0.04   0.24
   7   6     0.02  -0.08   0.04     0.00   0.08  -0.06    -0.08  -0.09  -0.08
   8   6    -0.09  -0.03  -0.21     0.11   0.01   0.19    -0.14  -0.05  -0.23
   9   6     0.07   0.02   0.13    -0.03  -0.05  -0.13    -0.01   0.02  -0.01
  10   6    -0.02  -0.03  -0.06     0.05  -0.01   0.04     0.05   0.06   0.13
  11   6    -0.04  -0.02  -0.07     0.04  -0.00   0.06    -0.07   0.02  -0.18
  12   6     0.07   0.01   0.18    -0.08  -0.03  -0.16     0.04   0.03   0.10
  13   6    -0.12   0.00  -0.22     0.11  -0.01   0.21     0.01   0.00   0.03
  14   6    -0.05   0.05  -0.11     0.01  -0.05   0.12     0.14   0.04   0.15
  15   6    -0.01   0.06   0.01    -0.01  -0.06   0.04     0.00   0.10  -0.11
  16   6     0.05   0.07   0.12    -0.06  -0.04  -0.15    -0.00   0.06   0.03
  17   6    -0.04   0.08  -0.13     0.04  -0.02   0.14     0.02  -0.04   0.06
  18   6     0.03   0.06   0.03    -0.04  -0.00   0.01     0.03  -0.05  -0.14
  19   6     0.03   0.03   0.11    -0.09   0.01  -0.14     0.13  -0.04   0.08
  20   6     0.08  -0.02   0.16    -0.09   0.03  -0.22     0.01  -0.03  -0.02
  21   6     0.05  -0.06  -0.09    -0.04   0.01   0.11     0.00   0.03   0.02
  22   6    -0.03  -0.02  -0.04     0.04  -0.04  -0.13     0.01  -0.10  -0.11
  23   6    -0.03  -0.01   0.05     0.04   0.09   0.08     0.02   0.06   0.14
  24   7    -0.00   0.00   0.01    -0.05   0.01   0.12     0.08   0.03  -0.10
  25   6     0.07   0.02  -0.09     0.05  -0.01  -0.03     0.06   0.01  -0.06
  26   6    -0.13  -0.05   0.20    -0.10  -0.04   0.14     0.01   0.01  -0.03
  27   6     0.09   0.03  -0.12     0.07   0.04  -0.12    -0.05  -0.00   0.05
  28   6     0.04   0.01  -0.04    -0.01   0.02  -0.00     0.02   0.02  -0.05
  29   6    -0.12  -0.04   0.19    -0.08  -0.02   0.13     0.00   0.00  -0.01
  30   6     0.14   0.04  -0.19     0.13   0.01  -0.18    -0.04  -0.02   0.05
  31   6     0.13   0.04  -0.19     0.10   0.03  -0.19    -0.10  -0.02   0.10
  32   6    -0.12  -0.03   0.18    -0.10  -0.03   0.11     0.03   0.02  -0.06
  33   6     0.03   0.01  -0.04     0.00  -0.04  -0.00     0.01  -0.01  -0.01
  34   6     0.08   0.03  -0.12     0.09  -0.01  -0.12    -0.04  -0.03   0.06
  35   6    -0.14  -0.04   0.19    -0.10  -0.06   0.14     0.03  -0.00  -0.07
  36   6     0.06   0.02  -0.09    -0.00   0.02  -0.03    -0.04   0.01   0.02
  37   6    -0.03  -0.01   0.03     0.02   0.09   0.04     0.05   0.09   0.19
  38   1     0.01  -0.02  -0.04    -0.03  -0.05  -0.11    -0.01  -0.11  -0.20
  39   1    -0.00   0.02   0.02    -0.01   0.03   0.06     0.01   0.02   0.06
  40   1    -0.01  -0.02   0.03     0.02  -0.01  -0.05    -0.06  -0.00  -0.03
  41   1    -0.02  -0.04  -0.04     0.04   0.06   0.07    -0.00   0.00   0.17
  42   1     0.07   0.02   0.16    -0.06  -0.03  -0.16     0.02   0.01   0.05
  43   1     0.01  -0.00   0.01     0.00  -0.00  -0.02     0.05   0.03   0.11
  44   1    -0.00   0.00  -0.00     0.00   0.00  -0.00    -0.04  -0.00  -0.10
  45   1     0.08   0.02   0.16    -0.08  -0.02  -0.15     0.03   0.02   0.09
  46   1    -0.00   0.02  -0.00     0.01  -0.03   0.03    -0.03   0.05  -0.11
  47   1     0.03   0.02   0.07    -0.03  -0.01  -0.09    -0.02   0.03  -0.00
  48   1    -0.03   0.02  -0.08     0.04  -0.00   0.09    -0.01  -0.03   0.02
  49   1     0.01   0.02   0.02    -0.01   0.00   0.00    -0.02  -0.02  -0.11
  50   1     0.01  -0.02  -0.08    -0.01  -0.00   0.11     0.00   0.01   0.07
  51   1    -0.02  -0.00  -0.02     0.02  -0.05  -0.09     0.01  -0.10  -0.14
  52   1    -0.10  -0.03   0.14    -0.08  -0.03   0.10    -0.00  -0.00  -0.01
  53   1     0.04   0.01  -0.06     0.04   0.02  -0.06    -0.03  -0.01   0.04
  54   1     0.01   0.00  -0.00    -0.02   0.00   0.02     0.01   0.01  -0.03
  55   1    -0.10  -0.03   0.14    -0.07  -0.02   0.11     0.00   0.00   0.00
  56   1    -0.10  -0.03   0.14    -0.07  -0.02   0.10     0.04   0.02  -0.05
  57   1     0.00   0.00  -0.00    -0.01  -0.01   0.02     0.02   0.00  -0.02
  58   1     0.04   0.01  -0.06     0.04   0.01  -0.06    -0.02  -0.01   0.03
  59   1    -0.10  -0.03   0.13    -0.07  -0.04   0.09     0.03  -0.00  -0.06
  60   1    -0.01  -0.01   0.02     0.00   0.04   0.02     0.02   0.03   0.07
                     31                     32                     33
                        a                      a                      a 
 Frequencies --   413.2266               422.2617               434.3002
 Red. masses --    10.8371                 9.8062                10.8061
 Frc consts  --     0.0000                 0.0000                 0.0000
 IR Inten    --     7.2892                 0.1265                17.2015
 Raman Activ --     0.0000                 0.0000                 0.0000
 Depolar     --     0.0000                 0.0000                 0.0000
 Atom AN      X      Y      Z        X      Y      Z        X      Y      Z
   1   6    -0.01   0.01  -0.02     0.03  -0.03  -0.03    -0.04  -0.01  -0.01
   2   6    -0.00  -0.02   0.06     0.04  -0.02   0.03    -0.03  -0.01   0.02
   3   6     0.01  -0.05   0.00     0.00  -0.00   0.03    -0.00  -0.02   0.01
   4   6    -0.03  -0.01  -0.04     0.00   0.00   0.00    -0.02   0.03   0.00
   5   6     0.12   0.12   0.05    -0.01  -0.01  -0.02    -0.05   0.02  -0.02
   6   6     0.06   0.16  -0.15    -0.00  -0.01   0.03    -0.04   0.00   0.03
   7   6    -0.03   0.19   0.02    -0.00  -0.02   0.00    -0.01  -0.01   0.02
   8   6    -0.06   0.19  -0.08    -0.01  -0.02  -0.02    -0.02  -0.02  -0.02
   9   6    -0.14   0.17   0.02     0.01  -0.01  -0.00     0.02  -0.01  -0.01
  10   6    -0.11   0.09   0.10     0.01  -0.00   0.01     0.03   0.01   0.00
  11   6     0.03   0.00  -0.08    -0.01   0.00  -0.01     0.01   0.00  -0.02
  12   6     0.16   0.09  -0.04    -0.01  -0.00   0.01     0.00  -0.01   0.01
  13   6     0.13   0.07  -0.04    -0.01  -0.00   0.00    -0.00  -0.02  -0.00
  14   6     0.01  -0.16   0.14     0.01   0.01   0.00     0.02   0.00   0.00
  15   6    -0.02  -0.23  -0.18     0.00   0.02   0.01    -0.00   0.02   0.00
  16   6     0.09  -0.28   0.08    -0.00   0.02  -0.01    -0.01   0.01   0.00
  17   6     0.03  -0.21  -0.04     0.00   0.01   0.01    -0.01   0.01   0.01
  18   6    -0.11  -0.13  -0.11     0.01   0.01  -0.00     0.01   0.00  -0.01
  19   6     0.04  -0.11   0.27     0.01   0.00  -0.01     0.01   0.01  -0.01
  20   6    -0.11   0.03   0.24     0.01  -0.00  -0.02    -0.00   0.01  -0.00
  21   6    -0.16   0.02  -0.10     0.01  -0.00   0.00    -0.01   0.03  -0.01
  22   6     0.07   0.04  -0.00    -0.02  -0.04  -0.01     0.06  -0.01  -0.06
  23   6     0.07   0.09   0.01    -0.02   0.01   0.02     0.07   0.02   0.01
  24   7    -0.03   0.01   0.09     0.00   0.02  -0.04     0.03  -0.03   0.06
  25   6    -0.02  -0.03   0.06    -0.20   0.03   0.31    -0.11  -0.18   0.15
  26   6    -0.01  -0.00  -0.00     0.22   0.10  -0.06    -0.17  -0.07  -0.24
  27   6     0.01   0.02  -0.03     0.11   0.09   0.13    -0.23  -0.15  -0.22
  28   6    -0.04   0.01   0.03     0.01   0.04   0.18    -0.23  -0.13  -0.06
  29   6     0.01   0.00  -0.01     0.10   0.15  -0.16     0.10  -0.20  -0.11
  30   6     0.02  -0.02  -0.03    -0.17   0.03   0.19    -0.01  -0.14   0.10
  31   6     0.01   0.01  -0.07     0.06   0.06  -0.20     0.16  -0.02  -0.06
  32   6    -0.03  -0.01   0.00    -0.21  -0.03   0.10     0.12  -0.02   0.21
  33   6    -0.01  -0.04   0.01     0.05  -0.08  -0.18     0.11   0.22   0.03
  34   6     0.03  -0.02  -0.03    -0.06  -0.16  -0.06     0.10   0.30   0.12
  35   6    -0.02  -0.03   0.02    -0.14  -0.17   0.09    -0.03   0.25   0.16
  36   6    -0.02   0.02  -0.01     0.15   0.04  -0.36     0.21   0.06  -0.07
  37   6     0.05   0.06  -0.06     0.02  -0.00   0.05     0.02   0.05   0.01
  38   1    -0.02   0.01  -0.01     0.01  -0.02  -0.02    -0.02  -0.00  -0.01
  39   1    -0.00  -0.01   0.02     0.01  -0.00   0.01    -0.01  -0.01   0.01
  40   1     0.06   0.03   0.04    -0.01  -0.00  -0.01    -0.02   0.01  -0.02
  41   1     0.02   0.04  -0.07    -0.00  -0.00   0.01    -0.01  -0.00   0.01
  42   1    -0.04   0.05   0.03     0.00  -0.00   0.00     0.01  -0.00   0.00
  43   1    -0.04   0.01   0.07     0.01   0.00   0.01     0.01   0.00   0.01
  44   1     0.01  -0.05  -0.03    -0.00   0.00  -0.01     0.00   0.00  -0.01
  45   1     0.07   0.02  -0.00    -0.00   0.00   0.01    -0.00   0.00   0.01
  46   1    -0.04  -0.07  -0.15     0.00   0.01   0.00    -0.00   0.01  -0.00
  47   1     0.03  -0.08   0.04    -0.00   0.01  -0.00    -0.01   0.00  -0.00
  48   1     0.02  -0.04  -0.05    -0.00   0.00   0.00    -0.00  -0.00   0.00
  49   1    -0.07  -0.02  -0.11     0.00   0.00   0.00     0.00  -0.00  -0.00
  50   1    -0.05  -0.00  -0.06     0.00  -0.00   0.00    -0.00   0.01  -0.01
  51   1     0.03   0.00  -0.00    -0.00  -0.02  -0.01     0.02  -0.01  -0.02
  52   1    -0.00  -0.00  -0.01     0.16   0.07  -0.12    -0.03  -0.02  -0.15
  53   1     0.01   0.01  -0.02     0.06   0.04  -0.01    -0.03  -0.04  -0.09
  54   1    -0.02   0.00   0.02     0.01  -0.02   0.03    -0.07   0.02  -0.01
  55   1     0.01   0.01  -0.00     0.11   0.06  -0.18     0.09  -0.03  -0.09
  56   1    -0.01   0.00   0.02    -0.14  -0.03   0.16    -0.01  -0.03   0.12
  57   1    -0.01  -0.01   0.02     0.04  -0.02  -0.03    -0.02   0.06  -0.02
  58   1     0.01  -0.00  -0.02    -0.06  -0.06   0.03     0.01   0.07   0.06
  59   1    -0.02  -0.02   0.02    -0.13  -0.09   0.13    -0.04   0.08   0.11
  60   1     0.01   0.03  -0.03     0.01  -0.01   0.01     0.00   0.03  -0.01
                     34                     35                     36
                        a                      a                      a 
 Frequencies --   446.6204               461.2594               472.2676
 Red. masses --    10.6049                10.0841                10.9511
 Frc consts  --     0.0000                 0.0000                 0.0000
 IR Inten    --     3.7983                 0.6653                 5.3932
 Raman Activ --     0.0000                 0.0000                 0.0000
 Depolar     --     0.0000                 0.0000                 0.0000
 Atom AN      X      Y      Z        X      Y      Z        X      Y      Z
   1   6     0.02  -0.04  -0.15     0.04  -0.08  -0.04     0.13  -0.06  -0.00
   2   6    -0.01   0.31  -0.02     0.04  -0.04   0.12     0.06   0.09  -0.04
   3   6     0.01   0.24  -0.05    -0.07  -0.07  -0.04    -0.12   0.12  -0.04
   4   6     0.11  -0.11  -0.07    -0.13  -0.06  -0.23    -0.10  -0.20   0.12
   5   6     0.22  -0.07   0.05    -0.15  -0.01   0.12    -0.12  -0.25   0.12
   6   6     0.19   0.00  -0.11    -0.17  -0.03   0.00    -0.16  -0.05   0.02
   7   6     0.05   0.03  -0.13    -0.12  -0.08  -0.20    -0.08   0.03   0.17
   8   6     0.07   0.10   0.08     0.09   0.04   0.29    -0.07   0.11  -0.01
   9   6    -0.08   0.01   0.07     0.10   0.07   0.12     0.01   0.20  -0.12
  10   6    -0.14  -0.02  -0.01    -0.04  -0.03  -0.27     0.15   0.02   0.04
  11   6    -0.07  -0.00   0.12     0.24   0.02   0.19     0.27  -0.10  -0.20
  12   6    -0.04   0.06  -0.04     0.00  -0.06  -0.21     0.24  -0.11  -0.07
  13   6    -0.01   0.07   0.00     0.02   0.00  -0.09     0.18   0.05   0.01
  14   6    -0.08  -0.02  -0.00     0.01   0.02  -0.07    -0.04  -0.04   0.02
  15   6     0.02  -0.08  -0.02    -0.06   0.06  -0.08    -0.07  -0.03   0.11
  16   6     0.06  -0.08  -0.00     0.04   0.07   0.18    -0.03   0.07  -0.10
  17   6     0.04  -0.05  -0.04    -0.07   0.07  -0.13     0.03   0.13   0.08
  18   6    -0.05  -0.02   0.03     0.06   0.03   0.02     0.00   0.11   0.02
  19   6    -0.05  -0.02   0.06     0.10  -0.02   0.24    -0.15   0.00  -0.10
  20   6     0.03  -0.03  -0.01    -0.07  -0.03  -0.02    -0.18  -0.02   0.10
  21   6     0.08  -0.11   0.07    -0.08  -0.01   0.04    -0.16  -0.21  -0.01
  22   6    -0.21   0.02  -0.03     0.04   0.03   0.01    -0.06   0.18  -0.05
  23   6    -0.20  -0.10   0.18     0.06   0.11   0.10    -0.01   0.01  -0.01
  24   7     0.07  -0.01  -0.18     0.04   0.04   0.00    -0.01  -0.01  -0.05
  25   6     0.03   0.00  -0.10     0.05  -0.02  -0.01     0.02   0.00  -0.06
  26   6     0.01  -0.02  -0.06    -0.00  -0.01  -0.02     0.01  -0.02  -0.02
  27   6    -0.07  -0.06   0.06    -0.03   0.01   0.01    -0.02  -0.02   0.03
  28   6     0.06  -0.00  -0.06    -0.01   0.02  -0.03     0.05   0.01  -0.02
  29   6     0.01  -0.02   0.02     0.00  -0.01   0.01     0.00   0.01   0.03
  30   6    -0.04  -0.00   0.10     0.00  -0.04   0.01    -0.00   0.01   0.03
  31   6     0.01  -0.02   0.10    -0.04   0.00  -0.01     0.01  -0.01   0.04
  32   6     0.02  -0.02   0.06    -0.02   0.01   0.00     0.00  -0.01   0.02
  33   6     0.06   0.08  -0.08     0.03  -0.02  -0.01     0.02   0.03  -0.03
  34   6    -0.06   0.06   0.09     0.00  -0.02   0.02    -0.03   0.01   0.03
  35   6     0.02   0.06  -0.00    -0.00  -0.01  -0.02     0.01   0.02  -0.01
  36   6     0.13  -0.00  -0.09    -0.02   0.04  -0.04     0.05  -0.01  -0.04
  37   6    -0.21  -0.11   0.18     0.12   0.03  -0.01     0.12  -0.03   0.04
  38   1     0.08  -0.07  -0.10    -0.01  -0.03  -0.04     0.05  -0.02  -0.01
  39   1     0.02   0.10  -0.02     0.02   0.01   0.06     0.06   0.06  -0.03
  40   1     0.10  -0.02   0.07    -0.03   0.02   0.14    -0.00  -0.09  -0.01
  41   1     0.07   0.02   0.00    -0.03   0.01   0.10    -0.03  -0.01  -0.06
  42   1    -0.05   0.01  -0.00     0.01   0.01  -0.01    -0.00   0.06  -0.04
  43   1    -0.06  -0.01  -0.04    -0.08  -0.04  -0.18     0.01  -0.04   0.07
  44   1    -0.01  -0.02   0.05     0.11   0.02   0.14     0.06  -0.05  -0.09
  45   1    -0.00   0.00  -0.05    -0.03  -0.02  -0.11     0.07  -0.03  -0.03
  46   1     0.01  -0.04  -0.00    -0.03   0.02  -0.06    -0.00  -0.04   0.06
  47   1     0.02  -0.03   0.01     0.03   0.02   0.08     0.01   0.01  -0.06
  48   1     0.02  -0.00  -0.03    -0.06   0.01  -0.10     0.02   0.04   0.06
  49   1    -0.02   0.01   0.00    -0.00   0.01  -0.04     0.01   0.03   0.03
  50   1     0.00  -0.05   0.06    -0.01   0.01   0.14    -0.07  -0.08  -0.05
  51   1    -0.14  -0.00  -0.07     0.04  -0.01  -0.02    -0.04   0.05  -0.03
  52   1     0.01  -0.00  -0.02    -0.01  -0.01  -0.01     0.00  -0.00   0.00
  53   1    -0.04  -0.02   0.04    -0.01   0.00   0.01    -0.02  -0.01   0.02
  54   1     0.03   0.01  -0.04     0.00   0.01  -0.01     0.02   0.01  -0.01
  55   1    -0.00  -0.01   0.00     0.01   0.00   0.01    -0.01  -0.00   0.01
  56   1    -0.01  -0.02   0.03    -0.00   0.01   0.01    -0.01  -0.01   0.01
  57   1     0.02   0.03  -0.06     0.01  -0.00  -0.01     0.01   0.01  -0.02
  58   1    -0.04   0.01   0.06    -0.00  -0.01   0.01    -0.02  -0.00   0.02
  59   1     0.01   0.03   0.01    -0.01  -0.02  -0.01     0.00   0.01   0.00
  60   1    -0.05  -0.08   0.06     0.03  -0.00  -0.02     0.04  -0.02   0.02
                     37                     38                     39
                        a                      a                      a 
 Frequencies --   499.7378               511.4951               516.8432
 Red. masses --    10.2820                 9.9635                11.0415
 Frc consts  --     0.0000                 0.0000                 0.0000
 IR Inten    --     3.6082                 1.2253                 1.9822
 Raman Activ --     0.0000                 0.0000                 0.0000
 Depolar     --     0.0000                 0.0000                 0.0000
 Atom AN      X      Y      Z        X      Y      Z        X      Y      Z
   1   6    -0.01  -0.00  -0.01     0.00  -0.03  -0.03     0.01   0.02  -0.01
   2   6     0.01   0.01   0.10    -0.00  -0.01  -0.01     0.01   0.01   0.03
   3   6     0.00  -0.17  -0.25    -0.01   0.11   0.20     0.01  -0.06  -0.10
   4   6    -0.02   0.02  -0.15    -0.03  -0.03  -0.07     0.01   0.01  -0.01
   5   6     0.01   0.08   0.11    -0.02  -0.02  -0.04     0.00   0.01   0.04
   6   6    -0.03  -0.00  -0.11    -0.01   0.01   0.03    -0.01  -0.01  -0.03
   7   6    -0.00   0.01   0.01    -0.02  -0.03  -0.14    -0.01   0.01   0.05
   8   6     0.02  -0.03   0.05     0.07   0.04   0.11    -0.03  -0.02  -0.02
   9   6    -0.05  -0.05  -0.15    -0.05  -0.00  -0.12     0.01   0.00   0.03
  10   6     0.10   0.03   0.19     0.08   0.01   0.16    -0.01   0.00  -0.04
  11   6    -0.09  -0.01  -0.15    -0.06  -0.03  -0.11     0.03   0.01   0.02
  12   6     0.01   0.01   0.12     0.05   0.01   0.07    -0.01  -0.01  -0.02
  13   6     0.08  -0.01   0.23     0.10   0.05   0.21    -0.02  -0.02  -0.05
  14   6    -0.08   0.02  -0.29    -0.12   0.01  -0.24     0.04  -0.01   0.04
  15   6     0.01   0.01  -0.02    -0.06  -0.01  -0.13     0.02   0.00   0.05
  16   6     0.02  -0.02   0.08     0.10  -0.01   0.22    -0.04   0.00  -0.07
  17   6    -0.05  -0.01  -0.12    -0.07   0.02  -0.26     0.02  -0.01   0.08
  18   6     0.04  -0.02   0.10     0.05   0.00   0.18    -0.01  -0.00  -0.05
  19   6    -0.03   0.02  -0.17    -0.03  -0.01   0.04     0.01   0.01  -0.04
  20   6     0.04   0.03   0.18     0.01  -0.03   0.01    -0.00   0.02   0.03
  21   6     0.01   0.07   0.07     0.01  -0.04  -0.01    -0.01   0.02   0.02
  22   6     0.01  -0.05   0.02     0.01   0.04   0.01     0.00  -0.02   0.01
  23   6     0.01   0.16   0.31     0.00  -0.10  -0.23     0.00   0.06   0.12
  24   7     0.05   0.09   0.07    -0.00  -0.04  -0.09     0.07   0.13   0.13
  25   6     0.15  -0.07  -0.04    -0.14   0.12   0.05     0.06   0.24  -0.00
  26   6     0.01  -0.04  -0.05    -0.03   0.11   0.06    -0.00   0.31   0.02
  27   6    -0.08   0.03   0.05     0.07  -0.01  -0.05    -0.04   0.07   0.07
  28   6     0.01   0.05  -0.09    -0.07  -0.07   0.04    -0.19  -0.08  -0.24
  29   6     0.02  -0.04   0.06    -0.07   0.01  -0.10    -0.25  -0.09  -0.13
  30   6     0.02  -0.12   0.03    -0.06   0.13  -0.05    -0.16   0.05  -0.08
  31   6    -0.12   0.02  -0.04     0.13  -0.07   0.05     0.06  -0.17   0.02
  32   6    -0.06   0.05   0.02     0.05  -0.11  -0.04    -0.05  -0.29  -0.04
  33   6     0.08  -0.03  -0.04    -0.09  -0.04   0.02     0.00  -0.28  -0.14
  34   6    -0.00  -0.05   0.08     0.02   0.05  -0.07     0.03  -0.00   0.10
  35   6    -0.01  -0.02  -0.07     0.07   0.02   0.12     0.27   0.04   0.16
  36   6    -0.04   0.11  -0.12     0.08  -0.09   0.15     0.23   0.07   0.08
  37   6    -0.02  -0.04  -0.08     0.04   0.06   0.08    -0.01  -0.01  -0.03
  38   1    -0.01   0.00  -0.00    -0.00  -0.02  -0.03     0.00   0.01  -0.00
  39   1    -0.00   0.03   0.10     0.00  -0.03  -0.05     0.00   0.02   0.04
  40   1    -0.00   0.04   0.08     0.01   0.00   0.05    -0.01   0.00  -0.00
  41   1    -0.01  -0.00  -0.02     0.02   0.02   0.10    -0.01  -0.01  -0.04
  42   1    -0.03  -0.03  -0.11    -0.07  -0.01  -0.13     0.02   0.00   0.03
  43   1     0.04   0.02   0.07     0.01  -0.00   0.03    -0.00   0.00  -0.00
  44   1    -0.08  -0.01  -0.16    -0.07  -0.03  -0.15     0.02   0.01   0.03
  45   1    -0.03  -0.00  -0.02    -0.02  -0.01  -0.06     0.00   0.00   0.02
  46   1     0.04  -0.00   0.10    -0.00  -0.02  -0.00     0.01   0.01   0.02
  47   1     0.03  -0.01   0.11     0.07  -0.01   0.16    -0.02   0.00  -0.04
  48   1    -0.01  -0.01  -0.01    -0.04   0.01  -0.12     0.01  -0.00   0.04
  49   1     0.06  -0.02   0.15     0.05   0.00   0.13    -0.01  -0.00  -0.03
  50   1     0.00   0.02  -0.02     0.01  -0.00   0.04    -0.01   0.00  -0.01
  51   1     0.00  -0.02   0.00     0.01   0.01  -0.00    -0.00  -0.00   0.01
  52   1    -0.03  -0.04  -0.03     0.03   0.06   0.03    -0.00   0.09   0.02
  53   1    -0.05   0.00   0.04     0.06  -0.01  -0.03     0.04  -0.03   0.08
  54   1     0.01   0.03  -0.04    -0.02  -0.04   0.02    -0.04  -0.06  -0.08
  55   1     0.02   0.01   0.06    -0.03  -0.01  -0.07    -0.09  -0.04  -0.03
  56   1    -0.01   0.04   0.03     0.01  -0.07  -0.04    -0.03  -0.10  -0.00
  57   1     0.04  -0.01  -0.02    -0.05  -0.02   0.00    -0.03  -0.08  -0.07
  58   1    -0.02  -0.03   0.05     0.01   0.04  -0.05    -0.05   0.07   0.03
  59   1    -0.02  -0.04  -0.03     0.04   0.04   0.04     0.07   0.02   0.06
  60   1    -0.01  -0.05  -0.08     0.01   0.05   0.07    -0.00  -0.02  -0.03
                     40                     41                     42
                        a                      a                      a 
 Frequencies --   537.9845               540.8346               551.9731
 Red. masses --     9.9899                11.1509                10.7257
 Frc consts  --     0.0000                 0.0000                 0.0000
 IR Inten    --     5.6368                 7.8785                 0.3611
 Raman Activ --     0.0000                 0.0000                 0.0000
 Depolar     --     0.0000                 0.0000                 0.0000
 Atom AN      X      Y      Z        X      Y      Z        X      Y      Z
   1   6    -0.00  -0.00   0.01     0.04   0.05  -0.08    -0.01  -0.10   0.01
   2   6    -0.01  -0.02  -0.00     0.06   0.08   0.03    -0.00  -0.08   0.08
   3   6    -0.01   0.00   0.02     0.07  -0.04  -0.11    -0.12  -0.04   0.00
   4   6    -0.01  -0.00   0.02     0.05  -0.00  -0.16    -0.17   0.10  -0.16
   5   6    -0.00   0.01  -0.01     0.02  -0.02   0.10    -0.09   0.23   0.03
   6   6     0.00   0.01   0.01    -0.02  -0.07  -0.07    -0.02  -0.11  -0.02
   7   6     0.01   0.00  -0.01    -0.07  -0.01   0.04     0.25  -0.18  -0.06
   8   6     0.01   0.00  -0.01    -0.07  -0.01   0.02     0.17   0.18  -0.10
   9   6    -0.00  -0.01  -0.00     0.00   0.05   0.01    -0.02   0.04   0.00
  10   6    -0.00  -0.01   0.00    -0.00   0.04  -0.03    -0.02  -0.13   0.03
  11   6    -0.02  -0.00   0.00     0.09   0.01  -0.02    -0.12  -0.08   0.06
  12   6    -0.00   0.01   0.00     0.01  -0.05  -0.02     0.06   0.12  -0.04
  13   6    -0.00   0.01  -0.00     0.01  -0.05  -0.01     0.02   0.27  -0.04
  14   6    -0.01   0.00   0.00     0.03  -0.02  -0.03    -0.24   0.04   0.05
  15   6    -0.00   0.00  -0.01     0.02  -0.01   0.07    -0.06  -0.04   0.14
  16   6     0.01   0.00   0.01    -0.06  -0.01  -0.09     0.05   0.10  -0.17
  17   6     0.00  -0.00  -0.01     0.00   0.01   0.10     0.17  -0.02   0.08
  18   6     0.00  -0.00   0.01    -0.01   0.01  -0.06    -0.09   0.02  -0.08
  19   6    -0.00  -0.00   0.01     0.00   0.03  -0.09    -0.23  -0.13  -0.02
  20   6     0.01  -0.01  -0.02    -0.02   0.06   0.13     0.16  -0.27   0.12
  21   6     0.01  -0.01  -0.01    -0.02   0.06   0.05     0.10  -0.02   0.04
  22   6     0.00   0.02  -0.00    -0.04  -0.09   0.09     0.00   0.04  -0.01
  23   6     0.00   0.00  -0.03    -0.06   0.02   0.17     0.03   0.04  -0.03
  24   7    -0.04  -0.01   0.06     0.28   0.09  -0.39     0.02   0.01  -0.05
  25   6    -0.01   0.00   0.01    -0.11  -0.03   0.20    -0.01  -0.00   0.01
  26   6    -0.12  -0.04   0.18    -0.11  -0.01   0.16    -0.01  -0.01   0.01
  27   6     0.18   0.06  -0.24     0.14   0.06  -0.21     0.01  -0.00  -0.02
  28   6    -0.15  -0.05   0.23    -0.17  -0.05   0.20    -0.01  -0.00   0.02
  29   6     0.10   0.04  -0.16     0.09   0.01  -0.14     0.01   0.00  -0.01
  30   6     0.15   0.05  -0.23     0.02  -0.01  -0.04    -0.00  -0.00   0.00
  31   6    -0.15  -0.04   0.22    -0.04  -0.01   0.03     0.01  -0.01   0.00
  32   6    -0.13  -0.04   0.19     0.05   0.01  -0.09     0.01  -0.01  -0.02
  33   6     0.20   0.06  -0.28    -0.09  -0.05   0.13    -0.02  -0.01   0.02
  34   6    -0.22  -0.07   0.30     0.10   0.03  -0.12     0.02   0.01  -0.02
  35   6     0.15   0.04  -0.21    -0.05  -0.02   0.10     0.00   0.00   0.02
  36   6     0.04   0.01  -0.07    -0.12  -0.01   0.17    -0.00   0.00   0.02
  37   6     0.02  -0.00  -0.02    -0.11  -0.03   0.03     0.10   0.03   0.02
  38   1    -0.01   0.00   0.01     0.03  -0.01  -0.04    -0.03  -0.02  -0.00
  39   1     0.00  -0.00  -0.00    -0.00   0.02   0.03     0.01  -0.01   0.03
  40   1     0.00   0.00  -0.01    -0.01   0.01   0.06    -0.04   0.08   0.07
  41   1    -0.00   0.00   0.00     0.01  -0.01  -0.02    -0.08  -0.09   0.07
  42   1    -0.00  -0.00  -0.00     0.02   0.01   0.02    -0.08   0.04   0.03
  43   1     0.00   0.00  -0.00    -0.01  -0.00   0.00    -0.00  -0.03   0.01
  44   1    -0.01  -0.00   0.00     0.03   0.00   0.01    -0.03  -0.04   0.02
  45   1     0.00   0.00  -0.00    -0.01  -0.00   0.01     0.09   0.00  -0.05
  46   1    -0.00  -0.00  -0.01     0.02   0.00   0.06     0.01  -0.09   0.08
  47   1     0.00   0.00   0.00    -0.02  -0.00  -0.03     0.02   0.02  -0.07
  48   1    -0.00  -0.00  -0.01     0.02   0.00   0.07     0.07  -0.01   0.08
  49   1    -0.00   0.00   0.00     0.01  -0.01  -0.00    -0.03   0.09   0.00
  50   1     0.01   0.00  -0.00    -0.03   0.00   0.00     0.11   0.06   0.02
  51   1     0.01   0.00  -0.00    -0.04  -0.04  -0.01     0.04   0.01   0.01
  52   1    -0.07  -0.02   0.10    -0.01   0.00   0.01     0.00  -0.00  -0.00
  53   1     0.08   0.03  -0.11     0.11   0.03  -0.14     0.01   0.00  -0.01
  54   1    -0.11  -0.04   0.17    -0.07  -0.02   0.09    -0.00  -0.00   0.01
  55   1     0.01   0.00  -0.01     0.06   0.02  -0.09     0.01   0.00  -0.01
  56   1    -0.03  -0.01   0.04     0.05   0.02  -0.08     0.01  -0.00  -0.01
  57   1     0.13   0.04  -0.19    -0.03  -0.02   0.04    -0.01  -0.00   0.01
  58   1    -0.11  -0.03   0.15     0.07   0.03  -0.10     0.01   0.01  -0.01
  59   1     0.07   0.02  -0.10     0.02   0.00  -0.01     0.00   0.00   0.00
  60   1     0.01   0.01   0.01    -0.03  -0.07  -0.03     0.03   0.02   0.01
                     43                     44                     45
                        a                      a                      a 
[...]
  10   6     0.00  -0.00  -0.00     0.01  -0.02  -0.00     0.01  -0.01  -0.00
  11   6    -0.00   0.00   0.00     0.10   0.02  -0.05     0.05   0.01  -0.03
  12   6    -0.00  -0.00   0.00     0.05   0.15  -0.05     0.03   0.08  -0.02
  13   6     0.00   0.00  -0.00    -0.00   0.00   0.00    -0.00   0.00   0.00
  14   6    -0.00  -0.00   0.00    -0.00   0.00   0.00    -0.00   0.00   0.00
  15   6     0.00   0.00  -0.00    -0.10  -0.02   0.03    -0.05  -0.01   0.02
  16   6    -0.00  -0.00   0.00    -0.01  -0.04   0.00    -0.01  -0.02   0.00
  17   6     0.00  -0.00  -0.00    -0.00   0.00   0.00     0.00  -0.00  -0.00
  18   6     0.00   0.00  -0.00    -0.06  -0.01   0.02    -0.02  -0.00   0.01
  19   6     0.00   0.00   0.00    -0.00  -0.00  -0.00     0.00  -0.00  -0.00
  20   6     0.00   0.00  -0.00    -0.00  -0.00   0.00    -0.00  -0.00   0.00
  21   6    -0.00   0.01   0.00     0.02  -0.02  -0.00     0.00  -0.00  -0.00
  22   6    -0.00  -0.01   0.01     0.01   0.02  -0.01    -0.00  -0.01   0.00
  23   6    -0.00  -0.00   0.00    -0.00   0.00  -0.00    -0.00  -0.00   0.00
  24   7     0.00  -0.00   0.00     0.00  -0.00   0.00     0.00   0.00   0.00
  25   6     0.00   0.00   0.00     0.00  -0.00   0.00    -0.00   0.00  -0.00
  26   6     0.07  -0.12   0.02     0.02  -0.03   0.00    -0.05   0.08  -0.01
  27   6    -0.02  -0.04  -0.02    -0.01  -0.03  -0.01     0.03   0.09   0.04
  28   6     0.05   0.00   0.04    -0.02  -0.00  -0.02     0.08   0.00   0.05
  29   6     0.07  -0.12   0.03    -0.01   0.01  -0.00     0.03  -0.06   0.01
  30   6    -0.00  -0.00  -0.00     0.00   0.00   0.00    -0.00  -0.00  -0.00
  31   6     0.00   0.00   0.00     0.00   0.00   0.00    -0.00  -0.00  -0.00
  32   6     0.08  -0.05   0.05     0.05  -0.03   0.03    -0.07   0.04  -0.04
  33   6     0.00  -0.02  -0.00     0.01  -0.07  -0.01    -0.01   0.10   0.01
  34   6     0.04   0.04   0.04    -0.04  -0.03  -0.03     0.06   0.05   0.05
  35   6     0.10  -0.06   0.06    -0.04   0.02  -0.02     0.06  -0.03   0.04
  36   6    -0.00  -0.00  -0.00    -0.00   0.00   0.00     0.00  -0.00  -0.00
  37   6     0.01   0.00  -0.00     0.00  -0.00  -0.00    -0.01  -0.00   0.00
  38   1    -0.01  -0.02   0.01    -0.00  -0.01   0.01     0.00   0.00  -0.00
  39   1    -0.01   0.01  -0.00     0.03  -0.03   0.01     0.02  -0.02   0.01
  40   1     0.00   0.01  -0.00     0.03   0.08  -0.02     0.01   0.04  -0.01
  41   1     0.01  -0.01   0.00    -0.04   0.05  -0.00    -0.02   0.02  -0.00
  42   1     0.00   0.01  -0.00    -0.04  -0.13   0.03    -0.02  -0.07   0.02
  43   1    -0.00   0.00   0.00    -0.05   0.06   0.01    -0.03   0.03   0.01
  44   1     0.00   0.00  -0.00    -0.32  -0.05   0.16    -0.17  -0.03   0.09
  45   1     0.00   0.00  -0.00    -0.17  -0.52   0.15    -0.09  -0.28   0.08
  46   1    -0.00  -0.00   0.00     0.35   0.07  -0.11     0.18   0.03  -0.06
  47   1     0.00   0.00  -0.00     0.04   0.11  -0.01     0.03   0.07  -0.01
  48   1    -0.00   0.00   0.00     0.01  -0.01  -0.00    -0.01   0.01   0.00
  49   1    -0.01  -0.00   0.00     0.21   0.03  -0.08     0.07   0.01  -0.03
  50   1     0.02  -0.02  -0.00    -0.06   0.07   0.00    -0.00   0.01  -0.00
  51   1     0.01   0.04  -0.02    -0.02  -0.07   0.04     0.01   0.02  -0.01
  52   1    -0.25   0.42  -0.07    -0.05   0.09  -0.02     0.17  -0.28   0.05
  53   1     0.05   0.14   0.07     0.04   0.09   0.05    -0.11  -0.29  -0.14
  54   1    -0.18  -0.01  -0.13     0.08   0.00   0.05    -0.25  -0.01  -0.18
  55   1    -0.24   0.40  -0.09     0.03  -0.05   0.01    -0.12   0.20  -0.04
  56   1    -0.29   0.17  -0.16    -0.18   0.10  -0.10     0.24  -0.14   0.13
  57   1    -0.01   0.06   0.01    -0.03   0.23   0.03     0.04  -0.33  -0.04
  58   1    -0.13  -0.11  -0.12     0.12   0.11   0.11    -0.18  -0.16  -0.16
  59   1    -0.33   0.19  -0.20     0.12  -0.07   0.07    -0.20   0.12  -0.12
  60   1    -0.02  -0.00   0.00    -0.01  -0.00   0.00     0.02   0.00  -0.00
                    166                    167                    168
                        a                      a                      a 
 Frequencies --  3094.8397              3096.2693              3097.5880
 Red. masses --     1.9064                 1.8506                 1.8761
 Frc consts  --     0.0000                 0.0000                 0.0000
 IR Inten    --   504.2715                31.5508                 7.3184
 Raman Activ --     0.0000                 0.0000                 0.0000
 Depolar     --     0.0000                 0.0000                 0.0000
 Atom AN      X      Y      Z        X      Y      Z        X      Y      Z
   1   6    -0.00  -0.00   0.00     0.00   0.00  -0.00    -0.00  -0.01   0.01
   2   6     0.00  -0.00   0.00    -0.00   0.00  -0.00     0.05  -0.05   0.03
   3   6    -0.00   0.00  -0.00     0.00   0.00  -0.00     0.00  -0.00   0.00
   4   6     0.00   0.00  -0.00     0.00  -0.00  -0.00     0.00  -0.00  -0.00
   5   6    -0.00  -0.00   0.00     0.00   0.01  -0.00     0.04   0.12  -0.03
   6   6     0.01  -0.01   0.00    -0.00   0.00  -0.00    -0.12   0.14  -0.01
   7   6    -0.00  -0.00   0.00    -0.00   0.00   0.00    -0.01   0.00   0.00
   8   6     0.00   0.00  -0.00     0.00   0.00   0.00    -0.00  -0.00   0.00
   9   6    -0.00  -0.00   0.00    -0.00  -0.01   0.00    -0.04  -0.11   0.03
  10   6    -0.01   0.01   0.00    -0.00   0.01   0.00     0.03  -0.03  -0.01
  11   6    -0.02  -0.00   0.01    -0.03  -0.00   0.01     0.03   0.01  -0.02
  12   6    -0.01  -0.03   0.01    -0.02  -0.06   0.02     0.01   0.02  -0.01
  13   6     0.00  -0.00  -0.00     0.00  -0.00  -0.00    -0.00   0.00  -0.00
  14   6     0.00  -0.00  -0.00     0.00   0.00  -0.00    -0.00   0.00   0.00
  15   6     0.03   0.00  -0.01    -0.00  -0.00   0.00    -0.02  -0.00   0.01
  16   6     0.00   0.01  -0.00     0.02   0.03  -0.00    -0.00  -0.01   0.00
  17   6    -0.00   0.00   0.00    -0.05   0.06   0.02     0.00  -0.00  -0.00
  18   6    -0.01  -0.00   0.00    -0.18  -0.03   0.07    -0.02  -0.00   0.01
  19   6    -0.00  -0.00   0.00    -0.00  -0.01   0.00    -0.00  -0.00   0.00
  20   6     0.00  -0.00  -0.00    -0.00  -0.00   0.00     0.00  -0.00  -0.00
  21   6     0.00  -0.00   0.00     0.06  -0.07  -0.00    -0.01   0.01   0.00
  22   6     0.01   0.01  -0.01     0.04   0.10  -0.06    -0.01  -0.02   0.01
  23   6    -0.00   0.00  -0.00    -0.00   0.00  -0.00     0.00  -0.00   0.00
  24   7     0.00  -0.00   0.00     0.00  -0.00   0.00    -0.00   0.00  -0.00
  25   6    -0.00  -0.00  -0.00     0.00   0.00   0.00    -0.00  -0.00  -0.00
  26   6    -0.05   0.09  -0.02     0.00  -0.00   0.00    -0.01   0.01  -0.00
  27   6     0.04   0.10   0.05    -0.00  -0.00  -0.00     0.00   0.01   0.00
  28   6     0.09   0.00   0.06    -0.00  -0.00  -0.00     0.01   0.00   0.01
  29   6     0.05  -0.09   0.02    -0.00   0.00  -0.00     0.00  -0.01   0.00
  30   6    -0.00  -0.00  -0.00    -0.00   0.00  -0.00    -0.00  -0.00  -0.00
  31   6     0.00   0.00   0.00    -0.00  -0.00  -0.00     0.00   0.00   0.00
  32   6     0.08  -0.05   0.05    -0.01   0.01  -0.01     0.01  -0.00   0.00
  33   6     0.01  -0.10  -0.01    -0.00   0.01   0.00     0.00  -0.01  -0.00
  34   6    -0.05  -0.04  -0.05     0.01   0.01   0.01    -0.01  -0.01  -0.01
  35   6    -0.05   0.03  -0.03     0.02  -0.01   0.01    -0.01   0.01  -0.01
  36   6    -0.00   0.00   0.00     0.00  -0.00  -0.00    -0.00   0.00   0.00
  37   6    -0.01  -0.00   0.00     0.02   0.00  -0.00     0.03   0.01  -0.01
  38   1     0.00   0.01  -0.00    -0.01  -0.01   0.01     0.01   0.04  -0.02
  39   1    -0.00   0.00  -0.00     0.01  -0.01   0.00    -0.17   0.17  -0.09
  40   1     0.00   0.02  -0.00    -0.02  -0.05   0.01    -0.13  -0.41   0.10
  41   1    -0.04   0.05  -0.00     0.01  -0.01   0.00     0.41  -0.48   0.03
  42   1     0.00   0.01  -0.00     0.01   0.04  -0.01     0.12   0.40  -0.10
  43   1     0.02  -0.02  -0.01     0.01  -0.02  -0.00    -0.08   0.10   0.02
  44   1     0.07   0.01  -0.04     0.09   0.02  -0.04    -0.11  -0.02   0.05
  45   1     0.03   0.10  -0.03     0.07   0.21  -0.06    -0.03  -0.08   0.02
  46   1    -0.09  -0.02   0.03     0.02   0.00  -0.01     0.07   0.01  -0.02
  47   1    -0.01  -0.03   0.00    -0.04  -0.11   0.01     0.01   0.02  -0.00
  48   1     0.01  -0.01  -0.00     0.15  -0.19  -0.07    -0.00   0.00   0.00
  49   1     0.02   0.00  -0.01     0.63   0.10  -0.25     0.06   0.01  -0.02
  50   1    -0.01   0.01   0.00    -0.21   0.24   0.01     0.02  -0.03  -0.00
  51   1    -0.02  -0.05   0.03    -0.12  -0.35   0.21     0.03   0.07  -0.04
  52   1     0.18  -0.29   0.05    -0.00   0.00  -0.00     0.02  -0.03   0.01
  53   1    -0.12  -0.31  -0.15     0.00   0.01   0.00    -0.01  -0.03  -0.01
  54   1    -0.30  -0.01  -0.21     0.01   0.00   0.00    -0.02  -0.00  -0.02
  55   1    -0.17   0.29  -0.06     0.01  -0.01   0.00    -0.01   0.02  -0.00
  56   1    -0.28   0.16  -0.16     0.03  -0.02   0.02    -0.02   0.01  -0.01
  57   1    -0.04   0.32   0.04     0.01  -0.05  -0.01    -0.00   0.03   0.00
  58   1     0.17   0.15   0.16    -0.03  -0.03  -0.03     0.02   0.02   0.02
  59   1     0.18  -0.11   0.11    -0.08   0.05  -0.05     0.03  -0.02   0.02
  60   1     0.05   0.01  -0.01    -0.08  -0.01   0.01    -0.09  -0.01   0.02
                    169                    170                    171
                        a                      a                      a 
 Frequencies --  3099.3455              3101.9375              3104.5174
 Red. masses --     1.8215                 1.8305                 1.8268
 Frc consts  --     0.0000                 0.0000                 0.0000
 IR Inten    --   314.0833                25.2429               252.9168
 Raman Activ --     0.0000                 0.0000                 0.0000
 Depolar     --     0.0000                 0.0000                 0.0000
 Atom AN      X      Y      Z        X      Y      Z        X      Y      Z
   1   6    -0.00  -0.01   0.01     0.01   0.02  -0.01    -0.00  -0.00   0.00
   2   6    -0.01   0.01  -0.00     0.06  -0.07   0.04     0.02  -0.02   0.01
   3   6    -0.01  -0.00   0.00     0.00  -0.00   0.00     0.00  -0.00   0.00
   4   6    -0.00  -0.00   0.00    -0.00  -0.00   0.00    -0.00   0.00   0.00
   5   6    -0.00  -0.01   0.00    -0.02  -0.05   0.01    -0.00  -0.01   0.00
   6   6     0.01  -0.01   0.00     0.02  -0.02   0.00     0.02  -0.02   0.00
   7   6     0.00  -0.00  -0.00     0.00   0.00   0.00     0.00  -0.00  -0.00
   8   6    -0.00   0.00  -0.00     0.00   0.00  -0.00    -0.00  -0.00   0.00
   9   6     0.00   0.00  -0.00     0.01   0.03  -0.01    -0.01  -0.03   0.01
  10   6    -0.00   0.00   0.00    -0.01   0.01   0.00    -0.00   0.00   0.00
  11   6    -0.01  -0.00   0.01    -0.01  -0.00   0.00    -0.03  -0.01   0.02
  12   6    -0.01  -0.02   0.01     0.00  -0.00   0.00    -0.04  -0.11   0.03
  13   6     0.00  -0.00  -0.00    -0.00  -0.00   0.00     0.00  -0.00  -0.00
  14   6     0.00   0.00  -0.00     0.00  -0.00  -0.00    -0.01   0.00   0.00
  15   6    -0.01  -0.00   0.00     0.01   0.00  -0.00    -0.21  -0.04   0.07
  16   6     0.01   0.01  -0.00     0.00   0.00  -0.00    -0.03  -0.06   0.01
  17   6    -0.02   0.03   0.01    -0.00   0.00   0.00     0.02  -0.02  -0.01
  18   6    -0.12  -0.02   0.05    -0.01  -0.00   0.01     0.03   0.00  -0.01
  19   6    -0.00  -0.00   0.00    -0.00  -0.00   0.00     0.00   0.00  -0.00
  20   6    -0.00   0.00   0.00     0.00   0.00  -0.00    -0.00   0.00   0.00
  21   6    -0.01   0.01  -0.00    -0.01   0.01   0.00    -0.01   0.01   0.00
  22   6    -0.06  -0.18   0.11    -0.02  -0.04   0.03     0.00   0.01  -0.00
  23   6     0.00  -0.01   0.00     0.01  -0.01   0.00    -0.00   0.00   0.00
  24   7     0.00   0.00  -0.00    -0.00   0.00   0.00    -0.00   0.00  -0.00
  25   6    -0.00  -0.00   0.00    -0.00   0.00  -0.00    -0.00  -0.00  -0.00
  26   6     0.00  -0.00   0.00    -0.01   0.01  -0.00    -0.00   0.00  -0.00
  27   6    -0.00  -0.00  -0.00     0.00   0.00   0.00     0.00   0.00   0.00
  28   6    -0.00   0.00  -0.00     0.00  -0.00   0.00     0.00   0.00   0.00
  29   6    -0.00   0.00  -0.00     0.00  -0.00   0.00     0.00  -0.00   0.00
  30   6     0.00   0.00   0.00    -0.00  -0.00  -0.00     0.00   0.00   0.00
  31   6     0.00  -0.00   0.00     0.00   0.00   0.00     0.00  -0.00  -0.00
  32   6    -0.00   0.00  -0.00     0.00  -0.00   0.00     0.00  -0.00   0.00
  33   6     0.00  -0.00   0.00     0.00  -0.00  -0.00     0.00  -0.00  -0.00
  34   6    -0.00  -0.00  -0.00    -0.00  -0.00  -0.00    -0.00  -0.00  -0.00
  35   6    -0.01   0.01  -0.01    -0.00   0.00  -0.00    -0.00   0.00  -0.00
  36   6    -0.00   0.00   0.00     0.00   0.00  -0.00    -0.00   0.00   0.00
  37   6    -0.06  -0.01   0.01     0.23   0.04  -0.04     0.00   0.00  -0.00
  38   1     0.01   0.03  -0.02    -0.03  -0.07   0.04     0.00   0.01  -0.00
  39   1     0.02  -0.03   0.01    -0.24   0.25  -0.13    -0.05   0.06  -0.03
  40   1     0.01   0.04  -0.01     0.06   0.18  -0.04     0.01   0.04  -0.01
  41   1    -0.04   0.04  -0.00    -0.06   0.07  -0.00    -0.06   0.06  -0.00
  42   1    -0.00  -0.01   0.00    -0.03  -0.09   0.02     0.03   0.09  -0.02
  43   1     0.01  -0.01  -0.00     0.02  -0.02  -0.00     0.01  -0.01  -0.00
  44   1     0.04   0.01  -0.02     0.02   0.00  -0.01     0.10   0.02  -0.05
  45   1     0.03   0.09  -0.03     0.00   0.00  -0.00     0.13   0.40  -0.12
  46   1     0.04   0.01  -0.01    -0.03  -0.01   0.01     0.75   0.14  -0.24
  47   1    -0.02  -0.04   0.00    -0.00  -0.01   0.00     0.07   0.18  -0.01
  48   1     0.08  -0.10  -0.03     0.01  -0.01  -0.00    -0.06   0.08   0.03
  49   1     0.43   0.07  -0.17     0.05   0.01  -0.02    -0.09  -0.01   0.03
  50   1     0.04  -0.05  -0.00     0.02  -0.02  -0.00     0.04  -0.05  -0.00
  51   1     0.23   0.64  -0.40     0.05   0.15  -0.09    -0.01  -0.03   0.02
  52   1    -0.01   0.01  -0.00     0.03  -0.05   0.01     0.00  -0.00   0.00
  53   1     0.00   0.01   0.00    -0.00  -0.01  -0.00    -0.00  -0.01  -0.00
  54   1     0.00   0.00   0.00    -0.00  -0.00  -0.00    -0.00  -0.00  -0.00
  55   1     0.00  -0.00   0.00    -0.00   0.00  -0.00    -0.00   0.00  -0.00
  56   1     0.00  -0.00   0.00    -0.00   0.00  -0.00    -0.01   0.00  -0.00
  57   1    -0.00   0.00   0.00    -0.00   0.01   0.00    -0.00   0.01   0.00
  58   1     0.01   0.01   0.01     0.00   0.00   0.00     0.00   0.00   0.00
  59   1     0.04  -0.02   0.03     0.02  -0.01   0.01     0.01  -0.00   0.00
  60   1     0.20   0.03  -0.03    -0.81  -0.12   0.13    -0.00  -0.00   0.00
                    172                    173                    174
                        a                      a                      a 
 Frequencies --  3106.5097              3109.0012              3115.5525
 Red. masses --     1.8385                 1.8315                 1.7896
 Frc consts  --     0.0000                 0.0000                 0.0000
 IR Inten    --    14.3496               407.6701                41.3342
 Raman Activ --     0.0000                 0.0000                 0.0000
 Depolar     --     0.0000                 0.0000                 0.0000
 Atom AN      X      Y      Z        X      Y      Z        X      Y      Z
   1   6     0.02   0.06  -0.03     0.01   0.03  -0.02     0.00   0.00  -0.00
   2   6    -0.14   0.14  -0.07    -0.07   0.07  -0.04    -0.01   0.01  -0.00
   3   6    -0.01   0.00  -0.00    -0.00   0.00  -0.00    -0.00  -0.00   0.00
   4   6    -0.00   0.00  -0.00     0.00   0.00  -0.00     0.01  -0.00  -0.00
   5   6     0.01   0.03  -0.01     0.02   0.06  -0.02     0.00   0.02  -0.00
   6   6     0.03  -0.03   0.00    -0.08   0.09  -0.01    -0.01   0.01  -0.00
   7   6     0.00  -0.00   0.00    -0.00   0.00   0.00    -0.00   0.00  -0.00
   8   6    -0.00  -0.00   0.00     0.00   0.00  -0.00     0.00   0.00  -0.00
   9   6    -0.03  -0.11   0.03     0.05   0.17  -0.04     0.01   0.02  -0.00
  10   6     0.02  -0.02  -0.00    -0.03   0.03   0.01    -0.00   0.01   0.00
  11   6     0.01   0.00  -0.00    -0.02  -0.01   0.01    -0.01  -0.00   0.00
  12   6     0.00   0.00  -0.00    -0.01  -0.03   0.01    -0.00  -0.01   0.00
  13   6     0.00   0.00   0.00    -0.00  -0.00   0.00    -0.00  -0.00   0.00
  14   6    -0.00  -0.00   0.00    -0.00   0.00   0.00    -0.00  -0.00   0.00
  15   6    -0.00  -0.00   0.00    -0.03  -0.01   0.01    -0.01  -0.00   0.00
  16   6    -0.00  -0.00   0.00    -0.00  -0.01   0.00    -0.00  -0.01   0.00
  17   6     0.00  -0.00  -0.00     0.00  -0.00  -0.00     0.01  -0.01  -0.00
  18   6     0.00   0.00  -0.00    -0.01  -0.00   0.00     0.07   0.01  -0.03
  19   6     0.00   0.00  -0.00    -0.00  -0.00   0.00     0.00   0.00  -0.00
  20   6     0.00   0.00   0.00     0.00   0.00  -0.00     0.00  -0.01   0.00
  21   6    -0.01   0.01   0.00    -0.03   0.03   0.00     0.16  -0.18  -0.01
  22   6    -0.01  -0.02   0.01    -0.00  -0.00   0.00    -0.02  -0.05   0.03
  23   6     0.00  -0.00   0.00     0.00  -0.00   0.00     0.00  -0.00   0.00
  24   7    -0.00   0.00   0.00    -0.00   0.00  -0.00     0.00   0.00  -0.00
  25   6    -0.00   0.00  -0.00    -0.00   0.00  -0.00    -0.00  -0.00  -0.00
  26   6    -0.00   0.00  -0.00    -0.00   0.00  -0.00    -0.00   0.00  -0.00
  27   6     0.00   0.00   0.00     0.00   0.00   0.00     0.00   0.00   0.00
  28   6     0.00  -0.00   0.00     0.00   0.00   0.00     0.00   0.00   0.00
  29   6     0.00  -0.00   0.00     0.00  -0.00   0.00     0.00  -0.00   0.00
  30   6    -0.00  -0.00  -0.00     0.00   0.00   0.00     0.00   0.00   0.00
  31   6     0.00   0.00   0.00     0.00  -0.00  -0.00    -0.00  -0.00  -0.00
  32   6     0.00  -0.00   0.00     0.00  -0.00   0.00     0.00  -0.00   0.00
  33   6     0.00  -0.00  -0.00     0.00  -0.00  -0.00     0.00  -0.00  -0.00
  34   6    -0.00  -0.00  -0.00    -0.00  -0.00  -0.00     0.00   0.00   0.00
  35   6    -0.00   0.00  -0.00    -0.00   0.00  -0.00     0.00  -0.00   0.00
  36   6     0.00   0.00  -0.00     0.00   0.00   0.00    -0.00   0.00   0.00
  37   6     0.10   0.01  -0.01     0.04   0.01  -0.01     0.01   0.00  -0.00
  38   1    -0.06  -0.16   0.09    -0.03  -0.08   0.04    -0.00  -0.01   0.01
  39   1     0.48  -0.48   0.25     0.24  -0.24   0.13     0.03  -0.03   0.02
  40   1    -0.04  -0.11   0.03    -0.07  -0.21   0.05    -0.02  -0.06   0.01
  41   1    -0.11   0.13  -0.01     0.29  -0.34   0.02     0.04  -0.05   0.00
  42   1     0.12   0.40  -0.10    -0.19  -0.62   0.16    -0.02  -0.07   0.02
  43   1    -0.05   0.06   0.01     0.08  -0.10  -0.02     0.01  -0.02  -0.00
  44   1    -0.03  -0.01   0.01     0.08   0.01  -0.04     0.02   0.00  -0.01
  45   1    -0.00  -0.01   0.00     0.03   0.09  -0.03     0.01   0.03  -0.01
  46   1     0.02   0.00  -0.01     0.09   0.02  -0.03     0.04   0.01  -0.01
  47   1     0.00   0.01  -0.00     0.01   0.02  -0.00     0.01   0.03  -0.00
  48   1    -0.01   0.01   0.00    -0.01   0.01   0.00    -0.02   0.03   0.01
  49   1    -0.01  -0.00   0.00     0.02   0.00  -0.01    -0.24  -0.04   0.09
  50   1     0.02  -0.03  -0.00     0.09  -0.11  -0.00    -0.57   0.67   0.02
  51   1     0.02   0.06  -0.04     0.00   0.01  -0.01     0.07   0.20  -0.12
  52   1     0.01  -0.02   0.00     0.01  -0.01   0.00     0.01  -0.01   0.00
  53   1    -0.00  -0.01  -0.00    -0.00  -0.01  -0.01    -0.00  -0.01  -0.00
  54   1    -0.01  -0.00  -0.00    -0.01  -0.00  -0.01    -0.01  -0.00  -0.01
  55   1    -0.00   0.01  -0.00    -0.01   0.01  -0.00    -0.00   0.01  -0.00
  56   1    -0.01   0.00  -0.00    -0.01   0.01  -0.01    -0.01   0.00  -0.00
  57   1    -0.00   0.01   0.00    -0.00   0.01   0.00    -0.00   0.01   0.00
  58   1     0.00   0.00   0.00     0.01   0.01   0.01    -0.00  -0.00  -0.00
  59   1     0.01  -0.00   0.01     0.01  -0.01   0.01    -0.01   0.00  -0.00
  60   1    -0.34  -0.05   0.06    -0.15  -0.02   0.02    -0.03  -0.00   0.00
