$hessian                                                                        
        0.5920600111   0.1565769099  -0.0092913024  -0.2709159912  -0.0693409985
       -0.0917710023  -0.0537194046  -0.0193055166   0.0535850294  -0.0212693622
       -0.0040877728  -0.0335164343   0.0380858378   0.0121652980  -0.0007679766
       -0.1041450472  -0.0199866851  -0.0242469879  -0.0014707391  -0.0027799584
        0.0115340507  -0.0015703586  -0.0005581923  -0.0035541789  -0.0013951505
       -0.0003487397   0.0025588125   0.0021772189   0.0007140938  -0.0000974109
       -0.0007892881   0.0000038390  -0.0011129107   0.0022914076   0.0007244884
        0.0007553584  -0.0033069328  -0.0011502179   0.0024581835   0.0003932744
        0.0001625848  -0.0001302375  -0.0000319754  -0.0000981687   0.0000115968
       -0.0000170932  -0.0000777034  -0.0000007389  -0.0000872741   0.0000620425
        0.0000564473   0.0001284155   0.0000632859  -0.0000074666  -0.0000459462
       -0.0000250168   0.0000023805   0.0000240435   0.0000290396   0.0000074980
       -0.0000634387  -0.0000188173   0.0000003910   0.0000483703   0.0000321502
       -0.0000041253   0.0000093185  -0.0000294882   0.0000024658  -0.0000400464
        0.0000112248   0.0000014333   0.0000054973  -0.0000220630  -0.0000015664
       -0.0000063171   0.0000007512   0.0000000058  -0.0000005972  -0.0000057985
        0.0000010915  -0.0000080432  -0.0000068078   0.0000003063   0.0000068534
       -0.0000011322  -0.0000003255  -0.0000022405   0.0000000475  -0.0000001277
       -0.0000010835  -0.0000050105   0.0000011434  -0.0000063083  -0.0000030534
        0.0000029125   0.0000189426  -0.0000068205  -0.0000004742  -0.0000212707
        0.0000068369   0.0000002274   0.0000080652   0.0000071660  -0.0000023182
       -0.0000016013  -0.0000039643  -0.0000011826   0.0000017152   0.0000005617
       -0.0000002748  -0.0000015364   0.0000022393  -0.0000004159  -0.0000002078
       -0.0000016499  -0.0000003116  -0.0000032974   0.0000027719   0.0000000453
       -0.0000050632  -0.0000026806  -0.0000005638  -0.0000001177   0.0000021336
        0.0000001806  -0.0000021955  -0.0000014923   0.0000003377   0.0000011138
       -0.0000042513  -0.0000000656  -0.0000004422   0.0000044757   0.0000012005
        0.0000032451  -0.0000105851   0.0000018394  -0.0000037722   0.0000058319
       -0.0000029526   0.0000023261   0.0000044197  -0.0000016832  -0.0000016525
        0.0000066870  -0.0000000199  -0.0000000284   0.0000078460  -0.0000009612
        0.0000048520   0.0000074609   0.0000014841   0.0000348812  -0.0000094951
       -0.0000045618  -0.0000427077  -0.0000020235   0.0000032868   0.0001836316
        0.0000471707   0.0000546258  -0.0001863173  -0.0002291988  -0.0000241099
       -0.1582680496  -0.0438086446   0.1212398534  -0.0078494732  -0.0030322926
       -0.0041092214  -0.0008868047  -0.0031692888   0.0030407727  -0.0091707882
       -0.0026401547  -0.0268780096  -0.0000010756  -0.0000661453   0.0001579149
       -0.0000218296   0.0000098616  -0.0000181142   0.0000591556  -0.0000181548
       -0.0000148756   0.0000592188   0.0000192161  -0.0000780855  -0.0000435542
       -0.0000045601   0.0000329040  -0.0000240554   0.0000232948   0.0000168165
        0.0000099734  -0.0000022396   0.0000051686  -0.0000151462  -0.0000007765
       -0.0000021720   0.0000009340  -0.0000023181   0.0000001636  -0.0000017998
        0.0000027194   0.0000004911   0.0000001402   0.0000000932   0.0000011829
       -0.0000016515   0.0000012950  -0.0000008762  -0.0000007571   0.0000008975
       -0.0000005963  -0.0000006809  -0.0000007664  -0.0000012143  -0.0000016218
       -0.0000006041  -0.0000011147  -0.0000015375   0.0000002444  -0.0000004575
       -0.0000016206  -0.0000002301  -0.0000000705  -0.0000015675   0.0000006180
        0.0000005634  -0.0000003742   0.0000006057   0.0000007894  -0.0000014552
       -0.0000009544   0.0000001934  -0.0000025683  -0.0000009845   0.0000007619
       -0.0000001485  -0.0000011191  -0.0000012064  -0.0000035660  -0.0000015635
       -0.0000008863   0.0000010823   0.0000001189  -0.0000006430  -0.0000076138
       -0.0000047889   0.0000018203   0.0000061479   0.0000052157  -0.0000086144
       -0.0000121417  -0.0000166047   0.0000160072  -0.0001429439   0.0001799558
        0.0001011074
        0.1565769099   0.1640757960  -0.0136425581  -0.0717092212  -0.0702702500
       -0.0280373188  -0.0177885761  -0.0051183013   0.0164120548  -0.0046850023
       -0.0071190396  -0.0104385203   0.0113321753   0.0051507148   0.0010645766
       -0.0183810764  -0.0507533211  -0.0033756785  -0.0029288104   0.0057545731
        0.0035286129  -0.0005107333  -0.0000671734  -0.0010751214  -0.0002294296
       -0.0006298276   0.0007348957   0.0006194165   0.0002331977  -0.0000493673
       -0.0001192992  -0.0004143318  -0.0003113275   0.0006750202   0.0003542936
        0.0002846348  -0.0010530201  -0.0004792055   0.0008095348   0.0002743394
       -0.0000942506  -0.0000585818  -0.0000256147  -0.0000277359   0.0000160862
        0.0000171966  -0.0000053902  -0.0000065101  -0.0000238192  -0.0000009788
        0.0000126623   0.0000461602   0.0000190254   0.0000007165  -0.0000131138
       -0.0000121542   0.0000007821   0.0000090522   0.0000114243   0.0000020240
       -0.0000224559  -0.0000061358   0.0000003433   0.0000157964   0.0000086440
       -0.0000015330  -0.0000013698  -0.0000089941   0.0000025323  -0.0000084896
        0.0000045012   0.0000019887   0.0000008969  -0.0000095684  -0.0000008661
       -0.0000022075   0.0000006970   0.0000001393  -0.0000013508  -0.0000020010
        0.0000003871  -0.0000026615  -0.0000027421   0.0000000424   0.0000025792
       -0.0000004485  -0.0000000708  -0.0000005018   0.0000002053  -0.0000002244
       -0.0000009168  -0.0000016544   0.0000006690  -0.0000017169  -0.0000009425
        0.0000008039   0.0000063612  -0.0000023428  -0.0000002394  -0.0000070807
        0.0000033233  -0.0000001934   0.0000031500   0.0000015005  -0.0000008340
       -0.0000009937  -0.0000019409  -0.0000004835   0.0000006598   0.0000008346
        0.0000000509   0.0000000441   0.0000005103  -0.0000001273  -0.0000020579
       -0.0000018614  -0.0000003697  -0.0000004319   0.0000018929   0.0000000855
       -0.0000008384   0.0000006522  -0.0000000436   0.0000004547  -0.0000001668
       -0.0000000340  -0.0000002834  -0.0000005294  -0.0000001224  -0.0000008402
        0.0000000629  -0.0000001864   0.0000004749   0.0000005398   0.0000002318
        0.0000002038  -0.0000044444   0.0000006852  -0.0000013181   0.0000016793
       -0.0000006167   0.0000008255   0.0000012930  -0.0000002483  -0.0000007234
        0.0000023368   0.0000000816  -0.0000002734   0.0000020079  -0.0000001868
        0.0000018833   0.0000052839  -0.0000017888   0.0000132884  -0.0000049793
       -0.0000016031  -0.0000114997  -0.0000017892   0.0000006743   0.0000409553
        0.0000168156  -0.0000002440  -0.0000781936  -0.0000169444  -0.0000680914
       -0.0437704431  -0.0479705547   0.0426697973  -0.0019272081   0.0000045568
       -0.0009861560  -0.0029964242   0.0073193993   0.0013949237  -0.0032420985
       -0.0002627575  -0.0089628238  -0.0000546366   0.0001628014   0.0000568915
        0.0000098828  -0.0000439538  -0.0000086000  -0.0000079598   0.0000731875
       -0.0000023563   0.0000034580   0.0000624310  -0.0000126270  -0.0000142614
       -0.0000003892   0.0000191922  -0.0000069188   0.0000105348   0.0000041651
        0.0000025539   0.0000017030   0.0000020416  -0.0000061549  -0.0000000929
       -0.0000005317   0.0000008296  -0.0000005357   0.0000001215  -0.0000007790
        0.0000012794   0.0000002075   0.0000001667   0.0000000354   0.0000002045
       -0.0000006998   0.0000004570  -0.0000003172  -0.0000004500   0.0000006144
       -0.0000001625  -0.0000001125   0.0000000567  -0.0000004003  -0.0000004428
        0.0000000885  -0.0000003556  -0.0000001865   0.0000000807  -0.0000001261
       -0.0000005788  -0.0000000099  -0.0000000003  -0.0000004441   0.0000002827
        0.0000003156  -0.0000001119   0.0000000810   0.0000003699  -0.0000003306
       -0.0000003583   0.0000000925  -0.0000007218  -0.0000002486   0.0000000514
       -0.0000001283  -0.0000002705  -0.0000005730  -0.0000009542  -0.0000004319
       -0.0000003518   0.0000004808   0.0000001734  -0.0000002884  -0.0000022818
       -0.0000006374   0.0000005567   0.0000009165   0.0000026033  -0.0000027882
       -0.0000064525  -0.0000038848   0.0000027612  -0.0000014308   0.0000513991
        0.0000245609
       -0.0092913024  -0.0136425581   0.6699003664  -0.0164955400  -0.0030625329
       -0.1096744009   0.0000988770  -0.0015025416   0.0470961454  -0.0259036368
       -0.0079838345  -0.0282915280   0.0509423390   0.0180471420  -0.0682544127
       -0.0968785523  -0.0279960067  -0.3245210078   0.0033083097   0.0012881968
        0.0122309843  -0.0021205913  -0.0006826685  -0.0053730218  -0.0024565308
       -0.0009397420   0.0037110176   0.0033599699   0.0011169449   0.0004643973
       -0.0005849073  -0.0000501079  -0.0025732447   0.0049847492   0.0016280341
        0.0016356738  -0.0026727118  -0.0010646962  -0.0025834314   0.0005089749
        0.0001709357  -0.0000687762  -0.0000650243  -0.0001122732   0.0001012522
        0.0000746413   0.0000554195   0.0000316587  -0.0001567709   0.0000170819
        0.0000531578   0.0000851749   0.0000467484  -0.0000041557  -0.0000733870
        0.0000027631   0.0000058881   0.0000354986   0.0000148838   0.0000075333
       -0.0000500955  -0.0000150397   0.0000007612   0.0000619621   0.0000350834
       -0.0000052754   0.0000099744  -0.0000322739   0.0000048893  -0.0000376469
        0.0000191067   0.0000018803   0.0000098602  -0.0000308222  -0.0000029165
       -0.0000035386   0.0000013211   0.0000004051   0.0000023265  -0.0000071827
        0.0000013984  -0.0000093044  -0.0000066805   0.0000000874   0.0000111310
       -0.0000013556  -0.0000002761  -0.0000024300   0.0000007214   0.0000000608
        0.0000010234  -0.0000054918   0.0000004956  -0.0000060383  -0.0000029437
        0.0000025883   0.0000247653  -0.0000077839  -0.0000002949  -0.0000269920
        0.0000086663   0.0000002962   0.0000120620   0.0000090885  -0.0000026041
       -0.0000014023  -0.0000041680  -0.0000008715   0.0000032813   0.0000010276
        0.0000002773  -0.0000002840   0.0000021092   0.0000000539   0.0000002586
       -0.0000018963  -0.0000000367  -0.0000016255   0.0000048070   0.0000004154
       -0.0000036322  -0.0000027712  -0.0000003933   0.0000013793   0.0000025452
        0.0000001835  -0.0000012710  -0.0000012496   0.0000001051   0.0000027809
       -0.0000030161  -0.0000000332   0.0000014224   0.0000048248   0.0000011477
        0.0000043371  -0.0000132160   0.0000023598  -0.0000039071   0.0000063212
       -0.0000022562   0.0000045284   0.0000049287  -0.0000012186  -0.0000010769
        0.0000080471   0.0000004630   0.0000032596   0.0000084928  -0.0000007892
       -0.0000045658   0.0000134219   0.0000012898   0.0000363380   0.0000055089
       -0.0000032794  -0.0000539507  -0.0000394097   0.0000030289   0.0002724935
       -0.0000029660  -0.0000126347  -0.0002106062  -0.0001272818  -0.0001208803
        0.1212281513   0.0427002715  -0.1712275595  -0.0270358160  -0.0085718262
       -0.0111688622   0.0037256875   0.0014256442  -0.0019709795  -0.0044340377
       -0.0009077033  -0.0092195733  -0.0001064984  -0.0000057208  -0.0000682016
       -0.0000356230   0.0000190445  -0.0000283948   0.0000000146  -0.0000076439
       -0.0000027850   0.0000209498   0.0000250671  -0.0001456468  -0.0000576040
        0.0000584306   0.0000755115  -0.0000258926   0.0000127467  -0.0000044079
        0.0000048366  -0.0000076251  -0.0000014346  -0.0000059489   0.0000044706
       -0.0000024076   0.0000007555  -0.0000028382  -0.0000002557  -0.0000003989
        0.0000025961   0.0000004378   0.0000005452  -0.0000000410   0.0000017901
       -0.0000002405   0.0000011496  -0.0000005557  -0.0000004410   0.0000015305
       -0.0000003056   0.0000003005   0.0000000757  -0.0000006715  -0.0000007286
       -0.0000000131  -0.0000006724  -0.0000004835   0.0000007395  -0.0000001133
       -0.0000006005   0.0000002711  -0.0000000130  -0.0000003592   0.0000010536
        0.0000005034   0.0000004780   0.0000003037   0.0000004305  -0.0000010639
       -0.0000005018  -0.0000000083  -0.0000012741  -0.0000003730   0.0000006687
        0.0000002322  -0.0000004622  -0.0000014739  -0.0000026599  -0.0000018529
       -0.0000007922   0.0000015862   0.0000008440  -0.0000006658  -0.0000020707
       -0.0000039191  -0.0000000898   0.0000000121   0.0000061874  -0.0000067054
        0.0000001277  -0.0000117262   0.0000174760  -0.0000163318   0.0000801586
       -0.0000067649
       -0.2709159912  -0.0717092212  -0.0164955400   0.5928209269   0.1544346133
       -0.0014494895  -0.2091013659  -0.0555558674   0.0801662797   0.0359207788
        0.0102819146   0.0598772018  -0.0462983571  -0.0138954503   0.0216793374
       -0.0047468829   0.0001380992  -0.0867556841  -0.0010582012  -0.0003914472
       -0.0095064211   0.0014506995   0.0005183490   0.0044298616   0.0020958814
        0.0007902598  -0.0033688822  -0.0033782366  -0.0010696889  -0.0004490381
        0.0008828876   0.0001157273   0.0024307434  -0.0028126143  -0.0011678538
       -0.0012169356   0.0047488269   0.0004198564  -0.0053358628  -0.0004969229
       -0.0004265045   0.0001015469   0.0002099966   0.0001492683  -0.0000041120
        0.0000489561   0.0001015604   0.0000265253   0.0000940381  -0.0000853193
       -0.0000986073  -0.0001527147  -0.0000662904   0.0000083177   0.0000604105
        0.0000440990   0.0000080407  -0.0000401846  -0.0000353538  -0.0000127983
        0.0000812546   0.0000248781   0.0000003958  -0.0000734264  -0.0000466150
        0.0000030642  -0.0000190597   0.0000467804  -0.0000024662   0.0000635498
       -0.0000297478  -0.0000013107  -0.0000192159   0.0000442128  -0.0000008556
        0.0000124807  -0.0000045748   0.0000001586  -0.0000021848   0.0000144829
       -0.0000019540   0.0000147114   0.0000102265   0.0000000388  -0.0000176818
        0.0000032431   0.0000006997   0.0000059931  -0.0000010849  -0.0000000663
        0.0000004997   0.0000088363  -0.0000005020   0.0000112483   0.0000051996
       -0.0000045738  -0.0000363315   0.0000131471  -0.0000000242   0.0000447135
       -0.0000151443   0.0000001577  -0.0000189251  -0.0000149997   0.0000038576
        0.0000035339   0.0000059664   0.0000013535  -0.0000048353  -0.0000017274
       -0.0000004561   0.0000012749  -0.0000027162   0.0000003163  -0.0000007429
        0.0000030784   0.0000001154   0.0000037186  -0.0000088567  -0.0000006460
        0.0000085318   0.0000036920   0.0000012305  -0.0000031547   0.0000001542
        0.0000005815   0.0000036398   0.0000024900   0.0000003901  -0.0000019547
        0.0000030919   0.0000008309  -0.0000018914  -0.0000049745  -0.0000010445
       -0.0000046960   0.0000251977  -0.0000028683   0.0000052662  -0.0000106706
        0.0000052297  -0.0000040574  -0.0000083894   0.0000019570   0.0000018014
       -0.0000125499  -0.0000005412  -0.0000045434  -0.0000143969   0.0000013648
        0.0000054232  -0.0000136105   0.0000000155  -0.0000463008   0.0000081618
        0.0000083728   0.0000539546  -0.0000025454  -0.0000094838  -0.0001260417
       -0.0000567442  -0.0000448685   0.0003264035   0.0000918838   0.0000004645
       -0.0217819533  -0.0070733431  -0.0035901604  -0.0567496605  -0.0051331765
       -0.0570709806  -0.0227117349  -0.0078325310   0.0176764922   0.0015943282
       -0.0023882865  -0.0013996596   0.0001030028   0.0000355083   0.0000968409
        0.0000446767  -0.0000162107   0.0000182322  -0.0000345892   0.0000013295
        0.0000119117  -0.0000947604  -0.0000560166   0.0001856882   0.0000415214
        0.0000028275  -0.0000349696   0.0000478573  -0.0000431272  -0.0000305861
       -0.0000094922  -0.0000113026  -0.0000109806   0.0000204382  -0.0000063621
        0.0000044507   0.0000001864   0.0000038009   0.0000002106   0.0000025371
       -0.0000043446  -0.0000004150  -0.0000000938   0.0000002627  -0.0000023033
        0.0000022974  -0.0000019612   0.0000018594   0.0000012519  -0.0000013624
        0.0000004577   0.0000010860   0.0000015056   0.0000009141   0.0000031876
        0.0000012313   0.0000009582   0.0000029663  -0.0000010652   0.0000004235
        0.0000034613  -0.0000003649   0.0000005170   0.0000019050  -0.0000025053
       -0.0000001245   0.0000000851  -0.0000007684  -0.0000001753   0.0000021023
        0.0000008541   0.0000003031   0.0000036757   0.0000012211  -0.0000016377
       -0.0000001532   0.0000015777   0.0000017428   0.0000056440   0.0000032552
        0.0000011056  -0.0000018654  -0.0000002169   0.0000005689   0.0000054776
        0.0000089810  -0.0000022381  -0.0000146211   0.0000051116   0.0000142215
        0.0000296804   0.0000501025   0.0000305325  -0.0001133305  -0.0002007493
        0.0001033832
       -0.0693409985  -0.0702702500  -0.0030625329   0.1544346133   0.1652615310
       -0.0169077113  -0.0579684081  -0.0622569442   0.0307220234   0.0117662001
        0.0024101432   0.0214476881  -0.0138257866  -0.0098662632   0.0070320053
       -0.0011540063   0.0013267931  -0.0285992626  -0.0003244013  -0.0002901096
       -0.0031472833   0.0005266343   0.0000235830   0.0014706191   0.0006938402
        0.0002923387  -0.0011240152  -0.0010999759  -0.0004953645  -0.0001633246
        0.0003645254  -0.0000529557   0.0008608622  -0.0013462987   0.0003356379
       -0.0004009184   0.0008462762   0.0054948680  -0.0015699284  -0.0010125542
        0.0002847903  -0.0002241865   0.0001515493  -0.0000249460  -0.0001589763
       -0.0002002413  -0.0001240343   0.0000216171   0.0000246224   0.0001352456
        0.0000750920  -0.0001026646  -0.0000142087  -0.0000139177   0.0000339005
        0.0000077947   0.0000019947  -0.0000238086  -0.0000123994  -0.0000041612
        0.0000423944   0.0000123074   0.0000005995  -0.0000409247  -0.0000276697
       -0.0000002127  -0.0000155610   0.0000257933   0.0000014495   0.0000380175
       -0.0000137029   0.0000015706  -0.0000094683   0.0000202113  -0.0000011958
        0.0000053237  -0.0000013537   0.0000002817  -0.0000024583   0.0000067047
       -0.0000008210   0.0000070844   0.0000045367  -0.0000000016  -0.0000081013
        0.0000013649   0.0000003151   0.0000029501  -0.0000002848  -0.0000002487
       -0.0000004544   0.0000042688   0.0000000587   0.0000057229   0.0000025988
       -0.0000024387  -0.0000169392   0.0000060522  -0.0000001727   0.0000210892
       -0.0000058291  -0.0000001820  -0.0000091014  -0.0000082848   0.0000016169
        0.0000009785   0.0000021566   0.0000005035  -0.0000023216  -0.0000000096
       -0.0000000962   0.0000013252  -0.0000014470   0.0000001038  -0.0000024511
       -0.0000001770  -0.0000002977   0.0000024765  -0.0000032647  -0.0000002822
        0.0000045897   0.0000032255   0.0000006556  -0.0000009389  -0.0000006935
        0.0000001750   0.0000021663   0.0000009502  -0.0000000944  -0.0000024762
        0.0000029724   0.0000001713  -0.0000002585  -0.0000032251  -0.0000006376
       -0.0000031563   0.0000108827  -0.0000013356   0.0000024351  -0.0000053729
        0.0000028574  -0.0000020470  -0.0000041511   0.0000012287   0.0000005664
       -0.0000058741  -0.0000001534  -0.0000024662  -0.0000078142   0.0000008559
        0.0000019151  -0.0000048889  -0.0000023766  -0.0000257806   0.0000029729
        0.0000079544   0.0000453665   0.0000055654  -0.0000024539   0.0001078393
       -0.0000833853   0.0000209043   0.0000438292  -0.0001172084   0.0002475517
       -0.0076214962  -0.0024090876  -0.0012733123  -0.0056815436  -0.0347583932
       -0.0105358529  -0.0070392009  -0.0023497988   0.0053609273  -0.0022728580
        0.0075103500  -0.0002499854   0.0000323672   0.0000074476   0.0000322491
        0.0000021757   0.0000365254   0.0000074329  -0.0000152345   0.0000176759
        0.0000103626  -0.0000382541  -0.0000049438   0.0000696066   0.0000086805
        0.0000148581  -0.0000029589  -0.0000010759  -0.0000232708   0.0000065184
       -0.0000063986  -0.0000013982  -0.0000039688   0.0000067694  -0.0000029222
        0.0000016870   0.0000003587   0.0000020654   0.0000001249   0.0000008486
       -0.0000017092  -0.0000001927  -0.0000000712   0.0000001018  -0.0000013454
        0.0000008067  -0.0000009424   0.0000008352   0.0000003431  -0.0000003802
        0.0000001580   0.0000005163   0.0000009416   0.0000003195   0.0000014069
        0.0000008123   0.0000003570   0.0000015272  -0.0000004105   0.0000001469
        0.0000014275  -0.0000001397   0.0000002053   0.0000008507  -0.0000010375
        0.0000000546  -0.0000000253  -0.0000004885   0.0000000303   0.0000010395
        0.0000003095   0.0000001349   0.0000017219   0.0000005920  -0.0000010254
       -0.0000002518   0.0000007369   0.0000006532   0.0000029263   0.0000016672
        0.0000003693  -0.0000008119   0.0000000534   0.0000000684   0.0000037502
        0.0000058547  -0.0000020325  -0.0000067224   0.0000047031   0.0000040372
        0.0000258906   0.0000166204   0.0000279051  -0.0000436450  -0.0000495698
        0.0000149541
       -0.0917710023  -0.0280373188  -0.1096744009  -0.0014494895  -0.0169077113
        0.6699344843   0.1520611473   0.0539914635  -0.2055114994   0.0098751548
        0.0047982007  -0.0599828948   0.0106346331   0.0034220832   0.0007435608
       -0.0306692248  -0.0099452852  -0.0085465146   0.0008629460   0.0003735068
       -0.0007847761  -0.0000094500  -0.0000161011  -0.0002836654   0.0000963638
        0.0000173496   0.0004846171   0.0004788264   0.0001468226   0.0000404722
       -0.0005903321  -0.0001604220  -0.0005745075  -0.0006643722  -0.0001287788
       -0.0026563024  -0.0047742260  -0.0013676058  -0.0006630699   0.0006024332
        0.0001763073   0.0000167613  -0.0001939685  -0.0001295327   0.0000559956
        0.0000625352  -0.0000030373   0.0000197553  -0.0000837574   0.0000470405
        0.0000294823   0.0001372193   0.0000668588   0.0000045797  -0.0000854897
       -0.0000192842  -0.0000071147   0.0000422375   0.0000142445   0.0000064856
       -0.0000691058  -0.0000198299  -0.0000006908   0.0000837138   0.0000450954
        0.0000050576   0.0000196797  -0.0000423857  -0.0000028800  -0.0000621255
        0.0000294122  -0.0000034083   0.0000120882  -0.0000456167   0.0000057727
       -0.0000070228   0.0000019598  -0.0000003648   0.0000034031  -0.0000102541
        0.0000002861  -0.0000135445  -0.0000082917  -0.0000010260   0.0000134944
       -0.0000020918  -0.0000000834  -0.0000034126   0.0000008453   0.0000000557
        0.0000003200  -0.0000083585   0.0000008874  -0.0000087076  -0.0000035970
        0.0000027750   0.0000294513  -0.0000098869   0.0000008877  -0.0000331000
        0.0000103165  -0.0000006933   0.0000144575   0.0000108760  -0.0000023222
       -0.0000018961  -0.0000049997  -0.0000008444   0.0000036661   0.0000008211
        0.0000008677  -0.0000008151   0.0000023120   0.0000004599   0.0000004707
       -0.0000021821   0.0000002941  -0.0000024601   0.0000055768   0.0000007122
       -0.0000051011  -0.0000031319  -0.0000006568   0.0000018096   0.0000023246
       -0.0000002671  -0.0000021821  -0.0000015735  -0.0000005550   0.0000027082
       -0.0000028088  -0.0000009782   0.0000020386   0.0000055487   0.0000004259
        0.0000046949  -0.0000163536   0.0000031750  -0.0000041992   0.0000075658
       -0.0000030655   0.0000048377   0.0000061175  -0.0000012040  -0.0000016696
        0.0000105593   0.0000001855   0.0000036538   0.0000119529  -0.0000015139
       -0.0000054432   0.0000168983  -0.0000037943   0.0000355651   0.0000063629
       -0.0000088537  -0.0000698786  -0.0000311478   0.0000104646   0.0001548285
        0.0000746504   0.0000468898  -0.0002000728  -0.0002931294  -0.0000627569
        0.0194069666   0.0062821915   0.0040814769  -0.0573337551  -0.0107029770
       -0.2867748401  -0.0046016058  -0.0015677765   0.0053695959  -0.0018950301
       -0.0003961824  -0.0053920932   0.0000867963   0.0000303113   0.0000479808
       -0.0000255195   0.0000215110   0.0000307528  -0.0000234364  -0.0000169770
       -0.0000392726   0.0000004078  -0.0000130115  -0.0000032579  -0.0000476280
        0.0000697071   0.0000519084  -0.0000415127   0.0000244153   0.0000227182
        0.0000138011  -0.0000023960   0.0000051122  -0.0000154932   0.0000091476
       -0.0000014047   0.0000011312  -0.0000042691   0.0000005216  -0.0000007036
        0.0000032098   0.0000007450   0.0000009493   0.0000000400   0.0000020156
       -0.0000010012   0.0000013737  -0.0000009287  -0.0000004961   0.0000014481
        0.0000005311   0.0000001052  -0.0000003660   0.0000004001  -0.0000009922
       -0.0000004935   0.0000003177  -0.0000008420   0.0000005252   0.0000004428
       -0.0000010044   0.0000000961   0.0000000162  -0.0000004715   0.0000011079
        0.0000000896   0.0000004008   0.0000000398  -0.0000000801  -0.0000015022
       -0.0000006843  -0.0000001232  -0.0000012313  -0.0000000135   0.0000009980
        0.0000005769   0.0000001606  -0.0000017875  -0.0000036041  -0.0000023169
       -0.0000001236   0.0000024159   0.0000012650   0.0000002976  -0.0000061248
       -0.0000094428   0.0000029765   0.0000108926   0.0000094194  -0.0000087103
       -0.0000161143  -0.0000270117   0.0000003092   0.0000312961   0.0002055920
       -0.0000312713
       -0.0537194046  -0.0177885761   0.0000988770  -0.2091013659  -0.0579684081
        0.1520611473   0.6275306474   0.1630902131   0.0102665907  -0.1045610771
       -0.0158948852  -0.1002136277  -0.0021040243  -0.0001108019  -0.0288991730
       -0.0006899158   0.0002037263   0.0180339314  -0.0038857271  -0.0030343232
       -0.0017024741  -0.0002774903  -0.0002308935  -0.0020385253  -0.0007006560
       -0.0000984381   0.0004867534   0.0007639555   0.0002577260   0.0005600178
        0.0004962359  -0.0001494510  -0.0000773628  -0.0023351004  -0.0013809091
        0.0034418109   0.0059543592   0.0019915256   0.0197528836   0.0015157842
        0.0006592234   0.0007586585   0.0000078970  -0.0001255033   0.0000851151
       -0.0000409068  -0.0000942994  -0.0001651550  -0.0002058027   0.0000879888
        0.0001588567   0.0001238604   0.0000408733  -0.0000356174  -0.0000520003
       -0.0000266727  -0.0000157925   0.0000283167   0.0000211518   0.0000112197
       -0.0000375767  -0.0000141246   0.0000006301   0.0000313862   0.0000136865
        0.0000092161   0.0000143085  -0.0000128259  -0.0000101748  -0.0000154802
        0.0000119433  -0.0000041971  -0.0000036693  -0.0000160307   0.0000098747
        0.0000000819  -0.0000004463  -0.0000008624  -0.0000001016  -0.0000022591
       -0.0000011753  -0.0000015512  -0.0000005702  -0.0000005876   0.0000001452
        0.0000002614   0.0000004641   0.0000000246   0.0000001699  -0.0000000067
       -0.0000003419  -0.0000024183   0.0000012221  -0.0000012385  -0.0000000716
       -0.0000000120   0.0000026877  -0.0000009360   0.0000005640  -0.0000016163
       -0.0000002571  -0.0000008485   0.0000003640   0.0000000724  -0.0000000558
       -0.0000000779  -0.0000006941  -0.0000005334   0.0000000835  -0.0000002960
       -0.0000002781  -0.0000003694   0.0000005920  -0.0000002854   0.0000001771
       -0.0000001253  -0.0000002819  -0.0000010933  -0.0000007925  -0.0000002267
       -0.0000005830  -0.0000004790  -0.0000002621  -0.0000003962   0.0000013252
       -0.0000001266  -0.0000003048  -0.0000002184  -0.0000001609   0.0000004262
       -0.0000011437  -0.0000004044  -0.0000002079   0.0000014930  -0.0000002167
        0.0000008512   0.0000007710   0.0000007229  -0.0000003543   0.0000002768
       -0.0000003864   0.0000012620   0.0000003621  -0.0000004957   0.0000007578
        0.0000008704  -0.0000004043   0.0000002544   0.0000026619  -0.0000006922
        0.0000004439   0.0000118801  -0.0000041014   0.0000249094  -0.0000038108
       -0.0000053729  -0.0000388688  -0.0000047275  -0.0000184010   0.0004834762
       -0.0000363855   0.0000400697  -0.0011313862  -0.0000170669   0.0005210566
       -0.0042300236  -0.0033985541  -0.0015360660   0.0037130956   0.0009014639
       -0.0030413545  -0.2583453603  -0.0666152710  -0.0690597097   0.0005160405
        0.0002568064   0.0004541859   0.0001456394   0.0000244717  -0.0000000236
        0.0000068977   0.0000457601  -0.0000482371   0.0000363658   0.0000727068
        0.0000737292   0.0000302502  -0.0000129799  -0.0000277988   0.0000592448
       -0.0001310354  -0.0000664066  -0.0000104743   0.0000017555  -0.0000162347
        0.0000002314   0.0000170391   0.0000173984  -0.0000052058   0.0000022874
        0.0000011592  -0.0000006452  -0.0000005565   0.0000017017  -0.0000000190
       -0.0000003860   0.0000007744   0.0000001951   0.0000005750   0.0000001722
       -0.0000001981  -0.0000000164   0.0000002595  -0.0000001244   0.0000000975
        0.0000001056   0.0000000643   0.0000000949  -0.0000000685   0.0000003723
       -0.0000001069  -0.0000001187   0.0000002782  -0.0000003394  -0.0000001056
        0.0000003684  -0.0000003518  -0.0000000369   0.0000000763  -0.0000006047
       -0.0000000307  -0.0000002165  -0.0000004090   0.0000001163  -0.0000006373
       -0.0000001794   0.0000002618   0.0000005272   0.0000003031  -0.0000004037
       -0.0000002764   0.0000005816  -0.0000004270   0.0000004071   0.0000002896
        0.0000004480  -0.0000000150   0.0000004768   0.0000007395  -0.0000007379
       -0.0000011517   0.0000069680   0.0000076546  -0.0000133686   0.0000065969
       -0.0000394629  -0.0001014659  -0.0000076348   0.0000416807  -0.0004278859
        0.0001386361
       -0.0193055166  -0.0051183013  -0.0015025416  -0.0555558674  -0.0622569442
        0.0539914635   0.1630902131   0.1604703584  -0.0158103803  -0.0171515415
       -0.0488879237  -0.0219888435   0.0007941728   0.0001896872  -0.0095802464