$hessian                                                                        
        0.5673465306   0.0698699113  -0.1754781826  -0.2480417862  -0.1276780357
        0.0319356796  -0.0542470889   0.0294722305   0.0394126344  -0.0159368987
       -0.0304216847  -0.0098177798   0.0320001765   0.0119476241  -0.0080871540
       -0.0941158394  -0.0144893826   0.0147980218  -0.0020992157   0.0073027273
        0.0077286414  -0.0011269852  -0.0030043509  -0.0009593758  -0.0013304288
        0.0017304788   0.0011778779   0.0017983094   0.0003365591  -0.0006555190
       -0.0005971567  -0.0008767528  -0.0002323162   0.0017864433   0.0010093278
       -0.0002521567  -0.0031483218   0.0015077711   0.0021586622   0.0003843970
       -0.0000028146  -0.0002517770  -0.0002476822  -0.0000512357  -0.0000642401
        0.0001236138   0.0000684968  -0.0000404356  -0.0000288736   0.0000016480
        0.0000910825   0.0001328847   0.0000103531  -0.0000245318  -0.0000349702
       -0.0000099689   0.0000209215   0.0000216784   0.0000104029  -0.0000254442
       -0.0000578190  -0.0000113931   0.0000158505   0.0000426462   0.0000127306
       -0.0000266105   0.0000082529  -0.0000120520   0.0000236567  -0.0000359120
        0.0000056542  -0.0000082399   0.0000046368  -0.0000105955   0.0000157393
       -0.0000057814   0.0000005319  -0.0000006631  -0.0000007443  -0.0000023577
        0.0000042629  -0.0000070050  -0.0000030672   0.0000045122   0.0000059904
       -0.0000011792   0.0000010194  -0.0000008348  -0.0000000040   0.0000004727
       -0.0000020759  -0.0000013051   0.0000027580  -0.0000056558   0.0000039830
        0.0000039821   0.0000141731  -0.0000038502   0.0000051457  -0.0000182767
        0.0000052407  -0.0000052525   0.0000046193   0.0000058058   0.0000088068
       -0.0000014909  -0.0000025994  -0.0000002358   0.0000017613   0.0000001688
        0.0000025071  -0.0000032958   0.0000011264   0.0000009159  -0.0000011096
       -0.0000006099   0.0000003614  -0.0000031165   0.0000029649   0.0000010097
       -0.0000039360  -0.0000015618  -0.0000018532  -0.0000004396   0.0000002641
        0.0000004800  -0.0000020161   0.0000004564  -0.0000008330   0.0000021688
       -0.0000017321   0.0000000481  -0.0000008023   0.0000032913   0.0000008680
        0.0000065397  -0.0000095733  -0.0000042663  -0.0000038419  -0.0000017028
       -0.0000058036   0.0000005197   0.0000012438  -0.0000030636  -0.0000013237
        0.0000034586  -0.0000045382  -0.0000001491   0.0000034127  -0.0000063301
        0.0000049487   0.0000033736  -0.0000060627   0.0000314353  -0.0000013280
        0.0000108324  -0.0000425069  -0.0000030223   0.0000006351  -0.0000431406
        0.0000185864  -0.0000678517  -0.0000884400   0.0000170157  -0.0000421604
       -0.1701894302   0.0808579005   0.1020714067  -0.0050513092  -0.0040147052
        0.0003401372  -0.0009083298   0.0011707293   0.0047055813  -0.0063449840
       -0.0248153801  -0.0088364340   0.0000088698   0.0001043343   0.0001319604
       -0.0000088870  -0.0000175889  -0.0000125989   0.0000573396  -0.0000166989
       -0.0000013511   0.0000708739  -0.0000317892  -0.0000167236  -0.0000081373
       -0.0000252034   0.0002196511  -0.0000088832   0.0000234736  -0.0000051210
        0.0000100705  -0.0000111575  -0.0000036455  -0.0000139524  -0.0000002772
        0.0000000596   0.0000007637  -0.0000014979   0.0000010977  -0.0000018167
        0.0000016365  -0.0000024378  -0.0000002898  -0.0000004206   0.0000009790
       -0.0000017159  -0.0000002607  -0.0000014013  -0.0000015396   0.0000004502
        0.0000010245  -0.0000016206  -0.0000006155   0.0000012761  -0.0000018907
       -0.0000003874   0.0000011902  -0.0000017660   0.0000002083   0.0000006148
       -0.0000014733   0.0000004616   0.0000001526  -0.0000009294   0.0000012344
       -0.0000002472  -0.0000000770   0.0000013438  -0.0000001698  -0.0000005431
       -0.0000001652  -0.0000006297  -0.0000020326   0.0000009416   0.0000014081
        0.0000005379   0.0000000096  -0.0000000309  -0.0000031984  -0.0000007416
        0.0000010664   0.0000009379   0.0000003409  -0.0000001604  -0.0000072344
       -0.0000039350   0.0000025659   0.0000044292   0.0000079189  -0.0000047296
       -0.0000138034  -0.0000138928   0.0000348620  -0.0000167433   0.0000290537
        0.0000159394
        0.0698699113   0.5721902985   0.1911108414  -0.0611455021  -0.1343820751
       -0.0121328375  -0.0177863556   0.0456180897   0.0289981397  -0.0235394033
       -0.0374032237  -0.0043106301   0.0571587893  -0.0396389912  -0.0460771158
       -0.0786267856  -0.2919369305  -0.0861067830   0.0004994247   0.0137246378
        0.0034897084  -0.0018379869  -0.0054569789  -0.0019519448  -0.0026891868
        0.0027641594   0.0027644286   0.0033905517   0.0012005782  -0.0009372242
       -0.0003435380  -0.0025394616  -0.0007363064   0.0046823600   0.0026585562
       -0.0008878447  -0.0030678226  -0.0021730208   0.0001648558   0.0005207611
        0.0000359639  -0.0001854741  -0.0002985758  -0.0001045554  -0.0000477221
        0.0002404987   0.0001093870  -0.0001441179  -0.0001041625  -0.0000143482
        0.0001426006   0.0001193965   0.0000099865  -0.0000156466  -0.0000733957
       -0.0000037055   0.0000073079   0.0000397627   0.0000058644  -0.0000189292
       -0.0000585709  -0.0000101282   0.0000164722   0.0000686268   0.0000172379
       -0.0000359129   0.0000084836  -0.0000141690   0.0000332224  -0.0000411253
        0.0000114864  -0.0000156139   0.0000085658  -0.0000190167   0.0000273387
       -0.0000055471   0.0000018875  -0.0000015906   0.0000013318  -0.0000037214
        0.0000089380  -0.0000090035  -0.0000035652   0.0000060185   0.0000114841
       -0.0000017953   0.0000015017  -0.0000020968   0.0000004758  -0.0000001013
       -0.0000002231  -0.0000020634   0.0000039690  -0.0000055705   0.0000056721
        0.0000035889   0.0000237530  -0.0000060860   0.0000073458  -0.0000270625
        0.0000084310  -0.0000077182   0.0000066851   0.0000070855   0.0000108101
       -0.0000003231  -0.0000041647  -0.0000020114   0.0000029631   0.0000008380
        0.0000012459  -0.0000011153   0.0000015971   0.0000001473   0.0000006531
       -0.0000018244  -0.0000010864  -0.0000026960   0.0000044873   0.0000007775
       -0.0000039732  -0.0000025826  -0.0000028527   0.0000009784   0.0000001803
        0.0000009976  -0.0000014617  -0.0000007187  -0.0000008917   0.0000020003
       -0.0000025652   0.0000002665   0.0000005034   0.0000035739   0.0000019227
        0.0000086993  -0.0000130645  -0.0000066381  -0.0000050079  -0.0000031224
       -0.0000063862   0.0000025426   0.0000012504  -0.0000041642  -0.0000011150
        0.0000045716  -0.0000060510   0.0000036166   0.0000045851  -0.0000089129
       -0.0000042576   0.0000080195  -0.0000130151   0.0000374656   0.0000102087
        0.0000032550  -0.0000598332  -0.0000174912   0.0000387452   0.0000510090
        0.0000314834   0.0000099078  -0.0001162012   0.0001051967  -0.0000108455
        0.0808399719  -0.0953174315  -0.0673159132  -0.0244432798  -0.0159471870
        0.0030793121   0.0015578509   0.0011685034  -0.0042533733  -0.0047163949
       -0.0145053351  -0.0047911726  -0.0001197637  -0.0000045339  -0.0000505613
       -0.0000132925  -0.0000491189   0.0000352611  -0.0000077091   0.0000196602
       -0.0000469469   0.0000456061  -0.0001335574  -0.0000845358   0.0000300517
       -0.0000385207   0.0001269998  -0.0000228263   0.0000164629   0.0000046987
        0.0000069260  -0.0000057389  -0.0000003816  -0.0000098131   0.0000040424
       -0.0000029637   0.0000007019  -0.0000021023   0.0000024447  -0.0000013355
        0.0000019356  -0.0000023231   0.0000000966   0.0000006183   0.0000016549
       -0.0000006484   0.0000004199  -0.0000014754  -0.0000008133   0.0000010141
       -0.0000000751   0.0000001742  -0.0000002308  -0.0000001321  -0.0000008676
       -0.0000005666  -0.0000007597  -0.0000011725   0.0000004052  -0.0000004936
       -0.0000012441  -0.0000000622  -0.0000004482  -0.0000010594   0.0000007930
        0.0000001437  -0.0000001476   0.0000004383   0.0000004345  -0.0000011330
       -0.0000008543  -0.0000007823  -0.0000018902  -0.0000000281   0.0000009170
        0.0000003576  -0.0000008901  -0.0000007782  -0.0000034918  -0.0000015673
        0.0000011955   0.0000013218  -0.0000000508  -0.0000006479  -0.0000035747
       -0.0000053486   0.0000025222   0.0000004262   0.0000041292  -0.0000080071
       -0.0000071284  -0.0000106631   0.0000251613  -0.0000288183   0.0000189449
        0.0001030411
       -0.1754781826   0.1911108414   0.2864514102   0.0632209948   0.0177789670
       -0.0684140864   0.0169862413   0.0078596240  -0.0031017652  -0.0070010785
       -0.0012686207  -0.0033511517   0.0140636271  -0.0253480889  -0.0173725326
       -0.0161601439  -0.1146270802  -0.0933432337   0.0041141457  -0.0001473357
        0.0048870432  -0.0003301083  -0.0013420156  -0.0004132630  -0.0009322947
        0.0007869764   0.0002517572   0.0008096178   0.0004023868  -0.0001224100
       -0.0000907446  -0.0006244619  -0.0006586372   0.0015738837   0.0008471708
       -0.0001750463  -0.0001437991  -0.0017554878  -0.0010244722   0.0001039806
        0.0001151612  -0.0001923904  -0.0000038890  -0.0001180098   0.0000320154
        0.0000495638  -0.0000030272  -0.0000522138  -0.0000490044  -0.0000031914
        0.0000068023   0.0000015066   0.0000052336   0.0000019118  -0.0000196330
        0.0000043613  -0.0000100592   0.0000089566  -0.0000013002   0.0000003596
       -0.0000031957  -0.0000009984   0.0000028739   0.0000131863   0.0000029339
       -0.0000047091   0.0000046178  -0.0000021996   0.0000039953  -0.0000073490
        0.0000020422  -0.0000048436   0.0000029371  -0.0000038924   0.0000061735
        0.0000017941  -0.0000004401   0.0000012804   0.0000017123   0.0000008136
       -0.0000005175  -0.0000030755  -0.0000002222   0.0000009748   0.0000021215
       -0.0000003742   0.0000003990   0.0000011396  -0.0000001250   0.0000002957
        0.0000010478  -0.0000004288   0.0000006999  -0.0000007954   0.0000009683
        0.0000004223   0.0000043777  -0.0000008622   0.0000008495  -0.0000064079
        0.0000006823  -0.0000023629   0.0000029745   0.0000018735   0.0000025750
       -0.0000000106   0.0000005026  -0.0000003414   0.0000027430  -0.0000001335
        0.0000003075  -0.0000009186   0.0000001522  -0.0000010944  -0.0000000266
        0.0000003064  -0.0000004369   0.0000004388   0.0000009992   0.0000002587
       -0.0000001368  -0.0000010781  -0.0000007303  -0.0000003138  -0.0000011966
       -0.0000004384  -0.0000010608   0.0000004916   0.0000001389   0.0000019962
       -0.0000004215   0.0000012940  -0.0000002622  -0.0000000432   0.0000002762
        0.0000027763  -0.0000030027  -0.0000012889  -0.0000011144  -0.0000007214
       -0.0000011750   0.0000014192  -0.0000003755  -0.0000008546   0.0000001451
        0.0000013343  -0.0000023920  -0.0000000099   0.0000002369  -0.0000008081
       -0.0000039840   0.0000027444  -0.0000019363   0.0000056244   0.0000055746
       -0.0000042122  -0.0000129146  -0.0000055884   0.0000157371   0.0000809622
        0.0000020194   0.0000349425  -0.0000279687   0.0000498162   0.0000313800
        0.1020560765  -0.0673559448  -0.1120082138  -0.0088296978  -0.0060135704
        0.0019923337   0.0051078549  -0.0037889571   0.0041998862   0.0008003391
        0.0036560684   0.0022057842   0.0000257513  -0.0001362628   0.0000971936
       -0.0000230404   0.0000046318  -0.0000259208   0.0000052460  -0.0000210659
        0.0000579394   0.0000185306  -0.0000671679   0.0000257435   0.0000553305
        0.0000041528  -0.0000774813  -0.0000077090  -0.0000062569   0.0000062058
       -0.0000012474   0.0000013632   0.0000029979   0.0000029048   0.0000018495
       -0.0000009172  -0.0000003252  -0.0000006245   0.0000011302   0.0000008928
       -0.0000000429   0.0000002345   0.0000002826   0.0000005751   0.0000002465
        0.0000006480   0.0000003628  -0.0000002330   0.0000002882   0.0000000387
       -0.0000007042   0.0000005879   0.0000003245  -0.0000007526   0.0000007391
        0.0000001583  -0.0000006870   0.0000005191  -0.0000002270  -0.0000005830
        0.0000004006  -0.0000000732  -0.0000000574   0.0000000938  -0.0000004374
        0.0000001375  -0.0000002897  -0.0000004942   0.0000000672  -0.0000001728
       -0.0000001237  -0.0000000702  -0.0000001714  -0.0000003034   0.0000001933
        0.0000000244  -0.0000002938   0.0000000322  -0.0000002237  -0.0000006446
        0.0000005055   0.0000004422  -0.0000000759  -0.0000003157   0.0000009241
       -0.0000009299   0.0000006353  -0.0000003308  -0.0000024172   0.0000004317
        0.0000057187  -0.0000012930  -0.0000027555  -0.0000064961   0.0000041907
        0.0000502230
       -0.2480417862  -0.0611455021   0.0632209948   0.5656798723   0.0727983589
       -0.1733947507  -0.2178067285   0.0373498182   0.0988520594   0.0276558468
        0.0645522804   0.0175730546  -0.0463455846   0.0080508272   0.0227663249
        0.0047033017  -0.0747413944  -0.0375231105  -0.0005363274  -0.0082584504
       -0.0041406888   0.0010678440   0.0041458213   0.0015446031   0.0022677220
       -0.0024404080  -0.0021423601  -0.0032113579  -0.0011885106   0.0008363819
        0.0005935168   0.0024186794   0.0006641497  -0.0025704368  -0.0017372859
        0.0007248754   0.0062337881  -0.0040572626  -0.0022184342  -0.0008976131
       -0.0003596700   0.0004127641   0.0002256352   0.0002310277  -0.0000442576
       -0.0000615810   0.0000137008  -0.0000503188   0.0000861557   0.0000013309
       -0.0000506918  -0.0001925319  -0.0000306433   0.0000482663   0.0000707497
        0.0000128379  -0.0000420158  -0.0000422151  -0.0000124557   0.0000394420
        0.0000927074   0.0000184693  -0.0000276034  -0.0000887076  -0.0000256672
        0.0000492819  -0.0000221520   0.0000221786  -0.0000462980   0.0000730715
       -0.0000198280   0.0000295963  -0.0000206926   0.0000265596  -0.0000441873
        0.0000128255  -0.0000036752   0.0000039080  -0.0000018740   0.0000063408
       -0.0000139362   0.0000167596   0.0000056025  -0.0000092170  -0.0000177131
        0.0000024445  -0.0000026204   0.0000045965  -0.0000015919   0.0000006024
        0.0000011926   0.0000034127  -0.0000093864   0.0000085705  -0.0000090285
       -0.0000053471  -0.0000397089   0.0000096875  -0.0000136386   0.0000480914
       -0.0000130734   0.0000141621  -0.0000102316  -0.0000123795  -0.0000192233
        0.0000015190   0.0000076369   0.0000022177  -0.0000028009  -0.0000018923
       -0.0000036534   0.0000017548  -0.0000029675  -0.0000027359  -0.0000020408
        0.0000032931  -0.0000000052   0.0000063703  -0.0000076615  -0.0000017073
        0.0000080009   0.0000043162   0.0000051552  -0.0000026435  -0.0000018345
       -0.0000026468   0.0000017944   0.0000029204   0.0000029938  -0.0000022573
        0.0000038925   0.0000012835  -0.0000001455  -0.0000074175  -0.0000027216
       -0.0000134159   0.0000197417   0.0000112838   0.0000061757   0.0000051217
        0.0000097705  -0.0000040586  -0.0000024736   0.0000093486   0.0000011410
       -0.0000092097   0.0000117162  -0.0000052204  -0.0000082612   0.0000146169
        0.0000066055  -0.0000102384   0.0000162201  -0.0000575777  -0.0000093740
       -0.0000064640   0.0000738999   0.0000126640  -0.0000018396  -0.0000775873
       -0.0000117393   0.0000977650   0.0002974600  -0.0000196778  -0.0001122084
       -0.0216851759  -0.0090632230   0.0056044835  -0.0471985289  -0.0343497220
       -0.0090887723  -0.0220933131   0.0092557297   0.0146182231   0.0019558513
       -0.0018389531   0.0017569170   0.0000764966   0.0001193638  -0.0000050630
        0.0000318437   0.0000259497   0.0000162930  -0.0000196267   0.0000081103
        0.0000303661  -0.0001224271   0.0001366261   0.0000844175  -0.0001991670
        0.0001261589  -0.0000422660   0.0000314592   0.0000121509   0.0000508119
       -0.0000087441   0.0000108609   0.0000194025   0.0000208427  -0.0000035683
        0.0000076630  -0.0000005739   0.0000020666  -0.0000029187   0.0000027430
       -0.0000038663   0.0000046727   0.0000005176  -0.0000001654  -0.0000019854
        0.0000028478  -0.0000003765   0.0000025330   0.0000021235  -0.0000015488
       -0.0000015044   0.0000011877   0.0000019050  -0.0000012881   0.0000035081
        0.0000020181  -0.0000001083   0.0000035641  -0.0000009187  -0.0000002538
        0.0000033344  -0.0000001934   0.0000010034   0.0000024581  -0.0000032770
        0.0000007584  -0.0000001291  -0.0000022789   0.0000003960   0.0000014922
        0.0000004284   0.0000018389   0.0000038798  -0.0000015502  -0.0000016658
       -0.0000007380  -0.0000004030   0.0000003040   0.0000060214   0.0000014651
       -0.0000028470  -0.0000025102  -0.0000014759   0.0000004252   0.0000057876
        0.0000072367  -0.0000074899  -0.0000136219  -0.0000120569  -0.0000014058
        0.0000168007   0.0000265619  -0.0000652226  -0.0000001821  -0.0000324454
       -0.0000084879
       -0.1276780357  -0.1343820751   0.0177789670   0.0727983589   0.5799596281
        0.1857754973   0.1005884136  -0.1296051564  -0.0870778412   0.0203890814
       -0.0296284810  -0.0230545581  -0.0015523381   0.0039740859   0.0052127266
       -0.0253592701  -0.0324228161  -0.0045854964   0.0007517548  -0.0025789646
       -0.0015267958   0.0003103885   0.0007871199   0.0003034873   0.0006212391
       -0.0001886822  -0.0003803944  -0.0003818203  -0.0001874452   0.0001498246
       -0.0003047650  -0.0000610672   0.0001399487  -0.0011198031  -0.0025212375
       -0.0010796415  -0.0038108589  -0.0017862209  -0.0013542895   0.0004512443
        0.0003980444  -0.0004020044  -0.0001643241  -0.0000797999  -0.0001401516
        0.0001056707   0.0000079167   0.0000214187  -0.0000613657  -0.0000364834
       -0.0000088490   0.0000918260   0.0000262324  -0.0000143154  -0.0000695995
        0.0000009307   0.0000085942   0.0000266511  -0.0000031020  -0.0000077822
       -0.0000424524  -0.0000078991   0.0000137345   0.0000614985   0.0000194651
       -0.0000241704   0.0000101000  -0.0000140038   0.0000232397  -0.0000387362
        0.0000090442  -0.0000171405   0.0000059409  -0.0000132835   0.0000289881
       -0.0000043514   0.0000014449  -0.0000007414   0.0000021339  -0.0000032855
        0.0000067143  -0.0000078925  -0.0000025538   0.0000037804   0.0000085841
       -0.0000008837   0.0000017703  -0.0000012755   0.0000007864   0.0000000299
       -0.0000001322  -0.0000017334   0.0000036775  -0.0000041360   0.0000041680
        0.0000018107   0.0000169967  -0.0000035625   0.0000052319  -0.0000187674
        0.0000035496  -0.0000064536   0.0000063594   0.0000056036   0.0000081949
       -0.0000000941  -0.0000026434  -0.0000015752   0.0000018856   0.0000006634
        0.0000005531  -0.0000001602   0.0000008212  -0.0000001291   0.0000015295
       -0.0000009815  -0.0000006592  -0.0000023636   0.0000028682  -0.0000002249
       -0.0000014748  -0.0000019847  -0.0000020427   0.0000004534   0.0000006121
        0.0000001568  -0.0000011289  -0.0000002592  -0.0000012483   0.0000016642
       -0.0000008964  -0.0000000081   0.0000012471   0.0000024722   0.0000012867
        0.0000049635  -0.0000071743  -0.0000047574  -0.0000030735  -0.0000022952
       -0.0000042322   0.0000018713   0.0000012884  -0.0000025409  -0.0000005714
        0.0000036285  -0.0000046940   0.0000028305   0.0000039483  -0.0000073413
       -0.0000058642   0.0000056111  -0.0000130666   0.0000232099   0.0000116545
       -0.0000082636  -0.0000519023  -0.0000195736   0.0000316630   0.0001540283
        0.0000403019   0.0000080537  -0.0001419525   0.0000599260   0.0000789989
        0.0111678666   0.0053477293  -0.0025847109  -0.0343519581  -0.2594590403
       -0.0902202930  -0.0102228936   0.0057217335   0.0074732447  -0.0022955987
       -0.0034566797  -0.0047424261   0.0000933532   0.0000892504   0.0000043502
       -0.0000221650   0.0000306118  -0.0000002848  -0.0000340807  -0.0000272607
       -0.0000176441  -0.0000286454   0.0000170351   0.0000289198   0.0000987913
       -0.0000327632   0.0000881154  -0.0000206534  -0.0000042637   0.0000022548
        0.0000084655  -0.0000026007   0.0000023678  -0.0000080509   0.0000054646
       -0.0000041602   0.0000011940  -0.0000006385   0.0000032125  -0.0000003286
        0.0000016067  -0.0000009995   0.0000008639   0.0000008472   0.0000012218
        0.0000000337   0.0000006386  -0.0000008863   0.0000002472   0.0000007729
        0.0000002428   0.0000007090  -0.0000004701  -0.0000003132   0.0000000933
       -0.0000005494  -0.0000007156  -0.0000001190  -0.0000000170  -0.0000006358
       -0.0000002977  -0.0000000677  -0.0000007428  -0.0000001498   0.0000001834
       -0.0000006881  -0.0000001300  -0.0000001996  -0.0000006457  -0.0000010049
       -0.0000002292  -0.0000010386  -0.0000006037   0.0000001579   0.0000000142
        0.0000004862  -0.0000001170  -0.0000014114  -0.0000023071   0.0000000835
        0.0000011904   0.0000014948   0.0000013633  -0.0000002248  -0.0000033390
       -0.0000024249   0.0000063098   0.0000063256   0.0000075815  -0.0000088364
       -0.0000032660   0.0000013767   0.0000207803   0.0000042513  -0.0000063852
        0.0000774934
        0.0319356796  -0.0121328375  -0.0684140864  -0.1733947507   0.1857754973
        0.2823779501   0.1283592848  -0.0581080663  -0.1295202547  -0.0033276251
       -0.0428949563  -0.0196629341   0.0179475995   0.0007612543  -0.0130314987
       -0.0137827183   0.0176822439   0.0157467788   0.0005248402   0.0025619566
        0.0009904595  -0.0004024160  -0.0013970075  -0.0006846559  -0.0007172059
        0.0009853695   0.0008073179   0.0012039956   0.0004780094  -0.0004531283
       -0.0004286967  -0.0010007026  -0.0003153818   0.0007947845  -0.0009100259
       -0.0000443068  -0.0014484049  -0.0011434568   0.0051687119   0.0002322574
       -0.0004078954   0.0003184664  -0.0003845147   0.0001274061  -0.0000053165
        0.0001572365   0.0001185579  -0.0000714708   0.0000398259   0.0000259169
        0.0002094464   0.0001073038  -0.0000099438  -0.0000046046  -0.0000355615
        0.0000016456   0.0000144953   0.0000213123   0.0000062203  -0.0000135370
       -0.0000483713  -0.0000099882   0.0000160487   0.0000512901   0.0000158213
       -0.0000265144   0.0000171943  -0.0000138547   0.0000237061  -0.0000465174
        0.0000094948  -0.0000177645   0.0000111252  -0.0000133787   0.0000258906
       -0.0000055795   0.0000009907  -0.0000000956   0.0000031825  -0.0000018023
        0.0000044468  -0.0000109723  -0.0000025694   0.0000044333   0.0000086851
       -0.0000012471   0.0000018303  -0.0000008542   0.0000006954   0.0000003875
        0.0000000651  -0.0000020674   0.0000046507  -0.0000054140   0.0000048558
        0.0000029338   0.0000199571  -0.0000044348   0.0000065221  -0.0000265272
        0.0000050772  -0.0000085915   0.0000082850   0.0000077520   0.0000116119
       -0.0000011606  -0.0000026053  -0.0000008446   0.0000036597   0.0000005448
        0.0000024788  -0.0000025103   0.0000012492   0.0000003106   0.0000003514
       -0.0000008410  -0.0000000966  -0.0000030190   0.0000041876   0.0000008952
       -0.0000033829  -0.0000025544  -0.0000027268   0.0000002838  -0.0000003844
        0.0000001903  -0.0000023007  -0.0000000570  -0.0000015151   0.0000033352
       -0.0000015230   0.0000005429  -0.0000003014   0.0000033285   0.0000011014
        0.0000081457  -0.0000108967  -0.0000060774  -0.0000037791  -0.0000026239
       -0.0000057680   0.0000025781   0.0000010382  -0.0000046180  -0.0000006005
        0.0000053793  -0.0000072391   0.0000013364   0.0000041410  -0.0000073074
       -0.0000033046   0.0000053381  -0.0000065272   0.0000281050   0.0000067243
        0.0000036677  -0.0000544261  -0.0000080104   0.0000011259  -0.0002031912
        0.0000128323  -0.0000416593  -0.0001791946  -0.0000553236  -0.0000914464
        0.0153054922   0.0066815801  -0.0037427774  -0.0097382913  -0.0902874893
       -0.0716514271   0.0056067848  -0.0017364655  -0.0033070123   0.0016932018
       -0.0049604825   0.0052199124   0.0000093784  -0.0000131107  -0.0000011943
       -0.0000009113  -0.0000134168   0.0000345954  -0.0000024892  -0.0000170529
       -0.0000010326   0.0000434313  -0.0000568107  -0.0000059984   0.0001529014
       -0.0001038361   0.0000710640  -0.0000100350   0.0000160843  -0.0000258402
        0.0000087678  -0.0000085626  -0.0000058587  -0.0000097784   0.0000022748
       -0.0000043705   0.0000000386  -0.0000013672   0.0000027782  -0.0000003002
        0.0000015674  -0.0000016028   0.0000001100   0.0000004807   0.0000011951
       -0.0000008245   0.0000003833  -0.0000012813  -0.0000007998   0.0000006627
        0.0000005211  -0.0000004387  -0.0000007756   0.0000003714  -0.0000010417
       -0.0000007449   0.0000000673  -0.0000010970  -0.0000000038  -0.0000001834
       -0.0000010733   0.0000002469  -0.0000005323  -0.0000007814   0.0000011092
       -0.0000007681  -0.0000002898   0.0000007389  -0.0000008252  -0.0000008465
        0.0000000890  -0.0000011667  -0.0000018404   0.0000008912   0.0000009471
        0.0000004764   0.0000004312  -0.0000002499  -0.0000031056  -0.0000005303
        0.0000019669   0.0000015302   0.0000013151  -0.0000001744  -0.0000056011
       -0.0000046754   0.0000074174   0.0000089010   0.0000061390   0.0000010816
       -0.0000288906   0.0000031237   0.0000545703   0.0000090229   0.0000137326
        0.0000593740
       -0.0542470889  -0.0177863556   0.0169862413  -0.2178067285   0.1005884136
        0.1283592848   0.5907610805   0.0925566994  -0.1828960383  -0.0896941390
       -0.0790541712  -0.0157217114   0.0050690126  -0.0238253253  -0.0140617425
       -0.0035022640   0.0192549322   0.0097736547  -0.0033038767  -0.0027612838
        0.0022434754  -0.0001435106  -0.0021369075  -0.0008368498  -0.0008847845
        0.0005201704   0.0004675762   0.0009480754   0.0008051193  -0.0001148991
        0.0005418050  -0.0004320066   0.0001903460  -0.0023006535   0.0021615872
        0.0032676885   0.0031743268   0.0209466779   0.0077090047   0.0013101114
        0.0011718580  -0.0004385622  -0.0010279514   0.0001184751   0.0003390196
        0.0003026199   0.0002596250  -0.0001416602  -0.0001492902  -0.0000028103
        0.0001941304   0.0001363967  -0.0000129243  -0.0000224685  -0.0000442258
       -0.0000162376   0.0000050003   0.0000301800   0.0000058634  -0.0000178875
       -0.0000460619  -0.0000082349   0.0000154819   0.0000431749   0.0000195718
       -0.0000191373   0.0000199637  -0.0000166393   0.0000154293  -0.0000308805
        0.0000057532  -0.0000151549   0.0000018036  -0.0000041792   0.0000225787
       -0.0000025933   0.0000003439  -0.0000000209   0.0000015521  -0.0000021775
        0.0000027111  -0.0000043816  -0.0000008950   0.0000010355   0.0000036748
        0.0000002530   0.0000009750  -0.0000002982   0.0000007075   0.0000002978
       -0.0000008368  -0.0000007576   0.0000023025  -0.0000034897   0.0000024228
        0.0000016077   0.0000079782  -0.0000012281   0.0000025300  -0.0000099702
        0.0000003983  -0.0000037196   0.0000048128   0.0000040092   0.0000055879
       -0.0000009123  -0.0000008662  -0.0000003718   0.0000015057   0.0000000842
        0.0000011606  -0.0000014903   0.0000003127   0.0000000157   0.0000002224
        0.0000000217   0.0000002700  -0.0000022144   0.0000013468  -0.0000001885
       -0.0000010282  -0.0000010032  -0.0000009206  -0.0000006888   0.0000001233
       -0.0000002144  -0.0000017767   0.0000005948  -0.0000007280   0.0000019211
       -0.0000002965   0.0000004739  -0.0000001360   0.0000016479   0.0000005278
        0.0000028888  -0.0000034741  -0.0000022919  -0.0000018911  -0.0000009832
       -0.0000031905   0.0000009386   0.0000007252  -0.0000012478   0.0000005363
        0.0000019363  -0.0000024473   0.0000009780   0.0000028889  -0.0000051643
        0.0000014028   0.0000025084  -0.0000094921   0.0000332619   0.0000084052
        0.0000091920  -0.0000812879  -0.0000178907  -0.0000090970  -0.0000305886
       -0.0001122779  -0.0000857767  -0.0000605570   0.0000913368   0.0000254746
       -0.0032625463  -0.0034018474   0.0028802701   0.0016728637  -0.0001771503
       -0.0011675699  -0.2273991319  -0.1098452272   0.0430068127   0.0004694849
        0.0005221761   0.0001258675   0.0001327770   0.0000107819  -0.0000172678
        0.0000097665  -0.0000407877  -0.0000616855   0.0000116619   0.0001118811
       -0.0000672746   0.0000627722  -0.0000579612  -0.0000060141  -0.0006269116
        0.0004460050   0.0001646866  -0.0000575192   0.0000311065  -0.0000534601
        0.0000038882   0.0000016147  -0.0000032367  -0.0000044265   0.0000050652
       -0.0000000428  -0.0000008781   0.0000010292   0.0000021759  -0.0000000811
        0.0000006963   0.0000005517   0.0000001447   0.0000006745   0.0000005040
       -0.0000001603   0.0000005074  -0.0000001397  -0.0000002396   0.0000004516
        0.0000004444  -0.0000002407  -0.0000002348   0.0000001579  -0.0000000365
       -0.0000001619   0.0000003684  -0.0000001083  -0.0000003512   0.0000000007
       -0.0000002126   0.0000001409  -0.0000001384  -0.0000000059  -0.0000001812
       -0.0000006962  -0.0000006352  -0.0000002218  -0.0000010025  -0.0000012010
        0.0000004205  -0.0000008128  -0.0000000596   0.0000004670   0.0000000166
        0.0000000841   0.0000006666  -0.0000010487  -0.0000006962   0.0000012073
        0.0000004917   0.0000002352   0.0000018856  -0.0000000216  -0.0000051154
       -0.0000002695   0.0000058781   0.0000106849   0.0000106058   0.0000245291
       -0.0000147259  -0.0000104587   0.0000200997  -0.0000140589   0.0000515823
       -0.0000845343
        0.0294722305   0.0456180897   0.0078596240   0.0373498182  -0.1296051564
       -0.0581080663   0.0925566994   0.5689850671   0.1698138192  -0.0326937370
       -0.2784202414  -0.0937823911  -0.0548686348  -0.0228015024   0.0145057691