68
 energy: -108.714883110683 gnorm: 0.000052170880 xtb: 6.7.1 (edcfbbe)
C            5.20644561955384        4.97491046490093       -0.19930057946354
O            3.84334436621136        4.99491030824871       -0.53832004312035
C            3.07354623094244        3.91981918690620       -0.18633487951580
C            1.72534580212276        4.01140108382672       -0.56454253967207
C            0.82348333317839        3.00902603805733       -0.28305166477406
C            1.28402093328545        1.89161561122477        0.39809748329207
C            2.63755823870253        1.78325333607212        0.77497160943979
C            3.53889404860661        2.80141894317921        0.48485939147169
C            2.78432227571005        0.50845983076688        1.41873255250906
C            3.85666649699377       -0.16086588664498        1.99263110810651
C            3.63802269163349       -1.40267800682477        2.55471973739693
C            2.36335003202718       -1.96312838228726        2.58452326136039
C            1.28044170917727       -1.31419702010962        2.02506561404578
C            1.50733112146148       -0.09546064502870        1.40388308960318
N            0.60787967095872        0.74202262669782        0.77472256159170
C           -0.66503750350721        0.36955464217160        0.32449438739688
C           -1.76249484842374        1.16545544831496        0.61353051205649
C           -3.03613218400244        0.80789182584382        0.18608602572557
C           -3.23090535227583       -0.36490371268018       -0.54069478275108
C           -2.12903114293138       -1.15113348611287       -0.83599218433991
C           -0.84804256392365       -0.80327991089430       -0.43014518024140
N            0.24268203028921       -1.61756721156577       -0.76995784668342
C            1.42904407726119       -1.16988220199767       -1.31919926360271
C            1.70567663741889        0.04091575928237       -1.93503467194257
C            2.98961601822343        0.24652207376945       -2.40068487605366
C            3.96867218840548       -0.73686427361770       -2.28401544028159
C            3.68015977529453       -1.96679693607618       -1.72657867750517
C            2.39801379072361       -2.19441487560572       -1.24641479451201
C            1.75196056037171       -3.32206044080900       -0.63510886970069
C            2.17777072576350       -4.59780106879541       -0.29227525193498
C            1.28275547339708       -5.45321508947594        0.31908220917414
C           -0.02024021761190       -5.04803879721298        0.59742952719668
C           -0.46699987719626       -3.78265465041064        0.26742658886098
C            0.42444181493820       -2.92441518425124       -0.35818612622693
C           -4.60068244365343       -0.75242874621151       -1.02294927145778
C           -5.67060575271902        0.13525612056150       -0.44873471491714
C           -7.01317625131564       -0.15895651580933       -0.64149954592424
C           -8.00597672621478        0.66390132367323       -0.14277170170422
C           -7.66222767512325        1.80482732666016        0.56396663508900
C           -6.33273239328904        2.11124594981943        0.77414203661140
C           -5.33770623751046        1.27876712017893        0.27117408631779
O           -4.04726832295585        1.65238602112449        0.53284338655179
H            5.61757205025357        5.91241551047642       -0.57087599959659
H            5.35135580390039        4.92183400053156        0.88509723398024
H            5.72807214041073        4.13779447387064       -0.67561973424179
H            1.41404662122406        4.89922758000933       -1.09158006638928
H           -0.20638499569011        3.09332319815754       -0.59535641937076
H            4.57018468217736        2.69582353116975        0.77961663187356
H            4.83999812523784        0.28472688388824        1.99874121802979
H            4.46172174750525       -1.94408712228456        2.99568334246124
H            2.21611907421736       -2.92384949061188        3.05500265532985
H            0.29048945713601       -1.74170975689241        2.07480077614535
H           -1.64134710892219        2.06391430964326        1.19758760266819
H           -2.26266349864730       -2.04877797840015       -1.42208362416181
H            0.94539441237633        0.79827733688645       -2.05111680879531
H            3.23522002330207        1.18960764889629       -2.86580003609581
H            4.96351927982188       -0.53654644732424       -2.65345683356153
H            4.43229365053410       -2.73868997345809       -1.66449873736237
H            3.19094150208406       -4.90860513120785       -0.49759112816409
H            1.59426325822691       -6.45040017164816        0.59274909695679
H           -0.69531790851167       -5.73625334658179        1.08484510427774
H           -1.47429577539351       -3.47060403639984        0.50167549818242
H           -4.80566219057190       -1.79693824985806       -0.76413014725051
H           -4.62891957589619       -0.69010290523660       -2.11863655911179
H           -7.27579532005055       -1.04800677833784       -1.19689047206737
H           -9.04379048676097        0.41741626210241       -0.30650748320803
H           -8.42999640671257        2.45492091304663        0.95468422005646
H           -6.03763005070623        2.99007277964141        1.32537478758943
