112
 energy: -173.866065158452 gnorm: 0.000036437565 xtb: 6.7.1 (edcfbbe)
C           -1.56386515761381       -7.45280174030447        0.50620396696395
C           -0.65103373881120       -6.49160965782298       -0.26960088616536
C           -0.76739904966454       -6.82265330196982       -1.76062742323870
C            0.80988908841495       -6.69953883492138        0.15725589555918
C           -1.05298594376441       -5.05962183231330        0.04628516172167
C           -1.02102481009982       -4.61230393038567        1.36565699772204
C           -1.36696521364047       -3.31818449534769        1.70096100030977
C           -1.75929938307475       -2.42715760972840        0.71022294263232
N           -2.06354525972234       -1.09180143178161        1.06158217348188
C           -1.15778739600872       -0.24090177019179        1.64942518315152
C            0.26301922195876       -0.51168489505491        1.79441275464914
C            0.93794424411582       -0.03548701710514        2.91931368333885
C            2.30864528821799       -0.15257061959532        3.02238171605592
C            3.05415078435354       -0.73520659032939        1.99618488920469
C            4.51746512498494       -0.63945207374134        1.92355609821584
C            5.27228322445232       -1.56342093972891        1.19449146141915
C            6.54323188548423       -1.24072635620985        0.75935383203907
C            7.08910736199181       -0.01367150045668        1.09465812555555
S            8.21998287839073        0.76178680786054       -0.06583298214978
O            8.97644324904975        1.82577069086378        0.55686591571809
O            8.96372982317434       -0.22681442622441       -0.81549069429557
C            6.84785742670637        1.42013737686259       -1.02842997001977
C            6.19303265159709        0.56734155299542       -1.89919982522305
C            4.87360319396171        0.81236810596449       -2.23266819164363
C            4.18889211194917        1.88437104811383       -1.65916413256034
C            2.72266944704115        1.96116518136328       -1.74976612673770
C            2.03061686301361        1.73869547736878       -2.93748750765529
C            0.64887400166161        1.73584827947669       -2.95912162235823
C           -0.07307465280291        1.92220012998396       -1.78191316662750
N           -1.47482217528337        1.89480472524732       -1.78837990672691
C           -2.27114954131612        0.92664149792774       -2.36798684798072
C           -1.91285898841856       -0.22894137895918       -3.04812130352669
C           -2.92662810904222       -1.04211753106576       -3.52341410776337
C           -4.26827509430928       -0.73095768198659       -3.31553018980945
C           -4.63134028597511        0.41004962066442       -2.62809852759105
C           -3.63203989797163        1.24902130909671       -2.15417715736702
C           -3.64836807211970        2.49317759010765       -1.43866189113429
C           -4.66935004444560        3.33696071197714       -1.02208860858914
C           -4.33424589383820        4.52174954670845       -0.39990064801384
C           -3.00101335318586        4.86827176370909       -0.19309864532620
C           -1.96849838471247        4.04673299752040       -0.60163292077567
C           -2.29896492278148        2.85093005124658       -1.22247418521861
C            0.61171520762495        2.14033193560470       -0.58848938038924
C            1.99071929300363        2.17370782750458       -0.58069754249832
C            4.90225908201251        2.80050965325251       -0.88408687453160
C            6.22651967097607        2.56781609936427       -0.56643451062457
C            6.43296133334934        0.82488448240857        1.98067243436077
C            5.15710698162679        0.50841252729328        2.40080332527682
C            2.36554904505559       -1.26006337207080        0.90023383025052
C            0.99547527281824       -1.15412560987684        0.79811638243466
N           -1.70521207378255        0.89406879417705        2.01556241809423
C           -3.01614814062405        0.80146627405156        1.66784374173275
C           -4.04272924703736        1.75697944434710        1.90334665931230
C           -3.77681584486709        2.96116278152387        2.56313301251666
C           -4.79039462250148        3.84822482041477        2.82546849070783
C           -6.08883071449147        3.53993993005324        2.42529460495016
C           -6.36032415398041        2.36257773005403        1.76865389862274
C           -5.35131543389949        1.42974297728552        1.48319072083500
C           -5.61196025580606        0.16194791230096        0.82397876592319
C           -6.89281343336168       -0.17367731221230        0.36164170281014
C           -7.16646407160132       -1.39124013962944       -0.21533074608380
C           -6.15997223985181       -2.34316286205099       -0.34200322813894
C           -4.88765082356820       -2.04687507226500        0.08040247411370
C           -4.58037282688168       -0.80042034076638        0.64386860844239
C           -3.27296043427627       -0.43242136704655        1.07050315518019
C           -1.79581647201047       -2.85138391208695       -0.61064611277278
C           -1.44926852304258       -4.15236230689656       -0.93058119312396
H           -1.46869310439218       -7.31490015276625        1.57957095666623
H           -2.60423259628778       -7.28885047475685        0.23171640377064
H           -1.30434528134403       -8.48301780581193        0.27235421943294
H           -0.47631288514100       -7.85827005351311       -1.92367759640714
H           -1.79064784878506       -6.70374728833966       -2.10968739862577
H           -0.10971850199873       -6.19329765266014       -2.35565050170855
H            0.93918958361886       -6.53551973859574        1.22347631789913
H            1.45963387653686       -6.00820621741847       -0.37576625261528
H            1.12414545038175       -7.71539181894958       -0.07220053392509
H           -0.72080822547798       -5.27995816405735        2.15799439229703
H           -1.33328566070658       -2.99119760879431        2.73035698625848
H            0.36874773787849        0.44762599349223        3.69894296104778
H            2.80558912351960        0.21828635696311        3.90602615170530
H            4.83844263680190       -2.50974105593311        0.91123028638355
H            7.10022944159016       -1.89941748041767        0.11104330943498
H            6.71355835622733       -0.30447487612105       -2.26423661441575
H            4.34537550421007        0.12140266034336       -2.87170426197372
H            2.57839023487516        1.59409658985501       -3.85673907092115
H            0.12123396980405        1.59785809793154       -3.89110519836672
H           -0.87688391155963       -0.49246741618546       -3.20004128917791
H           -2.67143542258577       -1.94123982336799       -4.06580719827756
H           -5.03079173056351       -1.39379034243878       -3.69659177408614
H           -5.67001885950008        0.64825012746909       -2.45682595865070
H           -5.70129268386060        3.07196472109473       -1.19524410403649
H           -5.11250146206464        5.19497279614888       -0.07324774677726
H           -2.76900709138298        5.80621764770675        0.28988011454042
H           -0.93956876982927        4.33761537003399       -0.45594072683827
H            0.05590882248885        2.25247498358211        0.33051124730029
H            2.51152876270125        2.32194854965235        0.35253995561246
H            4.40222246733002        3.67411059314470       -0.49488153659949
H            6.77791746998452        3.23751823815975        0.07501418779437
H            6.90602181686325        1.75013601765977        2.27004614972830
H            4.61801344199592        1.20755122210334        3.02029268171708
H            2.91602775573378       -1.70609946147403        0.08709524955914
H            0.49963928504076       -1.52847414286861       -0.08371270846670
H           -2.75893045417110        3.15999070563255        2.86181216281443
H           -4.58876246762190        4.77633687259668        3.34004106977416
H           -6.89256664754863        4.23146676440526        2.63496251237593
H           -7.38201590767258        2.16460945688174        1.48508348618570
H           -7.69818128226403        0.53753355595508        0.45274846332899
H           -8.16596209402032       -1.61113510991575       -0.56176088613731
H           -6.37582177221173       -3.30930085322388       -0.77405063156588
H           -4.11202639394609       -2.78857678238917       -0.01746951384590
H           -2.09647449193962       -2.15856675024131       -1.38292391053197
H           -1.49071836675385       -4.44387919593487       -1.96657757226323
