 Entering Gaussian System
 *********************************************
 Gaussian 98:
 frequency output generated by the xtb code
 *********************************************
                         Standard orientation:
 --------------------------------------------------------------------
  Center     Atomic     Atomic              Coordinates (Angstroms)
  Number     Number      Type              X           Y           Z
 --------------------------------------------------------------------
    1          6             0       -9.228490   -0.693165   -0.429769
    2          6             0       -8.069857   -1.338117   -0.357631
    3          6             0       -6.756324   -0.747633   -0.124667
    4          6             0       -5.669363   -1.589207    0.122783
    5          6             0       -4.409635   -1.077940    0.360672
    6          6             0       -4.191551    0.294421    0.342370
    7          6             0       -2.815086    0.844451    0.604869
    8          8             0       -1.885495    0.129690   -0.190650
    9          6             0       -0.561867    0.452162   -0.102618
   10          6             0       -0.026330    1.437627    0.714422
   11          6             0        1.340712    1.675221    0.715126
   12          6             0        2.205074    0.944961   -0.083544
   13          6             0        3.704106    1.194091   -0.150452
   14          6             0        4.217846    2.079102    0.995455
   15          6             0        3.980142    1.916446   -1.478027
   16          6             0        4.426191   -0.140240   -0.038095
   17          6             0        4.047969   -1.020747    0.973568
   18          6             0        4.687347   -2.228902    1.156302
   19          6             0        5.739012   -2.590371    0.320066
   20          8             0        6.351764   -3.793542    0.525461
   21          6             0        6.129224   -1.722410   -0.689089
   22          6             0        5.478759   -0.511760   -0.861446
   23          6             0        1.653984   -0.042051   -0.900410
   24          6             0        0.299809   -0.289023   -0.913281
   25          6             0       -5.263006    1.139460    0.083118
   26          6             0       -6.526202    0.628495   -0.142332
   27          1             0      -10.151791   -1.220345   -0.600835
   28          1             0       -9.309912    0.374544   -0.317612
   29          1             0       -8.063801   -2.416750   -0.462140
   30          1             0       -5.820432   -2.659626    0.136073
   31          1             0       -3.579005   -1.741672    0.550465
   32          1             0       -2.565684    0.720393    1.671014
   33          1             0       -2.781368    1.914819    0.360301
   34          1             0       -0.656919    2.032483    1.357066
   35          1             0        1.715734    2.451196    1.363312
   36          1             0        3.939013    1.666118    1.961684
   37          1             0        3.826989    3.090311    0.910648
   38          1             0        5.304204    2.130079    0.949800
   39          1             0        3.747348    1.276587   -2.325515
   40          1             0        3.352311    2.803475   -1.540792
   41          1             0        5.018929    2.231708   -1.540721
   42          1             0        3.228289   -0.757537    1.626227
   43          1             0        4.387823   -2.907004    1.940624
   44          1             0        7.058314   -3.910464   -0.123422
   45          1             0        6.946235   -1.993290   -1.345452
   46          1             0        5.810759    0.136228   -1.656643
   47          1             0        2.302286   -0.633922   -1.530172
   48          1             0       -0.122371   -1.055041   -1.545785
   49          1             0       -5.106885    2.208790    0.057293
   50          1             0       -7.338799    1.307901   -0.347621
 --------------------------------------------------------------------
     1 basis functions        1 primitive gaussians
     1 alpha electrons        1 beta electrons
 
 Harmonic frequencies (cm**-1), IR intensities (km*mol⁻¹),
 Raman scattering activities (A**4/amu), Raman depolarization ratios,
 reduced masses (AMU), force constants (mDyne/A) and normal coordinates:
                      1                      2                      3
                        a                      a                      a 
 Frequencies --    13.2415                23.3553                27.3297
 Red. masses --    11.8468                10.3124                10.6232
 Frc consts  --     0.0000                 0.0000                 0.0000
 IR Inten    --     0.3392                 0.1939                 0.2390
 Raman Activ --     0.0000                 0.0000                 0.0000
 Depolar     --     0.0000                 0.0000                 0.0000
 Atom AN      X      Y      Z        X      Y      Z        X      Y      Z
   1   6    -0.07   0.26  -0.16    -0.11   0.07   0.37    -0.09   0.02   0.25
   2   6    -0.11   0.20  -0.14    -0.10   0.07   0.12    -0.09   0.01   0.21
   3   6    -0.08   0.12  -0.07    -0.07   0.04   0.03    -0.07   0.02   0.05
   4   6    -0.14   0.05  -0.07    -0.01  -0.00  -0.33    -0.09   0.05   0.21
   5   6    -0.12  -0.03  -0.01     0.02  -0.04  -0.41    -0.07   0.07   0.10
   6   6    -0.04  -0.04   0.04    -0.01  -0.03  -0.13    -0.05   0.06  -0.17
   7   6    -0.02  -0.12   0.10     0.00  -0.04  -0.15    -0.05   0.09  -0.22
   8   8    -0.02  -0.24   0.21     0.01  -0.04  -0.17    -0.03  -0.00  -0.14
   9   6    -0.02  -0.18   0.14     0.01  -0.03  -0.11    -0.02  -0.03  -0.07
  10   6    -0.02  -0.13   0.08    -0.02  -0.04  -0.09    -0.05  -0.00  -0.08
  11   6    -0.03  -0.08   0.02    -0.02  -0.04  -0.05    -0.05  -0.03  -0.01
  12   6    -0.03  -0.09   0.02     0.01  -0.03  -0.03    -0.01  -0.07   0.07
  13   6    -0.05  -0.03  -0.06     0.01  -0.01   0.01    -0.02  -0.05   0.11
  14   6    -0.03   0.04  -0.12    -0.04  -0.01   0.03    -0.06  -0.11   0.18
  15   6    -0.15  -0.07  -0.10     0.04  -0.01   0.02    -0.01   0.04   0.16
  16   6     0.03   0.01  -0.04     0.02  -0.00   0.03     0.03  -0.03   0.04
  17   6     0.12   0.03   0.01    -0.01  -0.02   0.01     0.04  -0.11  -0.03
  18   6     0.20   0.08   0.03     0.02  -0.00   0.04     0.10  -0.09  -0.08
  19   6     0.19   0.11  -0.01     0.06   0.03   0.09     0.15   0.02  -0.06
  20   8     0.31   0.17   0.02     0.10   0.05   0.13     0.25   0.05  -0.13
  21   6     0.09   0.09  -0.06     0.09   0.04   0.11     0.14   0.10   0.00
  22   6     0.01   0.04  -0.08     0.07   0.03   0.08     0.08   0.08   0.06
  23   6    -0.03  -0.15   0.10     0.03  -0.02  -0.06     0.01  -0.09   0.07
  24   6    -0.02  -0.19   0.15     0.03  -0.02  -0.10     0.01  -0.07   0.01
  25   6     0.01   0.03   0.04    -0.06   0.01   0.22    -0.02   0.03  -0.35
  26   6    -0.01   0.10  -0.01    -0.09   0.04   0.30    -0.04   0.01  -0.25
  27   1    -0.03   0.09  -0.06    -0.04   0.03   0.12    -0.03   0.00   0.11
  28   1    -0.00   0.08  -0.03    -0.03   0.02   0.16    -0.02   0.01   0.04
  29   1    -0.05   0.06  -0.05    -0.03   0.02  -0.02    -0.03  -0.00   0.10
  30   1    -0.06   0.02  -0.03     0.00  -0.00  -0.16    -0.03   0.02   0.12
  31   1    -0.05  -0.02  -0.00     0.02  -0.02  -0.20    -0.03   0.03   0.07
  32   1    -0.03  -0.03   0.04    -0.00  -0.01  -0.04    -0.02   0.06  -0.06
  33   1     0.02  -0.04   0.02     0.00  -0.01  -0.04    -0.01   0.02  -0.10
  34   1    -0.00  -0.03   0.02    -0.01  -0.01  -0.03    -0.02   0.01  -0.04
  35   1    -0.01  -0.01  -0.01    -0.01  -0.01  -0.01    -0.02  -0.00  -0.01
  36   1     0.01   0.02  -0.03    -0.02  -0.00   0.01    -0.03  -0.05   0.04
  37   1    -0.02   0.01  -0.04    -0.01  -0.00   0.01    -0.01  -0.03   0.06
  38   1    -0.01   0.03  -0.05    -0.01   0.00   0.02    -0.02  -0.03   0.07
  39   1    -0.05  -0.03  -0.02     0.02  -0.00   0.00     0.01   0.02   0.03
  40   1    -0.06  -0.03  -0.03     0.01  -0.01   0.00    -0.01   0.01   0.06
  41   1    -0.05  -0.00  -0.05     0.01   0.00   0.02    -0.01   0.02   0.06
  42   1     0.04   0.00   0.01    -0.01  -0.01  -0.01     0.00  -0.06  -0.01
  43   1     0.08   0.03   0.02    -0.00  -0.00   0.01     0.03  -0.05  -0.04
  44   1     0.07   0.05  -0.00     0.03   0.02   0.04     0.07   0.04  -0.03
  45   1     0.02   0.03  -0.02     0.04   0.02   0.04     0.05   0.05   0.00
  46   1    -0.02   0.01  -0.03     0.03   0.01   0.03     0.02   0.04   0.03
  47   1    -0.01  -0.05   0.03     0.01  -0.00  -0.01     0.01  -0.03   0.04
  48   1    -0.01  -0.07   0.06     0.02  -0.01  -0.03     0.01  -0.03   0.01
  49   1     0.02   0.01   0.03    -0.02   0.01   0.13    -0.00   0.01  -0.17
  50   1     0.01   0.05  -0.00    -0.04   0.02   0.17    -0.01  -0.00  -0.11
                      4                      5                      6
                        a                      a                      a 
 Frequencies --    38.2915                42.7794                54.3191
 Red. masses --     9.9704                10.9169                10.9795
 Frc consts  --     0.0000                 0.0000                 0.0000
 IR Inten    --     0.8842                 0.4077                 1.3350
 Raman Activ --     0.0000                 0.0000                 0.0000
 Depolar     --     0.0000                 0.0000                 0.0000
 Atom AN      X      Y      Z        X      Y      Z        X      Y      Z
   1   6     0.00  -0.16   0.06    -0.04   0.22   0.29     0.01   0.05  -0.11
   2   6     0.05  -0.09  -0.01    -0.07   0.13   0.02    -0.02   0.02   0.08
   3   6     0.02  -0.02  -0.05    -0.01   0.02  -0.05    -0.01   0.01   0.05
   4   6     0.08   0.03  -0.15    -0.09  -0.06   0.02    -0.01  -0.01   0.00
   5   6     0.06   0.09  -0.18    -0.05  -0.14   0.02     0.01  -0.03  -0.04
   6   6    -0.02   0.10  -0.11     0.06  -0.16  -0.07     0.03  -0.03  -0.03
   7   6    -0.04   0.17  -0.14     0.07  -0.23  -0.01     0.03  -0.03  -0.06
   8   8     0.02  -0.01   0.11     0.11  -0.24  -0.00     0.09  -0.26   0.20
   9   6     0.01   0.00   0.10     0.08  -0.12  -0.01     0.05  -0.10   0.07
  10   6    -0.01   0.14  -0.06     0.02  -0.12   0.03    -0.00   0.11  -0.15
  11   6    -0.01   0.13  -0.05     0.00  -0.03   0.03    -0.02   0.18  -0.19
  12   6     0.01  -0.01   0.10     0.04   0.07  -0.02     0.03   0.05  -0.03
  13   6     0.01   0.01   0.06     0.04   0.12   0.03     0.02   0.07  -0.01
  14   6     0.03   0.01   0.05    -0.02   0.12   0.05    -0.01   0.09  -0.01
  15   6    -0.04   0.01   0.06     0.08   0.13   0.04     0.04   0.04  -0.02
  16   6     0.02   0.01   0.03     0.02   0.11   0.04     0.03   0.07   0.03
  17   6     0.19   0.09   0.17     0.06   0.18   0.12    -0.15  -0.03  -0.13
  18   6     0.17   0.08   0.12    -0.02   0.14   0.10    -0.23  -0.07  -0.18
  19   6    -0.03  -0.03  -0.08    -0.15   0.01  -0.01    -0.11  -0.01  -0.06
  20   8    -0.06  -0.06  -0.15    -0.28  -0.04  -0.04    -0.26  -0.09  -0.16
  21   6    -0.20  -0.12  -0.22    -0.18  -0.05  -0.07     0.11   0.12   0.14
  22   6    -0.17  -0.10  -0.16    -0.10  -0.00  -0.05     0.18   0.16   0.18
  23   6     0.04  -0.15   0.25     0.10   0.07  -0.06     0.08  -0.12   0.15
  24   6     0.04  -0.15   0.26     0.12  -0.02  -0.07     0.09  -0.21   0.21
  25   6    -0.08   0.05  -0.01     0.14  -0.09  -0.19     0.02  -0.01   0.03
  26   6    -0.06  -0.01   0.02     0.11  -0.01  -0.18     0.01   0.01   0.07
  27   1     0.01  -0.06   0.02    -0.03   0.09   0.10     0.00   0.01  -0.02
  28   1    -0.02  -0.05   0.03     0.02   0.06   0.14     0.01   0.02  -0.09
  29   1     0.03  -0.03  -0.02    -0.05   0.04  -0.04    -0.01   0.00   0.08
  30   1     0.04   0.01  -0.06    -0.05  -0.01   0.03    -0.00  -0.00  -0.00
  31   1     0.03   0.04  -0.07    -0.03  -0.06   0.03     0.00  -0.01  -0.02
  32   1    -0.03   0.12  -0.03     0.01  -0.08  -0.00    -0.01   0.06  -0.00
  33   1    -0.01   0.03  -0.11     0.03  -0.06   0.01     0.02  -0.02  -0.09
  34   1    -0.01   0.08  -0.05    -0.00  -0.06   0.02    -0.01   0.06  -0.08
  35   1    -0.01   0.07  -0.05    -0.01  -0.01   0.02    -0.02   0.10  -0.10
  36   1     0.00   0.01   0.02    -0.00   0.03   0.01    -0.03   0.04  -0.00
  37   1     0.02   0.01   0.01    -0.01   0.03   0.01     0.01   0.03  -0.02
  38   1     0.01  -0.01   0.02    -0.00   0.05   0.02    -0.00   0.02   0.02
  39   1    -0.04   0.01   0.02     0.01   0.05   0.01     0.04  -0.01  -0.00
  40   1     0.00   0.01   0.03     0.03   0.05   0.02    -0.00  -0.00  -0.03
  41   1    -0.01  -0.01  -0.00     0.03   0.02   0.02     0.01   0.03   0.00
  42   1     0.10   0.05   0.09     0.04   0.08   0.05    -0.07  -0.02  -0.07
  43   1     0.09   0.04   0.07     0.00   0.05   0.05    -0.11  -0.05  -0.09
  44   1    -0.06  -0.04  -0.08    -0.09  -0.04  -0.03    -0.03  -0.01  -0.01
  45   1    -0.10  -0.06  -0.11    -0.08  -0.04  -0.04     0.07   0.05   0.07
  46   1    -0.09  -0.05  -0.08    -0.04  -0.02  -0.03     0.10   0.07   0.09
  47   1     0.02  -0.07   0.11     0.04   0.04  -0.03     0.03  -0.06   0.07
  48   1     0.01  -0.07   0.11     0.05  -0.00  -0.03     0.04  -0.10   0.10
  49   1    -0.04   0.02   0.01     0.07  -0.03  -0.08     0.01  -0.00   0.01
  50   1    -0.03  -0.01   0.03     0.05   0.01  -0.08     0.00   0.01   0.04
                      7                      8                      9
                        a                      a                      a 
 Frequencies --    55.0562                78.8018               100.0685
 Red. masses --     8.9042                 9.7507                11.7399
 Frc consts  --     0.0000                 0.0000                 0.0000
 IR Inten    --     0.0267                 0.2342                 0.9453
 Raman Activ --     0.0000                 0.0000                 0.0000
 Depolar     --     0.0000                 0.0000                 0.0000
 Atom AN      X      Y      Z        X      Y      Z        X      Y      Z
   1   6     0.01  -0.11   0.46    -0.02  -0.10  -0.06    -0.01  -0.06  -0.00
   2   6     0.09  -0.03  -0.30    -0.02  -0.07   0.23     0.00  -0.03   0.10
   3   6     0.07  -0.02  -0.21    -0.02   0.00   0.04     0.00   0.01  -0.01
   4   6     0.07   0.01  -0.12     0.03   0.05  -0.05     0.03   0.03  -0.05
   5   6     0.02   0.05   0.01     0.03   0.09  -0.16     0.03   0.05  -0.09
   6   6    -0.01   0.06   0.03    -0.01   0.10  -0.18    -0.00   0.05  -0.09
   7   6    -0.03   0.07   0.12    -0.03   0.12  -0.15    -0.01   0.06  -0.04
   8   8    -0.02   0.05   0.19     0.04  -0.03   0.06     0.08  -0.28   0.38
   9   6    -0.02   0.03   0.13     0.04  -0.07   0.13     0.03  -0.07   0.15
  10   6     0.02   0.03   0.10     0.07  -0.24   0.32     0.04  -0.04   0.10
  11   6     0.02   0.02   0.05     0.07  -0.23   0.31     0.03   0.04  -0.02
  12   6    -0.01   0.00   0.02     0.03  -0.04   0.10    -0.00   0.10  -0.11
  13   6    -0.02  -0.02  -0.06     0.02   0.03  -0.03     0.01   0.02  -0.06
  14   6     0.05   0.02  -0.12     0.07   0.18  -0.18     0.05  -0.22   0.11
  15   6    -0.07  -0.09  -0.11    -0.12  -0.11  -0.14     0.16   0.19   0.07
  16   6    -0.02  -0.02  -0.03     0.05   0.05   0.03    -0.11  -0.06  -0.17
  17   6    -0.10  -0.06  -0.10     0.02   0.05   0.01    -0.15  -0.04  -0.17
  18   6    -0.10  -0.06  -0.09    -0.03   0.02  -0.01    -0.11  -0.00  -0.07
  19   6    -0.01  -0.01   0.00    -0.04  -0.00  -0.01    -0.02   0.02   0.03
  20   8    -0.02  -0.01   0.01    -0.15  -0.07  -0.08     0.15   0.16   0.29
  21   6     0.08   0.04   0.08     0.03   0.03   0.04    -0.08  -0.07  -0.06
  22   6     0.08   0.04   0.06     0.08   0.06   0.06    -0.12  -0.10  -0.16
  23   6    -0.05  -0.01   0.06     0.01   0.07  -0.02    -0.02   0.14  -0.13
  24   6    -0.06   0.01   0.12     0.02   0.05  -0.01    -0.00   0.04   0.00
  25   6    -0.00   0.03  -0.10    -0.06   0.06  -0.14    -0.02   0.04  -0.08
  26   6     0.03  -0.01  -0.22    -0.06   0.01  -0.03    -0.02   0.01  -0.04
  27   1     0.00  -0.02   0.10    -0.00  -0.05   0.04    -0.00  -0.03   0.03
  28   1    -0.02  -0.06   0.37    -0.01  -0.02  -0.15    -0.01  -0.01  -0.06
  29   1     0.05   0.01  -0.29    -0.01  -0.03   0.19     0.00  -0.01   0.08
  30   1     0.03   0.00  -0.04     0.02   0.01  -0.00     0.01   0.01  -0.01
  31   1     0.01   0.02   0.03     0.02   0.03  -0.06     0.01   0.02  -0.03
  32   1    -0.03   0.02   0.04    -0.05   0.08  -0.03    -0.06   0.11   0.01
  33   1    -0.00   0.02   0.03     0.01   0.02  -0.09     0.03  -0.00  -0.11
  34   1     0.01   0.01   0.03     0.02  -0.11   0.13     0.02  -0.03   0.05
  35   1     0.02   0.01   0.01     0.03  -0.10   0.13     0.01   0.01  -0.01
  36   1     0.03   0.02  -0.03     0.08   0.06  -0.03    -0.01  -0.10   0.01
  37   1     0.01   0.01  -0.04    -0.03   0.03  -0.06     0.05  -0.05   0.07
  38   1     0.01   0.01  -0.05     0.02   0.09  -0.10     0.02  -0.10   0.05
  39   1    -0.02  -0.04  -0.02    -0.03  -0.06  -0.01     0.02   0.11  -0.01
  40   1    -0.03  -0.03  -0.04    -0.06  -0.05  -0.06     0.09   0.09   0.06
  41   1    -0.03  -0.01  -0.04    -0.05  -0.01  -0.07     0.06   0.01   0.04
  42   1    -0.05  -0.03  -0.05     0.01   0.02   0.00    -0.06  -0.01  -0.07
  43   1    -0.05  -0.03  -0.04    -0.02   0.00  -0.01    -0.03   0.01  -0.01
  44   1     0.02   0.01   0.02    -0.04  -0.02  -0.02     0.05   0.04   0.09
  45   1     0.05   0.02   0.04     0.01   0.01   0.02    -0.02  -0.02  -0.01
  46   1     0.04   0.02   0.04     0.04   0.02   0.03    -0.04  -0.04  -0.06
  47   1    -0.02  -0.01   0.01    -0.00   0.05  -0.04    -0.01   0.06  -0.07
  48   1    -0.03   0.00   0.04    -0.00   0.05  -0.03    -0.01   0.01   0.00
  49   1    -0.01   0.01  -0.04    -0.03   0.02  -0.05    -0.01   0.01  -0.02
  50   1     0.01  -0.01  -0.10    -0.03  -0.00   0.01    -0.01  -0.00  -0.00
                     10                     11                     12
                        a                      a                      a 
 Frequencies --   116.7497               137.6373               157.6079
 Red. masses --    10.3249                10.6493                10.5688
 Frc consts  --     0.0000                 0.0000                 0.0000
 IR Inten    --     0.7529                 0.7745                 0.2794
 Raman Activ --     0.0000                 0.0000                 0.0000
 Depolar     --     0.0000                 0.0000                 0.0000
 Atom AN      X      Y      Z        X      Y      Z        X      Y      Z
   1   6     0.13  -0.10  -0.01     0.20   0.15   0.04    -0.08  -0.00  -0.05
   2   6     0.20   0.01  -0.20     0.14   0.05   0.21    -0.06   0.01  -0.21
   3   6     0.12   0.08   0.06     0.19   0.00  -0.04    -0.10  -0.02   0.11
   4   6     0.13   0.12   0.14     0.19  -0.02  -0.12    -0.12  -0.02   0.18
   5   6     0.10   0.16   0.15     0.18  -0.02  -0.11    -0.09  -0.04   0.10
   6   6     0.05   0.17   0.06     0.14  -0.02  -0.01    -0.02  -0.05  -0.06
   7   6     0.09   0.13  -0.17     0.10  -0.05   0.09     0.00   0.01  -0.25
   8   8    -0.03  -0.21  -0.04    -0.02   0.14  -0.20     0.07   0.10  -0.29
   9   6    -0.02  -0.22  -0.10    -0.01  -0.02  -0.02     0.08  -0.01  -0.00
  10   6    -0.06  -0.25  -0.04    -0.07  -0.03   0.01     0.05  -0.05   0.07
  11   6    -0.08  -0.20  -0.02    -0.07  -0.03   0.07     0.06  -0.03   0.16
  12   6    -0.06  -0.11  -0.08    -0.08  -0.06   0.10     0.09   0.02   0.15
  13   6    -0.08   0.01   0.01    -0.12  -0.01   0.02     0.08   0.06   0.00
  14   6    -0.23   0.01   0.08    -0.05  -0.03   0.00     0.26  -0.01  -0.03
  15   6    -0.04   0.08   0.06    -0.28   0.02   0.01    -0.09   0.12   0.00
  16   6    -0.03   0.05   0.03    -0.14  -0.01  -0.05     0.02   0.02  -0.12
  17   6    -0.02   0.05   0.04    -0.18  -0.04  -0.09    -0.10   0.02  -0.16
  18   6    -0.02   0.05   0.03    -0.16  -0.02  -0.07    -0.15   0.01  -0.12
  19   6    -0.04   0.05   0.01    -0.08   0.05  -0.01    -0.07   0.01  -0.01
  20   8    -0.08   0.04  -0.02     0.06   0.16   0.12     0.00   0.10   0.21
  21   6    -0.04   0.05   0.01    -0.12   0.03  -0.04    -0.04  -0.05  -0.06
  22   6    -0.03   0.06   0.02    -0.16   0.01  -0.07    -0.01  -0.03  -0.12
  23   6    -0.01  -0.10  -0.13    -0.01  -0.14   0.15     0.15  -0.05   0.20
  24   6    -0.00  -0.16  -0.14    -0.00  -0.13   0.09     0.16  -0.08   0.13
  25   6     0.02   0.15   0.13     0.18   0.00  -0.06    -0.05  -0.05   0.06
  26   6     0.04   0.09   0.14     0.19   0.00  -0.09    -0.08  -0.02   0.16
  27   1     0.06  -0.04  -0.08     0.04   0.05   0.09    -0.01   0.01  -0.12
  28   1     0.00  -0.05   0.12     0.09   0.06  -0.10    -0.04  -0.02   0.13
  29   1     0.10   0.01  -0.17     0.01   0.00   0.17    -0.00   0.02  -0.20
  30   1     0.05   0.03   0.04     0.05  -0.01  -0.05    -0.04  -0.01   0.07
  31   1     0.04   0.06   0.05     0.06  -0.00  -0.04    -0.03  -0.02   0.03
  32   1     0.04   0.12  -0.04     0.06  -0.10   0.01     0.02   0.03  -0.07
  33   1     0.05   0.02  -0.14     0.03   0.00   0.10    -0.03   0.00  -0.09
  34   1    -0.02  -0.09  -0.00    -0.03  -0.00  -0.01     0.00  -0.01   0.01
  35   1    -0.03  -0.07   0.01    -0.02  -0.01   0.02     0.01  -0.01   0.05
  36   1    -0.08  -0.01   0.01     0.01  -0.02   0.00     0.13  -0.03  -0.00
  37   1    -0.08  -0.00   0.02    -0.02  -0.01   0.02     0.06  -0.01   0.04
  38   1    -0.07   0.02   0.05    -0.02   0.00  -0.02     0.07   0.01  -0.07
  39   1     0.01   0.03   0.01    -0.10   0.01   0.01    -0.08   0.05   0.00
  40   1    -0.02   0.02   0.02    -0.09   0.00   0.03    -0.00   0.05   0.05
  41   1    -0.01   0.04   0.04    -0.08   0.01  -0.03    -0.02   0.01  -0.05
  42   1    -0.00   0.02   0.01    -0.06  -0.02  -0.03    -0.04   0.02  -0.06
  43   1    -0.00   0.01   0.01    -0.04  -0.01  -0.03    -0.06   0.01  -0.04
  44   1    -0.02   0.01  -0.01     0.03   0.05   0.04     0.02   0.02   0.08
  45   1    -0.01   0.01   0.00    -0.03   0.01  -0.01    -0.01  -0.02  -0.01
  46   1    -0.01   0.02   0.01    -0.05   0.00  -0.02     0.00  -0.02  -0.04
  47   1     0.01  -0.01  -0.05     0.01  -0.05   0.07     0.05  -0.02   0.07
  48   1     0.01  -0.04  -0.05    -0.00  -0.05   0.03     0.06  -0.03   0.04
  49   1    -0.00   0.04   0.04     0.06   0.00  -0.01    -0.01  -0.01   0.01
  50   1     0.00   0.02   0.04     0.05   0.00  -0.02    -0.02  -0.00   0.05
                     13                     14                     15
                        a                      a                      a 
 Frequencies --   179.7826               207.2504               222.6182
 Red. masses --    10.5454                 9.6895                 9.6072
 Frc consts  --     0.0000                 0.0000                 0.0000
 IR Inten    --     3.0232                 0.3196                 0.2220
 Raman Activ --     0.0000                 0.0000                 0.0000
 Depolar     --     0.0000                 0.0000                 0.0000
 Atom AN      X      Y      Z        X      Y      Z        X      Y      Z
   1   6    -0.10  -0.16   0.02     0.20   0.41   0.00     0.07   0.20  -0.00
   2   6    -0.04  -0.04   0.08    -0.02   0.02  -0.03    -0.04  -0.01  -0.02
   3   6    -0.05   0.06  -0.08     0.07  -0.22   0.04     0.00  -0.13   0.01
   4   6    -0.04   0.06  -0.09     0.10  -0.18   0.04     0.04  -0.09   0.02
   5   6    -0.06   0.06  -0.01     0.09  -0.07  -0.01     0.02  -0.01  -0.00
   6   6    -0.05   0.06   0.07    -0.02  -0.05  -0.03    -0.03   0.00  -0.01
   7   6    -0.02  -0.04   0.22    -0.10   0.19  -0.16    -0.07   0.12  -0.03
   8   8    -0.09   0.23  -0.10    -0.04   0.04   0.10    -0.05   0.24  -0.08
   9   6    -0.02  -0.06   0.03    -0.05   0.07   0.04     0.00  -0.02   0.11
  10   6     0.08  -0.11   0.04    -0.01   0.05   0.03     0.08  -0.10   0.15
  11   6     0.08  -0.15  -0.05     0.00  -0.03   0.01     0.07  -0.09   0.02
  12   6     0.05  -0.13  -0.11    -0.04  -0.06  -0.02     0.03  -0.00  -0.12
  13   6     0.04   0.01  -0.11    -0.04  -0.05  -0.06     0.04   0.05  -0.03
  14   6    -0.05  -0.16   0.08     0.01  -0.21   0.03    -0.29   0.21  -0.01
  15   6     0.09   0.26   0.04    -0.15   0.10   0.00     0.44  -0.07  -0.01
  16   6     0.14   0.07  -0.18     0.04  -0.00  -0.12     0.01   0.04   0.06
  17   6     0.10   0.18  -0.11     0.09   0.09  -0.03    -0.05  -0.02  -0.02
  18   6     0.02   0.17   0.00     0.10   0.12   0.07    -0.09  -0.06  -0.09
  19   6    -0.00   0.05   0.03     0.05   0.03   0.05    -0.05  -0.02  -0.06
  20   8    -0.25  -0.06   0.10    -0.19  -0.10  -0.00     0.14   0.09   0.03
  21   6     0.14  -0.00   0.03     0.14   0.02   0.07    -0.10  -0.03  -0.09
  22   6     0.20   0.03  -0.08     0.13   0.01  -0.02    -0.06  -0.01  -0.02
  23   6    -0.02  -0.21   0.03    -0.10  -0.01  -0.04    -0.01  -0.10   0.03
  24   6    -0.04  -0.18   0.11    -0.11   0.06  -0.00    -0.02  -0.11   0.17
  25   6    -0.04   0.06  -0.01    -0.07  -0.12   0.01    -0.08  -0.06   0.00
  26   6    -0.04   0.06  -0.09    -0.01  -0.21   0.03    -0.04  -0.13   0.01
  27   1    -0.02  -0.08   0.06     0.01   0.22  -0.03    -0.01   0.11  -0.02
  28   1    -0.05  -0.04  -0.07     0.15   0.12   0.05     0.07   0.06   0.02
  29   1     0.01  -0.02   0.09    -0.09   0.01  -0.05    -0.06  -0.00  -0.02
  30   1    -0.01   0.02  -0.03     0.05  -0.05   0.01     0.03  -0.03   0.01
  31   1    -0.02   0.01   0.00     0.04  -0.00  -0.01     0.02   0.01  -0.00
  32   1     0.01  -0.13   0.05    -0.03   0.17  -0.03    -0.01   0.04  -0.01
  33   1    -0.00   0.01   0.17    -0.06   0.03  -0.15    -0.05   0.04  -0.00
  34   1     0.04  -0.02   0.02     0.01   0.02   0.01     0.04  -0.03   0.06
  35   1     0.03  -0.04  -0.02     0.02  -0.02   0.00     0.03  -0.03   0.00
  36   1    -0.03  -0.09  -0.00     0.01  -0.10  -0.00    -0.17   0.11  -0.01
  37   1    -0.01  -0.04   0.06     0.01  -0.05   0.06    -0.07   0.06  -0.09
  38   1    -0.01  -0.04   0.05     0.00  -0.07   0.00    -0.08   0.06   0.10
  39   1     0.02   0.12  -0.02    -0.07   0.06  -0.01     0.23  -0.05  -0.01
  40   1     0.04   0.09   0.06    -0.04   0.04   0.05     0.12  -0.03  -0.10
  41   1     0.03   0.06   0.04    -0.04   0.03  -0.02     0.13  -0.00   0.11
  42   1     0.03   0.08  -0.05     0.02   0.04  -0.02    -0.01  -0.01  -0.00
  43   1    -0.01   0.07   0.01     0.03   0.05   0.03    -0.03  -0.02  -0.03
  44   1    -0.06  -0.06   0.04    -0.05  -0.06  -0.00     0.04   0.04   0.01
  45   1     0.05  -0.02   0.03     0.05  -0.00   0.04    -0.04  -0.01  -0.04
  46   1     0.07  -0.01  -0.03     0.04  -0.00  -0.01    -0.01  -0.00  -0.00
  47   1    -0.02  -0.08   0.01    -0.04  -0.00  -0.02    -0.02  -0.04   0.00
  48   1    -0.02  -0.06   0.05    -0.05   0.03   0.00    -0.02  -0.04   0.07
  49   1    -0.01   0.02   0.00    -0.04  -0.03  -0.00    -0.04  -0.01  -0.00
  50   1    -0.01   0.02  -0.03    -0.01  -0.07   0.00    -0.02  -0.05  -0.00
                     16                     17                     18
                        a                      a                      a 
 Frequencies --   257.0862               264.8270               282.6662
 Red. masses --     8.9859                 4.5013                 8.1632
 Frc consts  --     0.0000                 0.0000                 0.0000
 IR Inten    --     0.1002                 0.2359                 0.4156
 Raman Activ --     0.0000                 0.0000                 0.0000
 Depolar     --     0.0000                 0.0000                 0.0000
 Atom AN      X      Y      Z        X      Y      Z        X      Y      Z
   1   6    -0.01  -0.03  -0.01     0.06   0.06   0.02    -0.03  -0.10  -0.06
   2   6     0.02   0.01  -0.01     0.01  -0.02   0.02     0.06   0.06  -0.03
   3   6    -0.00   0.03   0.06     0.03  -0.04  -0.06    -0.01   0.10   0.26
   4   6    -0.01   0.01   0.04     0.04  -0.01  -0.04    -0.04   0.02   0.13
   5   6     0.01  -0.01  -0.03     0.00   0.04   0.04     0.05  -0.09  -0.16
   6   6     0.03  -0.02  -0.07    -0.05   0.05   0.07     0.10  -0.10  -0.24
   7   6     0.02  -0.04  -0.04    -0.03   0.02   0.01     0.03  -0.09  -0.02
   8   8     0.02   0.07  -0.13    -0.11  -0.01  -0.08     0.11   0.08  -0.01
   9   6     0.03  -0.05   0.07    -0.07  -0.10  -0.02     0.05   0.10   0.13
  10   6     0.02  -0.08   0.12    -0.08  -0.09  -0.02     0.02   0.09   0.15
  11   6     0.00   0.02   0.01    -0.09  -0.01  -0.02     0.02   0.08   0.02
  12   6    -0.05   0.07  -0.08    -0.03   0.10  -0.06    -0.07   0.04  -0.05
  13   6    -0.05  -0.05  -0.09     0.00   0.03  -0.03    -0.09  -0.02  -0.08
  14   6     0.24  -0.32  -0.02     0.18   0.03  -0.11    -0.36   0.01   0.00
  15   6     0.16  -0.15  -0.10     0.23   0.02   0.01    -0.06   0.01  -0.05
  16   6    -0.23  -0.08  -0.01    -0.09  -0.02   0.05    -0.04  -0.03  -0.06
  17   6    -0.13   0.02   0.10    -0.04  -0.03   0.06     0.02  -0.03  -0.04
  18   6     0.04   0.12   0.18     0.01  -0.02   0.06     0.06  -0.01   0.01
  19   6    -0.02   0.18   0.07     0.02   0.02   0.05     0.07  -0.04   0.04
  20   8    -0.09   0.13  -0.26     0.04  -0.01  -0.16    -0.01  -0.11  -0.03
  21   6    -0.01   0.21   0.10     0.02   0.07   0.10     0.08  -0.01   0.07
  22   6    -0.13   0.10   0.06    -0.06   0.01   0.07     0.01  -0.05  -0.01
  23   6    -0.02  -0.01   0.00    -0.02   0.02   0.01    -0.07   0.02  -0.00
  24   6     0.01  -0.08   0.09    -0.01  -0.11   0.05    -0.05   0.05   0.10
  25   6     0.04   0.00  -0.04    -0.06   0.03   0.05     0.16  -0.02  -0.18
  26   6     0.01   0.02   0.04    -0.02  -0.03  -0.04     0.06   0.08   0.14
  27   1     0.01  -0.02  -0.04     0.00   0.03   0.04     0.03  -0.06  -0.15
  28   1    -0.02  -0.01   0.03     0.04   0.02  -0.03    -0.07  -0.05   0.11
  29   1     0.02   0.01  -0.04    -0.02  -0.01   0.04     0.06   0.03  -0.13
  30   1    -0.01   0.00   0.02     0.02  -0.00  -0.02    -0.04   0.01   0.06
  31   1     0.00  -0.01  -0.01     0.01   0.02   0.02     0.01  -0.04  -0.07
  32   1     0.01  -0.04  -0.02     0.01  -0.01  -0.00    -0.03  -0.07  -0.00
  33   1     0.00  -0.00   0.02    -0.00   0.01   0.01     0.01  -0.01   0.05
  34   1     0.00  -0.04   0.05    -0.03  -0.03  -0.00     0.01   0.02   0.06
  35   1     0.01   0.01  -0.01    -0.04  -0.01   0.01     0.02   0.02  -0.01
  36   1    -0.10  -0.02  -0.02     0.28  -0.10  -0.01    -0.16   0.00  -0.02
  37   1     0.29  -0.01  -0.05    -0.11  -0.04   0.11    -0.11  -0.00  -0.03
  38   1     0.08  -0.33   0.09     0.04   0.18  -0.22    -0.10   0.02   0.08
  39   1     0.12  -0.08  -0.03    -0.27   0.15  -0.01    -0.24   0.09  -0.02
  40   1     0.02  -0.07  -0.10     0.37   0.23   0.16     0.16   0.14   0.10
  41   1     0.04  -0.01   0.03     0.16  -0.35  -0.12     0.04  -0.21  -0.11
  42   1    -0.04   0.00   0.03    -0.01  -0.02   0.02     0.00  -0.02  -0.01
  43   1     0.05   0.03   0.06     0.00  -0.01   0.01     0.01   0.00   0.01
  44   1    -0.05   0.06  -0.10     0.01   0.03  -0.05    -0.00  -0.03  -0.01
  45   1     0.01   0.07   0.04     0.01   0.03   0.03     0.03   0.01   0.02
  46   1    -0.05   0.04   0.02    -0.03  -0.01   0.01    -0.00  -0.03  -0.02
  47   1    -0.00   0.00  -0.00    -0.00   0.01   0.01    -0.02   0.00  -0.00
  48   1    -0.00  -0.03   0.04     0.02  -0.05   0.02    -0.05   0.02   0.05
  49   1     0.02  -0.00  -0.02    -0.03   0.01   0.02     0.08  -0.01  -0.08
  50   1     0.00   0.01   0.02    -0.01  -0.02  -0.02     0.02   0.03   0.06
                     19                     20                     21
                        a                      a                      a 
 Frequencies --   293.4127               299.9302               314.0123
 Red. masses --     3.9341                 9.5975                 8.6334
 Frc consts  --     0.0000                 0.0000                 0.0000
 IR Inten    --     0.3968                 1.0549                 0.4414
 Raman Activ --     0.0000                 0.0000                 0.0000
 Depolar     --     0.0000                 0.0000                 0.0000
 Atom AN      X      Y      Z        X      Y      Z        X      Y      Z
   1   6     0.04   0.03   0.03     0.11  -0.01   0.00    -0.10  -0.09   0.04
   2   6     0.02  -0.02   0.02     0.11   0.01   0.02    -0.02   0.05   0.00
   3   6     0.03  -0.02  -0.11     0.07   0.05   0.05     0.02   0.09  -0.25
   4   6     0.03   0.00  -0.05     0.04   0.01   0.02    -0.06   0.02  -0.11
   5   6    -0.01   0.04   0.08     0.03   0.01  -0.02    -0.04  -0.13   0.18
   6   6    -0.05   0.04   0.09    -0.03   0.01  -0.05     0.06  -0.15   0.18
   7   6    -0.01  -0.01  -0.03    -0.03  -0.12  -0.04     0.03   0.10  -0.22
   8   8    -0.08  -0.08  -0.09    -0.15  -0.12  -0.17     0.07  -0.02  -0.05
   9   6    -0.06  -0.08  -0.03    -0.15  -0.08   0.04     0.03   0.08   0.01
  10   6    -0.10  -0.10   0.03    -0.26  -0.04   0.07    -0.01   0.08   0.04
  11   6    -0.11   0.04   0.05    -0.26   0.15   0.11     0.00   0.00   0.12
  12   6    -0.02   0.09   0.09    -0.12   0.26   0.10    -0.01   0.02   0.08
  13   6     0.01   0.06   0.02    -0.04   0.05  -0.04    -0.02  -0.04   0.00
  14   6     0.04   0.14  -0.04     0.01  -0.01  -0.02    -0.21  -0.14   0.14
  15   6    -0.06   0.05   0.00     0.19  -0.01  -0.04     0.08  -0.31  -0.10
  16   6     0.05   0.03  -0.04    -0.00  -0.01  -0.16     0.02   0.01  -0.08
  17   6     0.07  -0.00  -0.06     0.08  -0.01  -0.13     0.00   0.06  -0.06
  18   6     0.03  -0.03  -0.08     0.15   0.04  -0.02     0.01   0.09  -0.04
  19   6     0.06  -0.08  -0.01     0.12  -0.07  -0.00     0.00   0.10  -0.04
  20   8     0.01  -0.12   0.08    -0.06  -0.18   0.09    -0.13   0.07   0.05
  21   6     0.08  -0.06   0.00     0.12  -0.07  -0.01     0.05   0.05  -0.06
  22   6     0.06  -0.05  -0.02     0.08  -0.07  -0.07     0.03   0.04  -0.09
  23   6     0.01   0.08   0.07    -0.08   0.21   0.14     0.01   0.04   0.06
  24   6     0.02   0.01  -0.03    -0.03  -0.01   0.13     0.02   0.06   0.04
  25   6    -0.05   0.03   0.08     0.02   0.06  -0.03     0.11  -0.08   0.19
  26   6    -0.01  -0.01  -0.05     0.02   0.06   0.03     0.10   0.07  -0.07
  27   1    -0.00   0.02   0.07     0.03  -0.00  -0.02    -0.02  -0.08   0.15
  28   1     0.03   0.02  -0.05     0.03  -0.00   0.02    -0.05  -0.01  -0.12
  29   1    -0.01  -0.01   0.06     0.04   0.00  -0.01    -0.00   0.00   0.12
  30   1     0.01  -0.00  -0.02     0.00   0.01   0.01    -0.04   0.01  -0.05
  31   1    -0.00   0.02   0.04     0.02   0.01  -0.01    -0.04  -0.07   0.08
  32   1     0.02   0.01  -0.01     0.00  -0.08  -0.02     0.06   0.18  -0.06
  33   1     0.00  -0.01  -0.02     0.02  -0.03   0.02    -0.05   0.00  -0.20
  34   1    -0.04  -0.04   0.01    -0.09  -0.03   0.02    -0.01   0.03   0.00
  35   1    -0.05   0.04   0.00    -0.12   0.05   0.05    -0.00  -0.01   0.05
  36   1    -0.35   0.29  -0.01     0.09  -0.07  -0.01    -0.06  -0.11   0.01
  37   1     0.34   0.15  -0.28    -0.09  -0.03   0.06    -0.12  -0.06   0.09
  38   1     0.04  -0.31   0.25    -0.00   0.09  -0.07    -0.06   0.03   0.07
  39   1    -0.21   0.08   0.00     0.27  -0.08  -0.01    -0.05  -0.12   0.02
  40   1     0.13   0.12   0.10    -0.06  -0.09  -0.15     0.11  -0.03  -0.07
  41   1     0.03  -0.16  -0.09     0.02   0.14   0.13     0.05  -0.19  -0.07
  42   1     0.03  -0.00  -0.01     0.02  -0.01  -0.04    -0.01   0.02  -0.03
  43   1    -0.01  -0.01  -0.03     0.04   0.03   0.01     0.01   0.02  -0.01
  44   1     0.02  -0.04   0.04    -0.02  -0.09   0.03    -0.03  -0.01   0.02
  45   1     0.02  -0.01   0.00     0.04  -0.02  -0.00     0.02   0.01  -0.01
  46   1     0.02  -0.03  -0.02     0.05  -0.03  -0.02     0.01   0.00  -0.03
  47   1     0.02   0.03   0.02    -0.00   0.08   0.05     0.01   0.01   0.02
  48   1     0.03   0.01  -0.03     0.03  -0.03   0.04    -0.00   0.02   0.01
  49   1    -0.02   0.01   0.04     0.02   0.02  -0.01     0.06  -0.03   0.09
  50   1    -0.01  -0.01  -0.02    -0.00   0.01   0.01     0.05   0.05  -0.02
                     22                     23                     24
                        a                      a                      a 
 Frequencies --   320.4603               349.2372               369.9128
 Red. masses --     9.7387                 9.4841                 8.8774
 Frc consts  --     0.0000                 0.0000                 0.0000
 IR Inten    --     0.9381                 0.8469                 0.2182
 Raman Activ --     0.0000                 0.0000                 0.0000
 Depolar     --     0.0000                 0.0000                 0.0000
 Atom AN      X      Y      Z        X      Y      Z        X      Y      Z
   1   6     0.09   0.06  -0.03     0.00   0.09   0.01    -0.00  -0.02   0.00
   2   6     0.03  -0.04   0.01    -0.10  -0.11  -0.03     0.01  -0.00  -0.01
   3   6    -0.00  -0.05   0.17    -0.05  -0.14  -0.09    -0.01   0.02   0.01
   4   6     0.05  -0.01   0.07     0.03   0.01   0.03    -0.09   0.03   0.41
   5   6     0.03   0.10  -0.12    -0.04   0.20   0.04     0.08  -0.03  -0.41
   6   6    -0.06   0.11  -0.11    -0.05   0.20   0.00     0.01  -0.01   0.00
   7   6    -0.03  -0.10   0.16     0.10  -0.07   0.07     0.01  -0.00  -0.01
   8   8    -0.07  -0.11   0.10     0.14   0.03  -0.10     0.00  -0.01   0.01
   9   6    -0.06   0.01  -0.10     0.17  -0.12   0.04    -0.00   0.01  -0.01
  10   6    -0.05  -0.00  -0.09     0.10  -0.09   0.06    -0.01   0.01  -0.01
  11   6    -0.04  -0.03   0.00     0.05   0.18  -0.05    -0.00  -0.01   0.02
  12   6     0.03  -0.08   0.13     0.05   0.20  -0.05    -0.01  -0.02   0.01
  13   6     0.05  -0.04   0.13     0.02   0.05  -0.05    -0.01  -0.01   0.00
  14   6     0.06  -0.09   0.17    -0.23  -0.12   0.17     0.00   0.01  -0.02
  15   6     0.10  -0.39  -0.03    -0.20  -0.09  -0.18     0.02   0.01   0.02
  16   6     0.16   0.08   0.02    -0.05  -0.01  -0.03    -0.01  -0.01  -0.01
  17   6     0.06   0.13  -0.01    -0.04  -0.04  -0.04    -0.00  -0.00  -0.00
  18   6    -0.08   0.07  -0.14     0.05   0.01   0.07     0.00   0.00  -0.00
  19   6    -0.08   0.12  -0.13     0.04  -0.03   0.06     0.01   0.01   0.00
  20   8    -0.14   0.18   0.15     0.05  -0.06  -0.06    -0.02  -0.00   0.00
  21   6     0.01   0.05  -0.16    -0.01  -0.02   0.05     0.01   0.01   0.00
  22   6     0.09   0.10  -0.08    -0.02  -0.03   0.02    -0.01  -0.00  -0.01
  23   6     0.01  -0.04   0.08     0.19   0.15  -0.03    -0.01  -0.01   0.01
  24   6    -0.02   0.08  -0.12     0.23  -0.05   0.03    -0.01   0.01  -0.00
  25   6    -0.08   0.07  -0.13    -0.19   0.07   0.08    -0.07   0.02   0.41
  26   6    -0.07  -0.04   0.04    -0.11  -0.13  -0.05     0.09  -0.00  -0.41
  27   1     0.02   0.05  -0.10    -0.03   0.08   0.04     0.00  -0.01  -0.01
  28   1     0.04   0.01   0.08     0.06   0.03  -0.02    -0.00  -0.01   0.02
  29   1     0.01  -0.00  -0.08    -0.06  -0.03   0.02     0.01  -0.00  -0.00
  30   1     0.03  -0.00   0.03     0.06  -0.00   0.03    -0.06   0.01   0.25
  31   1     0.03   0.05  -0.05     0.00   0.08   0.02     0.05  -0.02  -0.26
  32   1    -0.05  -0.12   0.04     0.02  -0.12   0.01     0.00   0.01  -0.00
  33   1     0.05  -0.01   0.13     0.07  -0.00   0.11    -0.00  -0.00  -0.01
  34   1    -0.02  -0.00  -0.03     0.01  -0.06   0.03    -0.00   0.01  -0.00
  35   1    -0.03  -0.00   0.00    -0.02   0.07  -0.03     0.00  -0.01   0.01
  36   1     0.00  -0.04   0.04    -0.08  -0.14  -0.00     0.00   0.01  -0.00
  37   1     0.03  -0.02   0.07    -0.13  -0.05   0.12     0.00   0.00  -0.01
  38   1     0.02  -0.04   0.06    -0.07   0.04   0.10     0.00   0.00  -0.01
  39   1    -0.08  -0.16   0.06    -0.10  -0.07  -0.00     0.01   0.01  -0.00
  40   1     0.13  -0.04  -0.05    -0.08  -0.04  -0.06     0.01   0.00   0.00
  41   1     0.06  -0.24  -0.08    -0.07  -0.01  -0.13     0.01   0.00   0.02
  42   1     0.02   0.06  -0.01    -0.03  -0.03  -0.02    -0.00  -0.00   0.00
  43   1    -0.02   0.00  -0.06     0.01   0.02   0.03     0.00  -0.00  -0.00
  44   1    -0.01   0.01   0.07    -0.01  -0.01  -0.04    -0.00  -0.00   0.01
  45   1    -0.00  -0.00  -0.04    -0.01  -0.01   0.01     0.01   0.00   0.00
  46   1     0.03   0.03  -0.02    -0.00  -0.01   0.00    -0.01  -0.00  -0.01
  47   1     0.00  -0.03   0.04     0.08   0.07  -0.00    -0.00  -0.00   0.00
  48   1     0.01   0.03  -0.06     0.09  -0.03   0.01    -0.00   0.00  -0.00
  49   1    -0.04   0.02  -0.06    -0.11   0.03   0.04    -0.04   0.01   0.25
  50   1    -0.04  -0.03   0.01    -0.05  -0.05  -0.02     0.06  -0.01  -0.27
                     25                     26                     27
                        a                      a                      a 
 Frequencies --   371.9091               379.6681               381.1972
 Red. masses --     7.9244                10.4190                 9.2341
 Frc consts  --     0.0000                 0.0000                 0.0000
 IR Inten    --    26.3240                 0.2032                 0.3331
 Raman Activ --     0.0000                 0.0000                 0.0000
 Depolar     --     0.0000                 0.0000                 0.0000
 Atom AN      X      Y      Z        X      Y      Z        X      Y      Z
   1   6    -0.01  -0.00  -0.00     0.02  -0.03  -0.00    -0.02   0.01  -0.01
   2   6    -0.00   0.00   0.00     0.05   0.04   0.02    -0.04  -0.02   0.00
   3   6    -0.00   0.00   0.02     0.03   0.06   0.03    -0.03  -0.04   0.03
   4   6    -0.00  -0.00   0.00    -0.02  -0.01   0.01     0.02   0.00  -0.01
   5   6     0.00  -0.00  -0.01     0.02  -0.09  -0.04     0.00   0.05  -0.01
   6   6     0.00  -0.00   0.00    -0.00  -0.08   0.01     0.00   0.05   0.01
   7   6    -0.00   0.01   0.01    -0.07   0.04  -0.04     0.03  -0.02   0.07
   8   8    -0.00  -0.00   0.02    -0.11   0.10  -0.09     0.03  -0.01   0.04
   9   6    -0.01   0.01  -0.02    -0.07  -0.12   0.14     0.03   0.02  -0.06
  10   6    -0.00   0.03  -0.05    -0.04  -0.01   0.00    -0.03   0.27  -0.34
  11   6     0.01  -0.05   0.04    -0.03  -0.01  -0.07     0.06  -0.28   0.34
  12   6     0.01  -0.03   0.02    -0.02   0.11  -0.18     0.01  -0.01   0.05
  13   6     0.00  -0.01   0.02     0.04   0.09  -0.02    -0.01  -0.03   0.02
  14   6     0.01   0.04  -0.02     0.10  -0.13   0.14    -0.03   0.04  -0.02
  15   6     0.01  -0.00   0.03    -0.13  -0.03  -0.13     0.01  -0.03   0.04
  16   6    -0.00  -0.01  -0.00     0.17   0.14   0.14    -0.05  -0.04  -0.03
  17   6    -0.28  -0.19  -0.27     0.17   0.12   0.13    -0.02  -0.02  -0.00
  18   6     0.23   0.16   0.21    -0.11  -0.07  -0.07     0.03   0.01  -0.02
  19   6     0.02   0.02  -0.00    -0.17  -0.17  -0.11     0.07   0.06   0.02
  20   8     0.04   0.05   0.09     0.20   0.03   0.06    -0.10  -0.02   0.00
  21   6    -0.23  -0.15  -0.25    -0.16  -0.13  -0.08     0.09   0.07   0.03
  22   6     0.25   0.18   0.24     0.18   0.09   0.18    -0.09  -0.04  -0.08
  23   6    -0.00   0.00  -0.02    -0.10   0.20  -0.25    -0.00   0.25  -0.26
  24   6    -0.00  -0.03   0.01    -0.05  -0.16   0.21     0.09  -0.26   0.24
  25   6     0.00  -0.00  -0.01     0.05  -0.02   0.01    -0.02   0.01  -0.03
  26   6     0.00  -0.00  -0.00     0.04   0.05  -0.02    -0.02  -0.04   0.00
  27   1     0.00  -0.00  -0.01     0.02  -0.03  -0.01    -0.01   0.01  -0.02
  28   1    -0.00  -0.00   0.01    -0.01  -0.01   0.01    -0.00   0.00   0.02
  29   1     0.00   0.00  -0.01     0.03   0.01  -0.00    -0.01  -0.00  -0.02
  30   1    -0.00  -0.00  -0.00    -0.03   0.00   0.00     0.02  -0.00  -0.01
  31   1     0.00  -0.00  -0.01     0.00  -0.03  -0.03     0.00   0.02  -0.01
  32   1    -0.00   0.01   0.00     0.00   0.03  -0.01     0.01  -0.03   0.02
  33   1    -0.00   0.00   0.00    -0.05   0.01  -0.02     0.02  -0.00   0.04
  34   1    -0.00   0.02  -0.03    -0.00   0.02  -0.01    -0.03   0.16  -0.19
  35   1     0.01  -0.03   0.02    -0.01  -0.01  -0.01     0.03  -0.18   0.20
  36   1    -0.01   0.03   0.00     0.02  -0.10   0.01    -0.04   0.06   0.00
  37   1     0.02   0.02  -0.03     0.07  -0.02   0.12     0.01   0.02  -0.06
  38   1     0.00  -0.00   0.00     0.03  -0.08   0.04    -0.01  -0.02   0.02
  39   1    -0.04   0.02   0.01    -0.09  -0.05   0.01     0.01  -0.00   0.00
  40   1     0.04   0.03   0.03    -0.04  -0.01  -0.03     0.01  -0.01   0.01
  41   1     0.01  -0.04  -0.01    -0.04  -0.01  -0.12     0.00  -0.01   0.02
  42   1    -0.16  -0.11  -0.16     0.07   0.05   0.06    -0.00  -0.01   0.00
  43   1     0.14   0.09   0.13    -0.05  -0.01  -0.01     0.01  -0.01  -0.02
  44   1    -0.25  -0.18  -0.23     0.07   0.06   0.03     0.01  -0.01   0.03
  45   1    -0.14  -0.09  -0.14    -0.06  -0.05  -0.03     0.04   0.03   0.02
  46   1     0.15   0.11   0.15     0.10   0.04   0.08    -0.05  -0.02  -0.04
  47   1    -0.00   0.01  -0.01    -0.05   0.09  -0.13    -0.00   0.15  -0.15
  48   1     0.00  -0.01   0.01    -0.01  -0.08   0.09     0.05  -0.15   0.15
  49   1     0.00  -0.00  -0.00     0.04  -0.01   0.00    -0.02   0.00  -0.02
  50   1     0.00  -0.00  -0.00     0.02   0.02  -0.02    -0.01  -0.01  -0.00
                     28                     29                     30
                        a                      a                      a 
 Frequencies --   394.8513               406.1743               413.8202
 Red. masses --    10.9451                 9.8072                 3.5127
 Frc consts  --     0.0000                 0.0000                 0.0000
 IR Inten    --    10.5647                 2.6414               138.2918
 Raman Activ --     0.0000                 0.0000                 0.0000
 Depolar     --     0.0000                 0.0000                 0.0000
 Atom AN      X      Y      Z        X      Y      Z        X      Y      Z
   1   6     0.10   0.00   0.02    -0.29  -0.02  -0.08     0.03  -0.00   0.01
   2   6     0.08  -0.03   0.00    -0.20   0.12   0.05     0.03  -0.00  -0.00
   3   6     0.03   0.03  -0.02    -0.08  -0.07   0.24     0.01   0.02  -0.01
   4   6    -0.01   0.00   0.02     0.08  -0.01  -0.09    -0.01  -0.00   0.01
   5   6    -0.03   0.00   0.01     0.13  -0.01  -0.11    -0.01  -0.02   0.00
   6   6    -0.06  -0.00  -0.05     0.13   0.01   0.27    -0.01  -0.02  -0.02
   7   6    -0.04  -0.10  -0.02     0.07   0.28   0.15    -0.02  -0.01  -0.01
   8   8    -0.02  -0.14   0.03    -0.10   0.13   0.12    -0.02   0.02  -0.02
   9   6    -0.06   0.12  -0.09    -0.02  -0.13  -0.13    -0.01  -0.02   0.04
  10   6    -0.04   0.11  -0.08    -0.05  -0.16  -0.08     0.01  -0.01   0.01
  11   6     0.01  -0.11   0.15    -0.10   0.04   0.03     0.01   0.01  -0.04
  12   6     0.04  -0.06   0.12    -0.01   0.09   0.07     0.01   0.00  -0.03
  13   6     0.05   0.02  -0.08     0.01   0.07   0.01     0.01   0.01   0.02
  14   6    -0.07  -0.04   0.01     0.01   0.01   0.06     0.02   0.01   0.03
  15   6     0.05   0.03  -0.08     0.00  -0.03  -0.04    -0.02  -0.02   0.00
  16   6     0.12   0.06  -0.16     0.01   0.04  -0.08     0.04   0.02   0.04
  17   6     0.02   0.15  -0.12     0.00   0.03  -0.08     0.08   0.05   0.08
  18   6    -0.22   0.03   0.19    -0.03   0.02   0.03    -0.15  -0.11  -0.16
  19   6    -0.19  -0.08   0.25     0.00  -0.03   0.10     0.05   0.04   0.04
  20   8     0.31   0.07  -0.34     0.08  -0.04  -0.08     0.14   0.10   0.15
  21   6    -0.13  -0.14   0.22    -0.00  -0.03   0.09     0.12   0.08   0.10
  22   6     0.14  -0.07  -0.08     0.00  -0.05  -0.06    -0.10  -0.07  -0.09
  23   6     0.00  -0.03   0.12     0.05   0.04   0.09    -0.01   0.02  -0.04
  24   6    -0.02   0.09  -0.00     0.06  -0.08  -0.12    -0.01  -0.01   0.02
  25   6    -0.04   0.04   0.01     0.13  -0.12  -0.10    -0.00   0.00   0.00
  26   6    -0.03   0.04   0.01     0.12  -0.11  -0.08    -0.01   0.02   0.00
  27   1     0.02   0.01   0.02    -0.04  -0.05  -0.16     0.01   0.00   0.01
  28   1     0.05   0.00  -0.01    -0.16  -0.02   0.09     0.01   0.00  -0.01
  29   1     0.02  -0.01   0.02    -0.05   0.04  -0.10     0.01  -0.00   0.01
  30   1    -0.01   0.00   0.01     0.06  -0.01  -0.09    -0.01   0.00   0.00
  31   1    -0.00   0.01   0.01     0.04  -0.02  -0.11    -0.00  -0.00   0.00
  32   1    -0.02  -0.04  -0.00     0.06   0.16   0.04    -0.01  -0.00  -0.00
  33   1     0.01  -0.03   0.00    -0.03   0.06  -0.04    -0.01  -0.00  -0.00
  34   1    -0.01   0.04  -0.03    -0.04  -0.07  -0.03     0.01   0.00   0.00
  35   1    -0.00  -0.06   0.08    -0.07   0.02   0.02     0.00   0.01  -0.02
  36   1    -0.07  -0.03  -0.02    -0.01  -0.01   0.01     0.01  -0.00   0.01
  37   1    -0.02  -0.01   0.00     0.00   0.01   0.03     0.01   0.00   0.01
  38   1    -0.02  -0.01   0.06     0.00   0.00   0.03     0.01   0.00   0.00
  39   1     0.03   0.00  -0.02     0.01  -0.04   0.01    -0.00  -0.02   0.01
  40   1     0.02   0.01  -0.04    -0.00  -0.01  -0.05    -0.02  -0.02  -0.01
  41   1     0.02   0.00  -0.01     0.00  -0.01  -0.02    -0.01   0.01  -0.01
  42   1    -0.00   0.10  -0.07    -0.01   0.02  -0.04     0.03   0.02   0.03
  43   1    -0.13   0.07   0.08    -0.04   0.02   0.02    -0.10  -0.07  -0.10
  44   1     0.01   0.17  -0.19    -0.02   0.01  -0.07    -0.56  -0.38  -0.54
  45   1    -0.03  -0.11   0.10     0.00  -0.02   0.03     0.05   0.03   0.04
  46   1     0.09  -0.07  -0.04     0.01  -0.04  -0.03    -0.08  -0.05  -0.07
  47   1    -0.00  -0.02   0.05     0.04   0.02   0.04    -0.01   0.01  -0.02
  48   1     0.00   0.02   0.00     0.07  -0.03  -0.06    -0.01  -0.00   0.01
  49   1    -0.00   0.01   0.01     0.03  -0.03  -0.11     0.00   0.00   0.01
  50   1    -0.02   0.01   0.01     0.06  -0.03  -0.10    -0.00   0.01   0.01
                     31                     32                     33
                        a                      a                      a 
 Frequencies --   442.8817               457.4545               476.3833
 Red. masses --    10.4951                 9.9944                 9.6314
 Frc consts  --     0.0000                 0.0000                 0.0000
 IR Inten    --     3.3952                 1.4085                 3.8424
 Raman Activ --     0.0000                 0.0000                 0.0000
 Depolar     --     0.0000                 0.0000                 0.0000
 Atom AN      X      Y      Z        X      Y      Z        X      Y      Z
   1   6     0.23  -0.02   0.02    -0.20   0.01  -0.01     0.12   0.00  -0.04
   2   6     0.19  -0.04   0.04    -0.14   0.08  -0.06     0.03  -0.10   0.15
   3   6     0.03   0.15   0.05     0.02  -0.11  -0.11    -0.09   0.04   0.31
   4   6    -0.11  -0.00  -0.01     0.09  -0.01   0.06    -0.01   0.03  -0.21
   5   6    -0.06  -0.16  -0.03     0.07   0.10   0.04    -0.07   0.04  -0.00
   6   6    -0.13  -0.15  -0.00     0.12   0.09  -0.09    -0.14   0.05   0.43
   7   6    -0.23   0.07   0.02     0.15  -0.04  -0.05     0.05  -0.14  -0.13
   8   8    -0.14   0.17   0.05     0.05  -0.00  -0.16     0.03  -0.18  -0.24
   9   6    -0.01  -0.16   0.07     0.01  -0.14   0.29     0.00   0.01   0.17
  10   6     0.08  -0.12  -0.05    -0.06   0.05   0.11     0.03   0.09   0.10
  11   6     0.05   0.02  -0.15    -0.06   0.10  -0.17     0.06   0.04  -0.06
  12   6     0.12  -0.01  -0.02    -0.07  -0.14   0.03     0.05  -0.06   0.02
  13   6     0.12   0.06   0.17    -0.03  -0.12   0.19     0.04  -0.12  -0.01
  14   6     0.07   0.17   0.18     0.07   0.12  -0.00    -0.06  -0.03  -0.08
  15   6    -0.08  -0.12   0.06    -0.03  -0.15   0.27    -0.01   0.01   0.06
  16   6     0.05   0.01  -0.02     0.14  -0.02  -0.09     0.03  -0.10   0.00
  17   6    -0.14  -0.08  -0.18     0.01   0.03  -0.13    -0.01  -0.03   0.05
  18   6     0.04   0.06   0.08    -0.07   0.04   0.08    -0.03  -0.02   0.04
  19   6     0.15   0.13   0.20    -0.04   0.07   0.12    -0.06   0.05  -0.03
  20   8    -0.09  -0.05  -0.14    -0.02   0.08  -0.11    -0.04   0.11  -0.01
  21   6     0.04   0.01   0.05     0.01  -0.04   0.03     0.03   0.00  -0.03
  22   6    -0.09  -0.10  -0.17     0.10  -0.03  -0.16     0.05  -0.00  -0.02
  23   6     0.06   0.07  -0.10    -0.13   0.07  -0.20     0.01   0.03  -0.04
  24   6     0.05  -0.06  -0.00    -0.10  -0.01   0.08     0.01   0.12   0.11
  25   6    -0.02  -0.02  -0.03     0.04   0.01   0.04    -0.07   0.04  -0.02
  26   6    -0.07   0.16  -0.01     0.08  -0.12   0.05    -0.04   0.04  -0.19
  27   1     0.06   0.02  -0.00    -0.05  -0.04   0.04     0.03   0.06  -0.18
  28   1     0.09  -0.00   0.02    -0.10   0.00  -0.04     0.07  -0.01   0.13
  29   1     0.08  -0.01   0.01    -0.06   0.02   0.01     0.04  -0.02  -0.07
  30   1    -0.09   0.01  -0.02     0.06  -0.01   0.06     0.03   0.00  -0.22
  31   1    -0.02  -0.05  -0.02     0.02   0.04   0.05     0.01   0.01  -0.12
  32   1    -0.07   0.05   0.01     0.05  -0.07  -0.02     0.12   0.01  -0.05
  33   1    -0.12   0.02  -0.01     0.07  -0.00   0.03     0.01  -0.05  -0.09
  34   1     0.02  -0.02  -0.03    -0.00   0.07  -0.01     0.04   0.07   0.02
  35   1    -0.00   0.04  -0.07     0.00   0.08  -0.12     0.03   0.03  -0.05
  36   1     0.02   0.06   0.06     0.08   0.11   0.05    -0.01   0.01  -0.01
  37   1    -0.00   0.04   0.03     0.01   0.02  -0.06    -0.04  -0.02  -0.06
  38   1     0.02   0.07   0.06     0.02   0.04  -0.07    -0.02   0.02  -0.01
  39   1    -0.05  -0.09   0.07     0.01  -0.04   0.07    -0.01   0.04  -0.01
  40   1    -0.05  -0.06  -0.01    -0.00  -0.04   0.06    -0.01  -0.00   0.06
  41   1    -0.03  -0.01  -0.06    -0.00  -0.05   0.09    -0.01   0.02   0.02
  42   1    -0.09  -0.04  -0.11    -0.02   0.05  -0.08     0.00   0.01   0.01
  43   1    -0.02   0.01   0.00    -0.05   0.02   0.02     0.01  -0.02   0.01
  44   1     0.05   0.06   0.03     0.01   0.08  -0.02    -0.01   0.03  -0.01
  45   1    -0.02  -0.03  -0.00    -0.00  -0.07   0.03     0.02  -0.01   0.01
  46   1    -0.06  -0.07  -0.09     0.04  -0.04  -0.07     0.01   0.02   0.01
  47   1     0.00   0.04  -0.06    -0.06   0.07  -0.13    -0.02   0.02  -0.05
  48   1     0.04  -0.01  -0.03    -0.08   0.05  -0.01    -0.03   0.06   0.01
  49   1     0.05  -0.01  -0.01    -0.03   0.01   0.04     0.01   0.01  -0.13
  50   1    -0.01   0.05  -0.01     0.01  -0.04   0.05     0.02  -0.00  -0.22
                     34                     35                     36
                        a                      a                      a 
 Frequencies --   485.4949               512.9756               536.2444
 Red. masses --    10.0592                10.1270                 9.3241
 Frc consts  --     0.0000                 0.0000                 0.0000
 IR Inten    --     2.6963                 5.0325                 0.5478
 Raman Activ --     0.0000                 0.0000                 0.0000
 Depolar     --     0.0000                 0.0000                 0.0000
 Atom AN      X      Y      Z        X      Y      Z        X      Y      Z
   1   6     0.12  -0.00   0.02     0.18   0.00   0.01     0.05  -0.00   0.01
   2   6     0.05  -0.09  -0.02    -0.05  -0.37  -0.02    -0.08  -0.22  -0.06
   3   6    -0.04   0.06  -0.04    -0.24   0.05   0.01    -0.14   0.01  -0.05
   4   6    -0.09   0.04   0.03    -0.16   0.20  -0.03    -0.07   0.15   0.04
   5   6    -0.04  -0.07  -0.03    -0.09   0.05  -0.04     0.00   0.04  -0.05
   6   6     0.01  -0.07  -0.07     0.14   0.00   0.07     0.15   0.01  -0.01
   7   6    -0.06   0.12   0.09     0.19   0.06   0.02     0.12   0.07   0.04
   8   8     0.02   0.21   0.09     0.19   0.06   0.03    -0.04   0.00  -0.02
   9   6     0.12  -0.24   0.03     0.12   0.05  -0.02    -0.05  -0.08   0.05
  10   6     0.03  -0.09  -0.09    -0.04   0.05   0.07    -0.07  -0.00  -0.03
  11   6    -0.04   0.18   0.06    -0.07   0.00   0.02    -0.06   0.03   0.05
  12   6    -0.03   0.01   0.21    -0.19  -0.04  -0.06     0.01  -0.01   0.10
  13   6    -0.05  -0.24  -0.03    -0.20   0.11   0.10     0.06  -0.07  -0.15
  14   6    -0.13  -0.09  -0.22     0.08   0.06   0.06    -0.04  -0.14  -0.13
  15   6     0.01  -0.01   0.14     0.01  -0.09   0.09     0.03   0.11  -0.12
  16   6    -0.03  -0.20  -0.13    -0.09   0.15  -0.10     0.28   0.07   0.29
  17   6     0.08   0.02   0.10     0.07   0.10  -0.12    -0.03  -0.05   0.09
  18   6    -0.05  -0.03   0.07     0.03   0.07  -0.07    -0.09  -0.09  -0.03
  19   6    -0.25  -0.02  -0.16     0.01  -0.14  -0.00     0.23   0.24   0.23
  20   8    -0.00   0.20   0.03     0.11  -0.17   0.04    -0.11   0.06  -0.08
  21   6     0.05  -0.01  -0.03    -0.07   0.01   0.08    -0.04  -0.08  -0.14
  22   6     0.16   0.03  -0.01    -0.03   0.05   0.01     0.05  -0.03   0.03
  23   6     0.07   0.15   0.02    -0.05  -0.12  -0.09    -0.07   0.07   0.08
  24   6     0.11  -0.11  -0.12    -0.04  -0.09  -0.07    -0.05   0.02  -0.01
  25   6    -0.00  -0.06  -0.02     0.05  -0.11  -0.02     0.09  -0.09  -0.03
  26   6    -0.06   0.06   0.03    -0.05   0.05   0.01     0.01   0.00   0.07
  27   1     0.01   0.04   0.03    -0.04   0.17  -0.00    -0.05   0.10   0.04
  28   1     0.09   0.00  -0.01     0.24   0.01   0.04     0.13   0.01  -0.01
  29   1     0.02  -0.03   0.01     0.00  -0.10  -0.01    -0.02  -0.06   0.00
  30   1    -0.05   0.02   0.03    -0.04   0.06  -0.03    -0.01   0.04   0.03
  31   1    -0.03  -0.04   0.01    -0.07  -0.05  -0.04    -0.03  -0.03  -0.01
  32   1    -0.04   0.04   0.03     0.06   0.03   0.01     0.04   0.02   0.01
  33   1    -0.06   0.04   0.03     0.04   0.01  -0.01     0.03   0.02   0.01
  34   1    -0.05  -0.02  -0.09    -0.03  -0.01   0.02    -0.03   0.02  -0.04
  35   1    -0.06   0.10  -0.02     0.03  -0.02  -0.00    -0.05   0.04  -0.00
  36   1    -0.02   0.03  -0.03     0.08   0.03   0.04    -0.05  -0.08  -0.06
  37   1    -0.08  -0.05  -0.14     0.07   0.04   0.05    -0.01  -0.04  -0.01
  38   1    -0.04   0.02  -0.06     0.02  -0.04  -0.06    -0.01  -0.04   0.00
  39   1     0.03   0.08  -0.03     0.03  -0.07   0.05     0.02   0.08  -0.08
  40   1     0.02   0.01   0.10     0.04  -0.00  -0.07    -0.01   0.02   0.03
  41   1     0.01  -0.00   0.10     0.02  -0.08   0.07     0.00   0.05  -0.01
  42   1     0.08   0.08   0.07     0.04   0.03  -0.01    -0.12  -0.08  -0.08
  43   1     0.06   0.02   0.07    -0.02   0.07   0.01    -0.12  -0.13  -0.14
  44   1    -0.04   0.04  -0.03     0.02  -0.04  -0.00     0.02   0.04   0.02
  45   1     0.07  -0.00   0.07    -0.00   0.04   0.03    -0.13  -0.12  -0.15
  46   1     0.09   0.06   0.06     0.04  -0.01   0.00    -0.11  -0.05  -0.08
  47   1     0.06   0.12  -0.02     0.00  -0.03  -0.01    -0.02   0.05   0.00
  48   1     0.07   0.00  -0.10    -0.06  -0.02   0.01    -0.00   0.03  -0.04
  49   1     0.01  -0.02   0.01     0.01  -0.03  -0.03     0.02  -0.02  -0.01
  50   1    -0.01   0.04   0.04     0.04   0.08  -0.01     0.04   0.05   0.04
                     37                     38                     39
                        a                      a                      a 
 Frequencies --   542.7546               562.4387               606.3407
 Red. masses --     9.2739                10.0691                11.2139
 Frc consts  --     0.0000                 0.0000                 0.0000
 IR Inten    --     4.2201                 1.6793                 0.1546
 Raman Activ --     0.0000                 0.0000                 0.0000
 Depolar     --     0.0000                 0.0000                 0.0000
 Atom AN      X      Y      Z        X      Y      Z        X      Y      Z
   1   6    -0.01   0.00  -0.00    -0.01  -0.00   0.02     0.04  -0.04   0.02
   2   6     0.03   0.07   0.02    -0.10  -0.19  -0.10     0.01  -0.06  -0.05
   3   6     0.05  -0.00   0.02    -0.12  -0.00  -0.08     0.01  -0.09   0.03
   4   6     0.02  -0.05  -0.01    -0.03   0.16   0.08    -0.20  -0.28  -0.00
   5   6    -0.00  -0.01   0.02     0.06   0.05  -0.08    -0.34   0.11  -0.10
   6   6    -0.05  -0.00  -0.00     0.17   0.02   0.00    -0.03   0.10   0.05
   7   6    -0.04  -0.02  -0.01     0.09   0.06   0.04     0.04  -0.02  -0.06
   8   8     0.01   0.07  -0.05    -0.22  -0.10  -0.07    -0.01  -0.01  -0.03
   9   6     0.08  -0.30   0.33    -0.21  -0.05   0.11    -0.01  -0.05  -0.04
  10   6    -0.00   0.12  -0.12    -0.04  -0.01  -0.06     0.26  -0.08  -0.11
  11   6     0.02  -0.04   0.05     0.02  -0.16  -0.10     0.22   0.16   0.11
  12   6     0.04  -0.30   0.31     0.21  -0.05   0.02     0.01   0.05   0.04
  13   6    -0.07   0.13  -0.10     0.25   0.08  -0.01     0.02   0.01   0.01
  14   6    -0.01  -0.04  -0.00     0.04   0.12   0.16     0.01   0.03   0.05
  15   6     0.09   0.07  -0.18     0.01   0.07  -0.14    -0.00  -0.00   0.00
  16   6    -0.12   0.16   0.02    -0.13  -0.16  -0.08    -0.01   0.01   0.00
  17   6    -0.03   0.07  -0.03    -0.10  -0.07   0.04    -0.04   0.02   0.00
  18   6     0.04   0.07  -0.10     0.07   0.03   0.08     0.01   0.04  -0.02
  19   6     0.08  -0.10  -0.00    -0.17  -0.07  -0.19    -0.00  -0.01  -0.02
  20   8     0.09  -0.18   0.04    -0.00   0.09   0.01     0.02  -0.01  -0.00
  21   6    -0.08   0.05   0.05     0.14   0.03   0.03     0.02  -0.01   0.00
  22   6    -0.13   0.05   0.10    -0.05  -0.10  -0.01    -0.02  -0.03   0.02
  23   6     0.03  -0.06   0.02    -0.02   0.03   0.08    -0.28   0.09   0.12
  24   6     0.01   0.09  -0.12    -0.06   0.17   0.12    -0.24  -0.15  -0.10
  25   6    -0.04   0.03   0.01     0.13  -0.09  -0.06     0.19   0.30  -0.00
  26   6    -0.01  -0.00  -0.02     0.05  -0.01   0.11     0.32  -0.09   0.09
  27   1     0.02  -0.03  -0.01    -0.06   0.08   0.07    -0.01   0.01   0.05
  28   1    -0.05  -0.00   0.00     0.11   0.01  -0.04     0.05  -0.00  -0.04
  29   1     0.01   0.02  -0.00    -0.03  -0.06   0.01     0.00  -0.02   0.02
  30   1     0.00  -0.01  -0.01     0.00   0.04   0.06    -0.01  -0.08  -0.02
  31   1     0.01   0.01   0.01    -0.02  -0.03  -0.02    -0.07   0.05  -0.06
  32   1    -0.00  -0.02  -0.01     0.06   0.02   0.00     0.03   0.03  -0.02
  33   1    -0.02  -0.00   0.01     0.04   0.01   0.00     0.01  -0.01  -0.04
  34   1    -0.03   0.19  -0.20     0.04   0.07  -0.03     0.05  -0.03  -0.04
  35   1    -0.01   0.11  -0.12    -0.03  -0.01  -0.05     0.03   0.05   0.04
  36   1    -0.01  -0.08  -0.03    -0.04   0.01   0.02     0.00   0.01   0.01
  37   1     0.02   0.00   0.07    -0.04   0.01   0.03    -0.00   0.01   0.01
  38   1    -0.00  -0.04   0.00     0.01   0.09   0.12     0.00   0.02   0.01
  39   1     0.05   0.01  -0.05    -0.04  -0.01  -0.01    -0.01  -0.01   0.01
  40   1     0.07   0.05  -0.10    -0.03  -0.00  -0.02    -0.01  -0.00  -0.00
  41   1     0.04  -0.03   0.00    -0.01   0.05  -0.13    -0.00   0.00  -0.01
  42   1    -0.00  -0.02   0.02     0.04   0.02   0.08    -0.00   0.01   0.01
  43   1    -0.01   0.04  -0.02     0.13   0.04   0.09     0.01   0.02   0.00
  44   1     0.02  -0.05   0.01    -0.02   0.00  -0.02     0.00  -0.00  -0.00
  45   1    -0.03   0.06  -0.01     0.12   0.06   0.09     0.01   0.01   0.00
  46   1    -0.03  -0.00   0.02     0.03   0.04   0.07    -0.00  -0.00   0.01
  47   1    -0.01   0.11  -0.14    -0.07  -0.00  -0.04    -0.07   0.03   0.04
  48   1    -0.03   0.18  -0.20    -0.00   0.08  -0.01    -0.05  -0.05  -0.04
  49   1    -0.01   0.01   0.00     0.03  -0.02  -0.01     0.02   0.09  -0.04
  50   1    -0.02  -0.02  -0.01     0.05   0.05   0.07     0.07  -0.05  -0.00
                     40                     41                     42
                        a                      a                      a 
 Frequencies --   610.4285               612.9593               621.9378
 Red. masses --    10.8900                11.4255                 8.4125
 Frc consts  --     0.0000                 0.0000                 0.0000
 IR Inten    --     0.2278                 1.5084                 1.6551
 Raman Activ --     0.0000                 0.0000                 0.0000
 Depolar     --     0.0000                 0.0000                 0.0000
 Atom AN      X      Y      Z        X      Y      Z        X      Y      Z
   1   6     0.03  -0.03   0.04     0.01  -0.01  -0.00     0.02  -0.02  -0.09
   2   6     0.05  -0.00  -0.14     0.01   0.00   0.01    -0.07  -0.12   0.36
   3   6     0.03  -0.06   0.02     0.01  -0.01   0.01    -0.03  -0.02  -0.02
   4   6    -0.17  -0.24   0.08    -0.04  -0.07  -0.02    -0.05  -0.07  -0.25
   5   6    -0.25   0.05  -0.15    -0.08   0.01  -0.00    -0.18   0.04   0.18
   6   6    -0.06   0.07   0.11    -0.01   0.01  -0.01     0.10   0.01  -0.34
   7   6    -0.03   0.08   0.06    -0.01   0.03   0.01    -0.00   0.05  -0.01
   8   8    -0.01   0.07   0.05     0.05   0.05   0.04     0.01   0.08   0.06
   9   6     0.01   0.05   0.04     0.04   0.03  -0.00    -0.01  -0.02   0.02
  10   6    -0.27   0.07   0.11    -0.13   0.03   0.06    -0.12   0.01   0.00
  11   6    -0.23  -0.17  -0.12    -0.12  -0.05  -0.04    -0.10  -0.08  -0.03
  12   6    -0.00  -0.05  -0.05    -0.04  -0.02  -0.01     0.00  -0.01  -0.01
  13   6    -0.03  -0.01  -0.01    -0.02  -0.01   0.01     0.05   0.03  -0.01
  14   6    -0.01  -0.04  -0.06     0.00  -0.01  -0.01     0.02   0.03   0.03
  15   6     0.00   0.00  -0.01    -0.02  -0.02   0.06     0.02   0.04  -0.07
  16   6     0.02   0.00  -0.02    -0.05  -0.04   0.07     0.03  -0.03   0.00
  17   6     0.11  -0.08  -0.03    -0.33   0.27   0.16     0.03  -0.08  -0.00
  18   6     0.00  -0.12   0.06    -0.05   0.36  -0.22     0.01  -0.08   0.07
  19   6    -0.00   0.01   0.04     0.05   0.03  -0.06    -0.04   0.01  -0.01
  20   8    -0.04   0.00   0.03     0.09   0.03  -0.12    -0.04   0.05   0.01
  21   6    -0.09   0.07   0.02     0.31  -0.28  -0.14     0.01   0.02   0.01
  22   6     0.01   0.11  -0.06     0.04  -0.39   0.24     0.01   0.01  -0.05
  23   6     0.32  -0.09  -0.13     0.10  -0.05  -0.07     0.04  -0.03  -0.01
  24   6     0.27   0.16   0.10     0.09   0.02   0.02     0.02   0.03   0.00
  25   6     0.14   0.21  -0.08     0.02   0.06   0.01     0.09   0.11   0.23
  26   6     0.21  -0.06   0.14     0.05  -0.01  -0.00     0.21  -0.03  -0.20
  27   1    -0.01  -0.02   0.14     0.01  -0.00  -0.01     0.02   0.07  -0.34
  28   1     0.03   0.01  -0.10     0.00  -0.00   0.01     0.02  -0.03   0.27
  29   1     0.00  -0.01   0.05     0.01   0.00  -0.00     0.02  -0.01  -0.12
  30   1    -0.02  -0.07  -0.00    -0.01  -0.02  -0.00    -0.02  -0.02   0.04
  31   1    -0.04   0.03  -0.10    -0.02   0.01   0.00    -0.09   0.01   0.21
  32   1     0.00   0.06   0.02    -0.01   0.01   0.01    -0.06  -0.01   0.01
  33   1    -0.04   0.02  -0.02    -0.01   0.01   0.00     0.01   0.02   0.02
  34   1    -0.05   0.03   0.04    -0.04   0.00   0.02    -0.03   0.01  -0.00
  35   1    -0.04  -0.05  -0.04    -0.02  -0.02  -0.01    -0.03  -0.02  -0.01
  36   1    -0.01  -0.01  -0.02     0.01   0.01   0.01    -0.01  -0.00   0.00
  37   1     0.00  -0.01  -0.01     0.00  -0.00  -0.01     0.00   0.01   0.02
  38   1    -0.00  -0.02  -0.02     0.00  -0.00  -0.01     0.01   0.01   0.03
  39   1     0.01   0.01  -0.01     0.00  -0.01   0.01    -0.01   0.00  -0.01
  40   1     0.01   0.01   0.00    -0.01  -0.01   0.01    -0.00   0.01  -0.02
  41   1     0.00  -0.00   0.01    -0.01  -0.01   0.03     0.00   0.02  -0.04
  42   1     0.02  -0.02  -0.02    -0.09   0.05   0.05     0.01  -0.01  -0.00
  43   1    -0.01  -0.03   0.01     0.01   0.08  -0.07     0.02  -0.03   0.02
  44   1    -0.00  -0.01   0.01     0.01   0.05  -0.05    -0.01   0.01   0.00
  45   1    -0.03   0.00   0.01     0.08  -0.06  -0.05     0.01  -0.00   0.02
  46   1     0.01   0.02  -0.03    -0.02  -0.08   0.08     0.00   0.01  -0.01
  47   1     0.08  -0.03  -0.04     0.03  -0.01  -0.01     0.00  -0.01  -0.01
  48   1     0.06   0.05   0.03     0.01   0.01   0.02     0.00   0.02  -0.00
  49   1     0.02   0.06  -0.08    -0.00   0.02   0.00    -0.01   0.04   0.21
  50   1     0.05  -0.04   0.01     0.01  -0.01  -0.00     0.04   0.01   0.04
                     43                     44                     45
                        a                      a                      a 
 Frequencies --   658.4803               683.6182               694.6968
 Red. masses --    11.1858                11.3275                11.0981
 Frc consts  --     0.0000                 0.0000                 0.0000
 IR Inten    --    10.1558                10.1414                 1.1386
 Raman Activ --     0.0000                 0.0000                 0.0000
 Depolar     --     0.0000                 0.0000                 0.0000
 Atom AN      X      Y      Z        X      Y      Z        X      Y      Z
   1   6     0.02   0.01   0.02    -0.00  -0.00  -0.00     0.00   0.00   0.01
   2   6     0.06   0.08  -0.07    -0.01  -0.01   0.01     0.01   0.01  -0.04
   3   6     0.02   0.01   0.07     0.00  -0.00  -0.02    -0.01   0.00   0.07
   4   6    -0.01  -0.04   0.01     0.00   0.01   0.00     0.00  -0.01  -0.02
   5   6    -0.02  -0.01   0.01     0.01   0.00  -0.01    -0.01   0.00   0.03
   6   6    -0.04   0.00   0.04     0.00   0.00   0.00     0.01  -0.00  -0.04
   7   6     0.06  -0.03  -0.03    -0.01   0.00  -0.00     0.02  -0.01  -0.01
   8   8     0.26   0.11   0.04    -0.04   0.01  -0.04     0.07   0.00   0.05
   9   6     0.19  -0.08   0.10     0.02  -0.23   0.25    -0.00   0.22  -0.23
  10   6    -0.15   0.13   0.02     0.01   0.13  -0.17    -0.01  -0.12   0.16
  11   6    -0.14  -0.02   0.15     0.06  -0.14   0.12    -0.06   0.09  -0.12
  12   6    -0.19   0.06  -0.08    -0.03   0.26  -0.30     0.03  -0.28   0.30
  13   6     0.02   0.16  -0.01    -0.00   0.01   0.05     0.04   0.09  -0.01
  14   6     0.09   0.15   0.18     0.01   0.06   0.06     0.05   0.12   0.13
  15   6     0.04   0.13  -0.21    -0.03  -0.04   0.08     0.05   0.08  -0.16
  16   6     0.13  -0.07   0.07    -0.26  -0.19  -0.26    -0.26  -0.19  -0.25
  17   6     0.00  -0.20   0.01     0.14   0.08   0.12     0.12   0.02   0.12
  18   6     0.04  -0.16   0.18    -0.14  -0.10  -0.12    -0.12  -0.14  -0.08
  19   6    -0.13   0.05  -0.08     0.22   0.16   0.22     0.19   0.16   0.19
  20   8    -0.11   0.24  -0.03    -0.04   0.00  -0.04    -0.07   0.05  -0.04
  21   6     0.19  -0.07  -0.03    -0.11  -0.11  -0.14    -0.09  -0.11  -0.13
  22   6     0.06  -0.16  -0.08     0.15   0.07   0.11     0.11   0.03   0.12
  23   6    -0.11  -0.17  -0.00     0.04  -0.14   0.15    -0.06   0.09  -0.14
  24   6    -0.11  -0.12  -0.21    -0.02   0.16  -0.13    -0.02  -0.17   0.11
  25   6    -0.09  -0.01  -0.00     0.01   0.00  -0.01    -0.02  -0.00   0.03
  26   6    -0.09   0.01  -0.01     0.01   0.00   0.00    -0.01  -0.00  -0.02
  27   1     0.02  -0.04   0.08    -0.00   0.00  -0.01    -0.00  -0.01   0.04
  28   1    -0.03   0.01  -0.07     0.00  -0.00   0.01    -0.00   0.00  -0.03
  29   1     0.01   0.02   0.03    -0.00  -0.00  -0.00     0.00   0.00   0.02
  30   1     0.00  -0.01  -0.06    -0.00   0.00   0.01     0.01  -0.00  -0.04
  31   1     0.01   0.00  -0.05    -0.00  -0.00   0.01     0.00   0.00  -0.01
  32   1     0.00  -0.01  -0.00     0.01  -0.00  -0.00    -0.01  -0.01   0.00
  33   1    -0.00  -0.01   0.00    -0.00   0.00   0.00     0.01  -0.00   0.00
  34   1    -0.10   0.02  -0.04     0.02   0.03  -0.03    -0.02  -0.00   0.00
  35   1    -0.01  -0.00   0.02     0.02  -0.07   0.07    -0.02   0.07  -0.09
  36   1     0.01  -0.00   0.03     0.02   0.05   0.04    -0.00   0.02   0.03
  37   1     0.05   0.06   0.11    -0.01   0.01  -0.02    -0.01   0.03   0.05
  38   1     0.03   0.02   0.06     0.00   0.03   0.00     0.01   0.05   0.06
  39   1    -0.00  -0.00  -0.03    -0.03  -0.04   0.05     0.01  -0.00  -0.03
  40   1     0.01   0.03  -0.10    -0.02  -0.02   0.01     0.03   0.03  -0.08
  41   1     0.01   0.03  -0.09    -0.01  -0.00  -0.02     0.02  -0.00  -0.05
  42   1     0.00  -0.04  -0.00     0.07   0.05   0.06     0.08   0.03   0.09
  43   1     0.07  -0.07   0.05    -0.03  -0.03  -0.03     0.00  -0.04  -0.01
  44   1    -0.03   0.05  -0.01    -0.00   0.01  -0.00    -0.01   0.01  -0.00
  45   1     0.07  -0.06   0.04    -0.03  -0.04  -0.03     0.00  -0.02  -0.01
  46   1     0.01  -0.03  -0.01     0.07   0.04   0.06     0.07   0.04   0.08
  47   1     0.00  -0.02   0.00     0.01  -0.07   0.07    -0.03   0.07  -0.09
  48   1    -0.10   0.00  -0.06     0.00   0.04  -0.04    -0.03  -0.02   0.01
  49   1    -0.02  -0.01  -0.06     0.00   0.00   0.01    -0.00  -0.00  -0.02
  50   1    -0.03  -0.02  -0.07     0.00   0.00   0.01     0.00  -0.01  -0.04
                     46                     47                     48
                        a                      a                      a 
 Frequencies --   703.6555               748.7170               774.7591
 Red. masses --     8.9632                 9.9245                 9.9181
 Frc consts  --     0.0000                 0.0000                 0.0000
 IR Inten    --     1.5305                 4.8006                26.5522
 Raman Activ --     0.0000                 0.0000                 0.0000
 Depolar     --     0.0000                 0.0000                 0.0000
 Atom AN      X      Y      Z        X      Y      Z        X      Y      Z
   1   6     0.05   0.02  -0.08    -0.17  -0.02  -0.04     0.07   0.01   0.03
   2   6     0.03   0.04   0.32    -0.25  -0.25  -0.00     0.10   0.10  -0.05
   3   6     0.12  -0.02  -0.48     0.01  -0.00  -0.10    -0.04   0.00   0.12
   4   6    -0.08  -0.05   0.15     0.18   0.10   0.08    -0.07  -0.00  -0.08
   5   6    -0.02  -0.01  -0.26     0.26  -0.06   0.03    -0.11   0.05  -0.03
   6   6    -0.07   0.02   0.34    -0.17  -0.06   0.07     0.10   0.03  -0.07
   7   6     0.08   0.01   0.06    -0.35  -0.16  -0.08     0.08   0.11   0.08
   8   8     0.03  -0.04  -0.05    -0.11  -0.01   0.00    -0.24  -0.13  -0.07
   9   6     0.03   0.04  -0.03     0.03   0.02  -0.01    -0.11   0.01  -0.02
  10   6     0.01   0.00   0.05     0.09   0.02   0.03     0.19  -0.06  -0.04
  11   6     0.01   0.04   0.02     0.08   0.08   0.07     0.17   0.02   0.02
  12   6    -0.03  -0.03   0.03    -0.08  -0.03   0.01    -0.03  -0.01  -0.01
  13   6    -0.03   0.03  -0.00    -0.18   0.09   0.01    -0.37   0.18   0.02
  14   6     0.01   0.03   0.03    -0.03   0.03   0.02    -0.09   0.02  -0.02
  15   6     0.00   0.02  -0.04    -0.03   0.03  -0.02    -0.08   0.03   0.03
  16   6    -0.01  -0.02  -0.02    -0.01   0.03  -0.00    -0.04   0.09  -0.01
  17   6     0.02  -0.02   0.01     0.05  -0.06  -0.01     0.15  -0.10  -0.06
  18   6    -0.01  -0.03   0.01     0.02  -0.07   0.04     0.07  -0.11   0.05
  19   6     0.01   0.02   0.01    -0.02   0.02  -0.01    -0.05   0.02  -0.03
  20   8    -0.02   0.04  -0.01    -0.05   0.11  -0.02    -0.11   0.24  -0.03
  21   6     0.02  -0.03  -0.02     0.07  -0.07  -0.01     0.12  -0.13   0.01
  22   6     0.02  -0.02   0.01     0.03  -0.08   0.03     0.03  -0.17   0.11
  23   6    -0.02  -0.01  -0.03     0.10  -0.07  -0.07     0.11   0.00   0.00
  24   6    -0.01  -0.04  -0.00     0.08  -0.03  -0.03     0.10   0.11   0.12
  25   6    -0.02  -0.02  -0.26     0.16   0.27  -0.00    -0.03  -0.15   0.00
  26   6    -0.11   0.02   0.13     0.19   0.11   0.08    -0.02  -0.08  -0.07
  27   1     0.07  -0.02  -0.23    -0.14   0.16  -0.03     0.06  -0.07   0.03
  28   1    -0.08  -0.03   0.22     0.13   0.00   0.05    -0.04   0.00  -0.05
  29   1     0.02   0.03  -0.10    -0.06  -0.07  -0.03     0.03   0.02   0.02
  30   1    -0.07  -0.00   0.24     0.07   0.02  -0.00    -0.03   0.00   0.05
  31   1    -0.03  -0.00   0.05     0.12   0.04  -0.02    -0.07  -0.02   0.07
  32   1     0.11   0.08   0.00    -0.12  -0.03  -0.01     0.06   0.02   0.01
  33   1    -0.01  -0.01  -0.06    -0.13  -0.04  -0.02     0.06   0.03   0.01
  34   1    -0.00   0.02  -0.01    -0.00   0.01  -0.02     0.09   0.05  -0.04
  35   1     0.01   0.02  -0.01     0.05   0.03  -0.01     0.07   0.03  -0.05
  36   1     0.01   0.00   0.01     0.03  -0.01   0.01     0.06  -0.02   0.01
  37   1     0.01   0.01   0.02     0.05   0.04   0.06     0.10   0.06   0.11
  38   1     0.00  -0.00   0.00    -0.01  -0.05  -0.05    -0.02  -0.13  -0.14
  39   1     0.01  -0.00  -0.01     0.03  -0.01   0.00     0.05  -0.04   0.02
  40   1     0.01   0.01  -0.03     0.04   0.03  -0.08     0.07   0.06  -0.15
  41   1     0.01  -0.01  -0.00     0.01  -0.04   0.05     0.02  -0.11   0.14
  42   1     0.01  -0.00   0.01     0.01  -0.03  -0.01     0.02  -0.07  -0.02
  43   1     0.01  -0.01   0.00     0.01  -0.03  -0.00     0.00  -0.06  -0.02
  44   1    -0.00   0.01  -0.00    -0.01   0.03  -0.00    -0.03   0.06  -0.01
  45   1     0.01  -0.01   0.00     0.01  -0.04  -0.00     0.00  -0.08  -0.02
  46   1     0.01  -0.00   0.01     0.01  -0.04  -0.01     0.01  -0.10  -0.02
  47   1     0.00   0.01  -0.01     0.05   0.01  -0.02     0.02   0.02  -0.03
  48   1    -0.02  -0.00  -0.00     0.02   0.00  -0.02     0.05   0.05  -0.01
  49   1    -0.04   0.00   0.05     0.11   0.06  -0.02    -0.05  -0.03   0.08
  50   1    -0.08  -0.00   0.23     0.07   0.05  -0.00    -0.01  -0.01   0.06
                     49                     50                     51
                        a                      a                      a 
 Frequencies --   803.8511               811.9893               813.2752
 Red. masses --     5.2070                 5.2736                 5.7613
 Frc consts  --     0.0000                 0.0000                 0.0000
 IR Inten    --    35.1901                43.5429                14.9027
 Raman Activ --     0.0000                 0.0000                 0.0000
 Depolar     --     0.0000                 0.0000                 0.0000
 Atom AN      X      Y      Z        X      Y      Z        X      Y      Z
   1   6     0.01   0.00  -0.01    -0.01  -0.01   0.04     0.03   0.02  -0.07
   2   6     0.01   0.01   0.03    -0.00  -0.01  -0.10     0.02   0.03   0.17
   3   6     0.01  -0.00  -0.06    -0.03   0.01   0.18     0.05  -0.01  -0.30
   4   6    -0.02   0.00   0.03     0.03  -0.01  -0.10    -0.06   0.02   0.17
   5   6    -0.02   0.00   0.01     0.03  -0.01  -0.07    -0.07   0.03   0.12
   6   6     0.01   0.00  -0.00    -0.03  -0.00   0.07     0.07   0.01  -0.13
   7   6     0.00   0.04  -0.03    -0.02  -0.01   0.03     0.03   0.02  -0.04
   8   8    -0.04   0.03  -0.04    -0.03  -0.03  -0.04     0.01   0.02   0.06
   9   6     0.02  -0.17   0.19     0.02  -0.00   0.00    -0.05   0.02  -0.04
  10   6    -0.01   0.18  -0.21    -0.00   0.03   0.03     0.02  -0.08  -0.02
  11   6    -0.01   0.16  -0.16     0.01   0.05   0.05     0.00  -0.08  -0.01
  12   6     0.03  -0.21   0.23    -0.04   0.01  -0.01     0.02   0.05  -0.05
  13   6    -0.05   0.02  -0.00     0.01  -0.00  -0.00    -0.05   0.04   0.00
  14   6    -0.01   0.01   0.01    -0.03  -0.04  -0.06    -0.04  -0.04  -0.07
  15   6     0.00   0.05  -0.08     0.00  -0.00   0.01    -0.03  -0.02   0.05
  16   6    -0.01   0.03   0.00     0.18   0.11   0.17     0.09   0.10   0.10
  17   6     0.02  -0.02  -0.03    -0.11  -0.06  -0.09    -0.01  -0.06  -0.09
  18   6     0.00  -0.03  -0.02    -0.12  -0.07  -0.11    -0.04  -0.06  -0.07
  19   6     0.02   0.02   0.02     0.15   0.10   0.15     0.08   0.06   0.08
  20   8    -0.03   0.04  -0.01    -0.03  -0.04  -0.03    -0.05   0.05  -0.03
  21   6    -0.01  -0.03  -0.00    -0.13  -0.08  -0.13    -0.07  -0.08  -0.05
  22   6    -0.03  -0.04   0.03    -0.13  -0.08  -0.14    -0.09  -0.09  -0.03
  23   6    -0.00   0.10  -0.12     0.02  -0.03  -0.03    -0.01   0.02   0.07
  24   6    -0.01   0.12  -0.10     0.01  -0.02  -0.03     0.01   0.03   0.07
  25   6     0.00  -0.02   0.02     0.01   0.03  -0.08    -0.02  -0.06   0.14
[...]
  29   1     0.00   0.00   0.00     0.00   0.06   0.01     0.00   0.03   0.00
  30   1    -0.00  -0.00   0.00     0.12   0.89  -0.01     0.02   0.16  -0.00
  31   1    -0.00   0.00  -0.00     0.22  -0.18   0.05     0.09  -0.07   0.02
  32   1     0.00  -0.00   0.00     0.00   0.00   0.00    -0.00   0.00  -0.00
  33   1     0.00   0.00  -0.00     0.00  -0.00   0.00    -0.00  -0.01   0.00
  34   1     0.00  -0.00  -0.00     0.00  -0.00  -0.00    -0.00   0.00   0.00
  35   1    -0.00  -0.00  -0.00     0.00   0.00   0.00     0.00   0.00   0.00
  36   1    -0.00  -0.00   0.00    -0.00  -0.00   0.00     0.00   0.00  -0.00
  37   1    -0.00   0.01  -0.00    -0.00   0.00  -0.00    -0.00   0.00   0.00
  38   1     0.00  -0.00  -0.00    -0.00  -0.00   0.00    -0.00  -0.00   0.00
  39   1     0.00   0.00   0.00    -0.00  -0.00  -0.00     0.00   0.00   0.00
  40   1    -0.00   0.00  -0.00    -0.00   0.00  -0.00    -0.00   0.00  -0.00
  41   1    -0.01  -0.00   0.00    -0.00  -0.00   0.00    -0.00  -0.00  -0.00
  42   1     0.01  -0.00  -0.01    -0.00   0.00   0.00    -0.00   0.00   0.00
  43   1     0.01   0.02  -0.02    -0.00  -0.00   0.00    -0.00  -0.00   0.00
  44   1     0.00  -0.00   0.00     0.00  -0.00  -0.00     0.00  -0.00  -0.00
  45   1     0.72  -0.23  -0.58     0.00  -0.00  -0.00     0.00  -0.00  -0.00
  46   1    -0.03  -0.07   0.08    -0.00  -0.00   0.00    -0.00  -0.00   0.00
  47   1     0.00  -0.00  -0.00     0.00  -0.00  -0.00     0.00  -0.00  -0.00
  48   1     0.00   0.00   0.00     0.00   0.00   0.00    -0.00  -0.00  -0.00
  49   1     0.00   0.00  -0.00     0.03   0.19  -0.00    -0.13  -0.91   0.02
  50   1    -0.00   0.00  -0.00     0.01  -0.01   0.00    -0.16   0.13  -0.04
                    133                    134                    135
                        a                      a                      a 
 Frequencies --  3076.1352              3078.2037              3087.6023
 Red. masses --     1.7944                 1.7934                 1.8608
 Frc consts  --     0.0000                 0.0000                 0.0000
 IR Inten    --    72.4195                18.2623                78.2387
 Raman Activ --     0.0000                 0.0000                 0.0000
 Depolar     --     0.0000                 0.0000                 0.0000
 Atom AN      X      Y      Z        X      Y      Z        X      Y      Z
   1   6    -0.00  -0.00  -0.00    -0.00   0.00   0.00    -0.00  -0.00  -0.00
   2   6    -0.00   0.00   0.00     0.00  -0.00  -0.00    -0.00   0.00   0.00
   3   6     0.00   0.00  -0.00    -0.00  -0.00  -0.00     0.00  -0.00   0.00
   4   6     0.00   0.00  -0.00    -0.00  -0.00   0.00     0.01   0.09  -0.00
   5   6     0.00  -0.00   0.00    -0.00   0.00  -0.00    -0.20   0.16  -0.05
   6   6     0.00   0.00   0.00    -0.00  -0.00  -0.00    -0.01  -0.00  -0.00
   7   6    -0.00  -0.00  -0.00    -0.00   0.00   0.00    -0.00   0.00  -0.00
   8   8    -0.00   0.00   0.00     0.00  -0.00  -0.00     0.00  -0.00  -0.00
   9   6    -0.00  -0.00  -0.00     0.00   0.00   0.00    -0.00   0.00  -0.00
  10   6     0.00  -0.00  -0.00    -0.00   0.00   0.00    -0.01   0.01   0.01
  11   6     0.01   0.01   0.01    -0.00  -0.00  -0.00    -0.00  -0.00  -0.00
  12   6    -0.01   0.00   0.00     0.00  -0.00  -0.00    -0.00  -0.00  -0.00
  13   6    -0.00   0.00   0.00    -0.00  -0.00   0.00    -0.00   0.00   0.00
  14   6    -0.00  -0.00   0.00     0.00  -0.00   0.01     0.00  -0.00  -0.00
  15   6     0.00   0.00   0.01    -0.00  -0.00  -0.00     0.00  -0.00   0.00
  16   6    -0.00   0.00   0.00    -0.01   0.01   0.00    -0.00  -0.00   0.00
  17   6    -0.06   0.02   0.05    -0.18   0.06   0.15     0.00  -0.00  -0.00
  18   6     0.01   0.01  -0.02     0.02   0.05  -0.05     0.00   0.00  -0.00
  19   6     0.00   0.00  -0.00     0.00   0.00  -0.00    -0.00   0.00   0.00
  20   8    -0.00   0.00   0.00    -0.00   0.00   0.00    -0.00   0.00   0.00
  21   6     0.00  -0.00  -0.00    -0.00  -0.00   0.00     0.00  -0.00  -0.00
  22   6    -0.00  -0.00   0.00    -0.00  -0.01   0.01     0.00   0.00  -0.00
  23   6    -0.14   0.13   0.14     0.05  -0.04  -0.05    -0.00   0.00   0.00
  24   6    -0.03  -0.06  -0.05     0.01   0.02   0.02     0.00   0.00   0.00
  25   6    -0.00  -0.00  -0.00     0.00   0.00  -0.00     0.00  -0.01   0.00
  26   6    -0.00   0.00  -0.00     0.00  -0.00   0.00    -0.02   0.02  -0.01
  27   1     0.00   0.00   0.00     0.00   0.00   0.00     0.01   0.01   0.00
  28   1    -0.00   0.00   0.00     0.00  -0.00  -0.00    -0.00   0.01   0.00
  29   1     0.00  -0.00  -0.00     0.00   0.00   0.00    -0.00  -0.02  -0.00
  30   1    -0.00  -0.00   0.00     0.00   0.00  -0.00    -0.04  -0.29   0.00
  31   1    -0.00   0.00  -0.00     0.00  -0.00   0.00     0.70  -0.56   0.16
  32   1     0.00  -0.00   0.00    -0.00   0.00  -0.00     0.00   0.00   0.00
  33   1    -0.00   0.00  -0.00     0.00  -0.00   0.00     0.00  -0.00   0.00
  34   1    -0.00   0.00   0.00     0.01  -0.01  -0.01     0.03  -0.03  -0.03
  35   1    -0.02  -0.03  -0.02     0.00   0.00   0.00     0.01   0.01   0.01
  36   1     0.00   0.00  -0.01     0.01   0.01  -0.02    -0.00  -0.00   0.00
  37   1     0.00  -0.00   0.00    -0.00   0.00   0.00    -0.00   0.00  -0.00
  38   1     0.00   0.00   0.00    -0.01  -0.00   0.00     0.00  -0.00   0.00
  39   1    -0.01  -0.02  -0.02     0.00   0.01   0.01    -0.00  -0.00  -0.00
  40   1    -0.00   0.00   0.00     0.00  -0.01  -0.00    -0.00   0.00  -0.00
  41   1    -0.00   0.00   0.00     0.00   0.00  -0.00     0.00  -0.00   0.00
  42   1     0.22  -0.07  -0.18     0.65  -0.21  -0.52    -0.00   0.00   0.00
  43   1    -0.03  -0.06   0.07    -0.08  -0.19   0.22    -0.00  -0.00   0.00
  44   1     0.00  -0.00  -0.00     0.00  -0.00  -0.00     0.00  -0.00  -0.00
  45   1    -0.00   0.00   0.00     0.00  -0.00  -0.00    -0.00   0.00   0.00
  46   1     0.01   0.01  -0.01     0.01   0.02  -0.02    -0.00  -0.00   0.00
  47   1     0.52  -0.47  -0.50    -0.17   0.16   0.17     0.00  -0.00  -0.00
  48   1     0.12   0.22   0.18    -0.04  -0.08  -0.07    -0.00  -0.00  -0.00
  49   1     0.00   0.00  -0.00    -0.00  -0.00   0.00     0.00   0.04  -0.00
  50   1     0.00  -0.00   0.00    -0.00   0.00  -0.00     0.07  -0.06   0.02
                    136                    137                    138
                        a                      a                      a 
 Frequencies --  3090.1079              3094.8205              3096.9637
 Red. masses --     1.7926                 1.8591                 1.8492
 Frc consts  --     0.0000                 0.0000                 0.0000
 IR Inten    --    44.4362                67.8729                65.2111
 Raman Activ --     0.0000                 0.0000                 0.0000
 Depolar     --     0.0000                 0.0000                 0.0000
 Atom AN      X      Y      Z        X      Y      Z        X      Y      Z
   1   6     0.00   0.00   0.00    -0.00   0.00   0.00     0.02  -0.02  -0.00
   2   6     0.00  -0.00  -0.00     0.00   0.00   0.00    -0.00  -0.00  -0.00
   3   6    -0.00   0.00  -0.00     0.00   0.00   0.00    -0.01  -0.00  -0.00
   4   6    -0.00  -0.01   0.00    -0.00   0.00  -0.00     0.00  -0.01   0.00
   5   6     0.01  -0.01   0.00     0.00  -0.00   0.00     0.01  -0.01   0.00
   6   6     0.00   0.00  -0.00    -0.00   0.00  -0.00     0.00  -0.00   0.00
   7   6    -0.00   0.00   0.00    -0.00   0.00   0.00    -0.00   0.00  -0.00
   8   8    -0.00   0.00   0.00     0.00  -0.00  -0.00    -0.00  -0.00   0.00
   9   6    -0.01   0.00   0.00    -0.01  -0.00  -0.00     0.00   0.00   0.00
  10   6    -0.14   0.13   0.15    -0.02   0.02   0.02     0.00  -0.00  -0.00
  11   6    -0.03  -0.07  -0.06    -0.02  -0.03  -0.03     0.00   0.00   0.00
  12   6    -0.00  -0.00  -0.00     0.00   0.00   0.00    -0.00  -0.00  -0.00
  13   6    -0.00   0.00   0.00     0.00  -0.00  -0.00     0.00   0.00  -0.00
  14   6     0.00  -0.00  -0.00     0.00  -0.00   0.00     0.00  -0.00  -0.00
  15   6     0.00  -0.00  -0.00     0.00  -0.00  -0.00     0.00  -0.00   0.00
  16   6     0.00  -0.00  -0.00    -0.00  -0.00   0.00    -0.00  -0.00   0.00
  17   6     0.00  -0.00  -0.00     0.00  -0.00  -0.00     0.04  -0.01  -0.03
  18   6    -0.00  -0.00   0.00     0.01   0.01  -0.02     0.05   0.10  -0.12
  19   6     0.00  -0.00   0.00    -0.00   0.00  -0.00    -0.00   0.01  -0.00
  20   8    -0.00   0.00  -0.00    -0.00  -0.00   0.00    -0.00  -0.00   0.00
  21   6    -0.00   0.00  -0.00    -0.00  -0.00   0.00    -0.00  -0.00   0.00
  22   6    -0.00  -0.00   0.00     0.00   0.00  -0.00     0.00   0.01  -0.01
  23   6    -0.01   0.01   0.01     0.06  -0.05  -0.06    -0.00   0.00   0.00
  24   6     0.02   0.03   0.02    -0.10  -0.18  -0.15     0.00   0.01   0.01
  25   6    -0.00   0.00  -0.00    -0.00  -0.00   0.00     0.01   0.05  -0.00
  26   6     0.00  -0.00   0.00     0.00  -0.00   0.00    -0.16   0.13  -0.04
  27   1    -0.00  -0.00  -0.00     0.00   0.00   0.00    -0.05  -0.03  -0.01
  28   1     0.00  -0.00  -0.00     0.00  -0.00  -0.00    -0.01   0.11   0.01
  29   1     0.00   0.00   0.00    -0.00  -0.00  -0.00     0.00   0.01   0.00
  30   1     0.00   0.02  -0.00    -0.00  -0.00   0.00     0.00   0.04  -0.00
  31   1    -0.04   0.04  -0.01    -0.00   0.00  -0.00    -0.04   0.04  -0.01
  32   1    -0.00  -0.00  -0.01    -0.00  -0.00   0.00    -0.00  -0.00  -0.00
  33   1    -0.00  -0.01   0.00    -0.00   0.00  -0.00    -0.00  -0.00   0.00
  34   1     0.51  -0.48  -0.52     0.07  -0.06  -0.07    -0.00   0.00   0.00
  35   1     0.13   0.26   0.22     0.06   0.11   0.09    -0.00  -0.00  -0.00
  36   1    -0.00  -0.00   0.00     0.00  -0.00   0.00    -0.00  -0.00   0.00
  37   1    -0.00   0.01  -0.00    -0.00   0.00  -0.00    -0.00   0.00  -0.00
  38   1    -0.00  -0.00   0.00    -0.01  -0.00   0.00     0.00  -0.00  -0.00
  39   1     0.00   0.00   0.00     0.00   0.00   0.00     0.00  -0.00  -0.00
  40   1    -0.00   0.00  -0.00     0.00  -0.00  -0.00    -0.00   0.00  -0.00
  41   1    -0.00  -0.00   0.00    -0.00  -0.00   0.00    -0.00  -0.00   0.00
  42   1    -0.01   0.00   0.00    -0.01   0.00   0.01    -0.14   0.04   0.11
  43   1     0.00   0.00  -0.00    -0.02  -0.05   0.06    -0.16  -0.35   0.41
  44   1     0.00  -0.00   0.00     0.00  -0.00  -0.00     0.00  -0.00  -0.00
  45   1    -0.00   0.00   0.00     0.00  -0.00  -0.00     0.01  -0.00  -0.01
  46   1     0.00   0.00  -0.00    -0.00  -0.00   0.00    -0.02  -0.04   0.04
  47   1     0.05  -0.04  -0.05    -0.18   0.17   0.18     0.01  -0.01  -0.01
  48   1    -0.06  -0.11  -0.09     0.34   0.63   0.52    -0.01  -0.02  -0.02
  49   1    -0.00  -0.00   0.00     0.00   0.00  -0.00    -0.02  -0.16   0.00
  50   1    -0.01   0.00  -0.00    -0.01   0.01  -0.00     0.55  -0.45   0.14
                    139                    140                    141
                        a                      a                      a 
 Frequencies --  3096.9885              3106.3624              3106.7811
 Red. masses --     1.8547                 1.8551                 1.8391
 Frc consts  --     0.0000                 0.0000                 0.0000
 IR Inten    --    39.2763                57.1940                32.4814
 Raman Activ --     0.0000                 0.0000                 0.0000
 Depolar     --     0.0000                 0.0000                 0.0000
 Atom AN      X      Y      Z        X      Y      Z        X      Y      Z
   1   6     0.01  -0.02  -0.00    -0.00   0.00  -0.00     0.01  -0.00   0.00
   2   6    -0.00  -0.00  -0.00     0.00  -0.00   0.00    -0.00   0.00   0.00
   3   6    -0.01  -0.00  -0.00     0.00   0.00   0.00    -0.00  -0.00  -0.00
   4   6     0.00  -0.01   0.00     0.00   0.00  -0.00     0.00   0.00  -0.00
   5   6     0.01  -0.01   0.00    -0.00   0.00  -0.00    -0.00   0.00  -0.00
   6   6     0.00  -0.00   0.00    -0.00   0.00   0.00    -0.00   0.00   0.00
   7   6    -0.00   0.00  -0.00     0.00  -0.00  -0.00     0.00  -0.00  -0.00
   8   8    -0.00  -0.00  -0.00    -0.00  -0.00  -0.00    -0.00  -0.00  -0.00
   9   6    -0.00  -0.00   0.00     0.01   0.00   0.00     0.00   0.00   0.00
  10   6    -0.00   0.00   0.00     0.06  -0.06  -0.07     0.02  -0.02  -0.03
  11   6    -0.00  -0.00  -0.00    -0.08  -0.17  -0.14    -0.03  -0.06  -0.05
  12   6     0.00   0.00   0.00    -0.01  -0.00  -0.00    -0.00  -0.00   0.00
  13   6    -0.00  -0.00   0.00     0.00  -0.00  -0.00    -0.00  -0.00   0.00
  14   6     0.00   0.00   0.00     0.00  -0.00  -0.00     0.00  -0.00  -0.00
  15   6    -0.00   0.00  -0.00     0.00  -0.00  -0.00    -0.00  -0.00   0.00
  16   6     0.00   0.00  -0.00    -0.00   0.00  -0.00     0.00  -0.01   0.00
  17   6    -0.06   0.02   0.04    -0.01   0.00   0.01     0.01  -0.00  -0.01
  18   6    -0.06  -0.13   0.15    -0.00  -0.00   0.00     0.01   0.01  -0.01
  19   6     0.00  -0.01   0.00    -0.00  -0.00   0.00     0.00   0.00  -0.00
  20   8     0.00   0.00  -0.00     0.00   0.00  -0.00     0.00  -0.00   0.00
  21   6     0.00   0.00  -0.00     0.01  -0.00  -0.01    -0.03   0.01   0.02
  22   6    -0.01  -0.01   0.01     0.03   0.06  -0.07    -0.08  -0.15   0.19
  23   6     0.01  -0.00  -0.01    -0.01   0.01   0.01    -0.00   0.00   0.00
  24   6    -0.01  -0.01  -0.01     0.01   0.02   0.01     0.00   0.01   0.01
  25   6     0.01   0.04  -0.00    -0.00  -0.00   0.00    -0.00  -0.00   0.00
  26   6    -0.12   0.10  -0.03     0.00  -0.00   0.00     0.00  -0.00   0.00
  27   1    -0.04  -0.03  -0.01     0.00   0.00   0.00    -0.02  -0.01  -0.00
  28   1    -0.00   0.08   0.01     0.00  -0.00  -0.00    -0.00   0.02   0.00
  29   1     0.00   0.00   0.00    -0.00  -0.00  -0.00     0.00  -0.00  -0.00
  30   1     0.00   0.03  -0.00    -0.00  -0.00   0.00    -0.00  -0.00   0.00
  31   1    -0.03   0.03  -0.01     0.00  -0.00   0.00     0.00  -0.00   0.00
  32   1    -0.00  -0.00  -0.00     0.00   0.00   0.00     0.00   0.00   0.00
  33   1    -0.00  -0.00   0.00     0.00   0.00  -0.00     0.00   0.00  -0.00
  34   1     0.00  -0.00  -0.00    -0.21   0.20   0.21    -0.08   0.08   0.08
  35   1     0.01   0.01   0.01     0.29   0.59   0.49     0.11   0.22   0.18
  36   1     0.00   0.00  -0.00    -0.00  -0.00   0.01    -0.00  -0.00   0.00
  37   1     0.00  -0.00   0.00    -0.01   0.02  -0.00    -0.00   0.01  -0.00
  38   1    -0.00   0.00   0.00    -0.00  -0.00   0.00     0.00   0.00   0.00
  39   1    -0.00   0.00   0.00     0.00   0.00   0.00    -0.00  -0.00  -0.01
  40   1     0.00  -0.00   0.00    -0.00   0.00  -0.00     0.00  -0.00  -0.00
  41   1     0.00   0.00  -0.00    -0.01  -0.00   0.00     0.02   0.00  -0.00
  42   1     0.18  -0.06  -0.14     0.02  -0.01  -0.02    -0.04   0.01   0.03
  43   1     0.20   0.44  -0.52     0.01   0.01  -0.02    -0.02  -0.04   0.05
  44   1    -0.00   0.00   0.00    -0.00   0.00   0.00     0.00  -0.00  -0.00
  45   1    -0.01   0.00   0.01    -0.03   0.01   0.02     0.08  -0.02  -0.06
  46   1     0.02   0.04  -0.05    -0.10  -0.20   0.24     0.27   0.54  -0.65
  47   1    -0.02   0.02   0.02     0.04  -0.03  -0.04     0.01  -0.01  -0.01
  48   1     0.02   0.04   0.04    -0.03  -0.05  -0.04    -0.01  -0.02  -0.02
  49   1    -0.02  -0.12   0.00     0.00   0.00  -0.00     0.00   0.00  -0.00
  50   1     0.43  -0.36   0.11    -0.00   0.00  -0.00    -0.00   0.00  -0.00
                    142                    143                    144
                        a                      a                      a 
 Frequencies --  3107.1460              3126.7245              3497.0025
 Red. masses --     1.5220                 2.0977                 1.8638
 Frc consts  --     0.0000                 0.0000                 0.0000
 IR Inten    --    37.0579                65.7616                40.5537
 Raman Activ --     0.0000                 0.0000                 0.0000
 Depolar     --     0.0000                 0.0000                 0.0000
 Atom AN      X      Y      Z        X      Y      Z        X      Y      Z
   1   6    -0.19   0.09  -0.01    -0.14  -0.28  -0.05     0.00  -0.00  -0.00
   2   6     0.01  -0.01   0.00    -0.01  -0.04  -0.00    -0.00   0.00   0.00
   3   6     0.00   0.00   0.00     0.00   0.00   0.00    -0.00   0.00  -0.00
   4   6    -0.00  -0.00  -0.00    -0.00  -0.00   0.00     0.00   0.00   0.00
   5   6     0.00  -0.00   0.00     0.00  -0.00   0.00     0.00  -0.00   0.00
   6   6     0.00  -0.00   0.00    -0.00   0.00  -0.00     0.00   0.00   0.00
   7   6     0.00   0.00   0.00     0.00  -0.00   0.00     0.00  -0.00   0.00
   8   8    -0.00  -0.00  -0.00    -0.00   0.00  -0.00    -0.00  -0.00  -0.00
   9   6     0.00   0.00   0.00     0.00   0.00   0.00    -0.00  -0.00  -0.00
  10   6     0.00  -0.00  -0.00    -0.00   0.00   0.00    -0.00   0.00   0.00
  11   6    -0.00  -0.00  -0.00     0.00   0.00   0.00     0.00   0.00   0.00
  12   6    -0.00  -0.00  -0.00     0.00   0.00   0.00    -0.00  -0.00   0.00
  13   6    -0.00  -0.00   0.00    -0.00   0.00   0.00     0.00  -0.00  -0.00
  14   6     0.00  -0.00  -0.00     0.00  -0.00  -0.00     0.00  -0.00   0.00
  15   6    -0.00  -0.00   0.00     0.00   0.00   0.00    -0.00   0.00   0.00
  16   6     0.00  -0.00   0.00    -0.00   0.00  -0.00     0.00   0.00  -0.00
  17   6     0.00  -0.00  -0.00    -0.00   0.00   0.00    -0.00  -0.00   0.00
  18   6     0.00   0.00  -0.00    -0.00  -0.00   0.00     0.00  -0.00   0.00
  19   6    -0.00   0.00  -0.00     0.00  -0.00   0.00    -0.01   0.01   0.00
  20   8    -0.00  -0.00   0.00     0.00   0.00   0.00    -0.17   0.03   0.16
  21   6    -0.00   0.00   0.00    -0.00   0.00  -0.00     0.00  -0.00  -0.00
  22   6    -0.00  -0.00   0.01     0.00   0.00  -0.00    -0.00   0.00   0.00
  23   6     0.00  -0.00  -0.00     0.00  -0.00  -0.00     0.00  -0.00  -0.00
  24   6    -0.00  -0.00   0.00    -0.00   0.00   0.00     0.00  -0.00  -0.00
  25   6     0.00   0.01  -0.00     0.00  -0.00   0.00     0.00  -0.00  -0.00
  26   6    -0.03   0.03  -0.01     0.01  -0.01   0.00     0.00  -0.00   0.00
  27   1     0.60   0.37   0.11     0.56   0.30   0.10    -0.00  -0.00  -0.00
  28   1     0.02  -0.64  -0.07    -0.07   0.69   0.07    -0.00   0.00   0.00
  29   1    -0.00   0.01   0.00     0.00   0.09   0.01    -0.00  -0.00  -0.00
  30   1     0.00   0.01  -0.00     0.00   0.01  -0.00    -0.00  -0.00  -0.00
  31   1    -0.01   0.01  -0.00    -0.00   0.00  -0.00    -0.00   0.00  -0.00
  32   1    -0.00   0.00  -0.00    -0.00  -0.00  -0.00    -0.00  -0.00  -0.00
  33   1    -0.00  -0.00   0.00     0.00  -0.00  -0.00    -0.00   0.00  -0.00
  34   1    -0.00   0.00   0.00     0.00  -0.00  -0.00    -0.00   0.00  -0.00
  35   1     0.00   0.00   0.00    -0.00  -0.00  -0.00    -0.00  -0.00  -0.00
  36   1    -0.00  -0.00   0.00     0.00  -0.00   0.00     0.00   0.00  -0.00
  37   1    -0.00   0.00  -0.00    -0.00   0.00  -0.00     0.00  -0.00  -0.00
  38   1     0.00   0.00   0.00    -0.00  -0.00   0.00    -0.00   0.00  -0.00
  39   1    -0.00  -0.00  -0.00     0.00  -0.00  -0.00    -0.00  -0.00  -0.00
  40   1    -0.00   0.00  -0.00    -0.00   0.00  -0.00    -0.00   0.00  -0.00
  41   1     0.00   0.00  -0.00    -0.00  -0.00   0.00     0.00   0.00  -0.00
  42   1    -0.00   0.00   0.00     0.00  -0.00  -0.00    -0.00   0.00  -0.00
  43   1    -0.00  -0.00   0.00     0.00   0.00  -0.00     0.00   0.00  -0.01
  44   1     0.00  -0.00  -0.00     0.00   0.00  -0.00     0.71  -0.13  -0.65
  45   1     0.00  -0.00  -0.00    -0.00   0.00   0.00    -0.00   0.00  -0.00
  46   1     0.01   0.02  -0.02    -0.00  -0.00   0.00     0.00  -0.00   0.00
  47   1    -0.00   0.00   0.00    -0.00   0.00   0.00    -0.00   0.00   0.00
  48   1     0.00   0.00  -0.00    -0.00  -0.00  -0.00    -0.00  -0.00  -0.00
  49   1    -0.00  -0.02   0.00    -0.00  -0.00  -0.00    -0.00   0.00   0.00
  50   1     0.11  -0.09   0.03    -0.04   0.03  -0.01    -0.00   0.00   0.00
