85
 energy: -133.042465495982 gnorm: 0.000082094702 xtb: 6.7.1 (edcfbbe)
C            5.59698749951737        3.90848607515373        0.31052361890327
C            4.99692021052941        3.12519831617709       -0.66220464547253
C            5.17001236722927        1.75415846401137       -0.65797270184799
C            5.93889166132192        1.15848344276515        0.33745098205061
N            6.12219286382502       -0.23331513630020        0.34726185811509
C            5.16492147641964       -1.22064091369637        0.21437547115318
C            3.73227061263860       -0.97380093730521        0.20252494554432
C            2.91664164496807       -1.82163044790361       -0.54666769114594
C            1.55242384218381       -1.62779987992217       -0.58356275054879
C            0.96170706682261       -0.58302333182270        0.12615923977632
C           -0.48931967807825       -0.35920289826417        0.06069324211142
C           -0.99820610807097        0.93387196350555       -0.00826131821263
C           -2.36911663262937        1.14919028616254       -0.09110917200946
N           -2.86313435428238        2.45558764387404       -0.20017109244106
C           -2.42953196321135        3.40466347043190       -1.10646741722666
C           -1.47300267624477        3.30217690952564       -2.10631029084197
C           -1.24836927928384        4.41049745503516       -2.90041818188569
C           -1.96002069054996        5.59390715941851       -2.71739049996310
C           -2.93043128962991        5.69383628998793       -1.74076535956463
C           -3.17410994378067        4.59328222168078       -0.92982932997019
C           -4.09778252611974        4.34197182790146        0.14068338000315
C           -5.06200424386688        5.11690979925926        0.77150665545163
C           -5.78112914189131        4.56201786642588        1.81106270702278
C           -5.53627281912137        3.25784495930552        2.23465811025327
C           -4.58114010253614        2.46916975333303        1.62300769046178
C           -3.87445937147145        3.01051245470018        0.55957994692812
C           -3.24543373067635        0.06955686051301       -0.09485670947249
C           -2.74247909417083       -1.22399315518073       -0.00941063737021
N           -3.61396034419795       -2.31980735700873       -0.02990935213639
C           -3.49994021953215       -3.41731494934055       -0.86222454100960
C           -2.57343715523813       -3.67694764879532       -1.86157643912402
C           -2.70335272602110       -4.85459193030928       -2.57249871890484
C           -3.73392257059120       -5.75374670065403       -2.30827767160370
C           -4.67457485577750       -5.48826305892566       -1.33347277344160
C           -4.56435757370308       -4.31096582730402       -0.60539791481829
C           -5.35305619424643       -3.71788101109446        0.43812149480477
C           -6.49574527758613       -4.11969111688967        1.11697825426158
C           -6.99848745296742       -3.30177420799460        2.10901074189204
C           -6.36633936611682       -2.10527376219898        2.43887952209376
C           -5.22785120265915       -1.68621532655107        1.77801815539212
C           -4.73328002560324       -2.48924946466731        0.76141661660324
C           -1.37038341341413       -1.43534794117179        0.06816729409310
C            1.77724289247179        0.24393435901058        0.89609596439814
C            3.14249264063098        0.05023968583181        0.94204242247759
N            5.68013764680414       -2.41780781057795        0.14095941577864
C            7.03443214686249       -2.25748734195267        0.22605510791226
C            8.05662714545273       -3.20021730420766        0.19400812946390
C            9.35301077451960       -2.74069230747718        0.28100078444082
C            9.64246355536776       -1.37840693124810        0.38783632351518
C            8.64427262354418       -0.42555617290485        0.42361831619002
C            7.33755785780762       -0.88138174106597        0.35692774611091
C            6.54135488598495        1.94343409466209        1.31458815222139
C            6.37011039297732        3.31589855319602        1.29457006648425
H            5.46226447361723        4.97940078113238        0.30103478997753
H            4.39650608492626        3.58474692839668       -1.43286694822078
H            4.71246525263400        1.13827588959622       -1.41797305504156
H            3.37785340948758       -2.62673195876378       -1.09671588859662
H            0.93760612740861       -2.27889326404921       -1.18722438370849
H           -0.32818950861375        1.77982485230547       -0.00762687036578
H           -0.92837315292628        2.38450360568730       -2.27044697766728
H           -0.50676549305243        4.35595106211724       -3.68383983806782
H           -1.75314955756753        6.43859478625265       -3.35751024359354
H           -3.49466682017609        6.60472989956739       -1.60927275323387
H           -5.23875984340218        6.13360540766697        0.45444072532200
H           -6.53785198507180        5.14644611675651        2.31278704934167
H           -6.10232244962129        2.85536498056340        3.06170164297025
H           -4.38350395001336        1.46827908596595        1.97410117295014
H           -4.30716421132659        0.23295813029237       -0.19783007725428
H           -1.78388450727957       -2.97661864780111       -2.08917998440317
H           -1.99204464639148       -5.08109474748837       -3.35306851743092
H           -3.79935099895217       -6.66503692721629       -2.88376552109524
H           -5.48375902358976       -6.17620651589304       -1.14030511441388
H           -6.97499832211500       -5.05577812924465        0.87316976776295
H           -7.88798769459684       -3.59424126663635        2.64677759893618
H           -6.77209456030901       -1.49365662798019        3.23119106976824
H           -4.73253590238064       -0.76924949672768        2.05729924594664
H           -0.99440569889199       -2.44184493041374        0.16774182254953
H            1.33306169084107        1.03208702427686        1.48604239138757
H            3.74746293900267        0.68661912680995        1.57066487173623
H            7.82800990926485       -4.24933543824358        0.09857748682862
H           10.17053113702825       -3.44610190843259        0.25918506613009
H           10.67404651044292       -1.06342809122238        0.44193629964373
H            8.87358229463145        0.62746884167595        0.49332903696428
H            7.12692453112227        1.47287541899457        2.09045978072284
H            6.83805161543043        3.92299645283206        2.05513177445858
