$hessian                                                                        
        0.6224202385   0.0206645276   0.0102009312  -0.2288145166   0.0537484467
        0.0034986073   0.0215740984   0.0677832355   0.0114597868   0.0053962882
       -0.0035448518  -0.0000031538  -0.0022393252  -0.0006468092  -0.0007178126
        0.0006858657  -0.0013163219  -0.0006559503  -0.0013512989   0.0008203574
        0.0000351259   0.0003404941  -0.0002803090   0.0000101118   0.0000241202
       -0.0001751925   0.0001470810   0.0003367022  -0.0000346820  -0.0000244305
        0.0000563761   0.0002594961   0.0000122636   0.0004502889   0.0003060609
       -0.0000208960  -0.0004451290  -0.0006691052   0.0000129596  -0.0000030657
        0.0007013471   0.0000309291  -0.0006214426  -0.0003090892   0.0000143484
        0.0003908197   0.0006822213  -0.0000051185  -0.0000749429  -0.0005473721
       -0.0000220077  -0.0002051843  -0.0001614207   0.0000030042   0.0001875872
       -0.0003060359  -0.0000381839   0.0000974084   0.0000991008  -0.0001481693
        0.0017285880   0.0001753769   0.0002501659  -0.0008570095   0.0025758141
        0.0012521278  -0.0260982794  -0.0119422939  -0.0000319955  -0.0197351371
       -0.0573112617  -0.0077438134   0.0154563633   0.0109284291   0.0015485235
       -0.0017367567   0.0012508615   0.0009712158  -0.0001525655  -0.0042142481
        0.0005398759   0.0103834558   0.0047590581   0.0042886397  -0.0103178108
       -0.0079158489  -0.0036257002   0.0066431419  -0.0010769744   0.0035047745
       -0.0023358748  -0.0051838750  -0.0007602244   0.0020279958   0.0025398511
        0.0010773410  -0.0037245556  -0.0000698608  -0.0021309769   0.0016458042
        0.0079622254   0.0000844504   0.0003036614  -0.0001824699   0.0001386652
        0.0019500240  -0.0013250537   0.0014103736  -0.0039876050   0.0003177856
       -0.0024039449   0.0020506028   0.0045639861  -0.0004314033   0.0001683545
       -0.0032986048   0.0010084337  -0.0003016373   0.0000809671  -0.0002703220
       -0.0047634181   0.0027190238  -0.0021508421   0.0005066599  -0.0035370771
       -0.0008240617  -0.2890464092  -0.0694220557  -0.0167508803  -0.0448811583
       -0.0131154771  -0.0002677549  -0.0254521596   0.0127637939   0.0008120540
       -0.0003117122   0.0000480095   0.0000092262   0.0001147067   0.0000649626
       -0.0000809622  -0.0000400886   0.0000135658  -0.0000082070  -0.0000508817
       -0.0000656008   0.0000054442   0.0000011554  -0.0000621742   0.0000017518
        0.0000650986  -0.0000280245   0.0000119738   0.0000549759  -0.0000437144
        0.0000013979   0.0000629591   0.0000019300  -0.0000139983   0.0000408789
        0.0000834106   0.0000042528  -0.0000479937   0.0000389185   0.0000023312
       -0.0000222992  -0.0000791051   0.0000617340  -0.0001811264  -0.0001507176
       -0.0000315714  -0.0001126605   0.0001429310  -0.0003989986   0.0000027155
       -0.0000377106   0.0001407433   0.0002108554  -0.0001094675  -0.0004176497
        0.0000823066  -0.0000500869  -0.0001203219   0.0000411956  -0.0000509851
        0.0000297922   0.0000381902   0.0000211446   0.0000086134  -0.0000013627
        0.0000670409   0.0000283953   0.0000187444   0.0000053248   0.0000591610
       -0.0000016122   0.0000361996   0.0000314396  -0.0000610089   0.0000616670
        0.0000113995  -0.0000291660  -0.0000159601  -0.0000085463  -0.0000340328
        0.0002781275  -0.0000080262  -0.0275194941  -0.0092853612  -0.0026035226
        0.0206645276   0.6484846239   0.0835644014   0.1368963726  -0.1543854105
       -0.0142034695   0.0232611623  -0.0378306817  -0.0047892111  -0.0020000546
       -0.0044410455  -0.0015772864   0.0002266655   0.0001571975  -0.0000853497
       -0.0000625911   0.0004109421   0.0000870121   0.0000593480  -0.0000535858
       -0.0000084423   0.0002241114  -0.0001659683   0.0000190353  -0.0000042852
        0.0002844173   0.0000301318  -0.0002117089  -0.0000575409   0.0000199457
       -0.0000420151  -0.0001204266  -0.0000152379  -0.0002295998  -0.0001994910
        0.0000072369   0.0002440952   0.0003804937  -0.0000228442   0.0000561012
       -0.0003731178  -0.0000213013   0.0003624505   0.0001050038  -0.0000214811
       -0.0002042998  -0.0003833260   0.0000050284   0.0000552636   0.0002924036
        0.0000038964   0.0000884527   0.0001008679   0.0000064672  -0.0000292374
        0.0002030870   0.0000074954  -0.0002587319  -0.0001343069  -0.0000063364
       -0.0002091730  -0.0001007626  -0.0004651645   0.0013277068  -0.0012521592
       -0.0005018112  -0.0004482893   0.0049848572   0.0010631527  -0.0239557543
       -0.0281609685  -0.0055856473  -0.0000334644  -0.0061973186  -0.0010686020
        0.0004632366   0.0001800861   0.0000958911   0.0000612300   0.0003224923
       -0.0001307002  -0.0008263979  -0.0001725884  -0.0003117460   0.0007642046
        0.0006092089   0.0003518547  -0.0005122639   0.0001898828  -0.0003145443
        0.0001214227   0.0004000561  -0.0000034734  -0.0001808132  -0.0001453777
       -0.0001078489   0.0003501179  -0.0000967055   0.0001931785  -0.0001971986
       -0.0006188656  -0.0000133736   0.0000982463  -0.0000633341   0.0000642205
       -0.0002458196   0.0001758047  -0.0002039286   0.0003485698  -0.0001035582
        0.0002563989  -0.0001858145  -0.0003967659   0.0000757921   0.0000302899
        0.0003007961  -0.0000416357  -0.0001011647  -0.0000349773  -0.0001094230
        0.0005686738  -0.0005975011   0.0003083487  -0.0014409719  -0.0006342404
        0.0002968979  -0.1458787238  -0.1448640891  -0.0183824499  -0.0126249293
       -0.2893971715  -0.0400628088  -0.0109290924   0.0064621233   0.0004931413
        0.0000505996  -0.0000492618   0.0001760813  -0.0000250258   0.0000103677
        0.0000131640   0.0000462925   0.0000229417   0.0000043503   0.0000201449
        0.0000399342  -0.0000038917  -0.0000042997   0.0000547924   0.0000033709
       -0.0000440132   0.0000242915  -0.0000027560  -0.0000401412   0.0000332152
        0.0000011798  -0.0000576409  -0.0000027680  -0.0000006509  -0.0000247340
       -0.0000346104  -0.0000030605   0.0000366256  -0.0000531557  -0.0000097406
        0.0000773979  -0.0000306466  -0.0000228157   0.0000441842   0.0000167800
        0.0001459497   0.0000029776   0.0006477710   0.0000416181  -0.0001704280
        0.0000458385  -0.0000413710   0.0000275803  -0.0000065393   0.0000524162
       -0.0000173488  -0.0000515347   0.0000210049   0.0000403051  -0.0000193933
        0.0000324714   0.0000300760   0.0000314704   0.0000318401   0.0000023767
        0.0000498463  -0.0000098857   0.0000216041   0.0000252765   0.0000179361
        0.0000026036   0.0000348757  -0.0000136207  -0.0000239717   0.0000143938
       -0.0000249798  -0.0000454691   0.0000084466  -0.0000456620  -0.0000437230
        0.0001417105  -0.0001279571   0.0146341726   0.0059828983   0.0008695994
        0.0102009312   0.0835644014   0.1208265606   0.0184562932  -0.0150172593
       -0.0457478118   0.0021329606  -0.0062877981  -0.0002420587   0.0001859338
       -0.0016689195   0.0052477466   0.0006936709  -0.0001369932   0.0000048595
        0.0000454907   0.0002978931  -0.0000545864   0.0000927549  -0.0000490492
        0.0000258729  -0.0000776938   0.0000075943   0.0000166001   0.0000042567
       -0.0000511195  -0.0000285724  -0.0000145780   0.0000253161   0.0000011161
        0.0000097056  -0.0000358837   0.0000182858  -0.0000376265  -0.0000201623
       -0.0000002084   0.0000320017   0.0000402514   0.0000108870  -0.0000296893
       -0.0000541262  -0.0000020857   0.0000507428   0.0000383920   0.0000064737
       -0.0000313423  -0.0000605527   0.0000059235   0.0000058020   0.0000500301
        0.0000095783   0.0000238017   0.0000179569   0.0000060684  -0.0000213501
        0.0000221867   0.0000173663  -0.0000010578  -0.0000018145   0.0000070590
        0.0002052356   0.0002273311  -0.0000714015  -0.0005839419   0.0006328323
        0.0000708562   0.0003255610   0.0010306906  -0.0028464038  -0.0054482337
       -0.0043102668   0.0010293575   0.0005577104  -0.0010368451   0.0033135130
        0.0006912618  -0.0002856367  -0.0004252137  -0.0000306785  -0.0000943275
       -0.0000415876   0.0003605762  -0.0001356571   0.0001842828  -0.0001229351
       -0.0000784142  -0.0001511241   0.0001177957  -0.0000680741  -0.0000032319
        0.0000143949  -0.0000026737  -0.0000247374   0.0001279464  -0.0000869554
        0.0000753291  -0.0002561669   0.0000138269  -0.0000859101   0.0001532003
        0.0000667859   0.0001481076  -0.0000774486   0.0001276448  -0.0001453225
        0.0001190152  -0.0002032322   0.0001396936  -0.0002615542   0.0000399034
       -0.0001323103   0.0001147210   0.0001618579  -0.0000082292  -0.0000623144
       -0.0000756006   0.0000043040   0.0000420910  -0.0000783611   0.0000105753
       -0.0003905094   0.0001773884   0.0001549961  -0.0005071932  -0.0005196249
       -0.0000963812  -0.0257082438  -0.0179031849  -0.0440291699  -0.0017527963
       -0.0398623566  -0.0408435777  -0.0016696633   0.0008369107   0.0017400389
        0.0000462535  -0.0001413833  -0.0000006507  -0.0000082707  -0.0000362247
        0.0000204859   0.0000073156  -0.0000004895   0.0000009169   0.0000058480
        0.0000093237   0.0000023475  -0.0000003140   0.0000115979   0.0000024488
       -0.0000091292   0.0000056755   0.0000071719  -0.0000080319   0.0000074544
        0.0000085515  -0.0000122432   0.0000015968   0.0000078842  -0.0000054294
       -0.0000084635   0.0000045627   0.0000066727  -0.0000070611  -0.0000013857
       -0.0000623105   0.0000151372   0.0000314531  -0.0000477493  -0.0000482291
        0.0000566167  -0.0000343627   0.0001662901  -0.0002435863   0.0000278777
        0.0001183198   0.0000160852  -0.0000290175   0.0000226544   0.0001686284
       -0.0000060672  -0.0000011083   0.0000200560  -0.0000057145  -0.0000002544
        0.0000036299   0.0000089935   0.0000039252  -0.0000087388   0.0000021670
       -0.0000006738  -0.0000192162   0.0000241716  -0.0000176658  -0.0000487689
       -0.0000113769   0.0000101162   0.0000052132  -0.0000016719   0.0000005173
       -0.0000054488  -0.0000224179   0.0000137908   0.0000077410   0.0000016098
       -0.0000213196  -0.0001171732   0.0024543591   0.0006421691   0.0019856479
       -0.2288145166   0.1368963726   0.0184562932   0.6479431827   0.0137835032
        0.0047182994  -0.0830207915  -0.0414393742  -0.0086131405  -0.0026436116
        0.0264391557   0.0044288589   0.0001821688   0.0016190833   0.0010319741
       -0.0002923873  -0.0000601056   0.0006309786   0.0009720250  -0.0004597002
        0.0001559788  -0.0004467166   0.0004765739  -0.0001028126  -0.0000593469
       -0.0002749237  -0.0000547866  -0.0000403727   0.0000596121  -0.0000139526
       -0.0000304764  -0.0001023024  -0.0000116218  -0.0000757690  -0.0000893251
       -0.0000086580   0.0000659151   0.0001179921  -0.0000107330  -0.0000305078
       -0.0000652390   0.0000095133   0.0000263365   0.0000585208   0.0000159126
        0.0000030862  -0.0001158404  -0.0000147282  -0.0000038308   0.0000790708
        0.0000096165   0.0000949274   0.0000585119  -0.0000038968  -0.0000757674
        0.0000064776   0.0000158987   0.0003057584   0.0001077925   0.0000417273
       -0.0014346711   0.0002203844   0.0009565423  -0.0030379503   0.0009510505
       -0.0010558749   0.0009551325  -0.0213677009  -0.0048470315   0.0122665461
        0.0163811761   0.0022206255  -0.0073139654  -0.0052665265  -0.0008732721
        0.0000828014  -0.0002550920  -0.0008096534   0.0004422196   0.0030222286
       -0.0002962916  -0.0068448063  -0.0034044030  -0.0027647404   0.0066423663
        0.0049968998   0.0022983439  -0.0041783308   0.0007906523  -0.0022199340
        0.0014269264   0.0032574127   0.0004584289  -0.0012648515  -0.0015765212
       -0.0006731901   0.0023243853  -0.0000094604   0.0013688369  -0.0010056402
       -0.0050064203  -0.0000509292  -0.0001119239   0.0001339271  -0.0000301947
       -0.0012025860   0.0008058242  -0.0008841068   0.0023842631  -0.0002270443
        0.0014684454  -0.0012341383  -0.0027898333   0.0002787215  -0.0001507693
        0.0020554623  -0.0006189108   0.0002359628  -0.0001544639   0.0003143559
        0.0034402549  -0.0014612133   0.0014515423  -0.0007058041   0.0009024514
        0.0004209873  -0.0791680291  -0.0201971051  -0.0025372078   0.0001014127
        0.0014877512  -0.0007623564  -0.2471120692  -0.1057363597  -0.0126711790
       -0.0002678028   0.0008930048  -0.0004178810  -0.0001252002   0.0000430582
       -0.0000328662   0.0000422409  -0.0000371597   0.0000129102   0.0000108868
        0.0000372918  -0.0000058057  -0.0000024475   0.0000626733   0.0000007017
       -0.0000519733   0.0000349120  -0.0000135258  -0.0000515374   0.0000355719
       -0.0000007211  -0.0000714104   0.0000038889   0.0000048698  -0.0000465726
       -0.0000303595  -0.0000028170   0.0000381357   0.0000021850   0.0000058764
       -0.0003137756   0.0002431245   0.0001403426   0.0000714531   0.0000939492
       -0.0002942166  -0.0045682384  -0.0032744933  -0.0001113190   0.0001459030
       -0.0001592224   0.0001046747   0.0000039627  -0.0000091592   0.0002490251
       -0.0000674690  -0.0000395243   0.0000545052   0.0000161181  -0.0000028746
        0.0000084799   0.0000166481   0.0000153004   0.0000115116  -0.0000171354
        0.0000092244  -0.0000095735   0.0000394045   0.0000203636  -0.0000520004
        0.0000069190  -0.0000005423  -0.0000065110   0.0000037610  -0.0000387278
       -0.0000210824  -0.0000279889  -0.0000073110  -0.0000323989   0.0000123660
       -0.0000954969  -0.0000427270  -0.0043922883  -0.0024486094  -0.0003721302
        0.0537484467  -0.1543854105  -0.0150172593   0.0137835032   0.5754556207
        0.0673271037   0.0206845330  -0.2523941555  -0.0325196618   0.0225626753
       -0.0316658203  -0.0044149798  -0.0078075025  -0.0019883286  -0.0016946055
        0.0019518499  -0.0027143976  -0.0018207118  -0.0030356605   0.0017562529
       -0.0002444916   0.0008536916  -0.0008349375   0.0000263177   0.0000753359
        0.0000814494   0.0003186030   0.0000098053  -0.0000883737   0.0000071048
        0.0000030416   0.0000641183  -0.0000274249   0.0000412619  -0.0000077677
       -0.0000058248  -0.0000727751  -0.0000791602  -0.0000237505  -0.0000571407
        0.0001680515   0.0000682203  -0.0002319043  -0.0000248862  -0.0000331733
        0.0001101828   0.0001066682   0.0000018062  -0.0000153583  -0.0000552961
        0.0000048754  -0.0000483905  -0.0000446902   0.0000185323   0.0000839257
        0.0000260730  -0.0000188589  -0.0001191639  -0.0000379952  -0.0002340496
        0.0048968144  -0.0005035411  -0.0002615282  -0.0014159590   0.0063911734
        0.0040432940  -0.0642136653  -0.0443712934  -0.0064410112   0.0109263445
       -0.0048373001   0.0017919864  -0.0018765891   0.0026326526  -0.0006374573
       -0.0027017711  -0.0006001042  -0.0015141135   0.0019063859   0.0075016577
        0.0000124511  -0.0100711025  -0.0076455869  -0.0032670681   0.0104019510
        0.0075099470   0.0028182683  -0.0059310378   0.0011216029  -0.0032482182
        0.0020210204   0.0047439612   0.0007637197  -0.0013896558  -0.0025189961
       -0.0006897635   0.0025593088  -0.0000054205   0.0017092169  -0.0008522710
       -0.0073928412   0.0003640304  -0.0004791525   0.0006593968  -0.0005525836
       -0.0011141962   0.0003123717  -0.0006576793   0.0022247955  -0.0001519719
        0.0014187515  -0.0012509692  -0.0031667599   0.0003649933  -0.0005394805
        0.0027175381  -0.0009394633   0.0005942050  -0.0010830903   0.0008708093
        0.0059679694  -0.0001297068   0.0026834020  -0.0025548232  -0.0051980878
       -0.0000972801   0.0368933240   0.0281893243   0.0048001992   0.0248966742
       -0.0198727679  -0.0022794101  -0.1051763243  -0.0975250851  -0.0089554284
       -0.0002797443  -0.0000230588  -0.0002629118   0.0000038189   0.0001334461
       -0.0002098708   0.0000558266  -0.0000088816   0.0000147846  -0.0000031164
        0.0000028564  -0.0000057786   0.0000081554   0.0000241814   0.0000092537
       -0.0000166112   0.0000113305  -0.0000180050  -0.0000179421   0.0000148730
        0.0000092771  -0.0000276602   0.0000057688  -0.0000004823  -0.0000114380
        0.0000009656   0.0000034196   0.0000275347  -0.0000269240   0.0000099850
        0.0000200732  -0.0001740541   0.0001787910  -0.0003425254  -0.0004839935
        0.0001350526  -0.0023001851  -0.0001536613  -0.0017690494  -0.0000705192
        0.0001808666  -0.0000113186  -0.0000451106   0.0000731502   0.0004049650
       -0.0000989589  -0.0000151069   0.0000446303   0.0000195331   0.0000096145
        0.0000165091   0.0000366453   0.0000062738  -0.0000382859  -0.0000127103
        0.0000218168   0.0000098925   0.0000488339   0.0000028049  -0.0000817473
        0.0000060041  -0.0000010816  -0.0000086213   0.0000163272  -0.0000516796
       -0.0000749496  -0.0000795251   0.0000243122  -0.0000297647   0.0000278316
        0.0001366465  -0.0001035338  -0.0032066900   0.0001754471  -0.0020401304
        0.0034986073  -0.0142034695  -0.0457478118   0.0047182994   0.0673271037
        0.1122796094  -0.0004736564  -0.0278078335  -0.0512534216   0.0076840644
       -0.0077739059   0.0005203234  -0.0034186570  -0.0003441157  -0.0014194068
        0.0009377415  -0.0010360758  -0.0003762041  -0.0010519189   0.0006596917
        0.0000028405   0.0003240138  -0.0002557863   0.0000462553  -0.0000004167
        0.0000365084   0.0001419292   0.0000401281  -0.0000251135  -0.0000076330
       -0.0000045554   0.0000467719  -0.0000046813   0.0000706994   0.0000338597
       -0.0000051329  -0.0000732538  -0.0001053818  -0.0000078985   0.0000163305
        0.0001517824   0.0000242926  -0.0001457414  -0.0000732539  -0.0000012343
        0.0000790821   0.0001110131   0.0000031968  -0.0000048855  -0.0000876760
       -0.0000031498  -0.0000494609  -0.0000189755   0.0000042792   0.0000417127
       -0.0000274937   0.0000040307  -0.0000082902   0.0000153504  -0.0001153790
        0.0015244319  -0.0000388509   0.0001016137  -0.0004246304   0.0010210816
        0.0017712541  -0.0090588395  -0.0074484744   0.0008443927   0.0014921979
        0.0020475954  -0.0054207108  -0.0001989678   0.0005663621  -0.0004631673
       -0.0007305133  -0.0000973036  -0.0002916712   0.0005132752   0.0019499267
       -0.0000322223  -0.0024684732  -0.0019538339  -0.0008865348   0.0025350834
        0.0018712467   0.0007470318  -0.0014790699   0.0003095529  -0.0007822988
        0.0004937339   0.0011786229   0.0001670646  -0.0003361318  -0.0006265671
       -0.0001603209   0.0006360211  -0.0000261961   0.0004049192  -0.0002062243
       -0.0018281970   0.0001149840  -0.0001076925   0.0001532051  -0.0001184832
       -0.0002827950   0.0000698906  -0.0001580192   0.0005443883  -0.0000512739
        0.0003351676  -0.0003084094  -0.0007688351   0.0000905354  -0.0001278246
        0.0006659036  -0.0002328194   0.0001519035  -0.0002856295   0.0002394978
        0.0014971369  -0.0000035369   0.0006289028  -0.0006824109  -0.0013930225
        0.0000565016   0.0051758121   0.0031745923   0.0022308054   0.0038103998
       -0.0031359717   0.0007934592  -0.0133622844  -0.0095777709  -0.0300997745
       -0.0000902870   0.0003995916   0.0002138656   0.0000517462   0.0000517692
       -0.0000647496   0.0000020988  -0.0000033970   0.0000052150  -0.0000067590
       -0.0000090029   0.0000003358   0.0000013178  -0.0000041571   0.0000058022
        0.0000035963  -0.0000013471  -0.0000087499   0.0000046795  -0.0000035726
        0.0000012155   0.0000030227   0.0000015397  -0.0000068247   0.0000016558
        0.0000099319  -0.0000052803   0.0000035264   0.0000050455  -0.0000155527
        0.0000386651   0.0000238686   0.0000036689  -0.0000441815  -0.0000676202
        0.0001170107  -0.0002867280  -0.0015039228   0.0077988000   0.0000054104
        0.0000353611  -0.0000005122  -0.0000068574   0.0000106144   0.0000841294
       -0.0000229388  -0.0000089104   0.0000087079   0.0000125799  -0.0000013485
        0.0000075506   0.0000076106   0.0000035044   0.0000035341  -0.0000004047
        0.0000131793   0.0000135995   0.0000159074   0.0000044939  -0.0000130528
        0.0000080652   0.0000040134   0.0000036016   0.0000014771  -0.0000122330
       -0.0000196913  -0.0000146299  -0.0000017416  -0.0000125242  -0.0000358004
        0.0000152767  -0.0000112611  -0.0004327327  -0.0013564527   0.0079262506
        0.0215740984   0.0232611623   0.0021329606  -0.0830207915   0.0206845330
       -0.0004736564   0.6374522153   0.0132100751   0.0095307025  -0.1710550448
        0.0692539726   0.0089775561  -0.0384674538   0.0103829629  -0.0059453926
        0.0008360154  -0.0032127494  -0.0053919708  -0.0036135066   0.0022744697
        0.0000405888   0.0010051659  -0.0011737155   0.0002951646   0.0000962966
        0.0001262685   0.0002539638   0.0001863081  -0.0001031822  -0.0000038078
        0.0000478788   0.0002105871  -0.0000099097   0.0003038756   0.0001932194
       -0.0000194292  -0.0002810675  -0.0004308340  -0.0000066527   0.0000278936
        0.0004626283   0.0000255952  -0.0004073598  -0.0002524474  -0.0000377846
        0.0002473663   0.0004462752   0.0000088545  -0.0000343576  -0.0003481717
       -0.0000143630  -0.0001769981  -0.0001161451   0.0000164698   0.0002015289
       -0.0001358455  -0.0000050142  -0.0002670596  -0.0000359794  -0.0002078199
        0.0064356564   0.0005393730  -0.0010816528  -0.0060161471   0.0183185653
        0.0096266770  -0.2801740169  -0.1315470865  -0.0138641334  -0.0696063701
        0.0138950686   0.0010708722   0.0077304834   0.0088150401   0.0003863413
       -0.0041427743   0.0004246257   0.0002166666   0.0004716466  -0.0011103767
        0.0002756865   0.0038129016   0.0021980692   0.0014611019  -0.0043091406
       -0.0034627210  -0.0013722717   0.0029197070  -0.0003878387   0.0015592037
       -0.0010883625  -0.0025097934  -0.0004075383   0.0007612138   0.0013698485
        0.0003574367  -0.0013451762  -0.0000437975  -0.0008309566   0.0004251175
        0.0036455415  -0.0001107658   0.0003445218  -0.0003327444   0.0002676636
        0.0007803400  -0.0003071276   0.0004824394  -0.0015913882   0.0000842221
       -0.0009743075   0.0008738175   0.0019965369  -0.0002122068   0.0001068649
       -0.0014658389   0.0004406440  -0.0001906069   0.0000389278  -0.0001467514
       -0.0009721266   0.0010957379  -0.0006850461   0.0002287069  -0.0021626809
       -0.0004241990  -0.0100530089  -0.0147966937  -0.0030062031  -0.0038954436
        0.0036186212   0.0006741541  -0.0038092574  -0.0257681162  -0.0029542396
        0.0005878836   0.0001922762   0.0011347837  -0.0005832993   0.0005818875
       -0.0000363920  -0.0000333471   0.0000392831  -0.0000051422  -0.0000412179
       -0.0000547484  -0.0000096444  -0.0000003757  -0.0000528182  -0.0000074598
        0.0000542014  -0.0000298484   0.0000031949   0.0000462277  -0.0000360400
        0.0000062346   0.0000555383  -0.0000059830  -0.0000098855   0.0000415580
        0.0000643990   0.0000170180  -0.0000324968   0.0000287824  -0.0000160644
        0.0001197357  -0.0003760048  -0.0000136843  -0.0001346354  -0.0021419830
        0.0002853483  -0.0028149120  -0.0038965374  -0.0014876731   0.0000888715
       -0.0001947454   0.0000692044   0.0000120190  -0.0000808987  -0.0002428176
        0.0000280638  -0.0000068649  -0.0000476567   0.0000321172  -0.0000174094
        0.0000150083   0.0000008733   0.0000208080   0.0000133611  -0.0000046577
        0.0000483803   0.0000343673   0.0000116223   0.0000157236   0.0000127651
        0.0000217730   0.0000019262   0.0000032541  -0.0000349467   0.0000136744
       -0.0000325115  -0.0000255027  -0.0000729529   0.0000112328  -0.0001024327
       -0.0002392897   0.0000231692   0.0003551780  -0.0006434626   0.0003653200
        0.0677832355  -0.0378306817  -0.0062877981  -0.0414393742  -0.2523941555
       -0.0278078335   0.0132100751   0.5647950392   0.0822667791   0.0633756975
       -0.1037738455  -0.0119426613   0.0113155109   0.0055302134   0.0048940539
       -0.0030180906   0.0076597001  -0.0016496343   0.0045033472  -0.0030487960
       -0.0008023265  -0.0027284765   0.0010002166   0.0008953965   0.0000049428
       -0.0009851856  -0.0005750959   0.0002816121   0.0003118178  -0.0000009932
        0.0001009702   0.0000387574   0.0000659179   0.0002731897   0.0002770492
        0.0000032233  -0.0002663893  -0.0004531581   0.0000778891  -0.0001596856
        0.0003198802  -0.0000725951  -0.0003443239  -0.0000416232   0.0000545817
        0.0002127825   0.0004394638  -0.0000344784  -0.0000881303  -0.0003545608
       -0.0000067069  -0.0000207278  -0.0000754159  -0.0000451188  -0.0001132572
       -0.0003898889   0.0000334368   0.0007196570   0.0004665866   0.0004839653
       -0.0038434787   0.0011761907  -0.0061697241   0.0219505994  -0.0250600902
       -0.0111357262  -0.0735699082  -0.1272324481  -0.0151930668  -0.0182165225
        0.0060297544  -0.0026758963   0.0128657872   0.0001072457   0.0010528778
        0.0029485292   0.0016598040   0.0028667961  -0.0022380119  -0.0115789073
        0.0003396931   0.0177306529   0.0120124178   0.0060830780  -0.0183086187
       -0.0134048561  -0.0053537157   0.0108165420  -0.0020047906   0.0058771991
       -0.0037162572  -0.0086718816  -0.0013349531   0.0027025161   0.0045029824
        0.0013638357  -0.0050117391   0.0000337207  -0.0031931645   0.0018303447
        0.0133835844  -0.0005034657   0.0008274708  -0.0009405730   0.0008432393
        0.0023746160  -0.0010104275   0.0015092323  -0.0047556382   0.0003471399
       -0.0029641892   0.0025711660   0.0062964403  -0.0006883404   0.0008107499
       -0.0050846831   0.0017562817  -0.0008938692   0.0014334622  -0.0011764448
       -0.0098474422   0.0016888161  -0.0044371056   0.0032052933   0.0044564524
        0.0000919143  -0.0252358825  -0.0042977491  -0.0018399324   0.0030074079
       -0.0007013018  -0.0011560828  -0.0038142414  -0.0144304625  -0.0032355643
       -0.0014915772  -0.0013547209   0.0010319902  -0.0006493715   0.0000528674
        0.0000992864  -0.0000588203  -0.0000011914  -0.0000414126  -0.0000264157
       -0.0000382517   0.0000188829   0.0000003154  -0.0000663448  -0.0000019012
        0.0000585712  -0.0000315915   0.0000491676   0.0000436059  -0.0000388003
       -0.0000028769   0.0000681333  -0.0000051469   0.0000081810   0.0000298158
        0.0000457232   0.0000006442  -0.0000051261   0.0000671018   0.0000068232
        0.0008231415  -0.0003217862  -0.0002451183  -0.0001508012  -0.0000281907
        0.0013399858  -0.0261000083  -0.0184043639  -0.0022765187  -0.0000065485
       -0.0001112034  -0.0000648528   0.0002437966  -0.0001402697  -0.0007893488
        0.0001473566  -0.0000132908  -0.0001478599  -0.0000134081  -0.0000438650
       -0.0000276860  -0.0000263586   0.0000077406   0.0000467354   0.0000031879
        0.0000018867  -0.0000115703  -0.0000565372   0.0000012141   0.0001280052
       -0.0000318832   0.0000116949   0.0000366307  -0.0000718744   0.0000942578
        0.0001159259   0.0000488346  -0.0000156299  -0.0000562540  -0.0001358337
        0.0002339608  -0.0001713701  -0.0004348251  -0.0001030540   0.0006777342
        0.0114597868  -0.0047892111  -0.0002420587  -0.0086131405  -0.0325196618
       -0.0512534216   0.0095307025   0.0822667791   0.1493069101   0.0075009852
       -0.0126949252  -0.0587781563  -0.0135106280   0.0092560937   0.0025800181
       -0.0046903219  -0.0030023541   0.0007114330   0.0001501024  -0.0003127437
       -0.0001014759   0.0005923126   0.0005680043  -0.0005889374  -0.0001396898
        0.0002448117   0.0000150620  -0.0000357434  -0.0000761899   0.0000243086
       -0.0000230470   0.0000446109  -0.0000017801   0.0000439143  -0.0000032549
       -0.0000123450  -0.0000026728  -0.0000126693  -0.0000096291   0.0000744339
        0.0000577633   0.0000070694   0.0001068556  -0.0000835844   0.0000184295
       -0.0000199412  -0.0000185069   0.0000126507   0.0000139319  -0.0000028135
       -0.0000131366  -0.0000228187   0.0000242825   0.0000064267   0.0000053261
        0.0000143423   0.0000283435  -0.0000620558  -0.0001461734  -0.0001209786
       -0.0020882162  -0.0052966037  -0.0001576295   0.0177201826  -0.0145858990
       -0.0026444287  -0.0093512672  -0.0153438275  -0.0478769435  -0.0030148722
        0.0040116436   0.0013843978   0.0016121876  -0.0009959960   0.0040221822
        0.0011962870   0.0004827922   0.0005506385  -0.0004223025  -0.0015802974
        0.0001162569   0.0026577890   0.0012681283   0.0010090705  -0.0024846238
       -0.0017812429  -0.0008269632   0.0014379611  -0.0002472284   0.0008387792
       -0.0004842234  -0.0010569757  -0.0001868006   0.0004726526   0.0004815474
        0.0002610618  -0.0008562783  -0.0000237049  -0.0004868272   0.0004420587
        0.0017199637   0.0000300496   0.0000026312   0.0000242754   0.0000360641
        0.0003979480  -0.0003207772   0.0003064586  -0.0008225429   0.0000479442
       -0.0005183291   0.0004378189   0.0009374227  -0.0001082335   0.0000979134
       -0.0006872526   0.0001897401  -0.0000913459   0.0001094923   0.0000610615
       -0.0016360584   0.0004492584  -0.0007362331   0.0005881906  -0.0000427608
       -0.0005196764  -0.0044836362  -0.0012827281  -0.0042533338   0.0001153305
       -0.0010521201   0.0067924455  -0.0008044782  -0.0023793299   0.0010812567
       -0.0000499937   0.0013877272  -0.0003556084  -0.0008678385   0.0004418530
        0.0000052055   0.0000100882   0.0000394245  -0.0000331591  -0.0000022937
       -0.0000044898  -0.0000047455  -0.0000004431  -0.0000154833  -0.0000087120
        0.0000127342  -0.0000040134  -0.0000096352   0.0000161559  -0.0000063592
       -0.0000095133   0.0000141765  -0.0000011049  -0.0000142984   0.0000087071
        0.0000135913  -0.0000022415   0.0000012919   0.0000317775  -0.0000275754