$hessian                                                                        
        0.0949866484   0.2067034610  -0.2077404197  -0.1051732107  -0.1917358778
        0.1926693286   0.0115604661  -0.0156382317   0.0159554753   0.0013589524
        0.0019466906  -0.0021718721  -0.0004104861   0.0004131648   0.0004207280
       -0.0000551443  -0.0005952658   0.0001335744  -0.0003130045   0.0002336768
        0.0002422053   0.0000680928  -0.0002126142   0.0000904154  -0.0000197920
        0.0000347440  -0.0000070813  -0.0000295822  -0.0001046701  -0.0000270489
        0.0000365412   0.0000904556   0.0000887044  -0.0001487363   0.0000356618
       -0.0000984429   0.0001122205   0.0001414653   0.0001094686  -0.0000084387
       -0.0001310820  -0.0000550038  -0.0000613289  -0.0000142125  -0.0000462573
        0.0000083798  -0.0000405597  -0.0000286099   0.0004114780   0.0001460826
        0.0001052629  -0.0013009827   0.0014706704  -0.0016001067  -0.0002056651
        0.0001885558  -0.0001666870   0.0004357081   0.0006368708   0.0001728594
        0.0000442083  -0.0002340526  -0.0001343487   0.0001247891   0.0000272024
       -0.0000074333   0.0000007110  -0.0000647114  -0.0000279456   0.0000627553
        0.0002383877   0.0000694285  -0.0002999473  -0.0000567198   0.0000839132
       -0.0004005265   0.0000397035   0.0000155271  -0.0000335253  -0.0004540057
       -0.0001507673   0.0001664183  -0.0000178269  -0.0000134658  -0.0001845466
        0.0000735901   0.0000083020   0.0001481825  -0.0001572354  -0.0000468040
        0.0000163907   0.0001316632   0.0000565916  -0.0000393618  -0.0000091201
        0.0000075309  -0.0000138020   0.0000697796   0.0000094155   0.0001984250
       -0.0000952452  -0.0000370335  -0.0001442970   0.0003298753   0.0000961590
        0.0000943941   0.0000302713   0.0000070553  -0.0000435722   0.0001489607
        0.0000163860   0.0003985350  -0.0003812434  -0.0001281467  -0.0007740953
       -0.0035392812   0.0027402463   0.0013333632   0.0037873950  -0.0032437420
       -0.0008545706  -0.0024656299   0.0023055844   0.0023972990   0.0004839034
       -0.0005057113   0.0003379087  -0.0005039484   0.0001502912  -0.0003290572
       -0.0001860848  -0.0000035754   0.0001083201   0.0001158370   0.0000447976
       -0.0001478288   0.0000552238  -0.0000878154   0.0000645663  -0.0001428656
       -0.0000025967   0.0000873582   0.0000936051   0.0000435646   0.0000726375
       -0.0002214840  -0.0000275555   0.0001035191   0.0000699950   0.0001099988
       -0.0000055234  -0.0001319197  -0.0000315035   0.0000965725  -0.0000098638
        0.0000430163  -0.0000161078   0.0000355033  -0.0000053538  -0.0000761757
       -0.0000236641  -0.0001155830   0.0000650880   0.0000731536   0.0001241423
       -0.0033713374  -0.0012464691   0.0018086849  -0.0005400381   0.0001319369
       -0.0012424034   0.0003947394  -0.0003151963   0.0002168077  -0.0000169119
       -0.0000067697  -0.0000958829  -0.0000643957   0.0001201603   0.0000235220
        0.0000411348   0.0002140924   0.0000573577  -0.0000094570  -0.0002010268
       -0.0001131947  -0.0001523265   0.0000386999   0.0000788597   0.0002038127
       -0.0000718270  -0.0000946234  -0.0002057723   0.0004571241   0.0002273979
        0.0003298061   0.0000592498  -0.0000393981  -0.0002035751  -0.0000998689
       -0.0000191469  -0.0000257414   0.0002125076   0.0000747450   0.0000113402
       -0.0002138584  -0.0000786020  -0.0001875363  -0.0001147746  -0.0000188897
        0.0001627136   0.0000170238  -0.0000450093   0.0000637103   0.0000271313
        0.0000617133   0.0001053948  -0.0002892145  -0.0000680357  -0.0000387034
        0.0001219581  -0.0001378077  -0.0002268453   0.0001296783  -0.0007213467
        0.0004990214   0.0003345938   0.0000775100  -0.0002467046  -0.0000562757
        0.0000958192  -0.0000055667   0.0000542738   0.0000025561   0.0000077716
        0.0000177490  -0.0000240839  -0.0000000211   0.0000162896  -0.0000264516
       -0.0000073164  -0.0000057672  -0.0000017552  -0.0000056974  -0.0000007542
       -0.0000125555  -0.0000237821  -0.0000079707  -0.0000109887  -0.0000010907
        0.0000322031   0.0000140745  -0.0000012785   0.0000280947   0.0000332754
        0.0000069713  -0.0000228154  -0.0000027534  -0.0000249592  -0.0000272647
       -0.0000042394  -0.0000345998  -0.0000016948  -0.0000059448  -0.0000311470
       -0.0000209626  -0.0000003699  -0.0000241356   0.0000081402  -0.0000044525
        0.0000073449   0.0000305652  -0.0000000026   0.0000212527   0.0000097423
       -0.0000062374  -0.0000131211   0.0000237725   0.0000151244   0.0000232375
       -0.0000463065  -0.0000140882  -0.0000074056  -0.0000810110   0.0000493606
        0.0000320845  -0.0000101411   0.0000284682  -0.0000009928  -0.0000031581
        0.0000058372   0.0000036747  -0.0000022371   0.0000127400   0.0000018084
       -0.0000201114   0.0000164527   0.0000113538   0.0000080547   0.0000201320
        0.0000050156   0.0000013852   0.0000135715   0.0000404057   0.0000297246
        0.0000738236  -0.0000236116  -0.0000440523   0.0000746806  -0.0000057890
       -0.0000038505   0.0000063986   0.0000328041  -0.0000207532   0.0000087076
        0.0000291956   0.0000065552   0.0000226335   0.0000639320  -0.0000295378
        0.0000053206   0.0000293725   0.0000092101  -0.0000084288   0.0000302899
        0.0000339622   0.0000093873  -0.0000305378   0.0000404508   0.0000299686
       -0.0000312893  -0.0000085149   0.0000688102  -0.0004071215   0.0000797213
        0.0001538897
        0.2067034610   0.5603283998  -0.5464017741  -0.1918478619  -0.5351964337
        0.5083641469  -0.0175409346  -0.0270308495   0.0383896729   0.0057134429
       -0.0001827583   0.0019732259   0.0003894277   0.0003570057  -0.0011424749
       -0.0003051760  -0.0002725356   0.0002304333   0.0000413034   0.0001597726
       -0.0011955852   0.0001107133   0.0001907652  -0.0000664003  -0.0002525141
       -0.0001506825  -0.0001273734   0.0003007795   0.0005551276   0.0001899800
       -0.0004612249  -0.0004263640  -0.0002085525   0.0003986066   0.0002964114
        0.0003104125  -0.0003019328  -0.0004880920  -0.0003225898  -0.0000439760
        0.0006722897   0.0001016444   0.0003848023   0.0000861423   0.0001722914
       -0.0000517770  -0.0001037945  -0.0002250097  -0.0000889898   0.0000434383
        0.0001923549  -0.0051519372   0.0040328965  -0.0034370945  -0.0009491635
       -0.0001043501  -0.0005134423   0.0005284439   0.0010861250   0.0005876052
        0.0001734652  -0.0003169014  -0.0002268359   0.0000434051   0.0000097021
       -0.0000152300   0.0001285340  -0.0002538253  -0.0001320884   0.0001583042
        0.0005991716   0.0001628710  -0.0005544122  -0.0003118265   0.0001269801
       -0.0012174324   0.0001846896   0.0001404861   0.0005365356  -0.0006072008
       -0.0002680810  -0.0002237968  -0.0001755439  -0.0000126926  -0.0003750674
       -0.0000187811  -0.0000430519   0.0002539190  -0.0001307567  -0.0000110361
       -0.0000490283   0.0000359426   0.0000358123   0.0002246034  -0.0000006969
       -0.0000085612  -0.0002493939   0.0002825612   0.0001074874   0.0006365757
       -0.0003074821  -0.0001175576  -0.0008034542   0.0004001522   0.0001015545
        0.0008482448   0.0000050922  -0.0000918659  -0.0003393553   0.0006654319
        0.0001249104   0.0012261503  -0.0012823172  -0.0002632470  -0.0020252495
       -0.0094857390   0.0073730229   0.0036459557   0.0101852021  -0.0088980425
       -0.0024380423  -0.0066225723   0.0062232341   0.0049634270   0.0015620087
       -0.0022175495   0.0010628601  -0.0008003844   0.0000085749  -0.0012118423
       -0.0005886275  -0.0005211098   0.0002235734   0.0003153471   0.0001347258
       -0.0001623042   0.0000569202  -0.0001220180   0.0000725097   0.0001318523
        0.0000691040  -0.0001730123  -0.0002262094  -0.0001934125   0.0005067560
       -0.0002705196   0.0002240472   0.0003740668  -0.0003840112   0.0002673370
        0.0000818252   0.0003469945   0.0001321235  -0.0000194087  -0.0001365091
       -0.0000451678  -0.0000895579   0.0001738646  -0.0000504816  -0.0002553699
       -0.0003290683  -0.0003821723  -0.0001068963   0.0014550780   0.0002899766
       -0.0027264439   0.0020727708  -0.0001077586  -0.0001414549   0.0004984424
       -0.0003962829   0.0001413130  -0.0000727702   0.0002022575  -0.0000517244
        0.0000865309  -0.0000783475   0.0000471322   0.0000911354   0.0000102400
        0.0000420588   0.0000870757  -0.0000045038  -0.0000792967  -0.0000123232
       -0.0000379501  -0.0000906659  -0.0000015482   0.0000520198   0.0005812897
        0.0000860672  -0.0000560962  -0.0005047692   0.0003467563   0.0002128169
        0.0004662589   0.0000972146  -0.0000643522  -0.0001053437  -0.0003032450
       -0.0001268766  -0.0000181245   0.0003289544   0.0000924106   0.0000804839
       -0.0003020505  -0.0001289844  -0.0004372092  -0.0001657201  -0.0000142814
        0.0002735369   0.0002337278  -0.0000244727  -0.0002951514  -0.0001902009
        0.0000733641   0.0006459794  -0.0001785186  -0.0000525133  -0.0006591773
       -0.0000571943  -0.0000764776   0.0004080971   0.0005218496  -0.0008634122
       -0.0002328225  -0.0008462879   0.0002752372   0.0003258016  -0.0002004758
        0.0005709548   0.0000115023   0.0000838720   0.0001121573   0.0000272189
       -0.0000254380   0.0000519664   0.0000207486  -0.0000255584   0.0000025423
       -0.0000617126   0.0000253139   0.0000081032  -0.0000408301   0.0000262070
       -0.0000088013  -0.0000267996  -0.0000262459  -0.0000003486   0.0000034585
        0.0000576661   0.0001244289  -0.0000273754   0.0000726529   0.0000944482
        0.0000139834  -0.0000311703   0.0000045389  -0.0000572754  -0.0000557120
        0.0000013032  -0.0000930358  -0.0000049409  -0.0000139237  -0.0000461600
       -0.0000476424   0.0000075540  -0.0000309193   0.0000153961   0.0000026540
        0.0000005864   0.0000635816   0.0000115964   0.0000395677   0.0000328331
        0.0000124416  -0.0000537264   0.0000749397   0.0000953605   0.0000240216
       -0.0001915794   0.0000642269  -0.0000370606  -0.0001814494   0.0000615058
        0.0000882251  -0.0000097824   0.0000665129   0.0000186673  -0.0000047705
        0.0000180032   0.0000370020  -0.0000147354   0.0000173738   0.0000329749
       -0.0000541527   0.0000173548   0.0000317310  -0.0000244983   0.0000314323
       -0.0000041280  -0.0000261218   0.0000107948   0.0000814957   0.0000846447
        0.0001695783   0.0000165554   0.0000059419   0.0000988296   0.0000291793
        0.0000009319  -0.0000060241   0.0000545902  -0.0000385825  -0.0000029719
        0.0000804843  -0.0000327160   0.0000141201   0.0000921167  -0.0000536076
        0.0000187390   0.0000505516   0.0000283765  -0.0000133400   0.0000587569
        0.0000818002   0.0000091523  -0.0000315689   0.0000665101   0.0000478403
        0.0000314294   0.0000960255   0.0001344779  -0.0004466025  -0.0001017321
        0.0005058640
       -0.2077404197  -0.5464017741   0.5660393752   0.1930334556   0.5091466814
       -0.5382169119   0.0163796908   0.0349925664  -0.0295925892  -0.0052155317
        0.0026503729   0.0001382278  -0.0005219296  -0.0004950737   0.0014532830
        0.0005428948  -0.0005217349  -0.0006510280   0.0000767362  -0.0001264207
        0.0000102731  -0.0000022399   0.0000492255   0.0000494307   0.0002848656
        0.0001663505   0.0002366693  -0.0002288695  -0.0006157868  -0.0001558845
        0.0001745248   0.0005071367   0.0001370285  -0.0001904759  -0.0004228172
       -0.0002045835   0.0002465966   0.0004654913   0.0002954826   0.0000332423
       -0.0005695754  -0.0000831677  -0.0003439510  -0.0000181337  -0.0000999551
        0.0000175903   0.0000484911   0.0003147199   0.0002265769   0.0000733530
       -0.0002825433   0.0049386774  -0.0037099601   0.0032420667   0.0010065757
       -0.0003376590  -0.0000810091  -0.0005172348  -0.0009876515  -0.0004919057
       -0.0001033822   0.0002174875   0.0002011771  -0.0000070354  -0.0000085150
       -0.0000099184  -0.0001506439   0.0002299602   0.0001305009  -0.0001895474
       -0.0005156586  -0.0001327609   0.0005081592   0.0002454505  -0.0001081720
        0.0012159252  -0.0001180481  -0.0000906091  -0.0005823250   0.0005096798
        0.0002552961   0.0002727884   0.0001561945  -0.0000011610   0.0003796168
        0.0000226529   0.0000380806  -0.0002491187   0.0000973385   0.0000046484
        0.0000424928  -0.0000023923  -0.0000221132  -0.0002542469   0.0000136083
        0.0000193475   0.0002743720  -0.0002905864  -0.0001165861  -0.0006370892
        0.0003369918   0.0001294886   0.0008633021  -0.0003035359  -0.0000725015
       -0.0009192299   0.0000397337   0.0001101361   0.0002856946  -0.0007103859
       -0.0001711783  -0.0011389675   0.0012722722   0.0001847170   0.0018491132
        0.0086846358  -0.0065096324  -0.0033278473  -0.0094019562   0.0079923190
        0.0022073740   0.0060346894  -0.0055803275  -0.0048014869  -0.0013927800
        0.0020694632  -0.0011322288   0.0004657312  -0.0006071657   0.0011549455
        0.0005768324   0.0003951996  -0.0001834775  -0.0003473560  -0.0001500516
        0.0002303153  -0.0000651612   0.0001592193  -0.0001037361   0.0000186945
       -0.0000388411   0.0000925278   0.0001150254   0.0001403756  -0.0004345404
        0.0003962458  -0.0001237025  -0.0003682654   0.0002198399  -0.0002608397
       -0.0000053159  -0.0002005747  -0.0000593394  -0.0000316379   0.0000821743
        0.0000215741   0.0000717830  -0.0001585109   0.0000133299   0.0001468898
        0.0002412862   0.0003178644   0.0001067103  -0.0012780911  -0.0001931182
        0.0032826784   0.0006520287   0.0018544976   0.0001265871  -0.0006606589
        0.0008982137  -0.0001483905   0.0001322866  -0.0003852363  -0.0000084579
       -0.0000265925   0.0002166327   0.0000594669  -0.0000516858   0.0000254080
       -0.0000458853  -0.0001089671  -0.0000072089   0.0000913226   0.0000509987
        0.0000637044  -0.0001543092  -0.0000875271  -0.0000322945  -0.0002504189
       -0.0000231444   0.0000710698   0.0003569242  -0.0003486940  -0.0001729968
       -0.0003812633  -0.0000517768   0.0000694803   0.0000224801   0.0000748748
        0.0000571630   0.0000726606  -0.0001614128  -0.0000406778  -0.0000030195
        0.0001652000   0.0000709689   0.0002762884   0.0001488774   0.0000300648
       -0.0002010328  -0.0001777602   0.0000193089   0.0001704489   0.0002240638
       -0.0000230834  -0.0005321975   0.0001604392   0.0001307692   0.0005312805
        0.0002576919  -0.0000029699  -0.0003249688  -0.0004957429  -0.0002396852
       -0.0002982810   0.0002337298  -0.0009293200   0.0001845583   0.0001908744
       -0.0002897077  -0.0000012264   0.0000375895  -0.0000347266   0.0000165476
        0.0000040521  -0.0000111027   0.0000334747   0.0000180847   0.0000156950
        0.0000428440  -0.0000195555  -0.0000252713   0.0000463770  -0.0000067035
        0.0000020260   0.0000358097   0.0000432945  -0.0000056071   0.0000534024
        0.0000629154  -0.0001790603   0.0000043523  -0.0000410440  -0.0000987683
       -0.0000113224   0.0000517661  -0.0000037690   0.0000584699   0.0000589581
        0.0000046175   0.0000849963   0.0000004359  -0.0000004315   0.0000464545
        0.0000501192  -0.0000071407   0.0000343301  -0.0000164616  -0.0000056756
       -0.0000004031  -0.0000619030  -0.0000131696  -0.0000463378  -0.0000262300
       -0.0000061776   0.0000213621  -0.0000573477  -0.0000792568  -0.0000690261
        0.0001122182  -0.0000051029   0.0000383665   0.0000964929   0.0000023255
       -0.0000575019   0.0000044577  -0.0000470490  -0.0000265781   0.0000071753
       -0.0000225906  -0.0000418539   0.0000271401  -0.0000280045  -0.0000297157
        0.0000530154  -0.0000291231  -0.0000325003   0.0000338922  -0.0000222952
        0.0000126809   0.0000445289  -0.0000084576  -0.0000421977  -0.0000668951
       -0.0001623282   0.0000070790   0.0001245024  -0.0001631880  -0.0000227721
        0.0000191232   0.0000037828  -0.0000491638   0.0000527960  -0.0000040326
       -0.0000503554   0.0000176821  -0.0000285617  -0.0001005122   0.0000503913
       -0.0000137003  -0.0000555270  -0.0000273811   0.0000141924  -0.0000533832
       -0.0000744619  -0.0000043845   0.0000344969  -0.0000152750  -0.0000125360
        0.0000030090   0.0000282156  -0.0000482853   0.0000071903   0.0002412543
       -0.0003486404
       -0.1051732107  -0.1918478619   0.1930334556   0.1975260301   0.2443092855
       -0.2471936742  -0.0785671543  -0.0424058684   0.0431596812  -0.0143507589
       -0.0235117739   0.0228065744   0.0005055310  -0.0012150003   0.0003727327
       -0.0005865404   0.0007888095   0.0002846582  -0.0003528301   0.0000666729
        0.0003854949  -0.0001185608   0.0001441902  -0.0000992754   0.0000060471
       -0.0001021413  -0.0000435255   0.0000992073   0.0001705121   0.0000824837
        0.0002042470  -0.0001930274   0.0000126499   0.0003329165  -0.0000399453
        0.0001806662  -0.0001301144  -0.0001875039  -0.0001333933  -0.0000002036
        0.0001227173   0.0000522345   0.0000118126   0.0000240893   0.0000250837
        0.0000857927   0.0001869704   0.0000596239  -0.0004086703  -0.0002950839
       -0.0000330267  -0.0035469806  -0.0002249084   0.0012092727  -0.0008218374
       -0.0016255367   0.0008848080  -0.0004824153  -0.0003152224   0.0000173700
       -0.0000885401   0.0001160167   0.0001286613  -0.0000600465  -0.0000136894
        0.0000116480   0.0000302061   0.0000202227   0.0000246832  -0.0000828890
       -0.0001185212  -0.0000334472   0.0000806137  -0.0000516796  -0.0001338131
        0.0003535066  -0.0000118948  -0.0000071957  -0.0002063065   0.0000695953
        0.0000172119   0.0001559407   0.0000679148  -0.0000142957   0.0001132512
       -0.0000075850   0.0000335140  -0.0000829471   0.0000216769  -0.0000158631
        0.0000295462   0.0000033378  -0.0000245858  -0.0000955445   0.0000130087
        0.0000009697   0.0000978241  -0.0001019653  -0.0000221452  -0.0001901024
        0.0000910437   0.0000165208   0.0002689158  -0.0000574917   0.0000172555
       -0.0003035365  -0.0000284523   0.0000063012   0.0000648249  -0.0001844449
       -0.0000324326  -0.0001545877   0.0001455027  -0.0000665079   0.0035994504
        0.0044339148  -0.0034531988  -0.0019121441  -0.0054932434   0.0048541102
        0.0013313163   0.0036728862  -0.0034677234  -0.0072745059   0.0011762250
       -0.0004620617  -0.0007508771   0.0017327257  -0.0005369875   0.0011859760
        0.0006241213   0.0006310043  -0.0002084173  -0.0002897581  -0.0001083834
        0.0001462123  -0.0000368246   0.0001129716  -0.0000379564  -0.0001860341
       -0.0000672535   0.0002700886   0.0002796866   0.0002732777  -0.0005750435
        0.0002068723  -0.0002730695  -0.0003707936   0.0005337871  -0.0001816060
       -0.0001083937  -0.0004637898  -0.0001358778   0.0001405534   0.0001385642
        0.0001158880   0.0000480885  -0.0001493339   0.0000479546   0.0001933160
        0.0002787362   0.0002651413   0.0000322101  -0.0012466355  -0.0005645767
        0.0112600911   0.0103754246  -0.0109207998  -0.0001541633   0.0006575396
        0.0006450398  -0.0004294500   0.0003574276  -0.0004335776   0.0000812574
       -0.0001159749   0.0001561496   0.0000231221  -0.0001833382  -0.0000384706
       -0.0000588352  -0.0002690221  -0.0000511526   0.0000205097   0.0002969026
        0.0001847356   0.0003492431  -0.0000831067  -0.0000864333  -0.0000533468
        0.0000957676   0.0000530832   0.0004839325  -0.0007203283  -0.0003272614
       -0.0004873587  -0.0000846607   0.0000623750   0.0002738764   0.0001562419
        0.0000505293  -0.0000131019  -0.0003445320  -0.0001205309  -0.0000563998
        0.0003052996   0.0001173768   0.0002674411   0.0001463181   0.0000226593
       -0.0002156762  -0.0000538352   0.0000450523  -0.0000705881  -0.0000439003
       -0.0000659586  -0.0002003650   0.0004938136   0.0002115531   0.0001360646
        0.0000344819   0.0001352988  -0.0003792368  -0.0005688962  -0.0000800386
       -0.0008980901   0.0001613079  -0.0006535694   0.0000382472   0.0005637352
        0.0005260264   0.0000297315  -0.0000880832  -0.0000346255   0.0000180480
       -0.0000262693   0.0000118912   0.0000141929  -0.0000362026   0.0000040412
        0.0000372736   0.0000113784   0.0000019256   0.0000224049   0.0000048949
        0.0000129876   0.0000459636   0.0000087590   0.0000221998   0.0000422527
       -0.0000511947   0.0000215087   0.0000071116  -0.0000166367  -0.0000612494
       -0.0000116372   0.0000258702  -0.0000020322   0.0000369829   0.0000409903
       -0.0000004044   0.0000428593  -0.0000043053   0.0000078490   0.0000567729
        0.0000355191  -0.0000063105   0.0000330757  -0.0000061907   0.0000058267
       -0.0000105911  -0.0000422470  -0.0000078032  -0.0000260302  -0.0000164593
       -0.0000029411   0.0000210209  -0.0000180386  -0.0000314127   0.0000014046
        0.0000357985  -0.0000097248   0.0000584855   0.0001024334  -0.0000557832
       -0.0000645533  -0.0000193373  -0.0000546540  -0.0000343696  -0.0000018206
       -0.0000272353  -0.0000483702   0.0000278948  -0.0000190690  -0.0000546415
        0.0000503118  -0.0000270946  -0.0000241188   0.0000382008  -0.0000246513
        0.0000086700   0.0000441140   0.0000044057  -0.0000518842  -0.0000374774
       -0.0000934844   0.0000057592   0.0000282287  -0.0001178042  -0.0000085804
        0.0000079810  -0.0000118856  -0.0000573579   0.0000258268  -0.0000028771
       -0.0000612599  -0.0000088791  -0.0000201417  -0.0000911610   0.0000448177
       -0.0000088745  -0.0000437588  -0.0000168698   0.0000128331  -0.0000340603
       -0.0000516498  -0.0000055399   0.0000404069  -0.0000414068  -0.0000229315
        0.0000408905   0.0000046392  -0.0000497968   0.0002703770  -0.0002651244
       -0.0008592115
       -0.1917358778  -0.5351964337   0.5091466814   0.2443092855   0.7358101718
       -0.6716844530  -0.0391932554  -0.1648086034   0.1278961642  -0.0243818004
       -0.0117101261   0.0100664548   0.0011877800  -0.0013805030   0.0011586261
        0.0005146436   0.0015260445  -0.0000729277   0.0001429723  -0.0007270489
        0.0006137052  -0.0001678301  -0.0000257844   0.0000054193   0.0002414655
        0.0001621323   0.0002013515  -0.0003485042  -0.0004121267  -0.0001730511
        0.0007009979   0.0002053117   0.0003208472  -0.0004036286  -0.0002292887
       -0.0002282542   0.0002145530   0.0004554553   0.0003347872  -0.0000324928
       -0.0006135639  -0.0000815112  -0.0003969134  -0.0002113018  -0.0002125253
        0.0000190892   0.0001986959   0.0003236107  -0.0000149371  -0.0002067768
       -0.0006376351   0.0063563238  -0.0026480154   0.0046085228   0.0009290375
       -0.0002363897   0.0014553597  -0.0009945058  -0.0017063880  -0.0010626830
       -0.0002872144   0.0005687870   0.0003829249  -0.0002578035  -0.0001073262
        0.0000854211  -0.0000528145   0.0002970463   0.0001365646  -0.0002100846
       -0.0007522444  -0.0001820727   0.0008518211   0.0002975619  -0.0003011353
        0.0017331382  -0.0001785388  -0.0001595480  -0.0009599980   0.0005739613
        0.0002994055   0.0005537297   0.0002551081   0.0000051574   0.0004770864
        0.0000115965   0.0000614187  -0.0002934587   0.0000912587  -0.0000060681
        0.0000752210  -0.0000103779  -0.0000379856  -0.0003439889   0.0000360419
        0.0000147482   0.0003574432  -0.0003585610  -0.0001318952  -0.0008393537
        0.0003821726   0.0001270506   0.0011709963  -0.0003945399  -0.0000915617
       -0.0012381581  -0.0000436393   0.0001051604   0.0004852725  -0.0008476012
       -0.0001249289  -0.0016816060   0.0016697777   0.0003395465   0.0023258603
        0.0136273034  -0.0107715864  -0.0054233040  -0.0148383674   0.0134515980
        0.0037131861   0.0101345001  -0.0096517802  -0.0029568231  -0.0002863132
        0.0033319574  -0.0013566297   0.0001246098   0.0012105784   0.0014291127
        0.0008290992   0.0006702680  -0.0002835363  -0.0004035555  -0.0001743183
        0.0001398744   0.0000062073   0.0001627800  -0.0000216140  -0.0002635025
       -0.0001067408   0.0002976041   0.0003192089   0.0002998792  -0.0007105544
        0.0002358720  -0.0003708903  -0.0005792239   0.0005569077  -0.0004475884
       -0.0001187419  -0.0005707184  -0.0001809576   0.0000250971   0.0001979105
        0.0000403531   0.0001695142  -0.0004061991   0.0001751773   0.0004414401
        0.0006002420   0.0006589604   0.0004923761  -0.0023799431  -0.0006089936
        0.0079229076  -0.0269960046   0.0225418396  -0.0015420603  -0.0011737971
        0.0002773614  -0.0004378434   0.0002114169  -0.0003151463   0.0001597363
       -0.0001314818   0.0001093738  -0.0001745526  -0.0001211854  -0.0000309975
       -0.0000388282  -0.0001006131   0.0000516544   0.0000720100   0.0000274538
        0.0001014684   0.0001763571   0.0001119991  -0.0000164975  -0.0010853309
       -0.0001613332   0.0001725159   0.0009182402  -0.0005350188  -0.0003778714
       -0.0009499929  -0.0002504044   0.0000567964   0.0001834740   0.0004836318
        0.0002356380   0.0000207628  -0.0004901708  -0.0001618064  -0.0001715350
        0.0004888401   0.0002101344   0.0006430966   0.0002469694   0.0000171952
       -0.0003933118  -0.0003248996   0.0000186140   0.0004994095   0.0003117881
       -0.0001297713  -0.0010139258   0.0002690954   0.0002086582   0.0010819879
        0.0002046141   0.0000664912  -0.0005247691  -0.0010628583   0.0004837273
        0.0006677384   0.0016067183   0.0001050642   0.0000951219  -0.0000088048
       -0.0011928438  -0.0000247777  -0.0001152289  -0.0001120568  -0.0000162603
       -0.0000097034  -0.0000324709   0.0000282527  -0.0000067648  -0.0000080639
        0.0001346258  -0.0000477197  -0.0000105261   0.0000902387  -0.0000362115
        0.0000356181   0.0000960847   0.0000494177   0.0000264598   0.0000325670
       -0.0001347966  -0.0001139844   0.0000808245  -0.0000798008  -0.0001849366
       -0.0000119932   0.0000723505   0.0000014598   0.0001114376   0.0001111627
       -0.0000191998   0.0001662732  -0.0000091942   0.0000381577   0.0001181610
        0.0000895723  -0.0000118764   0.0000635448  -0.0000170449   0.0000086135
       -0.0000102383  -0.0001101158  -0.0000123086  -0.0000717766  -0.0000533598
       -0.0000127815   0.0000937101  -0.0001181446  -0.0001423649  -0.0000629539
        0.0002447831  -0.0001051541   0.0000613403   0.0002077825  -0.0001384914
       -0.0001357813  -0.0000040427  -0.0001007455  -0.0000533358   0.0000168429
       -0.0000561365  -0.0000908521   0.0000427890  -0.0000209175  -0.0000877257
        0.0000754028  -0.0000181639  -0.0000398101   0.0000706628  -0.0000724358
        0.0000136029   0.0000681164  -0.0000085445  -0.0001243541  -0.0000751830
       -0.0002987238  -0.0001097001  -0.0000101368  -0.0001095317  -0.0000831658
        0.0000322003   0.0000131260  -0.0001246706   0.0000688296   0.0000169123
       -0.0001569772   0.0000586326  -0.0000356597  -0.0001857014   0.0000795423
       -0.0000307200  -0.0000875076  -0.0000468323   0.0000179902  -0.0000874607
       -0.0001317082  -0.0000136417   0.0000595601  -0.0000899206  -0.0000574175
       -0.0000360029  -0.0001269921  -0.0001603083   0.0002718613   0.0001096522
       -0.0008921614
        0.1926693286   0.5083641469  -0.5382169119  -0.2471936742  -0.6716844530
        0.7310423986   0.0428889899   0.1344417106  -0.1602848069   0.0209627311
        0.0083201931  -0.0107750847  -0.0011238756   0.0004078122  -0.0030912981
       -0.0004035757   0.0000893991   0.0008019584   0.0006759435   0.0000153749
       -0.0007847436  -0.0000478363  -0.0000418242  -0.0001650457  -0.0001707109
       -0.0001022510  -0.0001056431   0.0002787811   0.0004706288   0.0001076989
       -0.0002665922  -0.0004666304  -0.0000761694  -0.0001015425   0.0005273752
        0.0000163423  -0.0000302902  -0.0003346589  -0.0001965678  -0.0000083062
        0.0005509050   0.0000878150   0.0005778310   0.0000396024   0.0001912964
       -0.0001183653  -0.0002213706  -0.0004654085   0.0004219592   0.0004131889
        0.0010017745  -0.0063433416   0.0046964427  -0.0022768889  -0.0009339860
        0.0014845865   0.0002962212   0.0005962154   0.0011366408   0.0004485120
        0.0001436698  -0.0001294075  -0.0001658364  -0.0000591035  -0.0000283569
        0.0000570077   0.0002566312  -0.0003478516  -0.0002128246   0.0003079934
        0.0006958312   0.0001970057  -0.0006213209  -0.0003208227   0.0001516164
       -0.0019398605   0.0001516364   0.0001138126   0.0011715802  -0.0004654448
       -0.0003475416  -0.0007998789  -0.0003072340   0.0000190107  -0.0005228399
       -0.0001436571  -0.0000936502   0.0003001752  -0.0000077828   0.0000201113
       -0.0000922763  -0.0001144627  -0.0000185134   0.0005849603  -0.0000278430
       -0.0000366185  -0.0005075818   0.0005240023   0.0002175495   0.0010646558
       -0.0005697447  -0.0002175307  -0.0016146365   0.0002641789   0.0000571917
        0.0018701871  -0.0000840840  -0.0001967032  -0.0004290558   0.0012647949
        0.0003260737   0.0016934507  -0.0018818644  -0.0002215195  -0.0022868239
       -0.0121260039   0.0088832884   0.0047757961   0.0133232106  -0.0115025861
       -0.0031835481  -0.0087785966   0.0081040816   0.0045407216   0.0020807054
       -0.0007807991   0.0013906878   0.0005956520   0.0005475824  -0.0016380192
       -0.0008750876  -0.0005801373   0.0002286677   0.0006319018   0.0002311085
       -0.0004528110   0.0000989633  -0.0002811587   0.0001238571   0.0000215636
        0.0000636949  -0.0002085567  -0.0002027866  -0.0002740813   0.0007524454
       -0.0005789360   0.0002273666   0.0005133946  -0.0003215354   0.0003423951
       -0.0000174415   0.0004032859   0.0001099701  -0.0000352721  -0.0001138572
       -0.0000836188  -0.0000830276   0.0002234418   0.0000325660  -0.0001934858
       -0.0002967055  -0.0003892433  -0.0002557074   0.0018346157   0.0001169836