112
 energy: -188.231531894417 gnorm: 0.000037780642 xtb: 6.7.1 (edcfbbe)
N           -1.09368580831171       -2.07617849434480        2.79606594747382
C           -0.80409360375452       -1.31317642535931        1.99065185717093
C           -0.44424803667428       -0.32360243430501        1.04675314592189
C            0.91818361824635       -0.08570182527507        0.79852245136779
N            1.88323417097438       -0.90334680920359        1.37799091301321
C            2.00925540532252       -2.27451884898261        1.18524421163938
C            1.17991179628612       -3.15128257063750        0.50643082186078
C            1.55911889041585       -4.47936898881577        0.43644354391755
C            2.74334086402431       -4.92470878422385        1.01586236224020
C            3.58706150555250       -4.04865381984952        1.67096734262815
C            3.22287183550104       -2.71192042606677        1.75590613215443
C            3.85210853456845       -1.55390485243361        2.33221500900955
C            5.03608431229779       -1.35802887676880        3.02963655850595
C            5.33070407127604       -0.08838071149135        3.48850915274242
C            4.44678983172814        0.96830282302487        3.29132980074986
C            3.26243564103550        0.79559027101616        2.59856159651423
C            2.99359680039590       -0.46278052523835        2.08620712518416
C            1.28089893603098        0.99714978996797       -0.02269932674728
N            2.61745509245008        1.26092214005919       -0.31008656808189
C            3.29863345841036        2.43473448513828       -0.00869113063496
C            2.81899792786544        3.63455528767445        0.48819417734922
C            3.73021208475069        4.64700924234731        0.72692588791291
C            5.09017916196441        4.46837747748519        0.48970351616870
C            5.57835923321368        3.26463137934728        0.02086977077597
C            4.67849121367048        2.23658408134342       -0.22676785615559
C            4.83054605181465        0.88638408762913       -0.68722239065400
C            5.91015691121516        0.09786470517516       -1.06225161130521
S            7.59380665998371        0.54646391827571       -1.03968663362980
C            8.04765024606216       -1.04028565785703       -1.63347033482916
C            9.33873698216559       -1.47095704228699       -1.88935539291142
C            9.52118479702587       -2.75840006312949       -2.35786039155961
C            8.43194145829146       -3.60011776565588       -2.56472758988466
C            7.14662740000648       -3.16844880915871       -2.30857087227191
C            6.93585153524385       -1.87391105170360       -1.83956282295231
C            5.69715454666028       -1.21587824920200       -1.51259628444190
C            4.39693171316373       -1.71630259218426       -1.62105049535146
C            3.31222580115531       -0.95459853720863       -1.24551041477490
C            3.54122957656911        0.32091020818734       -0.73953141785439
C            0.27207765925130        1.80412588602717       -0.57431045948131
C            0.63037100673145        2.78868050521137       -1.52403023731022
N            0.91672301037537        3.54434828083396       -2.33744885312923
C           -1.09069154706022        1.56659440308000       -0.32485372682316
N           -2.05735911690058        2.38097385529694       -0.90472354237614
C           -3.16341617522116        1.93890221971136       -1.61836670229998
C           -3.43564393589629        0.67666834901655       -2.11920563460766
C           -4.61487843128180        0.50311883180896       -2.82058796395513
C           -5.48991814261107        1.56299252477432       -3.03840262988181
C           -5.19097509706807        2.83590436481225       -2.59153793138534
C           -4.01264726244684        3.03246138467869       -1.88501592727806
C           -3.38185863193578        4.19314894416832       -1.31561198244054
C           -3.73838676255809        5.53298591403154       -1.24837522452311
C           -2.89727699630696        6.41009512875776       -0.59139765394970
C           -1.72344575766620        5.96320302061904        0.00765777523393
C           -1.35107989619281        4.63250646867274       -0.04610938505265
C           -2.17731853868791        3.75469483527708       -0.72729300396323
C           -1.45276912755402        0.48438071078897        0.49608718438101
N           -2.78934262209961        0.22466984330239        0.78785471905806
C           -3.70385000129207        1.15458076816674        1.26191194455409
C           -3.48243616676918        2.42633725168463        1.76322747526609
C           -4.58045670923326        3.14648543419740        2.19648038383079
C           -5.86356288374221        2.60816812494184        2.15205695766778
C           -6.08155035529425        1.32024947540130        1.70290807054226
C           -4.99204424407428        0.58043307509586        1.26284337003021
C           -4.83962521546066       -0.76009873360507        0.77493318781524
C           -5.71407322953137       -1.80983880187254        0.52578839933751
S           -7.43875278174262       -1.81655382928356        0.77580601308157
C           -7.53978156572805       -3.46651724737158        0.19043131732586
C           -8.69757230826584       -4.21941234761781        0.08873076104634
C           -8.60145926462430       -5.51041050168963       -0.39525973327644
C           -7.36904080946684       -6.03810801888076       -0.76983824757505
C           -6.21702511352764       -5.28549921956885       -0.66727709021652
C           -6.28705786673613       -3.98152633405803       -0.18239594169969
C           -5.22930298058353       -3.02244052124222        0.00825592208697
C           -3.86741574673623       -3.16840777465046       -0.26877511266244
C           -2.98336369987060       -2.13852525096498       -0.03240353909100
C           -3.46981826711132       -0.94982238038334        0.50171313521203
H            0.26434944403896       -2.81928854823451        0.03952237866637
H            0.92219965367490       -5.18130714225330       -0.08052288518284
H            3.00535617650855       -5.96932403489907        0.94351679419157
H            4.51365377868887       -4.38964280366941        2.10589776396611
H            5.70537900323740       -2.18429438328908        3.21253047175193
H            6.25008632106873        0.08721317844662        4.02599148070135
H            4.68458054310194        1.94300673704910        3.68948090509862
H            2.57213859538316        1.61662673652343        2.47499720278906
H            1.76887881527257        3.78558221682376        0.68894940829577
H            3.37593393535647        5.59353648856864        1.10632797419549
H            5.77059232360908        5.28319013223767        0.68432675758088
H            6.63330144735816        3.11535306936237       -0.14948414873628
H           10.17703278850048       -0.81159786001556       -1.72565500169666
H           10.51948823515906       -3.11337736750594       -2.56503601620542
H            8.59678648971794       -4.60272326649836       -2.93027610079093
H            6.30427537537723       -3.82407839548410       -2.46881427391054
H            4.24307201523883       -2.71114109058606       -2.00765611017680
H            2.31003719059113       -1.33938667928944       -1.35466127071528
H           -2.75114328220753       -0.14697466859448       -1.98169449093483
H           -4.85514715384193       -0.47471403186122       -3.21029729176328
H           -6.40510933141721        1.38698515756162       -3.58293651746730
H           -5.85239287516853        3.66430261063694       -2.79170819565366
H           -4.65716147128791        5.87560144137595       -1.69821015490571
H           -3.15352077347691        7.45691476940941       -0.53222309556233
H           -1.08933152283016        6.66595569271533        0.52685581720978
H           -0.44402544936367        4.29891729520035        0.43613243273506
H           -2.48910968084579        2.84412216561356        1.82748902069372
H           -4.43477990297053        4.14480752457510        2.58015144078610
H           -6.69651669139028        3.20365288779692        2.49314270758015
H           -7.07038902894134        0.88863576357563        1.69751719497982
H           -9.64786477693321       -3.80092209203114        0.38221235965296
H           -9.49187251584241       -6.11461922420825       -0.48215256098334
H           -7.31561132604318       -7.04910421310718       -1.14543060831926
H           -5.26347451334663       -5.69968489730701       -0.95744345659639
H           -3.50708536109804       -4.09920348633948       -0.67767649756777
H           -1.93654257575551       -2.25873831056257       -0.26613515653608
