$hessian                                                                        
        0.5253846969   0.0093878609  -0.0117464112  -0.0712459141   0.0207654179
       -0.0200062247  -0.0150217764   0.0219441249  -0.0169609076   0.0004464566
        0.0001584348  -0.0010461039   0.0033823129  -0.0126328795   0.0102027835
       -0.0010907292  -0.0007146946   0.0001428844   0.0004317162  -0.0001831180
        0.0003853157   0.0002535958   0.0000277250   0.0001730058  -0.0000104956
       -0.0007026711   0.0003689517  -0.0017368692  -0.0025891629  -0.0006386649
       -0.0001910637  -0.0001601043  -0.0000288626   0.0000276733  -0.0000544082
        0.0000283978  -0.0000213348  -0.0000284673   0.0000165517   0.0000287975
        0.0000232135   0.0000952493  -0.0000202964  -0.0000188494  -0.0000387117
       -0.0000015028   0.0000137060  -0.0000050433  -0.0000130037   0.0000151644
        0.0000005949   0.0000069447  -0.0000041496  -0.0000059594   0.0000022958
       -0.0000072673   0.0000002758   0.0000104798  -0.0000035101   0.0000025547
        0.0000132223  -0.0000044966   0.0000058157   0.0000160817  -0.0000190025
        0.0000044474  -0.0000738622   0.0000348124  -0.0000305882  -0.0002682065
       -0.0002830284   0.0000418826   0.0002667959  -0.0000256391   0.0000160298
       -0.0001008440  -0.0000407548   0.0000079218   0.0000550506  -0.0000060653
       -0.0000101224  -0.0000481789   0.0000110724  -0.0000014433   0.0001082244
       -0.0000300063  -0.0000154826  -0.0000257925  -0.0000066061  -0.0000035998
       -0.0000319406   0.0000295225  -0.0000055417  -0.0000329135   0.0000045981
        0.0000272997   0.0000254738  -0.0000191876  -0.0000051661  -0.0000708840
        0.0000455453   0.0000048551  -0.2500000790   0.0729395795   0.0396386228
       -0.0452235019   0.0060947155   0.0159146535  -0.1409037278  -0.1161360554
       -0.0158591738  -0.0058249433   0.0030152346   0.0001913745   0.0005954392
       -0.0000563898  -0.0008337846   0.0006061759   0.0012406588  -0.0007529175
        0.0004380194  -0.0003507633   0.0007966592   0.0001059160   0.0003340289
       -0.0003868506   0.0003961768  -0.0000315711   0.0000926923  -0.0006481443
       -0.0020175196   0.0001630513   0.0000164713   0.0000150532   0.0000051875
       -0.0000125247   0.0000655111   0.0000496104   0.0000045578   0.0000103522
       -0.0000110336   0.0000103058   0.0000050043  -0.0000153203  -0.0000114743
       -0.0000157796   0.0000254160  -0.0000108536  -0.0000204693  -0.0000139250
        0.0000106195  -0.0000139283   0.0000100511  -0.0000206867   0.0000136678
       -0.0000004116  -0.0000000769  -0.0000003245   0.0000075802  -0.0000040785
        0.0000031477  -0.0000014147   0.0000063095  -0.0000071512   0.0000026313
        0.0000014958   0.0000040272  -0.0000009652   0.0000089998  -0.0000040932
       -0.0000001580  -0.0000061761   0.0000007729   0.0000031663  -0.0000044930
        0.0000024750  -0.0000026880  -0.0000028322   0.0000023945   0.0000003852
        0.0000048962  -0.0000066845  -0.0000005875   0.0000018528   0.0000040698
       -0.0000005903  -0.0000024562  -0.0000047085  -0.0000040297  -0.0000027823
        0.0000031556  -0.0000022479   0.0000039062   0.0000044196   0.0000025220
       -0.0000028099  -0.0000020384   0.0000023951  -0.0000128582   0.0000028262
        0.0000034275   0.0000291468  -0.0000207469   0.0000006880
        0.0093878609   0.4826802678   0.0382357869   0.0222065192  -0.1256922608
        0.0578536711   0.0089726696  -0.0110164180   0.0082349970  -0.0014979551
        0.0038661904  -0.0030253816   0.0013482964  -0.0226030190   0.0153400462
       -0.0000430609  -0.0006737752  -0.0002131036   0.0005285039   0.0000671265
        0.0005370698   0.0001284039  -0.0001140973   0.0002495111  -0.0000368681
       -0.0010834926   0.0006982316  -0.0028128864  -0.0025728043  -0.0004098406
       -0.0001747188  -0.0002277244  -0.0000358192   0.0000019678  -0.0000464085
        0.0000452264   0.0000118160  -0.0000043190   0.0000005692   0.0000271085
       -0.0000239270   0.0000983294  -0.0000009397  -0.0000305615  -0.0000278856
       -0.0000042336   0.0000076533  -0.0000101100  -0.0000137216   0.0000157886
       -0.0000008117   0.0000045658   0.0000004188  -0.0000074013  -0.0000034966
       -0.0000032270   0.0000038656   0.0000036601  -0.0000011334   0.0000056002
        0.0000143023   0.0000019742   0.0000094165   0.0000218861  -0.0000109230
       -0.0000071812  -0.0000278349  -0.0000116325  -0.0000009791  -0.0000506787
       -0.0001209153  -0.0000093233   0.0000626598  -0.0000107372   0.0000257158
       -0.0000223711  -0.0000105571  -0.0000029656   0.0000004083   0.0000062328
       -0.0000017179  -0.0000189111  -0.0000031493  -0.0000012540   0.0000703943
       -0.0000016316   0.0000029895  -0.0000175991  -0.0000100019  -0.0000074527
       -0.0000158976   0.0000118836  -0.0000070488  -0.0000134227   0.0000015184
        0.0000109321   0.0000088421  -0.0000153715  -0.0000028962  -0.0000107337
        0.0000419013  -0.0000030240   0.0726044109  -0.0685248378  -0.0146561033
        0.0059647824  -0.0718514334  -0.0786829294  -0.1159092691  -0.1816311983
       -0.0208121654   0.0022209306  -0.0006909653  -0.0001971779  -0.0004102218
        0.0001072376   0.0005297537  -0.0011005095   0.0006684594  -0.0000352650
       -0.0003048379   0.0003269004  -0.0005798260   0.0000243385   0.0007529638
       -0.0012076331  -0.0001415876   0.0000442920  -0.0023329783  -0.0009472549
       -0.0016057124   0.0004852704   0.0000221702   0.0000246332   0.0000132236
       -0.0000026672   0.0000202901  -0.0000748752   0.0000032272  -0.0000177984
       -0.0000256225   0.0000206038   0.0000048626   0.0000018937  -0.0000136980
       -0.0000030866   0.0000250123  -0.0000373919   0.0000211117   0.0000106169
       -0.0000063111  -0.0000069430   0.0000118832  -0.0000121763  -0.0000263129
       -0.0000331985  -0.0000095951   0.0000093190   0.0000005355  -0.0000037377
        0.0000057769  -0.0000067747   0.0000026435  -0.0000080584   0.0000012928
       -0.0000024142   0.0000019339  -0.0000018386   0.0000044252  -0.0000071244
       -0.0000007534  -0.0000064232  -0.0000004764  -0.0000009174  -0.0000021114
        0.0000017540   0.0000000905  -0.0000023054   0.0000013379  -0.0000025697
        0.0000039149  -0.0000084520  -0.0000013225  -0.0000029619   0.0000020556
       -0.0000014901  -0.0000064639  -0.0000079136  -0.0000067463  -0.0000061653
       -0.0000034132   0.0000009449   0.0000004994   0.0000064998   0.0000017288
       -0.0000021356  -0.0000039417   0.0000006085   0.0000011179   0.0000033270
        0.0000010770   0.0000226387  -0.0000179551  -0.0000015068
       -0.0117464112   0.0382357869   0.4983259531  -0.0208242856   0.0566513464
       -0.1160084995  -0.0012381992   0.0004735425   0.0008985185  -0.0078489630
        0.0176497553  -0.0294615171   0.0016534501   0.0030344559   0.0001845318
       -0.0002260317  -0.0007548240  -0.0006422506  -0.0000157594  -0.0001170890
        0.0001840744   0.0000145325   0.0000914094   0.0000470117  -0.0000804226
        0.0000886459  -0.0000335232  -0.0005226001  -0.0002457094   0.0005327598
       -0.0000098444  -0.0000468666  -0.0000542924   0.0000117275  -0.0000150064
       -0.0000241921  -0.0000194445  -0.0000475021   0.0000006011   0.0000067988
        0.0000256748   0.0000222804  -0.0000057585   0.0000104721  -0.0000011706
       -0.0000056735   0.0000015304  -0.0000083155   0.0000047547  -0.0000065097
        0.0000064410   0.0000016893  -0.0000078120   0.0000010402   0.0000062475
       -0.0000071603   0.0000011449   0.0000025810  -0.0000055551  -0.0000009665
       -0.0000065483   0.0000044157  -0.0000079585   0.0000153017  -0.0000050212
        0.0000193817  -0.0000837880   0.0000876684  -0.0000218736  -0.0001008659
       -0.0001675747   0.0000148825   0.0001824544  -0.0000019456  -0.0000062742
       -0.0000440175  -0.0000196101   0.0000038040   0.0000358702  -0.0000223300
       -0.0000049221  -0.0000414584  -0.0000041823  -0.0000017550   0.0000427182
        0.0000031373  -0.0000040759  -0.0000162235  -0.0000082277  -0.0000008610
       -0.0000145383   0.0000021601  -0.0000018464  -0.0000188310  -0.0000012540
        0.0000127449   0.0000430564   0.0000230682  -0.0000041329  -0.0000411946
        0.0000192316   0.0000023877   0.0399661075  -0.0146823745  -0.0514293866
        0.0159180957  -0.0782447021  -0.2527868903  -0.0159707521  -0.0209903771
       -0.0461721611   0.0007911976  -0.0004229888   0.0004612304   0.0007614494
       -0.0006306406   0.0007165528   0.0003304744  -0.0002278066   0.0001325061
       -0.0006221820   0.0008445354   0.0006678266   0.0001610745   0.0012834968
        0.0005106864   0.0000022439  -0.0013129178  -0.0065078905  -0.0005797181
       -0.0005501679   0.0004326709  -0.0000011206   0.0000005698  -0.0000054232
        0.0000914258  -0.0000106816  -0.0000217268  -0.0000128582   0.0000137106
        0.0000111947   0.0000023142   0.0000103676  -0.0000085510   0.0000023599
       -0.0000094648   0.0000089919   0.0000186920   0.0000116804  -0.0000098081
        0.0000074085  -0.0000026757   0.0000115826   0.0000069127  -0.0000003190
        0.0000128904   0.0000060153  -0.0000058508   0.0000032473  -0.0000005644
       -0.0000004175  -0.0000005910   0.0000033535  -0.0000006104   0.0000013483
        0.0000028719   0.0000025604  -0.0000007456   0.0000038366   0.0000010917
        0.0000008311  -0.0000006729   0.0000022625  -0.0000026315  -0.0000002636
        0.0000033147  -0.0000005043  -0.0000008629   0.0000018075   0.0000012541
        0.0000016649  -0.0000000864   0.0000009003   0.0000034375   0.0000025846
        0.0000004167   0.0000020482  -0.0000053114   0.0000013416  -0.0000048668
        0.0000015406  -0.0000037824   0.0000018660  -0.0000087075   0.0000040522
       -0.0000036750  -0.0000001214   0.0000028441  -0.0000006302  -0.0000013232
        0.0000006881   0.0000029942   0.0000099016  -0.0000020950
       -0.0712459141   0.0222065192  -0.0208242856   0.4631336402   0.0022208885
        0.0029959105  -0.1641250541   0.0294437913   0.0212377087  -0.0599901488
        0.0040217592   0.0077040534  -0.1029885859  -0.0557484517  -0.0075927253
       -0.0164320768  -0.0172808996  -0.0051950742   0.0005948055  -0.0011173887
       -0.0051453722  -0.0009090586  -0.0003881954  -0.0008077563   0.0034118586
        0.0005812943  -0.0028800599   0.0018122944  -0.0038570137   0.0046960015
        0.0002984555   0.0003225823   0.0000485732  -0.0000457522   0.0000840207
       -0.0000390945   0.0000336885   0.0000041219  -0.0000152253  -0.0000192596
       -0.0000660506  -0.0001311531   0.0000306745  -0.0000248982   0.0000198199
        0.0000123869   0.0000009289   0.0000289844  -0.0000172464   0.0000353058
       -0.0000101552  -0.0000060111   0.0000152253  -0.0000067464  -0.0000238404
        0.0000068015  -0.0000028921  -0.0000128657   0.0000134185   0.0000047057
        0.0000005756   0.0000238689   0.0000355093  -0.0000414131  -0.0000197667
       -0.0000395978   0.0000839374  -0.0000224885   0.0000778012  -0.0002278846
        0.0005665567   0.0005967391  -0.0002650245  -0.0001311018   0.0000376507
        0.0000051019   0.0000247388  -0.0000316142  -0.0000393302   0.0000143564
       -0.0000055514   0.0000787650   0.0000456663  -0.0000005841  -0.0000453194
       -0.0000102903  -0.0000104488   0.0000385301   0.0000135713   0.0000030423
        0.0000302644   0.0000058658   0.0000010410   0.0000384364   0.0000075711
       -0.0000050519  -0.0000912523  -0.0000529101  -0.0000027677   0.0001364489
        0.0000019921   0.0000147691  -0.0101839744   0.0215005566  -0.0175580353
        0.0000578112  -0.0008327831   0.0002064329   0.0031641640  -0.0141101901
        0.0114568084  -0.0115432916   0.0058601093  -0.0004189945  -0.0043804331
        0.0023343000   0.0038286914  -0.0241059361   0.0023079646   0.0040055981
       -0.0039875950   0.0119544118   0.0256398292  -0.0001991925  -0.0084562704
       -0.0157127762  -0.0002286512  -0.0026366953  -0.0081837797  -0.0001933008
        0.0005331765   0.0014966111  -0.0005307973  -0.0006749776   0.0000490308
       -0.0010098030   0.0012764980   0.0004720103   0.0000093339  -0.0000390148
        0.0000327659  -0.0000109243  -0.0000179746   0.0000177815   0.0000078626
        0.0000515793  -0.0000399296  -0.0000698849   0.0000543317   0.0000395793
       -0.0000082028   0.0000056470  -0.0000164254   0.0000301564  -0.0000292049
       -0.0000216129  -0.0000098255   0.0000145246  -0.0000153883   0.0000018502
       -0.0000006969  -0.0000033383  -0.0000092243   0.0000011825  -0.0000012383
       -0.0000141380  -0.0000065533   0.0000009913  -0.0000070671  -0.0000050983
       -0.0000002746   0.0000000813  -0.0000082270  -0.0000032060   0.0000014971
       -0.0000073420   0.0000049090   0.0000025987  -0.0000046730  -0.0000042536
       -0.0000028713  -0.0000011265  -0.0000007598  -0.0000155251  -0.0000060221
       -0.0000008141  -0.0000034810   0.0000155456  -0.0000124656   0.0000109095
        0.0000041307   0.0000160012  -0.0000053674   0.0000242119  -0.0000090016
        0.0000058505  -0.0000084852   0.0000010000   0.0000063342   0.0000131649
       -0.0000060306   0.0000072109  -0.0000473895  -0.0000158696
        0.0207654179  -0.1256922608   0.0566513464   0.0022208885   0.4871479429
       -0.0155918832   0.0367243178  -0.0718059711  -0.0061659353   0.0015398098
       -0.0800399745  -0.0389352416  -0.0593533469  -0.1361695255  -0.0027890073
       -0.0074202203  -0.0021562206  -0.0044415064  -0.0009900815   0.0022046612
        0.0019837946  -0.0007179097  -0.0007364528   0.0000910139   0.0003687601
       -0.0006478973   0.0043989712  -0.0126128649  -0.0262556976   0.0044871079
       -0.0005147164  -0.0006396211  -0.0000210759  -0.0000529481  -0.0000142056
        0.0000817151   0.0000305388   0.0001489831  -0.0000498449   0.0000305940
       -0.0001235232   0.0001070666   0.0000308676  -0.0000439387  -0.0000331961
        0.0000199442  -0.0000177499   0.0000034423  -0.0000356171   0.0000111298
       -0.0000075723  -0.0000073725   0.0000170663  -0.0000107988  -0.0000203995
        0.0000048565  -0.0000060753  -0.0000152620   0.0000157598   0.0000065751
        0.0000282922   0.0000046819   0.0000216028   0.0000283893   0.0000073509
       -0.0000862591   0.0001524030  -0.0002080254   0.0000606134   0.0009125241
        0.0002633460  -0.0004572224  -0.0006380169   0.0000989901   0.0000279794
        0.0002181265   0.0000866855  -0.0000196981  -0.0001289063   0.0000790418
        0.0000220706   0.0001506309   0.0000015951   0.0000024703  -0.0001825074
        0.0000386782   0.0000269956   0.0000699157   0.0000138890  -0.0000009253
        0.0000776773  -0.0000337352   0.0000040011   0.0000906073  -0.0000036816
       -0.0000529958  -0.0001285940  -0.0000399321   0.0000249995   0.0001628589
       -0.0000596675  -0.0000258350   0.0059213364  -0.0092884417   0.0066346637
       -0.0019277597   0.0065786838  -0.0043967459   0.0026598466  -0.0227550678
        0.0161528496   0.0196802612  -0.0081318865  -0.0020228364   0.0121475392
       -0.0042871860  -0.0043097252  -0.0216653951   0.0046896939   0.0046366811
        0.0026442887  -0.0046849733  -0.0091793278  -0.0014344491  -0.0134373943
       -0.0235132329  -0.0006171013   0.0063971015   0.0176107302   0.0014989274
       -0.0005893917   0.0003129226   0.0002518481   0.0001089950   0.0001584520
        0.0001028671   0.0000132286  -0.0013939526   0.0000149271  -0.0000565107
       -0.0000259965   0.0000380817  -0.0000058279   0.0000235414   0.0000002666
        0.0000482245   0.0000044536   0.0000009885  -0.0000403889   0.0000053706
       -0.0000076624   0.0000739342  -0.0000216618  -0.0000235089  -0.0000567161
        0.0000350451  -0.0000221051   0.0000069622   0.0000003017  -0.0000025150
       -0.0000007903  -0.0000011847  -0.0000159152   0.0000038020  -0.0000047937
       -0.0000075164  -0.0000028808  -0.0000033267  -0.0000174952   0.0000028905
       -0.0000000742   0.0000056149  -0.0000135174   0.0000145961   0.0000048401
       -0.0000152329  -0.0000122610   0.0000018212  -0.0000090915  -0.0000117876
       -0.0000088818   0.0000024212  -0.0000006056  -0.0000093631  -0.0000025943
       -0.0000001301  -0.0000130793   0.0000049005   0.0000039355   0.0000069916
       -0.0000079875   0.0000269490  -0.0000109081   0.0000247874  -0.0000046480
        0.0000184180  -0.0000056724  -0.0000095092   0.0000310907   0.0000058537
       -0.0000040409  -0.0000501000  -0.0000265048  -0.0000113447
       -0.0200062247   0.0578536711  -0.1160084995   0.0029959105  -0.0155918832
        0.4707885217   0.0231269863  -0.0049111323  -0.0656206560   0.0029406524
       -0.0442161888  -0.1616519770  -0.0057446317   0.0002247447  -0.0607615666
       -0.0112432584  -0.0131647217  -0.0000708582  -0.0052414000   0.0017024583
        0.0009078421  -0.0004902375   0.0003933946  -0.0002543212  -0.0026021460
        0.0049115691   0.0009497245   0.0103004339   0.0121896684   0.0005953960
        0.0004297943   0.0007035442   0.0000652544  -0.0000111734   0.0000726060
       -0.0000001958   0.0000242966  -0.0000209994   0.0000724455   0.0000283574
        0.0000814114  -0.0001123323  -0.0000179689   0.0000433075   0.0000301196
       -0.0000278986  -0.0000197532  -0.0000085415  -0.0000102472   0.0000074823
        0.0000062359   0.0000012446   0.0000047660  -0.0000043149  -0.0000014962
       -0.0000035803   0.0000056189   0.0000005924   0.0000008294   0.0000064491
        0.0000257821  -0.0000125339   0.0000028379   0.0000426658  -0.0000567993
       -0.0000132311  -0.0001035319   0.0000059448  -0.0001253451   0.0003264014
       -0.0005423960  -0.0006612675   0.0001531741   0.0001296779  -0.0000116526
        0.0000153976  -0.0000160858   0.0000173496   0.0000023622   0.0000253583
        0.0000056956  -0.0000443800  -0.0000460315  -0.0000064647   0.0001045465
        0.0000065537   0.0000188775  -0.0000317980  -0.0000225806  -0.0000126751
       -0.0000288047   0.0000159208  -0.0000164727  -0.0000232746  -0.0000020799
        0.0000044376   0.0000700040   0.0000079384   0.0000094159  -0.0001097278
        0.0000485420   0.0000206231  -0.0006084940  -0.0020034825   0.0021941480
       -0.0065426566   0.0192286584  -0.0238713590   0.0012872392   0.0011661134
        0.0003526699  -0.0182085144   0.0065429348   0.0023509980   0.0256966476
       -0.0089458761  -0.0088089793   0.0006771728   0.0003871223   0.0001643325
        0.0035011923  -0.0047504503  -0.0088174824  -0.0019027313  -0.0045711325
       -0.0055934187  -0.0003509197  -0.0050960921  -0.0235648415   0.0008936558
       -0.0006075915  -0.0010496444  -0.0005531290  -0.0006923795  -0.0002158823
        0.0011983868  -0.0003716259  -0.0011710713   0.0000135220  -0.0000133848
       -0.0000491480  -0.0000026088   0.0000039730  -0.0000035574   0.0000231535
       -0.0000082955  -0.0000214277   0.0000143022  -0.0000012702   0.0000210508
       -0.0000185791  -0.0000205982   0.0000016829   0.0000015650   0.0000136578
       -0.0000818483   0.0000027255   0.0000022458   0.0000088221  -0.0000008431
       -0.0000005889  -0.0000003245   0.0000006791  -0.0000035825   0.0000025264
        0.0000002063   0.0000015651  -0.0000009693   0.0000028163  -0.0000012387
        0.0000000398   0.0000011183  -0.0000007374   0.0000039989   0.0000021848
        0.0000000325  -0.0000103721  -0.0000015172  -0.0000007593  -0.0000067367
        0.0000012030  -0.0000045373   0.0000006589   0.0000000339   0.0000015015
       -0.0000000514  -0.0000026280  -0.0000124268  -0.0000028893  -0.0000046893
        0.0000039395   0.0000075304  -0.0000046292  -0.0000082326   0.0000084781
        0.0000005388  -0.0000081473  -0.0000016208   0.0000060900   0.0000015423
        0.0000093264   0.0000271038  -0.0000334797  -0.0000211120
       -0.0150217764   0.0089726696  -0.0012381992  -0.1641250541   0.0367243178
        0.0231269863   0.4516686681   0.0185076022   0.0188548507  -0.0068570356
        0.0045260009   0.0054498126  -0.0275513442  -0.0044504193   0.0030137009
       -0.0003886499  -0.0010024326   0.0015566360  -0.0001001299  -0.0011214816
       -0.0009393088  -0.0000167584   0.0002225860  -0.0003301958   0.0002097979
       -0.0001330911  -0.0006638845  -0.0006416907   0.0010015671  -0.0001341463
       -0.0000047750   0.0000639080   0.0000554401   0.0000011656  -0.0000050731
        0.0000276776  -0.0000143852   0.0000069972   0.0000015082   0.0000252888
       -0.0000119871   0.0000179680   0.0000019648  -0.0000248325  -0.0000210985
        0.0000043475   0.0000023691   0.0000043951  -0.0000238783   0.0000199968
       -0.0000015033   0.0000036653   0.0000040845  -0.0000094225  -0.0000079750
       -0.0000077685   0.0000001683   0.0000022076   0.0000035198   0.0000061689
        0.0000101371   0.0000030436   0.0000152976   0.0000072419  -0.0000274708
       -0.0000216317  -0.0000234260   0.0000142704  -0.0000095788  -0.0001226667
       -0.0000389009   0.0000775609  -0.0000999834  -0.0000392153   0.0000482963
        0.0000075692   0.0000079804  -0.0000069001  -0.0000318852   0.0000180896
       -0.0000012807   0.0000240355   0.0000015967  -0.0000000999   0.0000243381
        0.0000153192  -0.0000018310  -0.0000017465  -0.0000094373  -0.0000053480
        0.0000030123  -0.0000001383  -0.0000020651   0.0000053063  -0.0000009182
        0.0000029892  -0.0000358363  -0.0000347718   0.0000011118   0.0000465270
        0.0000345502  -0.0000105446  -0.0007134530   0.0016891242  -0.0014312046
        0.0002979029  -0.0005143196   0.0006402604   0.0006905151  -0.0009736873
        0.0006070680  -0.0651209359   0.0494467859  -0.0506578619  -0.0427631845
        0.0026765025   0.0061528744  -0.1299999215  -0.1152854258  -0.0036569163
        0.0003111715   0.0003547232   0.0007412817   0.0006314852  -0.0003547303
       -0.0006986800   0.0004587680  -0.0003285484  -0.0008231585  -0.0001813028
        0.0000895136   0.0002533460  -0.0000626925  -0.0001560815  -0.0000222457
       -0.0005421544   0.0001552973   0.0000514374  -0.0000010582  -0.0000204948
       -0.0000148591   0.0000123069   0.0000022182   0.0000072129  -0.0000086528
        0.0000003506   0.0000097577  -0.0000194223   0.0000402899   0.0000126279
        0.0000004669  -0.0000237572   0.0000090438   0.0000098832  -0.0000138250
       -0.0000385709  -0.0000025337   0.0000038433   0.0000047130  -0.0000028040
        0.0000021942  -0.0000012953  -0.0000019959  -0.0000062894   0.0000019778
       -0.0000026800   0.0000020194  -0.0000023913   0.0000026225  -0.0000061027
       -0.0000004097  -0.0000026727  -0.0000002015   0.0000071112  -0.0000016642
       -0.0000030908  -0.0000076517  -0.0000016860  -0.0000016297  -0.0000049652
        0.0000008792  -0.0000069641  -0.0000004954  -0.0000022265   0.0000030094
       -0.0000006469  -0.0000028609  -0.0000013699  -0.0000062707   0.0000022546
        0.0000013202   0.0000099974  -0.0000054820   0.0000054066   0.0000000901
        0.0000014657  -0.0000076759  -0.0000014642   0.0000129649   0.0000054415
       -0.0000021017   0.0000304213  -0.0000163768  -0.0000011401
        0.0219441249  -0.0110164180   0.0004735425   0.0294437913  -0.0718059711
       -0.0049111323   0.0185076022   0.5212822754  -0.0075411310   0.0122220482
       -0.0045016824  -0.0058319172  -0.0199877126   0.0042347799   0.0028231927
       -0.0013130070  -0.0018774372   0.0005726974   0.0002088083  -0.0009612585
       -0.0009109221   0.0000103557   0.0004663925  -0.0002970691   0.0004384541
        0.0003622034  -0.0004367118  -0.0009710699  -0.0010141539   0.0005742080
       -0.0000534929   0.0000570180  -0.0000500849   0.0000380826  -0.0000418039
       -0.0000088282   0.0000556005   0.0000063237  -0.0000060460   0.0000320296
        0.0000444922   0.0000429159  -0.0000146096   0.0000056815  -0.0000268709
       -0.0000179778   0.0000140420  -0.0000089065  -0.0000068605   0.0000046823
        0.0000035810   0.0000055161  -0.0000130692  -0.0000079417   0.0000079177
       -0.0000172714  -0.0000064397   0.0000073004  -0.0000031666   0.0000071810
       -0.0000127488   0.0000163500   0.0000013487   0.0000325175  -0.0000428652
        0.0000339253  -0.0002047728   0.0002045049  -0.0000848569  -0.0004761877
       -0.0004016781   0.0001430201   0.0004465733  -0.0000490320   0.0000101241
       -0.0001311076  -0.0000506089   0.0000077859   0.0000765791  -0.0000394257
       -0.0000149573  -0.0001019227  -0.0000030389  -0.0000029626   0.0001649083
       -0.0000102475  -0.0000342346  -0.0000423556  -0.0000210473  -0.0000041426
       -0.0000430884   0.0000243277  -0.0000053235  -0.0000512456   0.0000023734
        0.0000462074   0.0000953918   0.0000163189  -0.0000099190  -0.0000972679
        0.0000721568   0.0000120006   0.0023351848  -0.0033789782   0.0027675206
       -0.0000396480   0.0005239600  -0.0007049832   0.0013047419   0.0003572095
       -0.0002822771   0.0496385436  -0.1517090440   0.1090009447   0.0027678556
       -0.0856108474  -0.0898141626  -0.1159868818  -0.1943697816  -0.0045574986
        0.0008496650  -0.0008602382  -0.0025051717   0.0007734712   0.0002654916
        0.0001458530  -0.0003669772   0.0004193278   0.0007228906  -0.0001940945
        0.0000959110   0.0001997043  -0.0001205250  -0.0001604618  -0.0000373676
       -0.0011727708  -0.0004336780   0.0004844529  -0.0000081355   0.0000165410
       -0.0000071711   0.0000276234   0.0000128692  -0.0000065748  -0.0000150270
       -0.0000224360   0.0000239728  -0.0000045221  -0.0000402406  -0.0000385619
       -0.0000006964  -0.0000019294   0.0000070596  -0.0000526945   0.0000017142
        0.0000233403   0.0000114948  -0.0000132468   0.0000136258  -0.0000036611
        0.0000047690   0.0000020881   0.0000041572  -0.0000107116   0.0000059435
        0.0000034239   0.0000057321  -0.0000027191   0.0000092323  -0.0000057177
       -0.0000001648  -0.0000029036   0.0000052580   0.0000064841  -0.0000033992
        0.0000008997  -0.0000016800  -0.0000028645   0.0000031884   0.0000014058
        0.0000058116  -0.0000105300   0.0000011240   0.0000038488   0.0000064570
       -0.0000003154   0.0000021337  -0.0000097831  -0.0000050840  -0.0000006736
        0.0000014352   0.0000025156  -0.0000007809  -0.0000061620   0.0000057165
       -0.0000101777  -0.0000055955   0.0000028126  -0.0000095778   0.0000025369
        0.0000013265   0.0000466496  -0.0000176654  -0.0000063820
       -0.0169609076   0.0082349970   0.0008985185   0.0212377087  -0.0061659353
       -0.0656206560   0.0188548507  -0.0075411310   0.5211193469   0.0255076881
       -0.0110403302  -0.0114688015  -0.0002878577   0.0002783654   0.0011712931
       -0.0001504337  -0.0005565956  -0.0003377400   0.0000246688   0.0000063802
       -0.0001662681   0.0001127764   0.0000463177   0.0000632698   0.0000653815
       -0.0001602616  -0.0000015347  -0.0003635850   0.0005010299   0.0000402851
        0.0000233649  -0.0000136541   0.0000167435  -0.0000207843  -0.0000087138
       -0.0000004945  -0.0000332912  -0.0000702245  -0.0000199204   0.0000013616
        0.0000101493   0.0000211261   0.0000092903  -0.0000123242   0.0000034946
       -0.0000017517   0.0000031160   0.0000005926  -0.0000029696   0.0000060806
        0.0000056174   0.0000016693   0.0000049336  -0.0000009393   0.0000001293
        0.0000064217   0.0000138889   0.0000003226  -0.0000038631   0.0000011527
        0.0000103107  -0.0000043107  -0.0000004965  -0.0000020438  -0.0000022871
       -0.0000158467   0.0000247752  -0.0000379526   0.0000120507  -0.0000332837
       -0.0000027473  -0.0000201507  -0.0000351663  -0.0000059548   0.0000249407
       -0.0000062858  -0.0000028691  -0.0000030617  -0.0000062427   0.0000154211
       -0.0000012878   0.0000155893   0.0000050242   0.0000006051   0.0000114400
       -0.0000038106   0.0000016083  -0.0000038541   0.0000006648   0.0000003182
       -0.0000058059   0.0000018000  -0.0000008103  -0.0000021404   0.0000008132
        0.0000009312  -0.0000275543  -0.0000209103   0.0000011757   0.0000045091
        0.0000003389   0.0000002500  -0.0020879016   0.0033471690  -0.0020804885
       -0.0009147270   0.0005606686   0.0007118973  -0.0005171614  -0.0002979700
        0.0002669954  -0.0510547780   0.1093969973  -0.1542565290   0.0067500398
       -0.0899744851  -0.2418172948  -0.0039197002  -0.0045893418  -0.0445207478
        0.0016351153  -0.0028276846  -0.0053855023   0.0005865929   0.0005419243
        0.0006721518   0.0009140295  -0.0002783302   0.0009129979   0.0000013904
        0.0001381210   0.0000788891  -0.0000572782  -0.0000038679   0.0000080113
        0.0007139768   0.0004380202  -0.0002934111   0.0000086344  -0.0000110164
       -0.0000023751  -0.0000201668   0.0000008674  -0.0000048062   0.0000049882
        0.0000069398   0.0000006356  -0.0000092265   0.0000905348   0.0000332732
       -0.0000111907  -0.0000116135   0.0000268081   0.0000357860  -0.0000098899
       -0.0000530819  -0.0000103610   0.0000177589  -0.0000048714  -0.0000005737
       -0.0000001953  -0.0000068598   0.0000025746   0.0000002008  -0.0000003871
       -0.0000005069  -0.0000005224   0.0000005072   0.0000011748  -0.0000002124
        0.0000002718  -0.0000026123  -0.0000013987  -0.0000061758   0.0000012214
        0.0000021403  -0.0000050637  -0.0000009193  -0.0000004797  -0.0000048711
        0.0000003733  -0.0000004964  -0.0000007455  -0.0000004933  -0.0000015070
       -0.0000007329  -0.0000065499  -0.0000034979  -0.0000028251  -0.0000100133
       -0.0000004970  -0.0000038040   0.0000038010   0.0000034687   0.0000014956
        0.0000017569  -0.0000000192   0.0000022115   0.0000016587   0.0000001896
       -0.0000004303  -0.0000008325   0.0000000468  -0.0000043435
        0.0004464566  -0.0014979551  -0.0078489630  -0.0599901488   0.0015398098
        0.0029406524  -0.0068570356   0.0122220482   0.0255076881   0.5234476041