$hessian                                                                        
        0.5195691648   0.0071590211   0.0133639232  -0.0732349751   0.0165555603
        0.0290737553   0.0026698803  -0.0097522756  -0.0172912929  -0.0023672574
       -0.0014601400  -0.0037289405  -0.0002885167   0.0011829090  -0.0003491551
       -0.0002451808  -0.0002832613   0.0000912043   0.0001325482   0.0000436219
        0.0000204990   0.0000346121  -0.0001320740   0.0000331644   0.0001815580
        0.0001484519  -0.0000311281  -0.0002619725  -0.0001042281   0.0000165482
        0.0001829367  -0.0000097360   0.0000066209   0.0000155459   0.0000033311
       -0.0000089138  -0.0000091344  -0.0000154889   0.0000020504  -0.0000237310
        0.0000130864  -0.0000182561   0.0000139503  -0.0000102894   0.0000028277
       -0.0001890102  -0.0000332439   0.0000074519  -0.0000130550   0.0001925735
       -0.0000379906   0.0000375341   0.0000225308   0.0000226813   0.0001560053
        0.0000867422  -0.0000082129  -0.0002009292   0.0000472753  -0.0000170634
        0.0000654519  -0.0002200676   0.0000517265   0.0000084698   0.0001327009
       -0.0000263304  -0.0000818933   0.0000433024  -0.0000047089   0.0000396442
       -0.0000124677   0.0000083691   0.0000574619   0.0000558343  -0.0000091047
       -0.0000220741  -0.0000141333   0.0000079288   0.0000207465  -0.0000685342
        0.0000169290  -0.0002550528  -0.0001237591   0.0001089097   0.0001807334
       -0.0001245419  -0.0000346041  -0.1834984842  -0.0816567701   0.0843281079
       -0.0609146751   0.0575540861  -0.0147508971  -0.1944593422  -0.0047800292
       -0.1172594596  -0.0073869531   0.0109378097   0.0216307895  -0.0015429803
        0.0059958073   0.0071648958   0.0004701982  -0.0007278299  -0.0002852703
        0.0008743804  -0.0001278397  -0.0010246959   0.0000906912  -0.0005157280
       -0.0009258280  -0.0000228143  -0.0000027752  -0.0000534512   0.0000447926
       -0.0000009528  -0.0000047311   0.0000030653  -0.0000094518  -0.0000010005
        0.0000042655  -0.0000121914  -0.0000009534   0.0000140801  -0.0000096276
       -0.0000044916   0.0000167028   0.0000085632  -0.0000083252   0.0000181495
        0.0000045433   0.0000008088   0.0000280974   0.0000067641   0.0000076359
        0.0000873655   0.0000129222  -0.0000820221
        0.0071590211   0.5067591434  -0.0264805637   0.0172706597  -0.1025000514
       -0.0556816340  -0.0014148145  -0.0020754015  -0.0056570851  -0.0003674999
        0.0007223483   0.0001495190   0.0002140523  -0.0003646125   0.0000938009
        0.0001608977   0.0001427433  -0.0000017386  -0.0000148880  -0.0000234049
        0.0000094566  -0.0000463707   0.0000231760  -0.0000111913  -0.0000693384
       -0.0000294531   0.0000054150   0.0001120769   0.0000286877  -0.0000054024
       -0.0000900242  -0.0000145336   0.0000031520   0.0000090732   0.0000363643
       -0.0000068441  -0.0000172038  -0.0000251885   0.0000070314   0.0000170829
       -0.0000208345   0.0000044345  -0.0000289542   0.0000184084  -0.0000005678
        0.0000901230  -0.0000015544   0.0000037479  -0.0000232929  -0.0000606355
        0.0000061639   0.0000401489  -0.0000052469  -0.0000252421  -0.0001242350
       -0.0000314592  -0.0000001460   0.0000912395  -0.0000675563   0.0000031369
       -0.0000531224   0.0001474304  -0.0000160961   0.0000122896  -0.0000890585
        0.0000232861  -0.0000122075   0.0000000897  -0.0000031722   0.0000164472
       -0.0000130078   0.0000030536  -0.0000242478  -0.0000209270   0.0000064457
        0.0000149867  -0.0000024955   0.0000006032  -0.0000588713   0.0001729925
       -0.0000907578   0.0001699936  -0.0000173511   0.0000380573  -0.0003453730
        0.0002443917   0.0000402040  -0.0815594999  -0.0930985796   0.0509147006
        0.0573719965  -0.2534289479   0.0544288115  -0.0049807614  -0.0440817371
       -0.0021132270  -0.0028176089   0.0062873999   0.0086600881   0.0088247894
       -0.0194880263  -0.0250315176   0.0001308727   0.0009330062   0.0009133815
        0.0003244895   0.0002185374   0.0000172414   0.0000945582  -0.0000088687
       -0.0001603500  -0.0000613575  -0.0000516174  -0.0000315195  -0.0000044008
       -0.0000078993  -0.0000038648  -0.0000131216  -0.0000076769   0.0000024798
       -0.0000089080   0.0000007328   0.0000016407  -0.0000132357  -0.0000067527
        0.0000010193   0.0000111751  -0.0000152581   0.0000008421  -0.0000004621
       -0.0000123727   0.0000004768   0.0000111755  -0.0000281413  -0.0000012731
        0.0000026503  -0.0001368018  -0.0000159968
        0.0133639232  -0.0264805637   0.4802131912   0.0305278576  -0.0563836987
       -0.1566338417  -0.0011581386  -0.0115358866  -0.0236265774  -0.0028886149
        0.0000462839  -0.0024081865  -0.0001216070   0.0000312910   0.0003055986
        0.0002776202   0.0001977189  -0.0000280807  -0.0001161392  -0.0000203583
        0.0000241422  -0.0000011251   0.0000917256  -0.0000229025  -0.0000329178
       -0.0000753999   0.0000112424   0.0001101769   0.0000395742  -0.0000015794
       -0.0001196680  -0.0000143170   0.0000025695   0.0000391886   0.0001056088
       -0.0000274405  -0.0000283527  -0.0000617745   0.0000195476   0.0000661896
       -0.0000683313   0.0000119144  -0.0000480343   0.0000327986  -0.0000044777
        0.0000780604   0.0000144694  -0.0000110374  -0.0000645769  -0.0001479336
        0.0000272592   0.0000496784   0.0000420867  -0.0000536852   0.0000529710
       -0.0000361536   0.0000220113  -0.0000653399   0.0000204066  -0.0000164021
        0.0000244680  -0.0001136184   0.0000254819   0.0000220941   0.0000778150
       -0.0000140962  -0.0000219815   0.0000054827  -0.0000047678   0.0000158889
       -0.0000105706   0.0000067935   0.0000029845  -0.0000025142  -0.0000044772
       -0.0000003445  -0.0000119686   0.0000058357  -0.0000192890  -0.0000284600
       -0.0000256341   0.0000635857   0.0000778243  -0.0000397219  -0.0000379241
       -0.0000917628  -0.0001835583   0.0842382628   0.0511573953  -0.0948800715
       -0.0148554804   0.0542101657  -0.0568425542  -0.1175588328  -0.0019529786
       -0.1328448804   0.0074578950  -0.0079250759  -0.0168258641  -0.0003575411
       -0.0003815041   0.0028526437   0.0006623391  -0.0002913157   0.0006652234
        0.0006742360   0.0002412317   0.0010083018   0.0000348634  -0.0005751999
       -0.0009176837  -0.0002175893  -0.0000528987   0.0001770010   0.0000315132
       -0.0000222222  -0.0000114338  -0.0000059596  -0.0000149272   0.0000025149
       -0.0000046603  -0.0000075354  -0.0000005050  -0.0000116394  -0.0000127706
        0.0000046858   0.0000090002  -0.0000099484   0.0000077000   0.0000019891
       -0.0000056856   0.0000020303  -0.0000027915  -0.0000221832  -0.0000004250
       -0.0000662381  -0.0000343212   0.0000341957
       -0.0732349751   0.0172706597   0.0305278576   0.4980858815   0.0059521343
       -0.0203282702  -0.1491649745  -0.0018076535  -0.0621979725   0.0027845495
       -0.0021385709  -0.0008434766   0.0002790673  -0.0004094875  -0.0000560144
        0.0000628602   0.0001033443   0.0000293483  -0.0003198963   0.0001749502
       -0.0000562523   0.0000440357   0.0000481745  -0.0000245758  -0.0001403524
       -0.0000046287   0.0000070243  -0.0001399370  -0.0000137449   0.0000010761
        0.0003672739   0.0000328659  -0.0000016875  -0.0001175649  -0.0003290335
        0.0000722372   0.0000845269   0.0001919401  -0.0000394389  -0.0003191959
        0.0003271654  -0.0000790420   0.0002061532  -0.0002041189   0.0000479833
        0.0001025401  -0.0000679708   0.0000112257   0.0000959219   0.0000471971
       -0.0000255079  -0.0000502355   0.0000010868   0.0000258428  -0.0001423037
       -0.0000696726  -0.0000127462   0.0002529943  -0.0001780210   0.0000666551
       -0.0000776591   0.0005755004  -0.0001341536   0.0000095919  -0.0005507188
        0.0000926600  -0.0000709281   0.0000568062   0.0000025214   0.0000469574
       -0.0000318872   0.0000051437   0.0000783369   0.0000770299  -0.0000121895
       -0.0000512730  -0.0000360980   0.0000104341   0.0000980491   0.0000330172
        0.0000653098  -0.0000556236  -0.0001468995  -0.0000935627   0.0001724969
        0.0001499086   0.0004546339  -0.0081315338   0.0111022855   0.0214057474
       -0.0023789396   0.0060173216   0.0066675984   0.0043251981  -0.0114807066
       -0.0196816290  -0.1788108646  -0.0810683940   0.0781724166  -0.0611176437
        0.0540523742  -0.0145376719  -0.0093234666   0.0032479569  -0.0081271511
       -0.0251580297  -0.0028220433  -0.0141734836   0.0005951234   0.0008277816
        0.0015683309   0.0010848055   0.0006597989   0.0010402710   0.0000789173
        0.0000165290   0.0000608896   0.0000254430   0.0000105301  -0.0000044476
        0.0000022854  -0.0000102385   0.0000001372   0.0000204158   0.0000084129
        0.0000029882   0.0000140799   0.0000083267   0.0000050147  -0.0000180288
        0.0000105005  -0.0000028848   0.0000113386   0.0000262604  -0.0000081342
       -0.0001054175   0.0003400294   0.0000969450
        0.0165555603  -0.1025000514  -0.0563836987   0.0059521343   0.5234802266
       -0.0313526047  -0.0023100446  -0.0670303444   0.0040080329  -0.0094022655
       -0.0027166556  -0.0113015120  -0.0009967729   0.0012818617  -0.0005172566
       -0.0001335992  -0.0001466747  -0.0000647186   0.0001303055  -0.0000052946
       -0.0000018836   0.0000157035  -0.0000683604   0.0000487128   0.0002139476
        0.0000980887  -0.0000213930  -0.0001948711  -0.0000664915   0.0000175473
        0.0000956728  -0.0000091248   0.0000043039   0.0000283495   0.0000933935
       -0.0000267427  -0.0000234105  -0.0000550829   0.0000133587   0.0000652230
       -0.0000806382   0.0000087482  -0.0000433395   0.0000429452  -0.0000086958
       -0.0001599916  -0.0000019310  -0.0000032832  -0.0000534767   0.0000964370
        0.0000172065  -0.0000732242   0.0001484950  -0.0000718556   0.0001685937
       -0.0000185463   0.0000269097  -0.0002212691   0.0001672873  -0.0000324533
        0.0001123820  -0.0003412419   0.0000648879   0.0000134068   0.0002293395
       -0.0000478082  -0.0000370259   0.0000023223  -0.0000074409   0.0000279331
       -0.0000128035   0.0000055282   0.0000378567  -0.0000018507  -0.0000141105
       -0.0000227454  -0.0000114710   0.0000119695   0.0000593118  -0.0002606117
        0.0000875538  -0.0000971321   0.0001489140  -0.0001430356   0.0002629507
       -0.0003098067  -0.0004555214  -0.0023503984   0.0066844860   0.0092788282
        0.0088675627  -0.0195879765  -0.0246564213  -0.0000425170  -0.0012892634
       -0.0032616141  -0.0804829313  -0.0945880821   0.0491056418   0.0538057222
       -0.2409864652   0.0578546436   0.0227739981  -0.0018779203   0.0174517667
       -0.0124425668  -0.0001212161  -0.0079115300   0.0000353142  -0.0006899624
       -0.0025901194  -0.0001021917   0.0003687927   0.0008067426   0.0000395345
       -0.0000089991  -0.0000075887   0.0000003791  -0.0000183499  -0.0000042511
       -0.0000098447  -0.0000142732  -0.0000030206  -0.0000149051  -0.0000160743
       -0.0000081325   0.0000120070   0.0000011198  -0.0000084676   0.0000144040
       -0.0000073795  -0.0000003094  -0.0000098837  -0.0000079239  -0.0000188535
       -0.0000638455   0.0000071574   0.0001119404
        0.0290737553  -0.0556816340  -0.1566338417  -0.0203282702  -0.0313526047
        0.4676339144  -0.0617981833   0.0043081896  -0.1067956313  -0.0162086575
       -0.0071709239  -0.0231089061  -0.0002718712   0.0023053873  -0.0006033682
       -0.0004663817  -0.0004445113   0.0002674939   0.0005218819   0.0001077775
        0.0001008845  -0.0000328163  -0.0003707713   0.0000959292   0.0003282898
        0.0003619944  -0.0000872685  -0.0005827288  -0.0001731646   0.0000377234
        0.0003403245  -0.0000159519   0.0000049855   0.0000625873   0.0001441733
       -0.0000353449  -0.0000428754  -0.0000843394   0.0000271461   0.0000873333
       -0.0001073579   0.0000166286  -0.0000476033   0.0000526630  -0.0000041893
       -0.0003574145   0.0000018027  -0.0000056107  -0.0001143454   0.0003006953
       -0.0000610212  -0.0000037741   0.0001883780  -0.0001164010   0.0000930567
        0.0000508417  -0.0000130694  -0.0001484960   0.0001590324  -0.0000238214
        0.0000724198  -0.0002435635   0.0000288788   0.0000354372   0.0000705795
       -0.0000214217  -0.0002311977   0.0000826474  -0.0000110442   0.0001346748
       -0.0000597047   0.0000125549   0.0001624101   0.0001420727  -0.0000271902
       -0.0000804595  -0.0000979122   0.0000207831  -0.0000833344  -0.0000576794
        0.0000057335  -0.0001227969   0.0001390116  -0.0000527996  -0.0002042066
        0.0003265864   0.0000796393   0.0076655818  -0.0074275260  -0.0167559376
       -0.0003868701  -0.0004428764   0.0037550897   0.0027357596  -0.0113976229
       -0.0201279068   0.0779973749   0.0491160579  -0.0862651420  -0.0143727093
        0.0580195795  -0.0573190277  -0.0099786314   0.0025714223  -0.0074859855
        0.0072902150  -0.0004747970   0.0065325163   0.0001743541  -0.0026245458
       -0.0038260168  -0.0010234896   0.0002481403   0.0009251404  -0.0000661480
       -0.0000387459  -0.0000818010  -0.0000177711  -0.0000452450   0.0000128538
       -0.0000029677  -0.0000210629   0.0000018338  -0.0000140358  -0.0000263049
        0.0000060194   0.0000260421  -0.0000145650   0.0000169201   0.0000248538
       -0.0000109427   0.0000042996   0.0000575725  -0.0000514352   0.0000114861
        0.0001041113  -0.0002612445  -0.0001357073
        0.0026698803  -0.0014148145  -0.0011581386  -0.1491649745  -0.0023100446
       -0.0617981833   0.4919543563   0.0100726300  -0.0182648114  -0.0671535895
        0.0077634264   0.0247624303   0.0000665810   0.0093427743   0.0034720430
       -0.0005734950  -0.0010096178   0.0007824822   0.0002674066   0.0000898142
        0.0002449232   0.0000029909  -0.0002155608  -0.0000253645   0.0002833791
        0.0002987716  -0.0000655651  -0.0004688171  -0.0001680035   0.0000582826
        0.0003489754  -0.0000108616   0.0000123006   0.0000198282   0.0000215816
       -0.0000149136  -0.0000101615  -0.0000247470   0.0000075872  -0.0000522806
        0.0000023318  -0.0000185732   0.0000279378   0.0000026755   0.0000131373
       -0.0002927731  -0.0000452095  -0.0000396628  -0.0001654470   0.0002390856
       -0.0001879435   0.0000276051   0.0001685072  -0.0003713455   0.0001218237
        0.0000707169   0.0000001522  -0.0001920735  -0.0000231619  -0.0000757532
        0.0000581366  -0.0001499747   0.0000496617   0.0000179719   0.0000277994
        0.0000169516  -0.0001571599   0.0000574604  -0.0000269081   0.0000924089
       -0.0000345026   0.0000148815   0.0001203095   0.0001053476  -0.0000176673
       -0.0000670433  -0.0000611393   0.0000141995  -0.0000507605  -0.0000543506
       -0.0000047349  -0.0000322902  -0.0000026296  -0.0001811263   0.0000849164
        0.0006078655  -0.0007076945   0.0009766811   0.0005490998   0.0010894014
        0.0004712282   0.0001065728   0.0008360666   0.0007733837   0.0007412669
        0.0016238800  -0.0254903519  -0.0030120828  -0.0150086666  -0.0097211769
        0.0025959114  -0.0086742956  -0.0578035002   0.0533909732  -0.0132485549
       -0.1822993071  -0.0788112006   0.0829383155   0.0032060981  -0.0086800842
       -0.0186566817  -0.0075475053   0.0101832223   0.0225775967  -0.0003278035
       -0.0002559370  -0.0002044522  -0.0000033060  -0.0000241305  -0.0000152007
        0.0000003152  -0.0000245092  -0.0000028930   0.0000032822  -0.0000059414
        0.0000019156   0.0000223040   0.0000082313   0.0000593535   0.0000175170
       -0.0000017425  -0.0000041976   0.0000556023  -0.0000213249   0.0000175805
       -0.0001171028  -0.0000844945   0.0001801852
       -0.0097522756  -0.0020754015  -0.0115358866  -0.0018076535  -0.0670303444
        0.0043081896   0.0100726300   0.5176797655  -0.0409505845   0.0072097732
       -0.0736240415  -0.0446661986   0.0113705028  -0.0377656938  -0.0207218974
        0.0024644626   0.0002752258  -0.0013637253  -0.0002154466  -0.0000754919
       -0.0002462844   0.0001372248   0.0002978016  -0.0002684210  -0.0002256513
       -0.0002248455   0.0000799197   0.0002884136   0.0001522936   0.0000053992
       -0.0001611073  -0.0000143472  -0.0000021006  -0.0000116715  -0.0000285927
       -0.0000054230   0.0000036814   0.0000139342   0.0000019660  -0.0000223735
        0.0000135465   0.0000088779   0.0000091051  -0.0000084577  -0.0000018869
        0.0003120020   0.0001009895   0.0001157333   0.0000645966  -0.0003515383
        0.0011575139   0.0005040926  -0.0012870409   0.0016157890  -0.0006935003
        0.0000471468   0.0001873799   0.0004954628  -0.0003018607   0.0000823809
       -0.0002311518   0.0006144916  -0.0000546498  -0.0000009433  -0.0003798208
        0.0001157620  -0.0000247637   0.0000072004  -0.0000379232   0.0000116987
       -0.0000077846   0.0000059023   0.0000047703   0.0000047223  -0.0000098077
        0.0000052823  -0.0000098499   0.0000029563  -0.0002324479   0.0005265544
       -0.0002307127   0.0005953157   0.0001843537  -0.0002140799  -0.0035990452
       -0.0008373836  -0.0017525966  -0.0000265353   0.0003413332   0.0005623340
       -0.0008798140   0.0005712002  -0.0008532934   0.0000853514  -0.0010414676
       -0.0030345042  -0.0127885840  -0.0006432920  -0.0083316725   0.0232524364
       -0.0012668077   0.0182422536   0.0535591347  -0.2490681728   0.0577157209
       -0.0783923358  -0.0892032833   0.0481985938  -0.0002830658  -0.0000960100
       -0.0031607688  -0.0010445332   0.0046848509   0.0052197112  -0.0002324322
       -0.0001444706   0.0000591454   0.0000032775   0.0000086466   0.0000132282
       -0.0000067299   0.0000082330   0.0000189553  -0.0000119968  -0.0000547241
       -0.0001879581   0.0000292377  -0.0000766450  -0.0002225165  -0.0000039844
       -0.0000058752  -0.0000159624  -0.0000205121   0.0000168407   0.0000155960
        0.0001901027   0.0000741127   0.0001355458
       -0.0172912929  -0.0056570851  -0.0236265774  -0.0621979725   0.0040080329
       -0.1067956313  -0.0182648114  -0.0409505845   0.4544070429   0.0206358604
       -0.0332662438  -0.1418352560   0.0016783641  -0.0153095396   0.0080149181
        0.0017693147   0.0020798312  -0.0000345467  -0.0010589575  -0.0000078664
       -0.0002691227   0.0000346678   0.0007037272  -0.0001425807  -0.0008520547
       -0.0007069407   0.0002029456   0.0013261609   0.0004182854  -0.0000938037
       -0.0008490665  -0.0000224888   0.0000060769  -0.0000527605  -0.0001057453
        0.0000354388   0.0000411254   0.0000684098  -0.0000147159  -0.0001152962
        0.0001538279  -0.0000322077   0.0000511668  -0.0001035934   0.0000234680
        0.0008277699  -0.0000361496  -0.0000511125   0.0002430859  -0.0007052845
       -0.0000750534  -0.0000700339  -0.0005494902  -0.0003379278  -0.0005867043
       -0.0001687301   0.0000550307   0.0008177735  -0.0004609889   0.0000763552
       -0.0003774286   0.0011314962  -0.0002582896   0.0000025366  -0.0007938338
        0.0001436674   0.0001205620  -0.0000319487   0.0000244957  -0.0000788509
        0.0000309511  -0.0000045278  -0.0001054758  -0.0001004903   0.0000238757
        0.0000582024   0.0000584895  -0.0000109672  -0.0000774163   0.0005398582
       -0.0000421647   0.0005746110  -0.0000024615  -0.0001293402  -0.0017113543
        0.0008428155  -0.0010728608  -0.0010329441   0.0000598048   0.0006051806
       -0.0003307854   0.0008434494   0.0008533739   0.0004775211  -0.0025721112
       -0.0041736962   0.0075752719  -0.0004522475   0.0061251909  -0.0099217366
        0.0024375719  -0.0079480344  -0.0134800887   0.0565064693  -0.0553442205
        0.0833175518   0.0493287788  -0.0906296460   0.0016858802  -0.0104745473
       -0.0222743564   0.0073176695  -0.0066562060  -0.0155871669  -0.0000154699
       -0.0001838831  -0.0000003374   0.0000142896   0.0000391595  -0.0000154020
       -0.0000028104   0.0000104960  -0.0000142812   0.0000020883   0.0000117996
        0.0000688730  -0.0000214601   0.0000092920   0.0001233797  -0.0000312526
        0.0000111983   0.0000005458  -0.0000215572   0.0000217619   0.0000096877
       -0.0000238922   0.0000029539   0.0000142803
       -0.0023672574  -0.0003674999  -0.0028886149   0.0027845495  -0.0094022655
       -0.0162086575  -0.0671535895   0.0072097732   0.0206358604   0.5488501818
        0.0288390180   0.0111743167  -0.0835299752   0.0121104148  -0.0029150318
        0.0073120359  -0.0185724538   0.0025488243  -0.0011472670  -0.0002108103
        0.0000188881   0.0001437468   0.0005980923   0.0000700131  -0.0006594068
       -0.0004524953   0.0000102811   0.0008769618   0.0002730050  -0.0001009376
       -0.0005648268  -0.0000073003  -0.0000145195  -0.0000259532  -0.0000749163
        0.0000163056   0.0000393871   0.0000606934  -0.0000232638  -0.0000890083
        0.0000983626  -0.0000011477   0.0000544431  -0.0000620020   0.0000054023
        0.0012476255  -0.0009306315   0.0003133480  -0.0029038363  -0.0047885055
        0.0008141499  -0.0043947170   0.0028987363  -0.0002674588  -0.0000414140
        0.0012072993  -0.0003486169   0.0007131644  -0.0001887552   0.0001188222
       -0.0002682858   0.0008746425  -0.0001590425  -0.0000134791  -0.0007254134
        0.0001326457  -0.0000704952   0.0000449134   0.0000060936   0.0000262805
       -0.0000189224  -0.0000017351   0.0001374113   0.0000796408  -0.0000192021
       -0.0000957464  -0.0000308393   0.0000022447   0.0001163281   0.0001836335
       -0.0001501497  -0.0001837880  -0.0001812389   0.0002060870  -0.0010611839
        0.0240377033  -0.0037582090   0.0000354537   0.0000323013  -0.0000987106
       -0.0000393982  -0.0000274619   0.0000187316   0.0001045199  -0.0004788768
       -0.0009790501   0.0006400087  -0.0003698681  -0.0011745465   0.0005995901
       -0.0001117574  -0.0000410967  -0.0014267162   0.0042630296   0.0054169092
       -0.0072808004   0.0106495964   0.0215780562  -0.1792530466   0.0114785893
       -0.1122945094  -0.2089751905  -0.0680494030   0.0783657466  -0.0005510307
       -0.0007030626   0.0003504219  -0.0000182482   0.0000231090   0.0000310695
        0.0000235219   0.0000109542   0.0000224931  -0.0001741013  -0.0003021566
        0.0001203906  -0.0003061299   0.0001735089  -0.0001057305  -0.0000377775
        0.0000217051  -0.0000022465  -0.0000333248   0.0000384313  -0.0000436551
       -0.0010392162   0.0008494828  -0.0003809692
       -0.0014601400   0.0007223483   0.0000462839  -0.0021385709  -0.0027166556
       -0.0071709239   0.0077634264  -0.0736240415  -0.0332662438   0.0288390180
        0.4375586801  -0.0380255202   0.0159342657  -0.2003925523   0.0291302254
       -0.0046012396  -0.0245598328   0.0046250160   0.0022053115   0.0008798777
       -0.0003239607  -0.0000107584  -0.0012454293   0.0003964662   0.0016467274
        0.0013213856  -0.0001808645  -0.0024777953  -0.0008508717   0.0001404951
        0.0018334555   0.0001018602  -0.0000110247  -0.0000595935  -0.0001409048
        0.0000586563  -0.0000158748   0.0000775793   0.0000006022  -0.0000796286
        0.0000014585  -0.0000324227   0.0000711535  -0.0000059341  -0.0000127382
       -0.0009047229  -0.0011614297   0.0003620465  -0.0022459052   0.0003576118
        0.0003930729   0.0009440644   0.0017886849   0.0002922082   0.0011942197
       -0.0005808819   0.0001688636  -0.0018751120   0.0008378022  -0.0000565869
        0.0008337866  -0.0024289455   0.0004400400   0.0000054816   0.0019283748
       -0.0004307276   0.0001662333  -0.0000644885   0.0000294092  -0.0000734514
       -0.0000041617  -0.0000011921  -0.0002118570  -0.0001958398   0.0000427810
        0.0001596528   0.0001242423  -0.0000066528   0.0002169553  -0.0011777267
        0.0002521514  -0.0020508407   0.0002783453  -0.0001243893   0.0099324161
       -0.0154801880   0.0035395675  -0.0000976959  -0.0000517852  -0.0000203960
       -0.0000450420   0.0002049563   0.0001071302   0.0002311730  -0.0001254647
       -0.0005617414   0.0002799620   0.0002422980  -0.0000937526   0.0000763011
        0.0001186911   0.0005038523   0.0078242159  -0.0174978886  -0.0224865167
       -0.0018193707   0.0040277323   0.0075340749   0.0138075494  -0.0392750575
        0.0176506888  -0.0733465362  -0.0690632063   0.0376226400  -0.0001264477
       -0.0000004077  -0.0001627586   0.0000560071  -0.0000434711   0.0000332425
       -0.0000355720  -0.0000027145  -0.0000441495  -0.0002140704  -0.0000655024
       -0.0000181565   0.0001822450   0.0000599364  -0.0000918965   0.0000470979
       -0.0000463887   0.0000220626  -0.0000679406  -0.0000220536   0.0000044332
       -0.0002925535   0.0001919590  -0.0002733948
       -0.0037289405   0.0001495190  -0.0024081865  -0.0008434766  -0.0113015120
       -0.0231089061   0.0247624303  -0.0446661986  -0.1418352560   0.0111743167
       -0.0380255202   0.4525775941  -0.0051106177   0.0387183001  -0.0593578683
        0.0006762253   0.0051109016  -0.0040537204   0.0000848391  -0.0001758197
       -0.0012952543   0.0000551248  -0.0000903151  -0.0001254115   0.0003929868
        0.0003901191   0.0000593025  -0.0007533007  -0.0001816451   0.0000202213
        0.0004453080  -0.0000138777  -0.0000311725   0.0000973135   0.0002368304
       -0.0000527036  -0.0000651098  -0.0001426553   0.0000304544   0.0001864537
       -0.0002114574   0.0000970246  -0.0001126130   0.0001303590  -0.0000434236
       -0.0004299295   0.0005366834   0.0005499986   0.0004233187   0.0016353938
        0.0041884669  -0.0003671711   0.0013336540   0.0048099990   0.0002463131
        0.0005303208   0.0004490739  -0.0004638556   0.0004285528   0.0001210273
        0.0002063826  -0.0007623302   0.0002902649   0.0000298216   0.0005396540
       -0.0000061998  -0.0002262944   0.0000643937  -0.0000916762   0.0001408637
       -0.0000492136   0.0000253496   0.0001628728   0.0001333581  -0.0000559474
       -0.0000909553  -0.0000964349   0.0000247353  -0.0000177084  -0.0001481166
       -0.0002080621  -0.0002472803   0.0001011501  -0.0008513206  -0.0022334196
        0.0040402173  -0.0027995423  -0.0001986493  -0.0000819855   0.0001698201
       -0.0000989711   0.0003190257   0.0000716724   0.0001140379  -0.0007639013
       -0.0012078728   0.0006884062   0.0004191724   0.0009765202   0.0004818693
       -0.0001285030   0.0003596681  -0.0002316722   0.0006322457   0.0014833606
        0.0074972436  -0.0082862940  -0.0170735606  -0.1117080384   0.0148339957
       -0.1317233650   0.0788112557   0.0354246086  -0.0795289461  -0.0003270654
       -0.0001410590   0.0005570996  -0.0000296212  -0.0000343833   0.0001150977
        0.0000011290  -0.0000082266   0.0000761192   0.0000293382  -0.0001125808
       -0.0006796537  -0.0000107439  -0.0001364483  -0.0008251630   0.0000340037
       -0.0000192346  -0.0000486222   0.0000441224  -0.0000166815   0.0000632166
        0.0005094571  -0.0001140613   0.0002957477
       -0.0002885167   0.0002140523  -0.0001216070   0.0002790673  -0.0009967729
       -0.0002718712   0.0000665810   0.0113705028   0.0016783641  -0.0835299752
        0.0159342657  -0.0051106177   0.5908844374  -0.0206625437   0.0025558337
       -0.1795756755  -0.0824334125   0.0174372801  -0.0540873630  -0.0284499853
        0.0065347665  -0.0035967282   0.0203932828  -0.0045692457  -0.0023848664
       -0.0128016666   0.0029575615   0.0112142034   0.0036667667  -0.0007846228
       -0.0081254726   0.0003596461  -0.0000764336  -0.0001189877  -0.0000206632
        0.0000928233  -0.0001522478   0.0000467840   0.0000067399  -0.0001019536
       -0.0002734593   0.0000084226  -0.0003080800   0.0002597174  -0.0000012124
        0.0084610356   0.0062605967  -0.0014123791   0.0057676950  -0.0367958985
        0.0076038365  -0.0071048202   0.0499496454  -0.0103458249   0.0088854948
       -0.0025373440   0.0004994717  -0.0039889985   0.0137371260  -0.0029240863
        0.0025879050  -0.0125380421   0.0025761173   0.0005055830   0.0080733952
       -0.0015883200   0.0002327497   0.0001007546  -0.0000362510  -0.0000175911
        0.0001216967   0.0000198992  -0.0000334088  -0.0000145653   0.0000202269
        0.0000122516   0.0003061675  -0.0000661338   0.0026729439  -0.0223057203
        0.0047113033  -0.0613863652   0.0136151336  -0.0033964389  -0.2233127073
        0.0725601356  -0.0154472339  -0.0000084408   0.0000579075   0.0000731380
       -0.0000671778   0.0001298232  -0.0000019183  -0.0000204837  -0.0004637712
       -0.0001161779  -0.0003110877  -0.0003932929   0.0001183382   0.0000864139
       -0.0002774151  -0.0010055906   0.0000627276   0.0015819740   0.0017999014
       -0.0003786586   0.0007349760   0.0000015499  -0.0066408745   0.0295953133
       -0.0080345048   0.0022524039  -0.0289410864   0.0068292295   0.0013373583
       -0.0002821721   0.0000103458  -0.0010394709  -0.0008976067   0.0001064297
        0.0002173535   0.0003527992  -0.0000576661   0.0001990727   0.0009649006
       -0.0002288594   0.0002663471  -0.0005375266   0.0001670873   0.0001643558
       -0.0001500902   0.0000584210  -0.0009347179   0.0007460289  -0.0000897361
        0.0013586889   0.0006396429  -0.0001803559
        0.0011829090  -0.0003646125   0.0000312910  -0.0004094875   0.0012818617
        0.0023053873   0.0093427743  -0.0377656938  -0.0153095396   0.0121104148
       -0.2003925523   0.0387183001  -0.0206625437   0.6840777786  -0.1048664671
       -0.0899910811  -0.1712448140   0.0265549804  -0.0199377676   0.0012191687
       -0.0008684777   0.0039783649   0.0115779012  -0.0014883814  -0.0032988263
       -0.0083719461   0.0017234175   0.0062992351   0.0037079559  -0.0009202696
       -0.0039557452  -0.0000578118  -0.0000055564   0.0003639074   0.0008018064
       -0.0001416050  -0.0001894396  -0.0003423602   0.0000914511   0.0004639912
       -0.0006679022   0.0001668227  -0.0002628640   0.0003010098  -0.0000713934
        0.0092956662  -0.0032146822   0.0014367370  -0.0109534582  -0.0628347555