 Entering Gaussian System
 *********************************************
 Gaussian 98:
 frequency output generated by the xtb code
 *********************************************
                         Standard orientation:
 --------------------------------------------------------------------
  Center     Atomic     Atomic              Coordinates (Angstroms)
  Number     Number      Type              X           Y           Z
 --------------------------------------------------------------------
    1          6             0        6.513948    1.401515   -1.363199
    2          6             0        7.173262    0.184519   -1.335198
    3          6             0        6.632801   -0.881484   -0.640073
    4          6             0        5.433971   -0.730600    0.051696
    5          6             0        4.778904    0.504918    0.051087
    6          6             0        5.321655    1.552515   -0.672125
    7          6             0        3.533991    0.678099    0.876303
    8          6             0        2.804812   -0.622334    1.085734
    9          6             0        3.525276   -1.819514    1.044419
   10          6             0        2.887965   -3.030787    1.296552
   11          6             0        1.535136   -3.053152    1.577503
   12          6             0        0.809730   -1.877059    1.588053
   13          6             0        1.438032   -0.659854    1.339934
   14          6             0        0.639575    0.588200    1.333624
   15          6             0        0.720001    1.501524    2.375259
   16          6             0       -0.042079    2.653660    2.359259
   17          6             0       -0.870088    2.927687    1.274695
   18          6             0       -0.937814    2.032778    0.201515
   19          6             0       -0.208240    0.852493    0.251703
   20          6             0       -0.268803   -0.146440   -0.842980
   21          6             0        0.756634   -0.193915   -1.782169
   22          6             0        0.745988   -1.151241   -2.779180
   23          6             0       -0.267476   -2.089362   -2.829215
   24          6             0       -1.293677   -2.054173   -1.889914
   25          6             0       -1.313242   -1.062091   -0.905256
   26          6             0       -2.483531   -1.004252    0.040049
   27          6             0       -3.076874   -2.366434    0.268751
   28          6             0       -3.739078   -2.690571    1.439415
   29          6             0       -4.348105   -3.926242    1.595232
   30          6             0       -4.293768   -4.852449    0.567717
   31          6             0       -3.613568   -4.556026   -0.599131
   32          6             0       -2.997300   -3.317657   -0.753501
   33          7             0       -2.297492   -3.009924   -1.908171
   34          6             0       -1.746040    2.411030   -1.010372
   35          6             0       -2.882945    3.331281   -0.661704
   36          6             0       -4.027269    3.402468   -1.436242
   37          6             0       -5.030635    4.313916   -1.145308
   38          6             0       -4.891337    5.165289   -0.062478
   39          6             0       -3.766717    5.091302    0.738336
   40          6             0       -2.760762    4.173775    0.448221
   41          7             0       -1.635466    4.080752    1.247685
   42          7             0        4.877271   -1.791443    0.743095
   43          1             0        6.928451    2.232112   -1.914816
   44          1             0        8.107350    0.060261   -1.863559
   45          1             0        7.136521   -1.838311   -0.628430
   46          1             0        4.809566    2.504699   -0.683373
   47          1             0        3.823014    1.080139    1.857758
   48          1             0        2.870910    1.415648    0.417969
   49          1             0        3.457975   -3.949125    1.267460
   50          1             0        1.042378   -3.993403    1.778710
   51          1             0       -0.248228   -1.896862    1.799218
   52          1             0        1.371437    1.296472    3.212160
   53          1             0        0.006002    3.351165    3.183641
   54          1             0        1.559143    0.526158   -1.728951
   55          1             0        1.540262   -1.178252   -3.510891
   56          1             0       -0.267436   -2.857335   -3.590246
   57          1             0       -3.260421   -0.360449   -0.397245
   58          1             0       -2.191365   -0.545229    0.987030
   59          1             0       -3.789468   -1.960777    2.235641
   60          1             0       -4.868556   -4.160523    2.511887
   61          1             0       -4.773876   -5.814022    0.677297
   62          1             0       -3.554981   -5.283138   -1.397401
   63          1             0       -2.198850   -3.751672   -2.587167
   64          1             0       -1.082248    2.930282   -1.717079
   65          1             0       -2.113034    1.520882   -1.523708
   66          1             0       -4.127983    2.744326   -2.288046
   67          1             0       -5.913217    4.362741   -1.765489
   68          1             0       -5.664376    5.884415    0.166115
   69          1             0       -3.660756    5.744121    1.593884
   70          1             0       -1.613987    4.660269    2.074723
   71          1             0        5.339128   -2.685302    0.653284
 --------------------------------------------------------------------
     1 basis functions        1 primitive gaussians
     1 alpha electrons        1 beta electrons
 
 Harmonic frequencies (cm**-1), IR intensities (km*mol⁻¹),
 Raman scattering activities (A**4/amu), Raman depolarization ratios,
 reduced masses (AMU), force constants (mDyne/A) and normal coordinates:
                      1                      2                      3
                        a                      a                      a 
 Frequencies --    11.2842                17.9581                18.8472
 Red. masses --    11.2430                11.0068                10.9885
 Frc consts  --     0.0000                 0.0000                 0.0000
 IR Inten    --     0.0103                 0.0045                 0.0159
 Raman Activ --     0.0000                 0.0000                 0.0000
 Depolar     --     0.0000                 0.0000                 0.0000
 Atom AN      X      Y      Z        X      Y      Z        X      Y      Z
   1   6     0.17   0.11   0.15     0.08  -0.21  -0.09     0.17  -0.06   0.20
   2   6     0.19   0.12   0.17     0.04  -0.23  -0.04     0.14  -0.08   0.22
   3   6     0.17   0.10   0.13     0.01  -0.18   0.01     0.06  -0.08   0.15
   4   6     0.14   0.07   0.07     0.02  -0.10   0.02     0.01  -0.07   0.07
   5   6     0.11   0.06   0.06     0.06  -0.08  -0.03     0.05  -0.05   0.06
   6   6     0.13   0.08   0.09     0.09  -0.13  -0.09     0.13  -0.05   0.12
   7   6     0.07   0.03  -0.00     0.07  -0.01  -0.03    -0.00  -0.03  -0.02
   8   6     0.09   0.02  -0.04     0.02   0.03   0.02    -0.04  -0.02  -0.06
   9   6     0.11   0.03  -0.02    -0.02   0.00   0.07    -0.07  -0.04  -0.05
  10   6     0.12   0.02  -0.06    -0.06   0.03   0.11    -0.11  -0.02  -0.10
  11   6     0.11  -0.01  -0.12    -0.06   0.09   0.10    -0.12   0.01  -0.14
  12   6     0.09  -0.02  -0.13    -0.02   0.11   0.05    -0.09   0.03  -0.15
  13   6     0.08  -0.01  -0.09     0.02   0.08   0.01    -0.05   0.02  -0.11
  14   6     0.06  -0.02  -0.08     0.05   0.10  -0.03    -0.02   0.03  -0.10
  15   6     0.09  -0.00  -0.10     0.05   0.12  -0.04     0.02   0.04  -0.11
  16   6     0.08  -0.01  -0.08     0.03   0.10  -0.05     0.03   0.04  -0.09
  17   6     0.04  -0.03  -0.06     0.00   0.07  -0.03    -0.00   0.05  -0.06
  18   6     0.01  -0.05  -0.04     0.01   0.06  -0.03    -0.04   0.05  -0.06
  19   6     0.01  -0.05  -0.05     0.04   0.07  -0.02    -0.05   0.04  -0.08
  20   6    -0.03  -0.06  -0.03     0.05   0.06  -0.02    -0.07   0.05  -0.08
  21   6    -0.05  -0.11  -0.05     0.08   0.05   0.01    -0.10   0.08  -0.12
  22   6    -0.10  -0.11  -0.04     0.10   0.04   0.02    -0.11   0.08  -0.12
  23   6    -0.14  -0.07  -0.03     0.09   0.04   0.00    -0.08   0.05  -0.08
  24   6    -0.13  -0.02  -0.01     0.07   0.06  -0.02    -0.05   0.02  -0.05
  25   6    -0.07  -0.02  -0.01     0.05   0.07  -0.03    -0.05   0.02  -0.05
  26   6    -0.05   0.02   0.02     0.02   0.09  -0.06    -0.03  -0.01  -0.03
  27   6    -0.11   0.05   0.02     0.02   0.09  -0.06     0.07  -0.04   0.04
  28   6    -0.11   0.08   0.02    -0.01   0.10  -0.07     0.17  -0.06   0.09
  29   6    -0.18   0.11   0.03    -0.02   0.11  -0.07     0.26  -0.10   0.15
  30   6    -0.23   0.11   0.02     0.00   0.10  -0.06     0.25  -0.11   0.16
  31   6    -0.23   0.08   0.02     0.03   0.08  -0.05     0.16  -0.09   0.11
  32   6    -0.17   0.05   0.01     0.04   0.08  -0.05     0.07  -0.05   0.05
  33   7    -0.18   0.02   0.00     0.07   0.07  -0.04    -0.02  -0.02   0.01
  34   6    -0.03  -0.06  -0.02    -0.01   0.04  -0.01    -0.09   0.04  -0.03
  35   6    -0.03  -0.08   0.01    -0.08  -0.06   0.04    -0.07   0.05   0.01
  36   6    -0.06  -0.10   0.05    -0.13  -0.17   0.10    -0.09   0.06   0.05
  37   6    -0.06  -0.11   0.08    -0.20  -0.26   0.15    -0.08   0.07   0.08
  38   6    -0.04  -0.10   0.07    -0.22  -0.25   0.15    -0.03   0.07   0.07
  39   6    -0.01  -0.08   0.03    -0.17  -0.15   0.09    -0.01   0.07   0.03
  40   6    -0.00  -0.06  -0.00    -0.10  -0.06   0.04    -0.02   0.06  -0.00
  41   7     0.03  -0.04  -0.05    -0.05   0.04  -0.03     0.00   0.06  -0.04
  42   7     0.13   0.06   0.04    -0.01  -0.06   0.08    -0.06  -0.08   0.01
  43   1     0.05   0.03   0.05     0.03  -0.07  -0.04     0.07  -0.02   0.07
  44   1     0.06   0.04   0.06     0.01  -0.08  -0.01     0.05  -0.03   0.08
  45   1     0.06   0.03   0.04    -0.01  -0.06   0.02     0.01  -0.03   0.05
  46   1     0.03   0.02   0.02     0.03  -0.03  -0.04     0.05  -0.01   0.03
  47   1     0.01   0.01   0.00     0.03   0.00  -0.01    -0.02  -0.01  -0.00
  48   1     0.02   0.00  -0.01     0.03   0.00  -0.01     0.01  -0.01  -0.02
  49   1     0.04   0.01  -0.01    -0.02   0.00   0.04    -0.04  -0.01  -0.03
  50   1     0.03  -0.01  -0.04    -0.03   0.03   0.04    -0.05   0.01  -0.05
  51   1     0.02  -0.01  -0.05    -0.01   0.04   0.01    -0.03   0.02  -0.05
  52   1     0.04   0.00  -0.03     0.02   0.04  -0.01     0.01   0.01  -0.04
  53   1     0.03  -0.00  -0.03     0.01   0.03  -0.02     0.02   0.01  -0.03
  54   1    -0.00  -0.04  -0.02     0.02   0.01   0.01    -0.03   0.03  -0.04
  55   1    -0.03  -0.04  -0.02     0.03   0.01   0.01    -0.04   0.03  -0.04
  56   1    -0.05  -0.02  -0.01     0.03   0.01   0.00    -0.03   0.01  -0.02
  57   1    -0.01   0.02   0.01     0.01   0.02  -0.03    -0.02  -0.02  -0.01
  58   1     0.00  -0.00   0.00    -0.00   0.03  -0.02    -0.01   0.02  -0.02
  59   1    -0.02   0.02   0.01    -0.01   0.03  -0.02     0.05  -0.02   0.02
  60   1    -0.05   0.04   0.01    -0.01   0.03  -0.02     0.09  -0.03   0.05
  61   1    -0.08   0.04   0.01    -0.00   0.03  -0.02     0.09  -0.04   0.06
  62   1    -0.08   0.02   0.00     0.01   0.02  -0.01     0.05  -0.03   0.03
  63   1    -0.06   0.00   0.00     0.02   0.02  -0.01    -0.00  -0.01   0.00
  64   1    -0.02  -0.01  -0.01    -0.02   0.04   0.00    -0.03   0.01  -0.02
  65   1    -0.01  -0.02  -0.00     0.02   0.01  -0.02    -0.03   0.01  -0.00
  66   1    -0.02  -0.03   0.02    -0.03  -0.05   0.03    -0.04   0.02   0.02
  67   1    -0.02  -0.04   0.03    -0.07  -0.10   0.06    -0.03   0.02   0.03
  68   1    -0.01  -0.03   0.02    -0.08  -0.09   0.06    -0.01   0.02   0.03
  69   1     0.00  -0.02   0.00    -0.05  -0.04   0.03     0.01   0.02   0.01
  70   1     0.02  -0.01  -0.01    -0.02   0.01  -0.01     0.01   0.02  -0.01
  71   1     0.04   0.02   0.01    -0.01  -0.02   0.03    -0.02  -0.02   0.00
                      4                      5                      6
                        a                      a                      a 
 Frequencies --    28.9204                37.1469                45.0982
 Red. masses --    10.7307                10.7698                10.8254
 Frc consts  --     0.0000                 0.0000                 0.0000
 IR Inten    --     0.0242                 0.1202                 0.0568
 Raman Activ --     0.0000                 0.0000                 0.0000
 Depolar     --     0.0000                 0.0000                 0.0000
 Atom AN      X      Y      Z        X      Y      Z        X      Y      Z
   1   6     0.02   0.11   0.16    -0.04   0.00   0.00     0.26  -0.03   0.07
   2   6    -0.03   0.08   0.01    -0.02   0.01   0.01     0.23  -0.05   0.12
   3   6    -0.07   0.02  -0.12    -0.01   0.00   0.01     0.12  -0.05   0.03
   4   6    -0.06  -0.02  -0.09    -0.01  -0.01   0.01     0.04  -0.04  -0.11
   5   6    -0.01   0.01   0.05    -0.02  -0.02   0.00     0.06  -0.03  -0.17
   6   6     0.03   0.07   0.17    -0.04  -0.01   0.00     0.18  -0.03  -0.08
   7   6    -0.01  -0.04   0.06    -0.03  -0.03  -0.00    -0.04   0.01  -0.32
   8   6    -0.04  -0.04  -0.05    -0.01  -0.04   0.01     0.00   0.01  -0.15
   9   6    -0.08  -0.06  -0.17     0.01  -0.03   0.02    -0.01   0.00  -0.11
  10   6    -0.11  -0.06  -0.26     0.02  -0.03   0.04     0.00   0.03   0.03
  11   6    -0.10  -0.04  -0.22     0.03  -0.05   0.05     0.03   0.05   0.16
  12   6    -0.07  -0.02  -0.11     0.01  -0.06   0.04     0.04   0.06   0.15
  13   6    -0.04  -0.02  -0.03    -0.00  -0.05   0.03     0.03   0.04  -0.01
  14   6    -0.02  -0.01   0.01    -0.01  -0.05   0.04     0.01   0.03   0.01
  15   6    -0.05  -0.04   0.04    -0.09  -0.11   0.09    -0.04  -0.01   0.04
  16   6    -0.06  -0.04   0.04    -0.12  -0.12   0.10    -0.11  -0.05   0.09
  17   6    -0.02  -0.01   0.02    -0.04  -0.07   0.06    -0.13  -0.05   0.10
  18   6     0.03   0.02  -0.01     0.07  -0.00  -0.01    -0.07  -0.01   0.06
  19   6     0.03   0.02  -0.02     0.07   0.00  -0.01    -0.01   0.02   0.02
  20   6     0.06   0.02  -0.01     0.05   0.04  -0.04     0.00   0.03   0.01
  21   6     0.11  -0.05   0.05    -0.01   0.04  -0.10    -0.03   0.07  -0.02
  22   6     0.16  -0.12   0.12    -0.12   0.09  -0.15    -0.01   0.06  -0.01
  23   6     0.17  -0.13   0.13    -0.17   0.14  -0.14     0.03   0.01   0.03
  24   6     0.11  -0.05   0.06    -0.10   0.13  -0.07     0.05  -0.02   0.06
  25   6     0.05   0.02  -0.01     0.01   0.08  -0.02     0.04  -0.02   0.05
  26   6    -0.01   0.10  -0.09     0.07   0.09   0.06     0.06  -0.04   0.09
  27   6    -0.01   0.11  -0.01     0.08   0.10   0.07     0.01  -0.03   0.04
  28   6    -0.06   0.21  -0.01     0.20   0.06   0.13    -0.07  -0.01  -0.00
  29   6    -0.05   0.21   0.07     0.20   0.06   0.14    -0.13   0.02  -0.04
  30   6     0.02   0.12   0.15     0.07   0.10   0.09    -0.10   0.01  -0.03
  31   6     0.08   0.03   0.16    -0.05   0.14   0.03    -0.02  -0.01   0.01
  32   6     0.06   0.02   0.08    -0.04   0.14   0.02     0.03  -0.03   0.04
  33   7     0.13  -0.07   0.10    -0.16   0.19  -0.04     0.10  -0.06   0.08
  34   6     0.08   0.06  -0.03     0.17   0.06  -0.05    -0.07  -0.02   0.05
  35   6     0.03   0.00  -0.02     0.10  -0.03  -0.08    -0.05   0.02   0.01
  36   6     0.04  -0.02  -0.05     0.15  -0.03  -0.16     0.02   0.12  -0.09
  37   6    -0.00  -0.07  -0.03     0.08  -0.12  -0.17     0.04   0.14  -0.14
  38   6    -0.06  -0.11   0.01    -0.06  -0.20  -0.09    -0.03   0.07  -0.08
  39   6    -0.07  -0.09   0.03    -0.11  -0.19  -0.01    -0.11  -0.02   0.02
  40   6    -0.03  -0.04   0.01    -0.03  -0.10  -0.01    -0.12  -0.04   0.06
  41   7    -0.04  -0.02   0.03    -0.09  -0.10   0.08    -0.21  -0.11   0.17
  42   7    -0.10  -0.08  -0.23     0.01  -0.02   0.01    -0.03  -0.05  -0.21
  43   1     0.01   0.05   0.07    -0.01   0.00   0.00     0.10  -0.01   0.04
  44   1    -0.01   0.03  -0.00    -0.00   0.01   0.00     0.09  -0.02   0.07
  45   1    -0.03   0.00  -0.07     0.00   0.00   0.00     0.03  -0.02   0.02
  46   1     0.02   0.03   0.08    -0.01  -0.01  -0.00     0.06  -0.00  -0.03
  47   1    -0.00  -0.04   0.03    -0.01  -0.00  -0.00    -0.05   0.06  -0.10
  48   1     0.00   0.00   0.04    -0.01  -0.01  -0.00    -0.01  -0.03  -0.15
  49   1    -0.04  -0.02  -0.11     0.01  -0.01   0.01    -0.00   0.01   0.02
  50   1    -0.04  -0.01  -0.08     0.01  -0.02   0.02     0.01   0.02   0.08
  51   1    -0.02  -0.00  -0.03     0.00  -0.02   0.01     0.02   0.02   0.07
  52   1    -0.03  -0.02   0.02    -0.04  -0.04   0.04    -0.01  -0.00   0.01
  53   1    -0.03  -0.02   0.02    -0.06  -0.05   0.04    -0.05  -0.03   0.03
  54   1     0.03  -0.02   0.01     0.01  -0.00  -0.03    -0.02   0.03  -0.02
  55   1     0.06  -0.05   0.05    -0.05   0.03  -0.06    -0.01   0.03  -0.01
  56   1     0.06  -0.05   0.06    -0.08   0.05  -0.05     0.01   0.00   0.01
  57   1     0.00   0.01  -0.06     0.02   0.03   0.03     0.02   0.00   0.04
  58   1    -0.02   0.05  -0.03     0.04   0.02   0.01     0.03  -0.03   0.03
  59   1    -0.03   0.08  -0.02     0.09   0.01   0.05    -0.03  -0.00  -0.00
  60   1    -0.03   0.08   0.02     0.09   0.01   0.05    -0.06   0.01  -0.02
  61   1     0.01   0.04   0.06     0.02   0.03   0.03    -0.04   0.01  -0.02
  62   1     0.04  -0.01   0.07    -0.04   0.05  -0.00    -0.00  -0.00   0.00
  63   1     0.05  -0.03   0.05    -0.07   0.06  -0.02     0.03  -0.02   0.02
  64   1     0.03   0.04   0.01     0.06   0.04   0.01    -0.02  -0.02   0.01
  65   1     0.04   0.02  -0.03     0.07   0.02  -0.04    -0.03  -0.01   0.02
  66   1     0.03   0.00  -0.02     0.08   0.01  -0.06     0.02   0.05  -0.04
  67   1     0.00  -0.02  -0.01     0.04  -0.03  -0.07     0.03   0.06  -0.07
  68   1    -0.03  -0.04   0.01    -0.03  -0.08  -0.03    -0.01   0.03  -0.03
  69   1    -0.03  -0.03   0.02    -0.06  -0.07   0.01    -0.05  -0.02   0.02
  70   1    -0.02  -0.01   0.01    -0.05  -0.04   0.03    -0.07  -0.04   0.05
  71   1    -0.03  -0.02  -0.09     0.00  -0.00   0.00    -0.01  -0.01  -0.04
                      7                      8                      9
                        a                      a                      a 
 Frequencies --    45.3432                53.0643                65.7443
 Red. masses --    10.7671                10.6835                10.6360
 Frc consts  --     0.0000                 0.0000                 0.0000
 IR Inten    --     0.2195                 0.1670                 0.0687
 Raman Activ --     0.0000                 0.0000                 0.0000
 Depolar     --     0.0000                 0.0000                 0.0000
 Atom AN      X      Y      Z        X      Y      Z        X      Y      Z
   1   6    -0.10  -0.09  -0.19     0.03  -0.09  -0.07    -0.07  -0.04  -0.04
   2   6    -0.01  -0.04   0.00    -0.03  -0.12  -0.17    -0.07  -0.04  -0.06
   3   6     0.07   0.03   0.16    -0.01  -0.10  -0.12    -0.03  -0.03  -0.00
   4   6     0.06   0.04   0.13     0.08  -0.04   0.02     0.02  -0.01   0.07
   5   6    -0.02  -0.00  -0.03     0.14  -0.01   0.11     0.02  -0.00   0.09
   6   6    -0.11  -0.07  -0.20     0.12  -0.03   0.06    -0.02  -0.02   0.03
   7   6    -0.01   0.01  -0.03     0.23   0.01   0.24     0.07  -0.01   0.16
   8   6     0.01   0.00  -0.01     0.12   0.05   0.09     0.02   0.00   0.05
   9   6     0.07   0.03   0.11     0.06   0.01   0.01     0.01  -0.00   0.03
  10   6     0.10   0.01   0.10     0.00   0.02  -0.13    -0.01  -0.01  -0.09
  11   6     0.07  -0.03  -0.05    -0.02   0.06  -0.21    -0.03  -0.01  -0.17
  12   6     0.02  -0.06  -0.15     0.04   0.09  -0.16    -0.01  -0.00  -0.14
  13   6    -0.01  -0.04  -0.12     0.10   0.09  -0.01     0.01   0.01  -0.03
  14   6    -0.03  -0.06  -0.11     0.09   0.08   0.01     0.02   0.02  -0.02
  15   6    -0.05  -0.13  -0.04     0.09   0.11  -0.01     0.01   0.01  -0.02
  16   6    -0.07  -0.15   0.03    -0.02   0.04   0.02     0.01   0.01  -0.01
  17   6    -0.07  -0.09   0.05    -0.12  -0.04   0.07     0.01   0.02  -0.01
  18   6    -0.05  -0.01  -0.02    -0.10  -0.05   0.08     0.03   0.04  -0.02
  19   6    -0.03  -0.00  -0.10    -0.01  -0.00   0.06     0.03   0.04  -0.03
  20   6    -0.02   0.01  -0.11    -0.01  -0.01   0.08     0.01   0.06  -0.05
  21   6     0.01  -0.03  -0.07     0.03  -0.05   0.12    -0.12   0.21  -0.19
  22   6     0.05  -0.09  -0.02     0.03  -0.03   0.10    -0.15   0.24  -0.22
  23   6     0.07  -0.11   0.00    -0.02   0.02   0.05    -0.03   0.11  -0.08
  24   6     0.03  -0.06  -0.04    -0.05   0.04   0.01     0.09  -0.04   0.07
  25   6    -0.02   0.01  -0.11    -0.04   0.03   0.03     0.10  -0.05   0.08
  26   6    -0.07   0.07  -0.17    -0.06   0.02   0.01     0.20  -0.12   0.20
  27   6    -0.03   0.07  -0.07    -0.02   0.00   0.01     0.07  -0.08   0.10
  28   6    -0.05   0.16  -0.06     0.04  -0.05   0.03    -0.12  -0.01   0.01
  29   6    -0.01   0.15   0.04     0.07  -0.06   0.02    -0.25   0.04  -0.05
  30   6     0.07   0.05   0.13     0.03  -0.02  -0.02    -0.19   0.02  -0.03
  31   6     0.09  -0.03   0.12    -0.03   0.02  -0.04    -0.01  -0.04   0.06
  32   6     0.04  -0.02   0.02    -0.05   0.04  -0.02     0.11  -0.09   0.11
  33   7     0.06  -0.09   0.01    -0.09   0.09  -0.04     0.23  -0.18   0.18
  34   6    -0.04   0.06  -0.00    -0.14  -0.12   0.09     0.05   0.04  -0.03
  35   6    -0.03   0.07   0.03    -0.09  -0.04   0.01     0.03   0.02  -0.03
  36   6     0.01   0.18  -0.02    -0.01   0.05  -0.10     0.04   0.01  -0.05
  37   6     0.03   0.18   0.01     0.03   0.13  -0.19     0.01  -0.02  -0.04
  38   6    -0.01   0.08   0.09    -0.02   0.10  -0.17    -0.03  -0.05  -0.01
  39   6    -0.04  -0.02   0.14    -0.10   0.01  -0.06    -0.04  -0.05   0.01
  40   6    -0.05  -0.02   0.10    -0.14  -0.06   0.03    -0.01  -0.01  -0.00
  41   7    -0.09  -0.11   0.14    -0.23  -0.12   0.13    -0.01   0.01   0.01
  42   7     0.12   0.10   0.28     0.09  -0.02   0.07     0.04   0.01   0.12
  43   1    -0.05  -0.04  -0.09     0.00  -0.03  -0.03    -0.03  -0.02  -0.03
  44   1     0.00  -0.01   0.01    -0.03  -0.05  -0.08    -0.03  -0.02  -0.04
  45   1     0.04   0.02   0.09    -0.02  -0.04  -0.06    -0.01  -0.01  -0.01
  46   1    -0.05  -0.03  -0.10     0.05   0.00   0.04    -0.01  -0.01   0.01
  47   1    -0.00   0.01  -0.01     0.11  -0.05   0.08     0.04  -0.04   0.06
  48   1    -0.01  -0.00  -0.01     0.08   0.05   0.12     0.03   0.02   0.08
  49   1     0.04   0.01   0.06    -0.01  -0.00  -0.06    -0.01  -0.00  -0.03
  50   1     0.03  -0.01  -0.02    -0.02   0.02  -0.09    -0.02  -0.00  -0.07
  51   1    -0.00  -0.03  -0.07     0.01   0.03  -0.07    -0.01  -0.00  -0.05
  52   1    -0.01  -0.05  -0.02     0.05   0.05  -0.02     0.00   0.00  -0.00
  53   1    -0.03  -0.06   0.02    -0.01   0.01   0.00    -0.00  -0.00   0.00
  54   1     0.00  -0.01  -0.02     0.02  -0.02   0.05    -0.06   0.09  -0.08
  55   1     0.02  -0.04   0.00     0.02  -0.02   0.04    -0.08   0.10  -0.10
  56   1     0.03  -0.05   0.02    -0.01   0.01   0.01    -0.01   0.04  -0.03
  57   1    -0.02   0.00  -0.08    -0.02  -0.01  -0.00     0.06   0.01   0.11
  58   1    -0.04   0.05  -0.06    -0.03   0.01   0.00     0.09  -0.08   0.07
  59   1    -0.03   0.07  -0.04     0.02  -0.02   0.02    -0.05  -0.00  -0.00
  60   1    -0.01   0.06   0.01     0.03  -0.03   0.01    -0.12   0.03  -0.04
  61   1     0.03   0.01   0.06     0.01  -0.01  -0.01    -0.08   0.02  -0.02
  62   1     0.04  -0.03   0.06    -0.02   0.01  -0.02     0.01  -0.02   0.02
  63   1     0.03  -0.04   0.02    -0.03   0.03  -0.02     0.06  -0.05   0.05
  64   1    -0.01   0.02   0.01    -0.04  -0.07   0.00     0.01   0.02  -0.00
  65   1    -0.02   0.03  -0.01    -0.06  -0.04   0.05     0.02   0.01  -0.01
  66   1     0.01   0.07  -0.02     0.01   0.02  -0.03     0.02   0.01  -0.02
  67   1     0.02   0.08  -0.01     0.03   0.06  -0.08     0.01  -0.01  -0.01
  68   1     0.00   0.02   0.04     0.00   0.05  -0.07    -0.02  -0.02   0.00
  69   1    -0.02  -0.03   0.06    -0.04  -0.00  -0.01    -0.02  -0.02   0.01
  70   1    -0.03  -0.05   0.05    -0.07  -0.03   0.03    -0.01  -0.00   0.01
  71   1     0.05   0.03   0.11     0.01  -0.01  -0.00     0.01   0.00   0.03
                     10                     11                     12
                        a                      a                      a 
 Frequencies --    87.6329                91.9613                95.9959
 Red. masses --    10.3827                10.2752                10.3357
 Frc consts  --     0.0000                 0.0000                 0.0000
 IR Inten    --     0.0987                 0.0046                 0.0207
 Raman Activ --     0.0000                 0.0000                 0.0000
 Depolar     --     0.0000                 0.0000                 0.0000
 Atom AN      X      Y      Z        X      Y      Z        X      Y      Z
   1   6     0.04   0.08   0.13    -0.05  -0.03  -0.05    -0.01   0.05   0.09
   2   6    -0.09   0.01  -0.13     0.02   0.01   0.07    -0.09   0.00  -0.06
   3   6    -0.11  -0.04  -0.23     0.05   0.02   0.11    -0.10  -0.02  -0.11
   4   6    -0.02  -0.03  -0.07     0.00  -0.00   0.04    -0.05  -0.00  -0.02
   5   6     0.05   0.00   0.10    -0.04  -0.02  -0.03    -0.00   0.02   0.07
   6   6     0.09   0.07   0.23    -0.08  -0.05  -0.09     0.03   0.05   0.14
   7   6     0.06  -0.03   0.12    -0.04  -0.02  -0.04    -0.00   0.00   0.07
   8   6     0.05  -0.03   0.06    -0.02  -0.03  -0.02    -0.02   0.00   0.01
   9   6     0.05  -0.04   0.07    -0.02  -0.03  -0.03    -0.02   0.00   0.05
  10   6     0.08  -0.02   0.23    -0.02  -0.04  -0.11    -0.01   0.02   0.14
  11   6     0.09  -0.01   0.29    -0.02  -0.05  -0.12    -0.01   0.03   0.14
  12   6     0.06  -0.02   0.14    -0.02  -0.04  -0.04    -0.02   0.02   0.01
  13   6     0.04  -0.03   0.03    -0.02  -0.03  -0.00    -0.03   0.01  -0.06
  14   6     0.02  -0.04  -0.04    -0.02  -0.03   0.03    -0.01   0.02  -0.13
  15   6     0.00  -0.05  -0.04    -0.13  -0.08   0.08     0.00  -0.00  -0.11
  16   6    -0.01  -0.06  -0.03    -0.13  -0.08   0.05     0.01  -0.01  -0.10
  17   6    -0.03  -0.08  -0.01    -0.08  -0.06   0.01    -0.01  -0.01  -0.08
  18   6    -0.05  -0.08  -0.01    -0.06  -0.07   0.02    -0.00   0.03  -0.12
  19   6     0.02  -0.05  -0.04     0.04  -0.01  -0.01     0.02   0.04  -0.15
  20   6     0.02  -0.01  -0.08     0.12   0.02  -0.03     0.06  -0.01  -0.11
  21   6    -0.02   0.03  -0.12     0.10   0.03  -0.04     0.06  -0.07  -0.10
  22   6    -0.08   0.09  -0.18     0.09   0.01  -0.03     0.11  -0.19   0.00
  23   6    -0.06   0.07  -0.16     0.09   0.01  -0.01     0.10  -0.18   0.04
  24   6    -0.01   0.01  -0.09     0.09   0.02  -0.00     0.06  -0.09   0.01
  25   6     0.00   0.01  -0.10     0.13   0.01  -0.00     0.09  -0.06  -0.03
  26   6    -0.01   0.06  -0.12     0.19   0.02   0.07     0.18  -0.08   0.08
  27   6    -0.02   0.07  -0.07     0.15   0.05   0.05     0.15  -0.07   0.06
  28   6    -0.08   0.16  -0.08     0.19   0.05   0.07     0.26  -0.11   0.11
  29   6    -0.04   0.16  -0.00     0.07   0.11   0.04     0.11  -0.04   0.05
  30   6     0.08   0.06   0.10    -0.09   0.17  -0.02    -0.18   0.08  -0.08
  31   6     0.12  -0.02   0.10    -0.10   0.15  -0.03    -0.24   0.09  -0.11
  32   6     0.05  -0.00   0.00     0.04   0.09   0.01    -0.03   0.00  -0.02
  33   7     0.05  -0.05  -0.02     0.07   0.06   0.01    -0.00  -0.02  -0.01
  34   6    -0.14  -0.13   0.03    -0.18  -0.17   0.06    -0.06   0.08  -0.08
  35   6    -0.09  -0.08   0.05    -0.14  -0.13   0.08    -0.04   0.10  -0.03
  36   6    -0.11  -0.05   0.07    -0.21  -0.19   0.17    -0.02   0.21  -0.05
  37   6    -0.04   0.04   0.04    -0.11  -0.04   0.08    -0.02   0.18   0.04
  38   6     0.05   0.11  -0.03     0.08   0.18  -0.12    -0.06   0.03   0.16
  39   6     0.06   0.07  -0.04     0.12   0.20  -0.17    -0.07  -0.05   0.15
  40   6    -0.02  -0.03   0.00    -0.01   0.01  -0.05    -0.05   0.00   0.04
  41   7    -0.03  -0.08   0.00    -0.03  -0.03  -0.04    -0.04  -0.03   0.01
  42   7     0.01  -0.06  -0.09    -0.00  -0.00   0.03    -0.03  -0.01  -0.00
  43   1     0.02   0.04   0.07    -0.02  -0.01  -0.03     0.00   0.02   0.04
  44   1    -0.04   0.00  -0.07     0.02   0.01   0.04    -0.04  -0.00  -0.04
  45   1    -0.05  -0.02  -0.12     0.03   0.01   0.05    -0.04  -0.01  -0.06
  46   1     0.05   0.03   0.12    -0.04  -0.02  -0.05     0.02   0.02   0.07
  47   1     0.02  -0.03   0.04    -0.01  -0.00  -0.01    -0.00  -0.01   0.03
  48   1     0.02  -0.00   0.05    -0.02  -0.01  -0.01     0.00   0.01   0.03
  49   1     0.03  -0.00   0.09    -0.01  -0.01  -0.04    -0.00   0.01   0.06
  50   1     0.03   0.00   0.12    -0.01  -0.02  -0.05     0.00   0.01   0.07
  51   1     0.02  -0.01   0.04    -0.00  -0.02  -0.01    -0.01   0.01  -0.00
  52   1     0.00  -0.01  -0.01    -0.06  -0.03   0.04    -0.00  -0.01  -0.03
  53   1    -0.00  -0.02  -0.01    -0.05  -0.03   0.02     0.00  -0.00  -0.03
  54   1    -0.00   0.01  -0.03     0.03   0.01  -0.02     0.01  -0.02  -0.05
  55   1    -0.04   0.04  -0.07     0.02   0.00  -0.01     0.04  -0.08   0.01
  56   1    -0.02   0.03  -0.05     0.02   0.00  -0.00     0.03  -0.07   0.03
  57   1    -0.00   0.01  -0.05     0.05   0.02   0.04     0.04  -0.01   0.05
  58   1    -0.01   0.03  -0.04     0.08  -0.01   0.02     0.08  -0.04   0.02
  59   1    -0.05   0.07  -0.05     0.09   0.01   0.03     0.13  -0.05   0.06
  60   1    -0.03   0.07  -0.00     0.03   0.03   0.02     0.06  -0.02   0.03
  61   1     0.04   0.01   0.05    -0.06   0.06  -0.02    -0.10   0.04  -0.04
  62   1     0.06  -0.03   0.05    -0.06   0.05  -0.02    -0.12   0.05  -0.06
  63   1     0.02  -0.02   0.01     0.00   0.02  -0.00    -0.02  -0.00  -0.01
  64   1    -0.05  -0.06  -0.02    -0.07  -0.07  -0.02    -0.02   0.02  -0.03
  65   1    -0.06  -0.04   0.03    -0.07  -0.06   0.05    -0.03   0.02  -0.02
  66   1    -0.05  -0.03   0.03    -0.10  -0.10   0.09    -0.00   0.09  -0.04
  67   1    -0.01   0.02   0.02    -0.05  -0.03   0.04    -0.00   0.07   0.01
  68   1     0.03   0.06  -0.02     0.05   0.10  -0.06    -0.02  -0.00   0.07
  69   1     0.04   0.04  -0.03     0.07   0.10  -0.09    -0.02  -0.05   0.07
  70   1     0.00  -0.02  -0.00     0.01   0.01  -0.02    -0.01  -0.03   0.01
  71   1    -0.00  -0.02  -0.04     0.01   0.00   0.01    -0.01  -0.00  -0.01
                     13                     14                     15
                        a                      a                      a 
 Frequencies --   120.8680               162.9405               170.7102
 Red. masses --    10.4141                 9.9644                 9.6365
 Frc consts  --     0.0000                 0.0000                 0.0000
 IR Inten    --     0.0419                 0.5605                 0.9442
 Raman Activ --     0.0000                 0.0000                 0.0000
 Depolar     --     0.0000                 0.0000                 0.0000
 Atom AN      X      Y      Z        X      Y      Z        X      Y      Z
   1   6     0.17  -0.06  -0.00    -0.05  -0.02  -0.07    -0.13   0.03  -0.09
   2   6     0.02  -0.14  -0.15     0.05   0.04   0.05     0.10   0.17   0.12
   3   6    -0.03  -0.10  -0.13     0.09   0.03   0.08     0.20   0.09   0.10
   4   6     0.05   0.01  -0.02     0.04  -0.01   0.00     0.09  -0.08  -0.05
   5   6     0.12   0.05   0.03     0.03  -0.02   0.01     0.04  -0.10   0.00
   6   6     0.21   0.03   0.07    -0.05  -0.04  -0.07    -0.15  -0.09  -0.10
   7   6     0.09   0.08   0.00     0.11  -0.02   0.14     0.23  -0.13   0.28
   8   6     0.04   0.09  -0.02     0.04   0.01   0.05     0.07  -0.07   0.02
   9   6     0.04   0.09   0.03    -0.01  -0.01  -0.06     0.03  -0.11  -0.09
  10   6     0.07   0.08   0.02    -0.04  -0.01  -0.13    -0.01  -0.06   0.02
  11   6     0.06   0.05  -0.04    -0.01   0.03   0.03     0.02   0.04   0.19
  12   6     0.05   0.04  -0.08     0.04   0.06   0.16     0.05   0.05   0.10
  13   6     0.03   0.06  -0.05     0.04   0.05   0.09     0.06   0.02  -0.02
  14   6    -0.09  -0.01  -0.00     0.00   0.03   0.03     0.04   0.03  -0.07
  15   6    -0.32  -0.17   0.15    -0.17  -0.02   0.08    -0.01   0.01  -0.04
  16   6    -0.35  -0.18   0.18    -0.18  -0.03  -0.01    -0.07  -0.02   0.03
  17   6    -0.09  -0.01   0.03    -0.03  -0.03  -0.12    -0.05   0.03   0.04
  18   6    -0.00   0.06  -0.03    -0.02  -0.05  -0.10     0.01   0.07  -0.00
  19   6    -0.04   0.03  -0.03     0.07  -0.01  -0.04    -0.01   0.05  -0.04
  20   6    -0.05   0.02  -0.03     0.12  -0.07   0.02    -0.07   0.05  -0.05
  21   6    -0.04  -0.01  -0.02     0.14  -0.17   0.04    -0.09   0.07  -0.07
  22   6    -0.01  -0.06   0.03     0.02  -0.11  -0.02    -0.03   0.01  -0.01
  23   6    -0.01  -0.07   0.05    -0.12   0.05  -0.10     0.04  -0.07   0.05
  24   6    -0.03  -0.03   0.02    -0.05   0.06  -0.03     0.01  -0.04   0.02
  25   6    -0.04  -0.00   0.00     0.07  -0.02   0.04    -0.05   0.01  -0.03
  26   6    -0.04  -0.03   0.00     0.16  -0.02   0.17    -0.10   0.00  -0.09
  27   6    -0.03  -0.04   0.00    -0.00   0.02   0.03    -0.02  -0.02  -0.02
  28   6    -0.02  -0.06   0.01    -0.15   0.03  -0.04     0.04  -0.04   0.01
  29   6    -0.00  -0.07   0.00    -0.11   0.01  -0.07     0.05  -0.04   0.03
  30   6    -0.02  -0.06  -0.01     0.13  -0.06   0.01    -0.06  -0.01  -0.01
  31   6    -0.03  -0.04  -0.01     0.18  -0.03   0.05    -0.09  -0.01  -0.02
  32   6    -0.04  -0.03  -0.00     0.03   0.04   0.03    -0.03  -0.04  -0.01
  33   7    -0.04  -0.02   0.01    -0.11   0.12  -0.03     0.03  -0.07   0.02
  34   6     0.12   0.18  -0.07    -0.11  -0.09  -0.08     0.08   0.18  -0.02
  35   6     0.05   0.09  -0.04    -0.04   0.04  -0.10     0.00   0.07   0.01
  36   6    -0.02  -0.05   0.07    -0.05   0.18  -0.07    -0.02  -0.03   0.04
  37   6    -0.06  -0.11   0.11    -0.04   0.16   0.06    -0.06  -0.06   0.02
  38   6     0.00   0.01   0.02    -0.06  -0.01   0.19    -0.03   0.04  -0.07
  39   6     0.07   0.12  -0.07    -0.01  -0.07   0.11    -0.03   0.11  -0.07
  40   6     0.07   0.13  -0.07     0.00   0.01  -0.08    -0.03   0.08   0.00
  41   7     0.08   0.12  -0.08     0.08   0.04  -0.20    -0.07   0.03   0.06
  42   7     0.05   0.07   0.06    -0.01  -0.05  -0.10     0.01  -0.17  -0.26
  43   1     0.06  -0.02   0.01    -0.03  -0.01  -0.04    -0.08   0.01  -0.05
  44   1    -0.01  -0.06  -0.07     0.03   0.02   0.03     0.06   0.09   0.07
  45   1    -0.04  -0.05  -0.06     0.04   0.02   0.04     0.10   0.05   0.05
  46   1     0.09   0.03   0.04    -0.03  -0.02  -0.03    -0.08  -0.05  -0.04
  47   1     0.02   0.02   0.00     0.07  -0.05   0.05     0.15  -0.16   0.11
  48   1     0.04   0.03  -0.00     0.04   0.03   0.09     0.08   0.04   0.20
  49   1     0.03   0.03   0.02    -0.03  -0.01  -0.08    -0.02  -0.03   0.00
  50   1     0.02   0.01  -0.01    -0.01   0.01   0.01     0.00   0.02   0.10
  51   1     0.01   0.01  -0.03     0.02   0.02   0.08     0.02   0.03   0.04
  52   1    -0.13  -0.08   0.07    -0.08  -0.01   0.05     0.00   0.01  -0.02
  53   1    -0.15  -0.09   0.08    -0.09  -0.01  -0.00    -0.03  -0.02   0.02
  54   1    -0.01  -0.00  -0.01     0.06  -0.08   0.02    -0.04   0.03  -0.03
  55   1     0.00  -0.03   0.01     0.00  -0.05  -0.01    -0.01   0.00  -0.00
  56   1     0.00  -0.03   0.02    -0.07   0.04  -0.05     0.03  -0.04   0.03
  57   1    -0.01  -0.01   0.00     0.06   0.05   0.11    -0.03  -0.02  -0.05
  58   1    -0.01  -0.01   0.00     0.10  -0.07   0.06    -0.05   0.03  -0.03
  59   1    -0.00  -0.02   0.01    -0.08   0.01  -0.02     0.03  -0.01   0.01
  60   1     0.00  -0.02   0.00    -0.07   0.01  -0.04     0.03  -0.01   0.02
  61   1    -0.00  -0.02  -0.00     0.07  -0.04   0.01    -0.03   0.00  -0.00
  62   1    -0.01  -0.01  -0.01     0.09  -0.02   0.02    -0.04   0.00  -0.01
  63   1    -0.01  -0.01   0.00    -0.04   0.04  -0.02     0.02  -0.02   0.01
  64   1     0.05   0.10   0.03    -0.04  -0.07  -0.06     0.03   0.10   0.04
  65   1     0.06   0.07  -0.07    -0.07  -0.03   0.01     0.06   0.07  -0.05
  66   1    -0.02  -0.03   0.03    -0.03   0.08  -0.04    -0.00  -0.02   0.02
  67   1    -0.04  -0.07   0.06    -0.01   0.07   0.02    -0.03  -0.04   0.02
  68   1    -0.00  -0.00   0.01    -0.03  -0.02   0.10    -0.01   0.02  -0.03
  69   1     0.03   0.05  -0.04     0.01  -0.05   0.05    -0.01   0.05  -0.03
  70   1     0.01   0.02  -0.01     0.02   0.00  -0.05    -0.02   0.00   0.02
  71   1     0.00   0.01   0.02    -0.01  -0.02  -0.04    -0.00  -0.05  -0.07
                     16                     17                     18
                        a                      a                      a 
 Frequencies --   172.9996               186.1016               215.1592
 Red. masses --    10.0383                10.8734                10.0041
 Frc consts  --     0.0000                 0.0000                 0.0000
 IR Inten    --     1.8605                 0.2697                 0.1578
 Raman Activ --     0.0000                 0.0000                 0.0000
 Depolar     --     0.0000                 0.0000                 0.0000
 Atom AN      X      Y      Z        X      Y      Z        X      Y      Z
   1   6     0.04  -0.04  -0.05     0.00   0.03   0.04    -0.03  -0.05  -0.06
   2   6     0.04  -0.04   0.00     0.02   0.04  -0.03    -0.04  -0.06  -0.05
   3   6     0.02  -0.01   0.04     0.05  -0.01  -0.08     0.01   0.00   0.07
   4   6     0.01   0.03   0.01     0.06  -0.06  -0.04     0.03   0.05   0.10
   5   6     0.03   0.04  -0.00     0.02  -0.09  -0.02     0.05   0.06   0.10
   6   6     0.04  -0.00  -0.05    -0.01  -0.04   0.04     0.05   0.02   0.05
   7   6     0.05   0.06   0.04     0.00  -0.13  -0.02    -0.02   0.04   0.01
   8   6     0.02   0.08   0.07     0.01  -0.13  -0.04    -0.01   0.03  -0.02
   9   6    -0.02   0.06  -0.03     0.10  -0.09   0.01    -0.03   0.02  -0.08
  10   6    -0.04   0.05  -0.14     0.19  -0.12   0.10    -0.05   0.00  -0.23
  11   6    -0.02   0.04  -0.03     0.17  -0.16   0.00     0.00   0.01   0.04
  12   6     0.02   0.06   0.14     0.08  -0.21  -0.12     0.04   0.03   0.27
  13   6     0.03   0.06   0.14    -0.01  -0.14  -0.06     0.01   0.01   0.08
  14   6    -0.05   0.00   0.13    -0.06  -0.11   0.02     0.00  -0.00   0.00
  15   6    -0.09   0.02   0.12    -0.09  -0.07  -0.01    -0.03  -0.03   0.03
  16   6    -0.06   0.03   0.04    -0.02  -0.00  -0.08     0.02  -0.00   0.01
  17   6     0.00  -0.02  -0.02    -0.01   0.07  -0.07     0.06   0.00  -0.01
  18   6    -0.06  -0.10   0.05    -0.10  -0.00   0.01     0.06   0.01  -0.01
  19   6    -0.06  -0.10   0.11    -0.10   0.01   0.07     0.07   0.02  -0.04
  20   6    -0.01  -0.08   0.08    -0.10   0.10   0.05    -0.02   0.07  -0.09
  21   6    -0.03   0.03   0.05    -0.08   0.23   0.08    -0.21   0.23  -0.31
  22   6    -0.07   0.16  -0.08     0.05   0.16   0.15    -0.05  -0.02  -0.08
  23   6     0.01   0.06  -0.11     0.13   0.08   0.19     0.16  -0.26   0.23
  24   6     0.05  -0.10  -0.05     0.03   0.08   0.09     0.06  -0.07   0.10
  25   6    -0.00  -0.08  -0.07    -0.07   0.09   0.06     0.03  -0.01   0.04
  26   6    -0.15  -0.02  -0.28    -0.07   0.07   0.07     0.01   0.04   0.02
  27   6     0.04  -0.05  -0.08    -0.03   0.06   0.04    -0.15   0.09  -0.07
  28   6     0.19   0.02   0.02    -0.01  -0.00   0.05    -0.11   0.04  -0.06
  29   6     0.11   0.08   0.10     0.04  -0.03   0.01     0.10  -0.06  -0.00
  30   6    -0.17   0.12   0.05     0.02   0.02  -0.04     0.14  -0.07   0.01
  31   6    -0.20   0.01  -0.00    -0.00   0.08  -0.03    -0.04   0.05  -0.07
  32   6     0.00  -0.10  -0.04     0.00   0.09   0.02    -0.15   0.10  -0.07
  33   7     0.14  -0.21   0.00     0.05   0.08   0.05    -0.09   0.09  -0.04
  34   6    -0.07  -0.16   0.03    -0.14  -0.11  -0.01    -0.05  -0.11   0.03
  35   6     0.03  -0.00  -0.05    -0.04   0.06  -0.10    -0.01  -0.08   0.04
  36   6     0.05   0.10  -0.07    -0.03   0.12  -0.12     0.01  -0.04   0.01
  37   6     0.05   0.07   0.00    -0.07   0.06  -0.05     0.06   0.03  -0.03
  38   6    -0.01  -0.09   0.13    -0.12  -0.08   0.06     0.05  -0.01   0.00
  39   6     0.01  -0.11   0.09    -0.07  -0.05  -0.00     0.02  -0.07   0.04
  40   6     0.06  -0.01  -0.05    -0.00   0.06  -0.11     0.01  -0.07   0.03
  41   7     0.14   0.07  -0.15     0.09   0.15  -0.21     0.04  -0.02  -0.01
  42   7    -0.02   0.03  -0.03     0.11  -0.06  -0.00    -0.00   0.04   0.06
  43   1     0.01  -0.02  -0.03    -0.00   0.02   0.03    -0.02  -0.03  -0.05
  44   1     0.01  -0.02   0.01     0.01   0.02  -0.01    -0.03  -0.03  -0.04
  45   1     0.00  -0.00   0.02     0.02   0.00  -0.04    -0.00  -0.00   0.03
  46   1     0.02   0.00  -0.02    -0.01  -0.02   0.02     0.02   0.01   0.01
  47   1     0.03   0.02   0.01    -0.00  -0.04  -0.00    -0.04   0.02   0.01
  48   1     0.01   0.02   0.02     0.00  -0.04  -0.00    -0.00   0.00  -0.02
  49   1    -0.02   0.01  -0.08     0.07  -0.03   0.06    -0.02  -0.00  -0.12
  50   1    -0.01   0.01  -0.03     0.06  -0.05   0.01     0.01   0.00   0.02
  51   1     0.01   0.03   0.06     0.02  -0.09  -0.06     0.02   0.02   0.14
  52   1    -0.03   0.01   0.04    -0.04  -0.01   0.01    -0.02  -0.02   0.02
  53   1    -0.02   0.02  -0.00     0.02   0.00  -0.03     0.00  -0.00   0.00
  54   1    -0.01   0.01   0.03    -0.05   0.09   0.03    -0.11   0.13  -0.16
  55   1    -0.04   0.09  -0.04     0.03   0.05   0.05    -0.03  -0.01  -0.03
  56   1     0.01   0.04  -0.05     0.07   0.00   0.07     0.08  -0.14   0.13
  57   1    -0.06  -0.08  -0.18    -0.03   0.02   0.02     0.03   0.05   0.01
  58   1    -0.12   0.08  -0.10    -0.02   0.02   0.02     0.01  -0.02   0.02
  59   1     0.10   0.02  -0.00    -0.00  -0.01   0.02    -0.04   0.01  -0.01
  60   1     0.06   0.03   0.05     0.02  -0.02   0.01     0.07  -0.04   0.02
  61   1    -0.10   0.06   0.02     0.01   0.00  -0.02     0.09  -0.04   0.02
  62   1    -0.11  -0.00   0.00     0.00   0.03  -0.02    -0.00   0.02  -0.02
  63   1     0.04  -0.06   0.00     0.03   0.02   0.02    -0.02   0.01   0.00
  64   1    -0.01  -0.10  -0.02    -0.04  -0.09  -0.04    -0.04  -0.06  -0.03
  65   1    -0.05  -0.05   0.05    -0.08  -0.05   0.05    -0.03  -0.05   0.05
  66   1     0.02   0.05  -0.04    -0.01   0.05  -0.05     0.00  -0.01   0.00
  67   1     0.02   0.04  -0.00    -0.02   0.02  -0.01     0.03   0.03  -0.02
  68   1    -0.02  -0.05   0.07    -0.05  -0.05   0.05     0.02   0.01  -0.00
  69   1     0.00  -0.06   0.05    -0.03  -0.03   0.01     0.01  -0.03   0.02
  70   1     0.04   0.03  -0.04     0.03   0.05  -0.07     0.01  -0.01  -0.00
  71   1    -0.02   0.01  -0.02     0.04  -0.01   0.01    -0.00   0.01  -0.00
                     19                     20                     21
                        a                      a                      a 
 Frequencies --   219.2680               244.2700               250.0369
 Red. masses --    10.0497                10.2289                10.0397
 Frc consts  --     0.0000                 0.0000                 0.0000
 IR Inten    --     1.4861                 0.5205                 1.1596
 Raman Activ --     0.0000                 0.0000                 0.0000
 Depolar     --     0.0000                 0.0000                 0.0000
 Atom AN      X      Y      Z        X      Y      Z        X      Y      Z
   1   6    -0.03  -0.04  -0.02    -0.11  -0.03  -0.14    -0.02  -0.04  -0.06
   2   6    -0.06  -0.06  -0.12    -0.10  -0.02  -0.13    -0.02  -0.04  -0.02
   3   6     0.03  -0.02   0.03     0.09   0.06   0.15     0.01   0.01   0.08
   4   6     0.09   0.02   0.12     0.10   0.05   0.18     0.00   0.04   0.05
   5   6     0.06  -0.00   0.12     0.13   0.07   0.21     0.03   0.06   0.07
   6   6     0.06  -0.00   0.12     0.07   0.05   0.15     0.04   0.03   0.03
   7   6    -0.08  -0.05  -0.07    -0.04   0.01  -0.04     0.01   0.04   0.04
   8   6    -0.02  -0.08  -0.03    -0.04  -0.02  -0.25    -0.04   0.03  -0.11
   9   6     0.04  -0.04  -0.10    -0.05  -0.03  -0.18    -0.05   0.02  -0.08
  10   6     0.09  -0.12  -0.32    -0.08   0.01  -0.04    -0.04   0.03   0.01
  11   6     0.16  -0.15  -0.00    -0.05   0.06   0.15    -0.03   0.03   0.07
  12   6     0.15  -0.15   0.35    -0.04   0.07   0.05    -0.03   0.02  -0.02
  13   6    -0.01  -0.10   0.12    -0.02   0.00  -0.18    -0.03   0.00  -0.10
  14   6    -0.07  -0.08   0.05     0.04   0.02  -0.12    -0.04  -0.03  -0.03
  15   6     0.02   0.06  -0.07    -0.00  -0.09  -0.03     0.13   0.02  -0.09
  16   6     0.07   0.09  -0.10    -0.01  -0.09   0.03     0.05  -0.04   0.01
  17   6    -0.05   0.05  -0.03     0.05   0.00   0.01    -0.14  -0.11   0.13
  18   6    -0.03   0.02  -0.02     0.03   0.05  -0.02    -0.21  -0.13   0.15
  19   6    -0.06  -0.02   0.02     0.02   0.06  -0.07    -0.17  -0.10   0.07
  20   6    -0.01  -0.03   0.02    -0.07   0.09  -0.06    -0.06  -0.02  -0.01
  21   6     0.05  -0.07   0.09     0.03  -0.03   0.06    -0.03   0.06   0.03
  22   6     0.02  -0.00   0.02     0.04  -0.03   0.07     0.04   0.02   0.06
  23   6    -0.04   0.06  -0.09    -0.05   0.08   0.01     0.06  -0.01  -0.01
  24   6    -0.02  -0.00  -0.06    -0.07   0.14  -0.02    -0.01  -0.04  -0.09
  25   6    -0.01  -0.02  -0.04    -0.14   0.17  -0.06    -0.00  -0.07  -0.06
  26   6     0.03  -0.03  -0.01    -0.14   0.06  -0.04     0.17  -0.07   0.12
  27   6     0.04  -0.03  -0.02     0.13  -0.05   0.14     0.00  -0.00  -0.07
  28   6     0.04   0.01  -0.01     0.09  -0.10   0.10    -0.00   0.08  -0.06
  29   6    -0.00   0.04   0.02    -0.12  -0.02  -0.07     0.03   0.09   0.04
  30   6    -0.03   0.03   0.03    -0.13   0.02  -0.11     0.06   0.04   0.09
  31   6    -0.01  -0.02   0.02     0.12  -0.02   0.03    -0.02   0.01   0.02
  32   6     0.03  -0.04  -0.01     0.15  -0.03   0.12    -0.04   0.01  -0.08
  33   7     0.02  -0.05  -0.02     0.04   0.04   0.08    -0.05  -0.02  -0.12
  34   6     0.07   0.24  -0.04    -0.06  -0.12   0.01    -0.03  -0.10   0.05
  35   6    -0.05   0.10  -0.01     0.03  -0.05   0.01     0.17   0.20  -0.13
  36   6    -0.08   0.05   0.01     0.04  -0.05  -0.00     0.15   0.11  -0.10
  37   6    -0.11   0.01   0.01     0.05  -0.03  -0.03    -0.06  -0.20   0.11
  38   6    -0.11   0.09  -0.05     0.05  -0.05  -0.01    -0.06  -0.16   0.08
  39   6    -0.10   0.12  -0.04     0.04  -0.06   0.00     0.12   0.15  -0.14
  40   6    -0.10   0.10   0.01     0.05  -0.05   0.01     0.14   0.16  -0.10
  41   7    -0.13   0.02   0.03     0.06  -0.00   0.02    -0.05  -0.06   0.13
  42   7     0.11   0.02   0.14    -0.02  -0.03  -0.03    -0.06   0.02  -0.05
  43   1    -0.02  -0.02  -0.03    -0.08  -0.03  -0.11    -0.01  -0.02  -0.04
  44   1    -0.05  -0.03  -0.08    -0.06  -0.03  -0.10    -0.01  -0.02  -0.02
  45   1     0.00  -0.01   0.00     0.03   0.02   0.05    -0.00   0.00   0.03
  46   1     0.02   0.00   0.04     0.02   0.02   0.05     0.02   0.01   0.00
  47   1    -0.08   0.03  -0.02    -0.09  -0.01   0.02    -0.00  -0.03   0.03
  48   1    -0.02  -0.05  -0.08     0.01   0.00  -0.05     0.01   0.03   0.03
  49   1     0.03  -0.03  -0.17    -0.03  -0.00   0.01    -0.01   0.01   0.02
  50   1     0.06  -0.05  -0.00    -0.01   0.03   0.11    -0.00   0.01   0.06
  51   1     0.06  -0.06   0.19    -0.00   0.04   0.06    -0.01   0.01   0.01
  52   1     0.02   0.04  -0.03    -0.01  -0.05  -0.00     0.09   0.03  -0.07
  53   1     0.05   0.04  -0.04    -0.02  -0.05   0.03     0.05   0.01  -0.01
  54   1     0.03  -0.04   0.05     0.03  -0.03   0.04    -0.02   0.03   0.02
  55   1     0.01   0.00   0.01     0.03  -0.04   0.04     0.03   0.01   0.03
  56   1    -0.02   0.04  -0.04    -0.01   0.01   0.01     0.04  -0.00  -0.01
  57   1     0.01  -0.00   0.01    -0.09  -0.06  -0.04     0.06   0.06   0.13
  58   1     0.02  -0.02  -0.00    -0.07   0.08  -0.04     0.13  -0.11   0.05
  59   1     0.02   0.01  -0.01     0.02  -0.04   0.04     0.01   0.04  -0.03
  60   1    -0.00   0.02   0.00    -0.09   0.00  -0.05     0.02   0.03   0.02
  61   1    -0.02   0.01   0.01    -0.09   0.03  -0.07     0.04   0.00   0.05
  62   1    -0.01  -0.01   0.01     0.05   0.00   0.00    -0.01  -0.01   0.02
  63   1     0.00  -0.01  -0.01     0.02   0.01   0.02    -0.01  -0.01  -0.03
  64   1     0.04   0.14   0.06    -0.04  -0.09  -0.05     0.05  -0.12  -0.00
  65   1     0.07   0.10  -0.09    -0.05  -0.06   0.07    -0.07  -0.02   0.05
  66   1    -0.02   0.01   0.01     0.02  -0.02   0.00     0.06   0.04  -0.03
  67   1    -0.04  -0.01   0.01     0.02  -0.00  -0.01    -0.06  -0.13   0.09
  68   1    -0.03   0.03  -0.02     0.02  -0.02  -0.00    -0.06  -0.10   0.07
  69   1    -0.03   0.05  -0.02     0.01  -0.02   0.00     0.03   0.06  -0.05
  70   1    -0.02   0.01   0.00     0.00  -0.01   0.01    -0.02  -0.02   0.03
  71   1     0.03   0.01   0.02    -0.00  -0.01  -0.01    -0.01   0.01  -0.01
                     22                     23                     24
                        a                      a                      a 
 Frequencies --   253.5240               256.8519               262.9503
 Red. masses --     9.8896                10.1298                10.3026
 Frc consts  --     0.0000                 0.0000                 0.0000
 IR Inten    --     3.3337                 0.4291                 1.0373
 Raman Activ --     0.0000                 0.0000                 0.0000
 Depolar     --     0.0000                 0.0000                 0.0000
 Atom AN      X      Y      Z        X      Y      Z        X      Y      Z
   1   6     0.11  -0.09  -0.02     0.00  -0.06  -0.09    -0.12   0.01  -0.11
   2   6     0.09  -0.10   0.07     0.00  -0.06  -0.02    -0.06   0.04  -0.12
   3   6    -0.06  -0.05   0.02     0.02   0.01   0.10     0.14   0.07   0.09
   4   6    -0.08   0.08  -0.07    -0.00   0.07   0.05     0.12  -0.03   0.10
   5   6    -0.04   0.11  -0.06     0.04   0.10   0.07     0.12  -0.03   0.15
   6   6     0.06   0.02  -0.11     0.07   0.04   0.02     0.04   0.00   0.15
   7   6     0.09   0.07   0.21     0.02   0.05   0.07    -0.05  -0.04  -0.11
   8   6    -0.09   0.09  -0.03    -0.06   0.04  -0.13     0.01  -0.05  -0.07
   9   6    -0.07   0.10  -0.07    -0.07   0.04  -0.10     0.02  -0.06  -0.03
  10   6     0.06   0.04  -0.03    -0.02   0.04   0.04    -0.01  -0.01   0.16
  11   6     0.09  -0.07   0.06    -0.01   0.00   0.08    -0.04   0.03  -0.00
  12   6     0.02  -0.11   0.01    -0.04  -0.02  -0.06    -0.05   0.03  -0.17
  13   6    -0.09  -0.05  -0.03    -0.05  -0.02  -0.11     0.01   0.02  -0.06
  14   6    -0.18  -0.11   0.02    -0.06  -0.05  -0.02     0.02   0.04   0.02
  15   6    -0.08  -0.09  -0.01     0.05  -0.04  -0.05    -0.08   0.01   0.07
  16   6     0.12   0.05  -0.03     0.01  -0.07  -0.08    -0.03   0.06   0.07
  17   6     0.07   0.08   0.01    -0.01  -0.13  -0.08     0.04   0.14   0.04
  18   6    -0.04   0.01   0.07    -0.04  -0.07  -0.11     0.01   0.05   0.10
  19   6    -0.14  -0.04   0.02    -0.09  -0.07   0.02    -0.01   0.02   0.03
  20   6    -0.12   0.06  -0.08    -0.00  -0.07   0.09     0.04  -0.04   0.03
  21   6    -0.06   0.04  -0.01     0.06   0.04   0.18     0.04  -0.07   0.03
  22   6     0.05  -0.06   0.08     0.04   0.18   0.07    -0.01  -0.02  -0.02
  23   6     0.03  -0.03  -0.01     0.03   0.18   0.01    -0.03  -0.00  -0.09
  24   6    -0.08   0.03  -0.13     0.07  -0.01   0.07     0.02  -0.09  -0.03
  25   6    -0.09   0.04  -0.14     0.00  -0.05   0.10     0.09  -0.11   0.00
  26   6     0.10  -0.05   0.07    -0.01   0.03   0.09     0.14  -0.09   0.04
  27   6     0.12  -0.06   0.00    -0.16   0.09  -0.04    -0.08  -0.01  -0.13
  28   6     0.08   0.02   0.00    -0.10   0.03  -0.01    -0.05   0.07  -0.10
  29   6    -0.07   0.10  -0.02     0.12  -0.07   0.08     0.08   0.04   0.07
  30   6    -0.03   0.06   0.02     0.07  -0.02   0.03     0.06  -0.02   0.11
  31   6     0.08  -0.04   0.06    -0.13   0.09  -0.05    -0.13  -0.02  -0.01
  32   6     0.07  -0.04  -0.01    -0.09   0.08  -0.03    -0.11  -0.04  -0.11
  33   7    -0.09   0.01  -0.11     0.15  -0.07   0.08    -0.00  -0.10  -0.08
  34   6    -0.01   0.03   0.09     0.12   0.11  -0.18    -0.04   0.04   0.15
  35   6    -0.06  -0.09   0.15    -0.07  -0.15  -0.07    -0.06  -0.02   0.17
  36   6     0.01  -0.11   0.06    -0.13  -0.06   0.02     0.02  -0.06   0.06
  37   6     0.10   0.04  -0.15     0.01   0.10   0.05     0.06   0.05  -0.15
  38   6     0.03   0.01  -0.11     0.14   0.11   0.03    -0.06  -0.00  -0.10
  39   6    -0.10  -0.10   0.08     0.09  -0.12   0.06    -0.17  -0.03   0.07
  40   6    -0.04  -0.05   0.12    -0.02  -0.20  -0.03    -0.06   0.06   0.11
  41   7     0.13   0.13  -0.06    -0.01  -0.18  -0.08     0.14   0.25  -0.10
  42   7    -0.11   0.13  -0.07    -0.09   0.04  -0.10     0.01  -0.13  -0.13
  43   1     0.06  -0.04  -0.00    -0.01  -0.04  -0.06    -0.08  -0.01  -0.08
  44   1     0.04  -0.04   0.05    -0.01  -0.03  -0.02    -0.04   0.01  -0.08
  45   1    -0.04  -0.03   0.03    -0.00   0.00   0.05     0.06   0.03   0.02
  46   1     0.04   0.02  -0.06     0.04   0.02  -0.00    -0.00  -0.01   0.06
  47   1     0.11  -0.10   0.09     0.01  -0.04   0.04    -0.10   0.06  -0.03
  48   1     0.04   0.10   0.18     0.02   0.05   0.05    -0.01  -0.06  -0.12
  49   1     0.05   0.03  -0.01     0.01   0.02   0.04    -0.01  -0.01   0.10
  50   1     0.05  -0.03   0.04     0.01   0.00   0.07    -0.02   0.02   0.01
  51   1     0.01  -0.05   0.02    -0.01  -0.00  -0.01    -0.02   0.01  -0.08
  52   1    -0.02  -0.04  -0.01     0.03   0.00  -0.03    -0.04  -0.01   0.03
  53   1     0.09   0.03  -0.02     0.00  -0.01  -0.04    -0.00   0.01   0.03
  54   1    -0.01   0.01   0.01     0.01   0.02   0.09     0.02  -0.03   0.00
  55   1     0.05  -0.04   0.06    -0.00   0.08   0.01    -0.01   0.00  -0.01
  56   1     0.04  -0.03   0.01     0.00   0.08  -0.03    -0.02   0.02  -0.05
  57   1     0.01   0.02   0.11     0.03   0.06   0.05     0.07   0.05   0.06
  58   1     0.10  -0.07   0.02     0.02  -0.03   0.04     0.08  -0.09   0.03
  59   1     0.04   0.01  -0.01    -0.04   0.01  -0.00    -0.01   0.04  -0.05
  60   1    -0.06   0.05  -0.02     0.09  -0.05   0.05     0.06   0.01   0.04
  61   1    -0.03   0.03   0.01     0.06  -0.02   0.02     0.05  -0.02   0.07
  62   1     0.03  -0.03   0.03    -0.05   0.03  -0.02    -0.05  -0.02   0.01
  63   1    -0.02  -0.00  -0.02     0.04  -0.02   0.03     0.00  -0.02  -0.02
  64   1    -0.01   0.05   0.05     0.05   0.14   0.04    -0.02   0.03   0.04
  65   1     0.03   0.02  -0.00     0.12   0.06  -0.16    -0.00   0.01   0.04
  66   1     0.02  -0.05   0.03    -0.07  -0.01   0.00     0.03  -0.03   0.03
  67   1     0.06   0.05  -0.09     0.01   0.07   0.01     0.05   0.04  -0.09
  68   1     0.02   0.03  -0.07     0.08   0.07   0.00    -0.02   0.00  -0.06
  69   1    -0.06  -0.03   0.03     0.06  -0.05   0.02    -0.08  -0.01   0.02
  70   1     0.05   0.05  -0.03    -0.00  -0.04  -0.03     0.05   0.08  -0.03
  71   1    -0.02   0.04  -0.01    -0.02   0.01  -0.02    -0.00  -0.04  -0.04
                     25                     26                     27
                        a                      a                      a 
 Frequencies --   276.8676               282.8244               295.8753
 Red. masses --     9.8846                10.5460                 9.8305
 Frc consts  --     0.0000                 0.0000                 0.0000
 IR Inten    --     0.9837                 0.5377                 0.6842
 Raman Activ --     0.0000                 0.0000                 0.0000
 Depolar     --     0.0000                 0.0000                 0.0000
 Atom AN      X      Y      Z        X      Y      Z        X      Y      Z
   1   6     0.06   0.03   0.11     0.02  -0.15  -0.14     0.03   0.02   0.03
   2   6     0.00  -0.00   0.05     0.04  -0.13   0.01    -0.01  -0.00  -0.01
   3   6    -0.10  -0.05  -0.09     0.01   0.00   0.16    -0.03  -0.01  -0.03
   4   6    -0.05   0.01  -0.03    -0.06   0.11   0.01     0.01   0.02   0.01
   5   6    -0.07  -0.00  -0.10     0.00   0.15   0.10    -0.01   0.02  -0.04
   6   6    -0.05   0.01  -0.07     0.11   0.04   0.00     0.00   0.03  -0.01
   7   6     0.05  -0.05   0.06    -0.04   0.11   0.11     0.05  -0.08   0.04
   8   6    -0.06  -0.03  -0.20    -0.05   0.07   0.12    -0.10  -0.06  -0.34
   9   6    -0.03  -0.01  -0.10    -0.04   0.07   0.00    -0.06  -0.03  -0.18
  10   6    -0.01  -0.02  -0.11     0.13   0.00   0.10    -0.00  -0.01   0.02
  11   6     0.02   0.01   0.08     0.12  -0.15  -0.02     0.01   0.00   0.09
  12   6     0.02   0.01   0.10     0.02  -0.19  -0.12    -0.04  -0.02  -0.05
  13   6    -0.04  -0.02  -0.14    -0.06  -0.09   0.09    -0.06  -0.03  -0.18
  14   6     0.02   0.02  -0.10    -0.08  -0.08   0.08    -0.01   0.01   0.04
  15   6    -0.04  -0.07  -0.01    -0.06  -0.04   0.05     0.01   0.01   0.04
  16   6     0.02  -0.03   0.02     0.11   0.08  -0.07     0.02   0.02   0.00
  17   6     0.08   0.10   0.00     0.07   0.08  -0.04    -0.00   0.02   0.01
  18   6     0.10   0.12  -0.02     0.11   0.08  -0.05    -0.01  -0.00   0.02
  19   6     0.08   0.10  -0.10     0.11   0.05  -0.03     0.00   0.00   0.04
  20   6     0.01   0.04  -0.05     0.11  -0.02   0.01     0.16  -0.12   0.15
  21   6     0.12  -0.14   0.08     0.07  -0.10  -0.06     0.03   0.01   0.00
  22   6     0.02  -0.04  -0.02    -0.05  -0.05  -0.11    -0.05   0.08  -0.06
  23   6    -0.10   0.11  -0.10    -0.06  -0.03  -0.04     0.03  -0.03   0.01
  24   6     0.01   0.02   0.03     0.06  -0.02   0.09     0.14  -0.13   0.12
  25   6    -0.03   0.06  -0.01     0.10  -0.01   0.09     0.27  -0.25   0.23
  26   6    -0.01   0.04   0.04    -0.06   0.06  -0.07    -0.01  -0.07  -0.14
  27   6    -0.16   0.07  -0.07    -0.04   0.05   0.04     0.05  -0.05   0.05
  28   6    -0.12   0.01  -0.06    -0.05  -0.02   0.02     0.02   0.00   0.04
  29   6     0.14  -0.11   0.06     0.03  -0.08  -0.03    -0.09   0.04  -0.02
  30   6     0.04  -0.07   0.02     0.01  -0.04  -0.06     0.01   0.01   0.01
  31   6    -0.18   0.05  -0.07    -0.01   0.03  -0.05     0.08  -0.03   0.03
  32   6    -0.09   0.02  -0.02    -0.02   0.04   0.05    -0.02   0.00   0.00
  33   7     0.23  -0.19   0.14     0.05   0.02   0.11    -0.23   0.23  -0.09
  34   6    -0.11  -0.10   0.07    -0.06  -0.04   0.02    -0.00   0.03   0.02
  35   6     0.04   0.05   0.07     0.03   0.11   0.00    -0.01   0.03   0.02
  36   6     0.08  -0.01   0.01     0.04   0.07  -0.01    -0.01   0.02   0.00
  37   6     0.02  -0.07  -0.05    -0.07  -0.06   0.02    -0.02   0.01  -0.02
  38   6    -0.04  -0.06  -0.05    -0.10  -0.01  -0.01    -0.04   0.00  -0.02
  39   6    -0.04   0.04  -0.03    -0.04   0.12  -0.07    -0.04   0.03  -0.01
  40   6     0.02   0.08   0.06    -0.02   0.10   0.01    -0.02   0.04   0.01
  41   7     0.01   0.08   0.10    -0.12  -0.02   0.14     0.01   0.04  -0.01
  42   7     0.05   0.12   0.25    -0.17   0.01  -0.34     0.03   0.10   0.18
  43   1     0.05   0.02   0.07    -0.01  -0.07  -0.09     0.02   0.01   0.02
  44   1     0.01   0.00   0.04     0.01  -0.06  -0.00    -0.00  -0.00  -0.00
  45   1    -0.04  -0.02  -0.04    -0.02  -0.01   0.09    -0.01  -0.00  -0.01
  46   1    -0.01   0.00  -0.03     0.06   0.03  -0.02     0.00   0.01  -0.00
  47   1     0.08  -0.13   0.05    -0.02   0.04   0.03     0.05  -0.16   0.06
  48   1     0.03   0.06   0.12    -0.02   0.02   0.02     0.04   0.06   0.11
  49   1    -0.00  -0.00  -0.03     0.07   0.02   0.03     0.01   0.00   0.07
  50   1     0.02   0.01   0.07     0.05  -0.05  -0.02     0.02   0.01   0.09
  51   1     0.02   0.01   0.09    -0.00  -0.09  -0.09    -0.00  -0.00   0.03
  52   1    -0.04  -0.05   0.01    -0.05  -0.02   0.03     0.00   0.01   0.01
  53   1    -0.01  -0.04   0.03     0.05   0.03  -0.02     0.01   0.01  -0.00
  54   1     0.07  -0.08   0.05     0.03  -0.04  -0.03    -0.02   0.04  -0.04
  55   1     0.01  -0.02  -0.00    -0.04  -0.01  -0.06    -0.06   0.08  -0.07
  56   1    -0.06   0.05  -0.05    -0.06   0.00  -0.02    -0.02   0.03  -0.04
  57   1     0.01   0.06   0.06    -0.01  -0.02  -0.10     0.02  -0.11  -0.21
  58   1     0.03  -0.04   0.03    -0.08   0.07  -0.03    -0.13   0.10  -0.06
  59   1    -0.05   0.00  -0.02    -0.03  -0.02   0.02     0.00   0.00   0.01
  60   1     0.11  -0.06   0.05     0.02  -0.04  -0.01    -0.06   0.02  -0.02
  61   1     0.04  -0.03   0.02     0.01  -0.02  -0.02    -0.00   0.01   0.00
  62   1    -0.07   0.03  -0.03     0.00   0.03  -0.03     0.03  -0.02   0.02
  63   1     0.08  -0.06   0.05     0.00   0.01   0.02    -0.12   0.09  -0.07
  64   1    -0.07  -0.12  -0.08    -0.04  -0.08  -0.07     0.00   0.02   0.02
  65   1    -0.10  -0.06   0.12    -0.07  -0.03   0.08     0.01   0.01  -0.00
  66   1     0.05  -0.01   0.01     0.03   0.02  -0.01     0.00   0.00   0.00
  67   1     0.01  -0.04  -0.02    -0.03  -0.06   0.02    -0.00  -0.00  -0.01
  68   1    -0.03  -0.03  -0.02    -0.04  -0.02   0.00    -0.02  -0.00  -0.01
  69   1    -0.04   0.02  -0.01    -0.02   0.05  -0.03    -0.02   0.01  -0.00
  70   1    -0.01   0.00   0.04    -0.04  -0.02   0.05     0.01   0.02  -0.01
  71   1     0.03   0.04   0.10    -0.05   0.00  -0.12     0.04   0.04   0.10
                     28                     29                     30
                        a                      a                      a 
 Frequencies --   314.2527               345.5130               357.6243
 Red. masses --    10.4629                10.5409                10.7059
 Frc consts  --     0.0000                 0.0000                 0.0000
 IR Inten    --     0.6061                 2.1997                 1.9863
 Raman Activ --     0.0000                 0.0000                 0.0000
 Depolar     --     0.0000                 0.0000                 0.0000
 Atom AN      X      Y      Z        X      Y      Z        X      Y      Z
   1   6    -0.00  -0.00  -0.00     0.05   0.10  -0.06    -0.04  -0.09   0.06
   2   6     0.01   0.00  -0.01     0.06   0.10  -0.16    -0.08  -0.11   0.11
   3   6     0.02  -0.00  -0.00     0.19   0.07  -0.06    -0.16  -0.06   0.09
   4   6     0.02  -0.01  -0.01     0.17  -0.06  -0.03    -0.13   0.08   0.04
   5   6     0.01  -0.01   0.00     0.10  -0.09  -0.07    -0.10   0.09   0.03
   6   6     0.00  -0.01   0.01     0.09  -0.00   0.04    -0.06   0.04  -0.00
   7   6    -0.00  -0.01  -0.00     0.09  -0.13  -0.03    -0.07   0.01   0.03
   8   6    -0.01  -0.00   0.02    -0.15  -0.03  -0.14     0.02  -0.06  -0.20
   9   6     0.01   0.01   0.01    -0.06   0.01  -0.04     0.01  -0.07  -0.15
  10   6     0.03  -0.00   0.01    -0.07   0.04   0.13     0.14  -0.09   0.03
  11   6     0.02  -0.02  -0.02    -0.12  -0.00  -0.04     0.14  -0.04   0.01
  12   6     0.01  -0.02  -0.01    -0.16  -0.03  -0.03     0.13  -0.03  -0.11
  13   6    -0.02  -0.00   0.02    -0.14  -0.01   0.10     0.07   0.02  -0.06
  14   6     0.01   0.03   0.01    -0.19  -0.03   0.25     0.20   0.14   0.08
  15   6    -0.07  -0.03   0.07    -0.15   0.03   0.21     0.14   0.17   0.10
  16   6    -0.01   0.01  -0.01     0.15   0.23  -0.03    -0.08   0.04   0.19
  17   6     0.17   0.13  -0.13     0.07   0.06  -0.01    -0.02   0.02   0.12
  18   6     0.28   0.23  -0.22     0.03   0.00   0.03     0.07   0.03   0.10
  19   6     0.09   0.12  -0.04    -0.01  -0.02   0.09     0.16   0.07   0.08
  20   6    -0.06   0.04   0.06    -0.00   0.01   0.01     0.03   0.05   0.06
  21   6    -0.02   0.16   0.12    -0.07  -0.07  -0.07    -0.06  -0.05  -0.05
  22   6     0.07   0.13   0.16    -0.10  -0.12  -0.05    -0.13  -0.09  -0.01
  23   6     0.06   0.13   0.05    -0.07  -0.13   0.01    -0.11  -0.10   0.08
  24   6    -0.05   0.01  -0.05    -0.06   0.02  -0.00    -0.10   0.05   0.06
  25   6    -0.01  -0.03   0.00    -0.07   0.08  -0.06    -0.06   0.13   0.00
  26   6     0.02  -0.17   0.00     0.02   0.07   0.04    -0.00   0.03   0.04
  27   6     0.02  -0.17  -0.13     0.02   0.06  -0.05     0.03  -0.01  -0.16
  28   6     0.04   0.02  -0.07     0.07   0.02  -0.04     0.13   0.03  -0.11
  29   6    -0.06   0.11   0.10     0.06   0.03  -0.07     0.06   0.08  -0.06
  30   6    -0.05   0.01   0.19     0.01   0.03  -0.07    -0.03   0.03  -0.01
  31   6    -0.08  -0.15   0.10     0.05   0.01  -0.04     0.02  -0.10  -0.01
  32   6    -0.06  -0.17  -0.14     0.04   0.01  -0.01     0.00  -0.09  -0.08
  33   7    -0.15   0.02  -0.20     0.08  -0.10   0.03     0.05  -0.10  -0.02
  34   6    -0.02  -0.08  -0.13     0.06  -0.03  -0.02     0.07  -0.00   0.05
  35   6     0.03  -0.02  -0.06     0.00  -0.05  -0.09    -0.08  -0.09  -0.10
  36   6    -0.02   0.00   0.01    -0.03   0.04  -0.05    -0.11   0.06  -0.09
  37   6    -0.02  -0.01   0.07    -0.03   0.01   0.08    -0.07   0.08   0.04
  38   6     0.04   0.04   0.02     0.03   0.03   0.06    -0.03   0.03   0.08
  39   6     0.05  -0.01  -0.02     0.08   0.00  -0.03     0.05  -0.02  -0.05
  40   6    -0.00  -0.08  -0.01    -0.02  -0.09  -0.05    -0.03  -0.07  -0.13
  41   7    -0.16  -0.12   0.17    -0.15  -0.12   0.07    -0.01   0.01  -0.13
  42   7     0.00  -0.01  -0.02     0.03   0.06   0.12    -0.02   0.01  -0.04
  43   1    -0.00   0.00  -0.00    -0.00   0.04  -0.01     0.01  -0.04   0.01
  44   1     0.00   0.00  -0.00     0.01   0.04  -0.07    -0.02  -0.04   0.04
  45   1     0.01   0.00  -0.00     0.09   0.04  -0.02    -0.07  -0.03   0.04
  46   1     0.00  -0.00   0.00     0.02  -0.00   0.05    -0.00   0.02  -0.02
  47   1    -0.00   0.00  -0.00     0.06  -0.12   0.01    -0.03  -0.04   0.03
  48   1     0.00  -0.00  -0.00     0.06   0.03   0.05    -0.03   0.01   0.04
  49   1     0.01   0.00   0.00    -0.02   0.01   0.10     0.06  -0.01   0.06
  50   1     0.01  -0.01  -0.01    -0.02  -0.01  -0.02     0.04   0.00   0.04
  51   1     0.00  -0.02  -0.01    -0.05  -0.02  -0.01     0.04  -0.02  -0.02
  52   1    -0.08  -0.04   0.06    -0.07   0.00   0.08     0.05   0.07   0.03
  53   1    -0.07  -0.03   0.03     0.07   0.11  -0.05    -0.06  -0.00   0.07
  54   1    -0.02   0.06   0.05    -0.01  -0.04  -0.04    -0.00  -0.03  -0.04
  55   1     0.04   0.04   0.07    -0.03  -0.04  -0.01    -0.04  -0.04  -0.01
  56   1     0.05   0.05  -0.00    -0.02  -0.07   0.03    -0.03  -0.06   0.05
  57   1     0.00  -0.03   0.03     0.00   0.05   0.07    -0.00   0.04   0.07
  58   1     0.01  -0.08   0.02     0.05  -0.02   0.02     0.02  -0.05   0.03
  59   1     0.04   0.04  -0.05     0.03  -0.00  -0.00     0.07   0.01  -0.03
  60   1    -0.02   0.07   0.04     0.02   0.01  -0.02     0.02   0.05  -0.01
  61   1    -0.02   0.01   0.09    -0.01   0.01  -0.02    -0.03   0.02   0.02
  62   1    -0.05  -0.08   0.06     0.03   0.00  -0.01     0.02  -0.05   0.01
  63   1    -0.03   0.03  -0.08     0.06  -0.04   0.03     0.08  -0.03   0.01
  64   1    -0.07  -0.09  -0.15     0.02  -0.00   0.00     0.03   0.03   0.04
  65   1    -0.05  -0.07   0.08     0.03  -0.01  -0.01     0.07  -0.01  -0.01
  66   1    -0.02   0.00   0.00    -0.02   0.03  -0.03    -0.06   0.04  -0.04
  67   1    -0.02  -0.01   0.04    -0.02   0.00   0.04    -0.03   0.04   0.02
  68   1     0.02   0.02   0.01     0.02   0.01   0.03    -0.00   0.01   0.05
  69   1     0.03  -0.01  -0.00     0.05  -0.00  -0.01     0.05  -0.01  -0.01
  70   1    -0.09  -0.08   0.08    -0.05  -0.02   0.01    -0.02   0.04  -0.06
  71   1    -0.00  -0.00  -0.00     0.02   0.01   0.12     0.02   0.02  -0.02
                     31                     32                     33
                        a                      a                      a 
 Frequencies --   373.8004               378.1628               388.5908
 Red. masses --    10.4340                10.5327                 9.9616
 Frc consts  --     0.0000                 0.0000                 0.0000
 IR Inten    --     1.7332                 1.6770                 1.6413
 Raman Activ --     0.0000                 0.0000                 0.0000
 Depolar     --     0.0000                 0.0000                 0.0000
 Atom AN      X      Y      Z        X      Y      Z        X      Y      Z
   1   6     0.10   0.04  -0.10    -0.15  -0.07   0.16     0.01  -0.02  -0.03
   2   6     0.02   0.00  -0.08    -0.03  -0.00   0.11    -0.03  -0.04  -0.05
   3   6     0.01   0.09   0.07    -0.01  -0.14  -0.10     0.03   0.03   0.10
   4   6    -0.04   0.08  -0.03     0.08  -0.13   0.04    -0.04   0.03  -0.04
   5   6    -0.00   0.10  -0.11     0.01  -0.16   0.17    -0.06   0.02  -0.10
   6   6     0.14   0.12  -0.02    -0.21  -0.19   0.04     0.07   0.07   0.07
   7   6     0.03  -0.07   0.00    -0.04   0.09  -0.01    -0.02  -0.10  -0.00
   8   6     0.01  -0.10   0.03    -0.05   0.15  -0.13    -0.06  -0.09  -0.08
   9   6    -0.02  -0.12   0.07     0.02   0.19  -0.15    -0.02  -0.07  -0.03
  10   6    -0.10  -0.10   0.06     0.16   0.17  -0.05     0.08  -0.10   0.07
  11   6    -0.13  -0.06  -0.01     0.20   0.09   0.01     0.05  -0.07  -0.06
  12   6    -0.07  -0.02   0.04     0.09   0.02  -0.08     0.03  -0.07  -0.02
  13   6     0.02  -0.06   0.06    -0.04   0.09  -0.06    -0.04   0.01   0.09
  14   6     0.08  -0.02   0.02    -0.12   0.04   0.08     0.01   0.10   0.07
  15   6     0.06  -0.05   0.06    -0.10   0.04   0.09     0.01   0.32  -0.08
  16   6     0.10  -0.01   0.09     0.08   0.16   0.02    -0.27   0.12  -0.04
  17   6     0.03  -0.03   0.12    -0.01   0.03   0.07    -0.25  -0.01  -0.05
  18   6     0.00  -0.03   0.13    -0.08  -0.01   0.09    -0.05  -0.03  -0.05
  19   6     0.12   0.03  -0.01    -0.03   0.03   0.01     0.00  -0.01   0.03
  20   6     0.09   0.14  -0.13     0.04   0.09  -0.10     0.03   0.03  -0.04
  21   6     0.13   0.11  -0.11     0.07   0.04  -0.08     0.02   0.03  -0.06
  22   6     0.18  -0.00  -0.01     0.11  -0.04  -0.03     0.05  -0.02  -0.03
  23   6     0.08   0.08  -0.06     0.05   0.02  -0.10     0.05  -0.02  -0.05
  24   6    -0.00   0.11  -0.13     0.02   0.05  -0.11    -0.01   0.04  -0.10
  25   6     0.05   0.13  -0.14     0.06   0.05  -0.11    -0.00   0.05  -0.11
  26   6     0.01  -0.10  -0.10     0.03  -0.06  -0.09     0.02  -0.03  -0.05
  27   6     0.01  -0.12   0.09     0.03  -0.06   0.10     0.03  -0.03   0.07
  28   6    -0.20  -0.05   0.01    -0.17  -0.02   0.02    -0.11  -0.01   0.01
  29   6    -0.07  -0.12   0.14    -0.04  -0.10   0.08    -0.02  -0.06   0.04
  30   6    -0.02  -0.14   0.15     0.01  -0.09   0.08     0.01  -0.05   0.04
  31   6    -0.21  -0.03   0.05    -0.14   0.03   0.01    -0.08   0.03  -0.00
  32   6    -0.03  -0.08   0.05    -0.00  -0.02   0.07     0.02  -0.01   0.05
  33   7    -0.04   0.09   0.04    -0.02   0.06   0.05    -0.00   0.02   0.03
  34   6     0.03   0.04   0.11     0.04  -0.02   0.02     0.05  -0.09  -0.11
  35   6    -0.12  -0.07  -0.03    -0.00  -0.06  -0.06     0.22   0.09  -0.05
  36   6    -0.07   0.10  -0.12    -0.01  -0.00  -0.05     0.05  -0.19   0.20
  37   6    -0.11   0.05  -0.01     0.02   0.00   0.04     0.19   0.00   0.05
  38   6    -0.07  -0.03   0.04     0.06  -0.01   0.05     0.13   0.09  -0.01
  39   6     0.04   0.04  -0.10     0.08  -0.04  -0.01    -0.06  -0.11   0.20
  40   6    -0.03  -0.05  -0.06     0.01  -0.08  -0.05     0.05   0.10  -0.04
  41   7     0.03  -0.02  -0.11    -0.06  -0.03   0.02    -0.07   0.08   0.03
  42   7    -0.02   0.07   0.03     0.03  -0.09  -0.04    -0.02   0.06  -0.00
  43   1     0.04   0.00  -0.04    -0.06  -0.00   0.06     0.01  -0.01  -0.01
  44   1    -0.00  -0.03  -0.03    -0.00   0.04   0.03    -0.02  -0.02  -0.03
  45   1     0.01   0.03   0.05    -0.02  -0.05  -0.08     0.02   0.02   0.07
  46   1     0.07   0.05   0.01    -0.11  -0.08  -0.02     0.05   0.04   0.05
  47   1     0.04  -0.05   0.01    -0.05   0.05   0.00     0.03  -0.09   0.01
  48   1    -0.02  -0.01   0.05     0.03   0.03  -0.06    -0.01   0.00   0.06
  49   1    -0.04  -0.04   0.02     0.08   0.07   0.01     0.03  -0.02   0.05
  50   1    -0.05  -0.01  -0.02     0.08   0.02   0.04     0.01  -0.02  -0.03
  51   1    -0.02   0.01   0.00     0.03  -0.02  -0.01     0.01  -0.04  -0.01
  52   1     0.02  -0.03   0.02    -0.03   0.00   0.02     0.04   0.16  -0.03
  53   1     0.05  -0.00   0.02     0.06   0.07  -0.02    -0.11   0.05  -0.02
  54   1     0.05   0.02  -0.02     0.03   0.00  -0.02     0.01   0.00  -0.02
  55   1     0.08  -0.04   0.02     0.05  -0.04   0.01     0.03  -0.02   0.01
  56   1     0.05   0.01  -0.00     0.02   0.00  -0.03     0.03  -0.02   0.00
  57   1    -0.02  -0.07  -0.05    -0.01  -0.06  -0.05    -0.01  -0.03  -0.01
  58   1    -0.02   0.02  -0.04    -0.01   0.03  -0.04     0.01   0.01  -0.03
  59   1    -0.11   0.01  -0.02    -0.09   0.01  -0.01    -0.06   0.01  -0.01
  60   1    -0.01  -0.03   0.05    -0.01  -0.03   0.02    -0.00  -0.02   0.01
  61   1     0.02  -0.05   0.05     0.02  -0.04   0.02     0.01  -0.02   0.01
  62   1    -0.11   0.00  -0.00    -0.08   0.03  -0.02    -0.05   0.02  -0.02
  63   1    -0.05   0.05  -0.03    -0.05   0.03  -0.01    -0.02   0.01  -0.00
  64   1     0.02   0.07   0.08     0.03   0.00   0.03     0.03  -0.10  -0.07
  65   1     0.07   0.02  -0.02     0.04  -0.01  -0.01    -0.06  -0.03   0.02
  66   1    -0.02   0.07  -0.06    -0.01   0.01  -0.02    -0.04  -0.12   0.12
  67   1    -0.04   0.02   0.01    -0.00   0.01   0.02     0.06  -0.01   0.01
  68   1    -0.02  -0.01   0.04     0.02   0.00   0.02     0.03   0.03  -0.03
  69   1     0.04   0.03  -0.05     0.05  -0.01  -0.00    -0.05  -0.11   0.12
  70   1     0.03   0.06  -0.07    -0.02   0.01  -0.01    -0.07  -0.05   0.06
  71   1     0.04   0.04   0.04    -0.06  -0.05  -0.04     0.03   0.03   0.05
                     34                     35                     36
                        a                      a                      a 
 Frequencies --   412.1770               417.2332               417.6362
 Red. masses --    10.6564                10.1849                 9.5700
 Frc consts  --     0.0000                 0.0000                 0.0000
 IR Inten    --     0.6052                 5.8582                 2.8011
 Raman Activ --     0.0000                 0.0000                 0.0000
 Depolar     --     0.0000                 0.0000                 0.0000
 Atom AN      X      Y      Z        X      Y      Z        X      Y      Z
   1   6    -0.01  -0.01   0.01    -0.04  -0.01  -0.01     0.12   0.05  -0.03
   2   6    -0.05  -0.03   0.03    -0.03  -0.01  -0.08     0.14   0.07   0.09
   3   6    -0.05  -0.01   0.05     0.13   0.02   0.10    -0.15   0.01  -0.23
   4   6    -0.05   0.03   0.01    -0.02  -0.08  -0.13     0.09   0.13   0.19
   5   6    -0.03   0.04  -0.02    -0.09  -0.12  -0.15     0.20   0.18   0.27
   6   6    -0.01   0.04   0.00     0.05   0.00   0.15    -0.05  -0.03  -0.28
   7   6    -0.01  -0.02  -0.01     0.01  -0.00  -0.00    -0.01   0.01   0.04
   8   6     0.04  -0.04  -0.09    -0.04   0.06   0.14     0.04  -0.08   0.00
   9   6     0.02  -0.07  -0.05    -0.00   0.09   0.10    -0.00  -0.11  -0.02
  10   6     0.03  -0.05   0.04     0.02   0.06  -0.08    -0.10  -0.08   0.03
  11   6     0.01   0.02  -0.02     0.05  -0.01   0.02    -0.12  -0.04   0.05
  12   6     0.06   0.04  -0.04    -0.01  -0.04   0.05    -0.07  -0.01  -0.01
  13   6     0.07   0.04   0.02    -0.08  -0.01  -0.04     0.03  -0.06  -0.01
  14   6     0.07   0.05   0.05    -0.05   0.00  -0.11     0.02  -0.05   0.04
  15   6     0.01   0.07   0.05     0.14  -0.05  -0.08     0.02  -0.05   0.05
  16   6    -0.09   0.01   0.08     0.04  -0.09   0.21     0.07  -0.01   0.03
  17   6     0.15   0.09  -0.08     0.06   0.08   0.21     0.04   0.03   0.04
  18   6     0.22   0.08  -0.08     0.03   0.20   0.09     0.03   0.02   0.04
  19   6    -0.06  -0.11   0.08    -0.12   0.11  -0.02    -0.01  -0.01   0.06
  20   6    -0.17  -0.18   0.10    -0.12   0.06   0.01    -0.03  -0.01   0.04
  21   6    -0.19  -0.04   0.08    -0.10  -0.07   0.05    -0.07  -0.02   0.01
  22   6     0.00   0.05   0.00    -0.07  -0.09   0.07    -0.05  -0.03   0.02
  23   6     0.15  -0.13  -0.17    -0.11  -0.03  -0.08    -0.02  -0.05  -0.02
  24   6     0.04  -0.13  -0.27     0.03  -0.08   0.05    -0.02  -0.00  -0.02
  25   6    -0.12  -0.18  -0.19     0.07  -0.13   0.10    -0.01  -0.01  -0.01
  26   6     0.03  -0.02  -0.01     0.04  -0.04  -0.01     0.02  -0.02   0.00
  27   6     0.04   0.05   0.21     0.17  -0.04   0.07     0.14  -0.05   0.07
  28   6    -0.14   0.03   0.13    -0.07   0.12  -0.05    -0.09   0.08  -0.04
  29   6    -0.01  -0.06   0.02     0.07   0.06  -0.05     0.04   0.02  -0.01
  30   6     0.10   0.06  -0.07     0.14   0.04  -0.04     0.09   0.01  -0.00
  31   6     0.04   0.23  -0.04    -0.05   0.09  -0.12    -0.07   0.07  -0.08
  32   6     0.11   0.17   0.11     0.12  -0.00   0.04     0.10  -0.02   0.04
  33   7    -0.00  -0.06  -0.04     0.01  -0.01   0.00     0.01  -0.01  -0.00
  34   6     0.02   0.00   0.02     0.00  -0.00   0.01     0.04  -0.00  -0.02
  35   6    -0.07  -0.10   0.09    -0.02   0.03  -0.20     0.08   0.15  -0.18
  36   6     0.04   0.10  -0.06    -0.18  -0.05  -0.03    -0.13  -0.07   0.09
  37   6    -0.04  -0.01   0.03    -0.09   0.07  -0.03    -0.06   0.06  -0.02
  38   6    -0.06  -0.02   0.04     0.05   0.03  -0.02    -0.01   0.11  -0.06
  39   6     0.02   0.10  -0.07     0.03  -0.17  -0.02    -0.10  -0.13   0.05
  40   6    -0.08  -0.06   0.07     0.08  -0.05  -0.15     0.05   0.08  -0.12
  41   7    -0.04  -0.02   0.01     0.02   0.07   0.02    -0.03  -0.00   0.02
  42   7     0.01  -0.01  -0.00    -0.02   0.02  -0.00     0.02  -0.01  -0.00
  43   1     0.01  -0.01   0.00    -0.01   0.01   0.01     0.02   0.01  -0.03
  44   1    -0.01  -0.02   0.01    -0.01   0.01  -0.03     0.05   0.00   0.04
  45   1    -0.02  -0.00   0.02     0.09   0.03   0.09    -0.13  -0.04  -0.18
  46   1     0.01   0.02   0.00     0.05   0.02   0.12    -0.08  -0.05  -0.21
  47   1    -0.00  -0.02   0.01     0.06   0.01  -0.02    -0.10   0.05   0.02
  48   1    -0.01  -0.00   0.02     0.00   0.01   0.02    -0.01  -0.04  -0.06
  49   1     0.01  -0.02   0.04     0.01   0.02  -0.07    -0.05  -0.03   0.02
  50   1    -0.01   0.01  -0.00     0.03  -0.01  -0.01    -0.04  -0.01   0.03
  51   1     0.02   0.02  -0.00    -0.00  -0.03   0.01    -0.02   0.02  -0.01
  52   1    -0.01   0.02   0.03     0.08  -0.04  -0.06     0.00  -0.02   0.02
  53   1    -0.09  -0.03   0.05     0.02  -0.07   0.10     0.03  -0.01   0.01
  54   1    -0.07   0.01   0.05    -0.03  -0.02  -0.00    -0.02  -0.01  -0.00
  55   1     0.03   0.07   0.03    -0.01  -0.02   0.03    -0.01  -0.00   0.01
  56   1     0.10  -0.04  -0.05    -0.06   0.02  -0.05    -0.00  -0.02   0.00
  57   1    -0.01  -0.00   0.03     0.00  -0.06  -0.06    -0.02  -0.04  -0.01
  58   1     0.09   0.03  -0.04    -0.03   0.04  -0.02    -0.00   0.02  -0.01
  59   1    -0.09   0.01   0.04    -0.08   0.06  -0.04    -0.08   0.05  -0.04
  60   1    -0.02  -0.06  -0.01     0.01   0.01  -0.03     0.00   0.00  -0.01
  61   1     0.04   0.00  -0.06     0.04   0.01  -0.00     0.03   0.00   0.00
  62   1    -0.01   0.10  -0.05    -0.07   0.06  -0.07    -0.08   0.05  -0.05
  63   1    -0.05  -0.07   0.03    -0.03   0.01  -0.02    -0.01   0.00  -0.01
  64   1    -0.04   0.02  -0.03    -0.00  -0.05  -0.04     0.03  -0.06  -0.03
  65   1     0.02  -0.02   0.02     0.01  -0.05   0.07    -0.02  -0.01   0.03
  66   1     0.04   0.08  -0.06    -0.09  -0.04   0.02    -0.09  -0.08   0.08
  67   1    -0.01  -0.00   0.00    -0.04   0.03   0.01    -0.03   0.00   0.01
[...]
  54   1     0.00   0.00   0.00    -0.32  -0.29  -0.02    -0.03  -0.03  -0.00
  55   1    -0.01   0.00   0.01     0.56  -0.02  -0.52     0.04  -0.00  -0.04
  56   1    -0.00   0.00   0.00     0.00  -0.26  -0.26     0.00  -0.02  -0.02
  57   1     0.00  -0.00   0.00    -0.00   0.00  -0.00    -0.00   0.00  -0.00
  58   1    -0.00   0.00   0.00     0.00   0.00   0.00     0.00   0.00   0.00
  59   1    -0.00   0.00   0.00     0.00  -0.01  -0.01    -0.00   0.03   0.03
  60   1    -0.00  -0.00   0.00     0.03   0.01  -0.06    -0.01  -0.01   0.02
  61   1     0.00   0.01  -0.00    -0.02  -0.05   0.01     0.02   0.05  -0.01
  62   1    -0.00   0.00   0.00     0.00  -0.02  -0.02    -0.00   0.02   0.02
  63   1     0.00   0.00   0.00    -0.00  -0.00   0.00    -0.00  -0.00   0.00
  64   1     0.00   0.00  -0.00    -0.00  -0.00   0.00     0.00   0.00  -0.00
  65   1    -0.00  -0.00  -0.00     0.00   0.00   0.00    -0.00  -0.00  -0.00
  66   1    -0.03  -0.16  -0.20    -0.00  -0.00  -0.00    -0.00  -0.00  -0.00
  67   1    -0.42   0.02  -0.29    -0.01   0.00  -0.01    -0.00   0.00  -0.00
  68   1     0.51  -0.48  -0.15     0.01  -0.01  -0.00     0.00  -0.00  -0.00
  69   1    -0.03  -0.17  -0.23    -0.00  -0.00  -0.00    -0.00  -0.00  -0.00
  70   1    -0.00   0.00  -0.00     0.00   0.00   0.00     0.00   0.00   0.00
  71   1    -0.00   0.00   0.00     0.00   0.00   0.00     0.00   0.00  -0.00
                    199                    200                    201
                        a                      a                      a 
 Frequencies --  3081.4068              3088.4148              3088.8858
 Red. masses --     1.8710                 1.9132                 1.9118
 Frc consts  --     0.0000                 0.0000                 0.0000
 IR Inten    --   121.2006               139.8072               184.9784
 Raman Activ --     0.0000                 0.0000                 0.0000
 Depolar     --     0.0000                 0.0000                 0.0000
 Atom AN      X      Y      Z        X      Y      Z        X      Y      Z
   1   6    -0.00  -0.00   0.00     0.08   0.16  -0.11    -0.00  -0.00   0.00
   2   6    -0.00   0.00   0.00     0.14  -0.02  -0.08    -0.00   0.00   0.00
   3   6    -0.00   0.00  -0.00     0.03  -0.05   0.00    -0.00   0.00  -0.00
   4   6     0.00   0.00  -0.00    -0.00  -0.00   0.00     0.00   0.00  -0.00
   5   6    -0.00   0.00  -0.00    -0.00  -0.00   0.00     0.00  -0.00  -0.00
   6   6    -0.00   0.00  -0.00    -0.04   0.07  -0.00     0.00  -0.00  -0.00
   7   6    -0.00   0.00   0.00    -0.00   0.00  -0.00    -0.00   0.00   0.00
   8   6    -0.00   0.00   0.00     0.00  -0.00  -0.00     0.00   0.00  -0.00
   9   6     0.00  -0.00  -0.00    -0.00   0.00   0.00     0.00  -0.00  -0.00
  10   6     0.00  -0.01  -0.00     0.00  -0.00  -0.00     0.00  -0.00  -0.00
  11   6    -0.00  -0.01   0.00    -0.00  -0.00   0.00    -0.00  -0.00   0.00
  12   6     0.01   0.00  -0.00     0.01   0.00  -0.00    -0.00  -0.00   0.00
  13   6     0.00   0.00   0.00     0.00  -0.00   0.00    -0.00   0.00   0.00
  14   6     0.00  -0.01  -0.00     0.00  -0.00  -0.00     0.00  -0.00   0.00
  15   6     0.15  -0.05   0.19     0.00  -0.00   0.00     0.00  -0.00   0.00
  16   6     0.01   0.08   0.09     0.00   0.00   0.00     0.00   0.00   0.00
  17   6    -0.00   0.00  -0.00    -0.00   0.00  -0.00    -0.00   0.00  -0.00
  18   6     0.00  -0.00  -0.00    -0.00  -0.00  -0.00    -0.00   0.00   0.00
  19   6    -0.00   0.00  -0.00    -0.00   0.00  -0.00    -0.00   0.00   0.00
  20   6     0.00  -0.00  -0.00    -0.00   0.00   0.00     0.00  -0.00  -0.00
  21   6    -0.01  -0.01  -0.00     0.00   0.00   0.00    -0.03  -0.03  -0.00
  22   6     0.00  -0.00  -0.00     0.00  -0.00  -0.00    -0.01   0.00   0.01
  23   6     0.00  -0.00  -0.00    -0.00  -0.00  -0.00     0.00   0.00   0.00
  24   6    -0.00  -0.00  -0.00    -0.00  -0.00  -0.00     0.00   0.00   0.00
  25   6    -0.00   0.00   0.00    -0.00  -0.00   0.00     0.00  -0.00  -0.00
  26   6    -0.00   0.00  -0.00     0.00   0.00   0.00    -0.00   0.00   0.00
  27   6    -0.00  -0.00  -0.00     0.00   0.00  -0.00     0.00   0.00  -0.00
  28   6    -0.00  -0.00  -0.00    -0.00   0.00   0.00    -0.00   0.05   0.06
  29   6     0.00   0.00  -0.00    -0.00  -0.00   0.00    -0.10  -0.04   0.18
  30   6     0.00   0.00  -0.00    -0.00  -0.00   0.00    -0.07  -0.14   0.02
  31   6    -0.00   0.00   0.00     0.00  -0.00  -0.00     0.00  -0.04  -0.04
  32   6    -0.00  -0.00   0.00     0.00   0.00  -0.00     0.00   0.00  -0.00
  33   7     0.00   0.00  -0.00     0.00  -0.00  -0.00    -0.00  -0.00   0.00
  34   6    -0.00  -0.00  -0.00     0.00  -0.00  -0.00    -0.00  -0.00  -0.00
  35   6    -0.00   0.00   0.00     0.00  -0.00   0.00     0.00  -0.00   0.00
  36   6    -0.00   0.00   0.00    -0.00  -0.00  -0.00    -0.00  -0.00  -0.00
  37   6     0.01  -0.00   0.01    -0.00   0.00  -0.00    -0.01   0.00  -0.00
  38   6     0.00  -0.00  -0.00    -0.00   0.00   0.00    -0.00   0.00   0.00
  39   6     0.00   0.00   0.00     0.00   0.00   0.00     0.00   0.00   0.00
  40   6    -0.00  -0.00  -0.00    -0.00   0.00  -0.00     0.00  -0.00   0.00
  41   7     0.00  -0.00   0.00     0.00  -0.00   0.00     0.00  -0.00   0.00
  42   7    -0.00  -0.00   0.00     0.00   0.00  -0.00    -0.00  -0.00   0.00
  43   1     0.01   0.01  -0.01    -0.28  -0.55   0.37     0.01   0.01  -0.01
  44   1     0.01  -0.00  -0.01    -0.46   0.06   0.26     0.01  -0.00  -0.01
  45   1     0.00  -0.00   0.00    -0.09   0.17  -0.00     0.00  -0.00   0.00
  46   1     0.00  -0.00   0.00     0.13  -0.24   0.00    -0.00   0.00  -0.00
  47   1    -0.00  -0.00  -0.01    -0.00  -0.00  -0.00    -0.00  -0.00  -0.00
  48   1     0.01  -0.01   0.00     0.01  -0.01   0.00     0.00   0.00  -0.00
  49   1    -0.01   0.02   0.00    -0.01   0.01   0.00    -0.00   0.00   0.00
  50   1     0.02   0.03  -0.01     0.00   0.01  -0.00     0.00   0.01  -0.00
  51   1    -0.03  -0.00   0.01    -0.04  -0.00   0.01     0.02   0.00  -0.00
  52   1    -0.52   0.16  -0.67    -0.01   0.00  -0.01    -0.00   0.00  -0.00
  53   1    -0.02  -0.26  -0.31    -0.00  -0.01  -0.01    -0.00  -0.00  -0.00
  54   1     0.03   0.03   0.00    -0.01  -0.01  -0.00     0.11   0.09   0.01
  55   1    -0.01   0.00   0.01    -0.01   0.00   0.01     0.04  -0.00  -0.04
  56   1    -0.00   0.01   0.01    -0.00   0.00   0.00    -0.00  -0.01  -0.01
  57   1     0.00  -0.00  -0.00     0.00  -0.00   0.00     0.00  -0.00   0.00
  58   1     0.00   0.00   0.00    -0.00  -0.00  -0.00    -0.00  -0.00  -0.01
  59   1     0.00   0.00   0.00     0.00  -0.01  -0.01     0.01  -0.17  -0.18
  60   1    -0.00  -0.00   0.01     0.01   0.00  -0.02     0.34   0.15  -0.60
  61   1    -0.00  -0.01   0.00     0.01   0.01  -0.00     0.24   0.48  -0.05
  62   1     0.00  -0.00  -0.00    -0.00   0.00   0.00    -0.01   0.12   0.14
  63   1     0.00   0.00   0.00    -0.00   0.00   0.00    -0.00   0.00   0.00
  64   1    -0.00  -0.00   0.00    -0.00  -0.00   0.00    -0.00   0.00   0.00
  65   1     0.00   0.00   0.00     0.00   0.00   0.00     0.00   0.00   0.00
  66   1    -0.00  -0.00  -0.00     0.00   0.00   0.00     0.00   0.01   0.01
  67   1    -0.04   0.00  -0.02     0.01  -0.00   0.00     0.02  -0.00   0.01
  68   1    -0.01   0.01   0.00     0.00  -0.00  -0.00     0.01  -0.01  -0.00
  69   1    -0.00  -0.00  -0.00    -0.00  -0.00  -0.00    -0.00  -0.00  -0.00
  70   1     0.00  -0.00   0.00     0.00  -0.00  -0.00    -0.00  -0.00  -0.00
  71   1    -0.00   0.00   0.00     0.00   0.00  -0.00    -0.00   0.00   0.00
                    202                    203                    204
                        a                      a                      a 
 Frequencies --  3089.3990              3091.3501              3097.7715
 Red. masses --     1.9125                 1.8787                 1.8584
 Frc consts  --     0.0000                 0.0000                 0.0000
 IR Inten    --   140.1911                65.4224                77.2684
 Raman Activ --     0.0000                 0.0000                 0.0000
 Depolar     --     0.0000                 0.0000                 0.0000
 Atom AN      X      Y      Z        X      Y      Z        X      Y      Z
   1   6     0.00   0.00  -0.00     0.00   0.00  -0.00    -0.00  -0.01   0.00
   2   6     0.00  -0.00  -0.00     0.00  -0.00  -0.00    -0.00   0.00   0.00
   3   6     0.00  -0.00   0.00     0.00  -0.00  -0.00    -0.00   0.00  -0.00
   4   6    -0.00  -0.00   0.00     0.00  -0.00   0.00    -0.00  -0.00   0.00
   5   6    -0.00   0.00   0.00    -0.00   0.00   0.00    -0.00   0.00   0.00
   6   6     0.00  -0.00   0.00    -0.00   0.01  -0.00     0.00  -0.00   0.00
   7   6     0.00  -0.00  -0.00    -0.00   0.00  -0.00     0.00  -0.00  -0.00
   8   6     0.00  -0.00   0.00     0.00  -0.00  -0.00    -0.00   0.00   0.00
   9   6    -0.00   0.00   0.00    -0.00  -0.00   0.00    -0.00  -0.00   0.00
  10   6     0.00  -0.00  -0.00    -0.00   0.00   0.00    -0.02   0.02   0.00
  11   6    -0.00  -0.00   0.00     0.00   0.00  -0.00     0.04   0.08  -0.02
  12   6    -0.00  -0.00   0.00     0.00  -0.00  -0.00     0.26   0.00  -0.05
  13   6    -0.00   0.00   0.00    -0.00  -0.00   0.00     0.01  -0.01  -0.00
  14   6    -0.00   0.00   0.00    -0.00   0.00   0.00    -0.00   0.00   0.00
  15   6    -0.01   0.00  -0.01    -0.00   0.00  -0.01    -0.00   0.00  -0.00
  16   6    -0.00  -0.00  -0.01    -0.00  -0.00  -0.00    -0.00  -0.00  -0.00
  17   6    -0.00   0.00   0.00     0.00  -0.00  -0.00     0.00  -0.00  -0.00
  18   6     0.00  -0.00  -0.00     0.00   0.00   0.00     0.00   0.00   0.00
  19   6    -0.00   0.00   0.00    -0.00   0.00   0.00    -0.00   0.00   0.00
  20   6     0.00   0.00   0.00    -0.00  -0.01  -0.01     0.00   0.00  -0.00
  21   6     0.01   0.01   0.00    -0.18  -0.16  -0.01     0.00   0.00   0.00
  22   6     0.01  -0.00  -0.01    -0.09   0.00   0.09     0.00   0.00  -0.00
  23   6    -0.00  -0.00  -0.00     0.00   0.03   0.03    -0.00   0.00   0.00
  24   6    -0.00   0.00   0.00     0.00   0.00  -0.00     0.00  -0.00  -0.00
  25   6    -0.00  -0.00  -0.00     0.00   0.00   0.00    -0.00  -0.00   0.00
  26   6    -0.00   0.00  -0.00    -0.00  -0.00  -0.00     0.00   0.00   0.00
  27   6     0.00   0.00  -0.00    -0.00  -0.00   0.00     0.00   0.00   0.00
  28   6    -0.00   0.00   0.00     0.00  -0.01  -0.01    -0.00   0.01   0.01
  29   6    -0.00  -0.00   0.01     0.02   0.01  -0.03    -0.00  -0.00   0.00
  30   6    -0.00  -0.01   0.00     0.01   0.02  -0.00    -0.00  -0.00   0.00
  31   6     0.00  -0.00  -0.00    -0.00   0.01   0.01    -0.00  -0.00   0.00
  32   6     0.00   0.00  -0.00     0.00  -0.00  -0.00    -0.00   0.00  -0.00
  33   7    -0.00  -0.00   0.00    -0.00  -0.00   0.00     0.00  -0.00   0.00
  34   6     0.00   0.00   0.00     0.00   0.00   0.00    -0.00   0.00   0.00
  35   6    -0.00   0.00   0.00    -0.00   0.00  -0.00    -0.00  -0.00  -0.00
  36   6     0.01   0.05   0.06     0.00   0.00   0.01     0.00   0.00   0.00
  37   6     0.17  -0.01   0.12     0.01  -0.00   0.01     0.00  -0.00   0.00
  38   6     0.11  -0.11  -0.03     0.01  -0.01  -0.00     0.00  -0.00  -0.00
  39   6    -0.01  -0.03  -0.05    -0.00  -0.00  -0.00    -0.00  -0.00  -0.00
  40   6    -0.00   0.00  -0.00    -0.00  -0.00  -0.00     0.00  -0.00   0.00
  41   7     0.00  -0.00   0.00    -0.00   0.00  -0.00    -0.00   0.00  -0.00
  42   7     0.00   0.00  -0.00     0.00   0.00  -0.00     0.00   0.00  -0.00
  43   1    -0.00  -0.00   0.00    -0.01  -0.02   0.01     0.01   0.02  -0.01
  44   1    -0.01   0.00   0.00    -0.01   0.00   0.00     0.02  -0.00  -0.01
  45   1    -0.00   0.00  -0.00    -0.00   0.00   0.00     0.01  -0.01   0.00
  46   1    -0.00   0.00   0.00     0.01  -0.02   0.00    -0.01   0.01  -0.00
  47   1     0.00   0.00   0.00    -0.00  -0.00  -0.00     0.00   0.00   0.00
  48   1    -0.00   0.00  -0.00     0.00   0.00  -0.00    -0.00   0.00  -0.00
  49   1    -0.00   0.00   0.00     0.00  -0.01  -0.00     0.05  -0.08  -0.00
  50   1     0.00   0.00  -0.00    -0.00  -0.01   0.00    -0.12  -0.24   0.05
  51   1     0.01   0.00  -0.00    -0.01  -0.00   0.00    -0.90  -0.02   0.18
  52   1     0.02  -0.01   0.03     0.01  -0.00   0.02     0.01  -0.00   0.01
  53   1     0.00   0.01   0.02     0.00   0.01   0.01     0.00   0.01   0.01
  54   1    -0.04  -0.04  -0.00     0.63   0.56   0.04    -0.01  -0.01  -0.00
  55   1    -0.02   0.00   0.02     0.30  -0.01  -0.28    -0.00   0.00   0.00
  56   1     0.00   0.01   0.01    -0.00  -0.11  -0.10     0.00  -0.00  -0.00
  57   1     0.00  -0.00   0.00    -0.00   0.00  -0.00     0.00  -0.00   0.00
  58   1    -0.00   0.00  -0.00     0.00   0.00   0.00    -0.00  -0.00  -0.00
  59   1     0.00  -0.01  -0.01    -0.00   0.03   0.03     0.00  -0.02  -0.02
  60   1     0.01   0.01  -0.03    -0.05  -0.02   0.09     0.01   0.00  -0.01
  61   1     0.01   0.02  -0.00    -0.04  -0.08   0.01     0.00   0.00  -0.00
  62   1    -0.00   0.01   0.01     0.00  -0.02  -0.03    -0.00  -0.00  -0.00
  63   1     0.00  -0.00  -0.00    -0.00  -0.00  -0.00    -0.00  -0.00  -0.00
  64   1     0.00   0.00  -0.00     0.00   0.00  -0.00     0.00   0.00  -0.00
  65   1    -0.00  -0.01  -0.00    -0.00  -0.00  -0.00    -0.00  -0.00  -0.00
  66   1    -0.03  -0.16  -0.21    -0.00  -0.01  -0.02    -0.00  -0.00  -0.00
  67   1    -0.59   0.03  -0.41    -0.04   0.00  -0.03    -0.00   0.00  -0.00
  68   1    -0.38   0.36   0.11    -0.03   0.02   0.01    -0.00   0.00   0.00
  69   1     0.02   0.11   0.14     0.00   0.01   0.01     0.00   0.00   0.00
  70   1     0.00   0.00   0.00    -0.00   0.00   0.00     0.00   0.00   0.00
  71   1     0.00  -0.00  -0.00     0.00  -0.00   0.00     0.00  -0.00  -0.00
                    205                    206                    207
                        a                      a                      a 
 Frequencies --  3419.8772              3422.0538              3424.0002
 Red. masses --     1.8258                 1.8260                 1.8256
 Frc consts  --     0.0000                 0.0000                 0.0000
 IR Inten    --    10.2092                11.8147                13.5789
 Raman Activ --     0.0000                 0.0000                 0.0000
 Depolar     --     0.0000                 0.0000                 0.0000
 Atom AN      X      Y      Z        X      Y      Z        X      Y      Z
   1   6     0.00   0.00  -0.00    -0.00   0.00  -0.00    -0.00  -0.00   0.00
   2   6     0.00  -0.00   0.00    -0.00  -0.00   0.00    -0.00   0.00   0.00
   3   6     0.00   0.00  -0.00     0.00   0.00  -0.00    -0.00   0.00  -0.00
   4   6     0.00  -0.00  -0.00     0.00  -0.01  -0.00     0.00  -0.00  -0.00
   5   6    -0.00   0.00  -0.00    -0.00   0.00  -0.00    -0.00   0.00   0.00
   6   6    -0.00   0.00   0.00     0.00  -0.00   0.00     0.00  -0.00   0.00
   7   6    -0.00   0.00   0.00    -0.00  -0.00  -0.00     0.00  -0.00  -0.00
   8   6    -0.00   0.00  -0.00    -0.00   0.00  -0.00     0.00  -0.00  -0.00
   9   6     0.00  -0.00  -0.00     0.00  -0.01  -0.00    -0.00  -0.00  -0.00
  10   6    -0.00  -0.00   0.00    -0.00  -0.00   0.00    -0.00   0.00   0.00
  11   6     0.00  -0.00  -0.00     0.00  -0.00  -0.00     0.00   0.00  -0.00
  12   6    -0.00   0.00   0.00    -0.00   0.00   0.00     0.00  -0.00  -0.00
  13   6     0.00  -0.00  -0.00     0.00  -0.00   0.00    -0.00   0.00   0.00
  14   6     0.00  -0.00  -0.00     0.00   0.00  -0.00     0.00  -0.00  -0.00
  15   6     0.00   0.00   0.00    -0.00  -0.00  -0.00    -0.00   0.00  -0.00
  16   6     0.00   0.00   0.00    -0.00  -0.00  -0.00     0.00  -0.00   0.00
  17   6    -0.00   0.00   0.00     0.00  -0.00  -0.00    -0.00   0.00   0.01
  18   6    -0.00  -0.00  -0.00    -0.00   0.00   0.00    -0.00  -0.00  -0.00
  19   6     0.00   0.00  -0.00    -0.00  -0.00  -0.00     0.00   0.00   0.00
  20   6     0.00   0.00   0.00     0.00  -0.00  -0.00    -0.00   0.00   0.00
  21   6    -0.00  -0.00  -0.00    -0.00  -0.00  -0.00    -0.00  -0.00  -0.00
  22   6     0.00   0.00   0.00    -0.00  -0.00   0.00    -0.00   0.00   0.00
  23   6    -0.00  -0.00   0.00     0.00   0.00   0.00    -0.00   0.00   0.00
  24   6    -0.00   0.01   0.00     0.00  -0.00  -0.00     0.00   0.00  -0.00
  25   6    -0.00  -0.00  -0.00     0.00   0.00   0.00    -0.00  -0.00  -0.00
  26   6    -0.00   0.00  -0.00     0.00  -0.00  -0.00     0.00  -0.00  -0.00
  27   6     0.00  -0.00  -0.00    -0.00   0.00   0.00     0.00   0.00   0.00
  28   6     0.00   0.00   0.00    -0.00  -0.00  -0.00     0.00  -0.00  -0.00
  29   6     0.00  -0.00  -0.00     0.00   0.00  -0.00     0.00   0.00  -0.00
  30   6    -0.00  -0.00   0.00     0.00   0.00  -0.00     0.00   0.00  -0.00
  31   6     0.00   0.00  -0.00    -0.00  -0.00   0.00    -0.00   0.00   0.00
  32   6    -0.00   0.01   0.01     0.00  -0.00  -0.00     0.00  -0.00  -0.00
  33   7    -0.02   0.18   0.17     0.00  -0.01  -0.01     0.00  -0.00  -0.00
  34   6     0.00   0.00  -0.00    -0.00   0.00   0.00    -0.00  -0.00   0.00
  35   6    -0.00   0.00  -0.00     0.00   0.00   0.00    -0.00  -0.00  -0.00
  36   6    -0.00   0.00  -0.00    -0.00   0.00   0.00     0.00   0.00   0.00
  37   6    -0.00   0.00  -0.00     0.00   0.00   0.00    -0.00  -0.00  -0.00
  38   6    -0.00   0.00   0.00     0.00  -0.00  -0.00     0.00   0.00   0.00
  39   6    -0.00   0.00   0.00     0.00  -0.00  -0.00    -0.00   0.00  -0.00
  40   6     0.00   0.00   0.00     0.00  -0.00  -0.00     0.00   0.00   0.01
  41   7     0.00   0.00   0.00    -0.00  -0.00  -0.00     0.01   0.15   0.20
  42   7     0.00  -0.01  -0.00     0.12  -0.22  -0.02     0.00  -0.00  -0.00
  43   1    -0.00  -0.00   0.00     0.00   0.00  -0.00     0.00   0.00  -0.00
  44   1    -0.00   0.00   0.00     0.00   0.00  -0.00     0.00  -0.00  -0.00
  45   1    -0.00   0.00   0.00    -0.00   0.00   0.00     0.00  -0.00   0.00
  46   1     0.00  -0.00   0.00    -0.00   0.00   0.00    -0.00   0.00   0.00
  47   1    -0.00  -0.00  -0.00     0.00   0.00   0.00     0.00   0.00   0.00
  48   1     0.00  -0.00   0.00    -0.00   0.00  -0.00    -0.00   0.00  -0.00
  49   1    -0.00   0.00  -0.00     0.00   0.00  -0.00     0.00  -0.00  -0.00
  50   1    -0.00  -0.00   0.00    -0.00  -0.00   0.00    -0.00  -0.00   0.00
  51   1     0.00   0.00  -0.00    -0.00   0.00   0.00    -0.00  -0.00   0.00
  52   1    -0.00   0.00  -0.00     0.00  -0.00   0.00     0.00  -0.00   0.00
  53   1    -0.00  -0.00  -0.00     0.00   0.00   0.00    -0.00  -0.00  -0.00
  54   1    -0.00  -0.00  -0.00     0.00   0.00   0.00     0.00   0.00  -0.00
  55   1    -0.00  -0.00   0.00     0.00  -0.00  -0.00     0.00  -0.00  -0.00
  56   1     0.00  -0.00  -0.00    -0.00  -0.00   0.00    -0.00  -0.00  -0.00
  57   1     0.00  -0.00   0.00    -0.00   0.00  -0.00    -0.00   0.00  -0.00
  58   1    -0.00  -0.00  -0.00     0.00   0.00   0.00     0.00   0.00   0.00
  59   1    -0.00  -0.00  -0.00     0.00   0.00   0.00    -0.00   0.00   0.00
  60   1     0.00   0.00  -0.00    -0.00  -0.00   0.00    -0.00  -0.00   0.00
  61   1     0.00   0.00  -0.00    -0.00  -0.00   0.00    -0.00  -0.00   0.00
  62   1    -0.00  -0.00  -0.00     0.00   0.00  -0.00     0.00  -0.00  -0.00
  63   1     0.09  -0.70  -0.66    -0.00   0.03   0.02    -0.00   0.01   0.01
  64   1    -0.00  -0.00   0.00     0.00   0.00  -0.00     0.00   0.00  -0.00
  65   1     0.00  -0.00   0.00    -0.00  -0.00  -0.00    -0.00  -0.00  -0.00
  66   1     0.00   0.00   0.00    -0.00  -0.00  -0.00     0.00  -0.00  -0.00
  67   1     0.00  -0.00   0.00    -0.00   0.00  -0.00    -0.00  -0.00  -0.00
  68   1     0.00  -0.00  -0.00    -0.00   0.00   0.00    -0.00   0.00   0.00
  69   1    -0.00  -0.00  -0.00    -0.00   0.00   0.00     0.00  -0.00  -0.00
  70   1    -0.00  -0.00  -0.01     0.00   0.01   0.02    -0.03  -0.56  -0.79
  71   1    -0.02   0.03   0.00    -0.45   0.85   0.08    -0.01   0.02   0.00
