$hessian                                                                        
        0.6075704691  -0.0996409180  -0.1029958034  -0.3013591430   0.0423882820
        0.0590340111  -0.0196310128   0.0704304492  -0.0502302502  -0.0482699357
       -0.0095258613   0.0240903895   0.0474333380  -0.0449210202   0.0181451414
       -0.1744138855  -0.0305022815   0.0741480096   0.0008767472   0.0038151440
       -0.0005445854   0.0002376139   0.0008167616  -0.0006094262   0.0003716223
       -0.0007276308   0.0007349140   0.0004433948  -0.0000177226   0.0000452545
        0.0003996299   0.0003389115  -0.0000027382  -0.0001334958   0.0003428834
       -0.0007904687   0.0004239274  -0.0007717476  -0.0002242499  -0.0018012523
        0.0002822933   0.0002492342   0.0013227205   0.0005053957  -0.0008315488
       -0.0010177057   0.0003438475  -0.0010436096   0.0019459563  -0.0003496241
       -0.0001618182  -0.0014370039  -0.0002070039   0.0012109706   0.0013106100
       -0.0000330473   0.0008830653  -0.0000038702  -0.0001553105   0.0001838939
        0.0003250443   0.0002105759  -0.0002425832  -0.0001953395   0.0000345841
        0.0002368228   0.0000951782  -0.0001151478   0.0000515137  -0.0004596761
        0.0002926300   0.0003271204   0.0002479942   0.0001936534  -0.0003484392
       -0.0000680036  -0.0000778309   0.0000633977   0.0001474011  -0.0000718536
       -0.0000069253   0.0000751236   0.0001154495  -0.0000939518   0.0001175589
       -0.0000259951  -0.0000630256  -0.0001006722  -0.0000419444   0.0001201907
       -0.0001108361   0.0001075423   0.0000591265   0.0000100232  -0.0000633584
        0.0000756973   0.0001877656  -0.0003198454  -0.0003087594   0.0001655992
        0.0001473046  -0.0001725766  -0.0004369453  -0.0000737253   0.0004661120
       -0.0000888756  -0.0000113098   0.0001208132  -0.0001670295  -0.0000476841
        0.0002996930   0.0001388541   0.0000972420  -0.0005332879   0.0005181687
       -0.0000442500   0.0000657194  -0.0001514213   0.0000973023  -0.0005156314
       -0.0010089655   0.0000751906   0.0003948057   0.0010257316   0.0013437516
       -0.0020991204  -0.0742596206   0.0722133746  -0.0435333258  -0.0198381757
        0.0039160257   0.0040992896   0.0011679438   0.0027760234   0.0002404158
       -0.0207067420  -0.0128574211   0.0186340230  -0.0012484128   0.0003164274
        0.0016038747  -0.0003324466  -0.0000640473  -0.0002051256  -0.0000150463
       -0.0001571850  -0.0000984116   0.0000443987   0.0000166356   0.0000047306
       -0.0000262455   0.0001536013   0.0000968343   0.0000088216   0.0000095012
        0.0000592437  -0.0000651650  -0.0000432628   0.0000098742  -0.0000575153
        0.0000514138   0.0000628560   0.0001229769  -0.0000154254  -0.0000012256
        0.0000379323  -0.0000007680  -0.0000458287  -0.0000535669  -0.0000278997
       -0.0000308068   0.0000659340  -0.0000051885   0.0000043272  -0.0000133703
        0.0000050702   0.0000006015   0.0000120491  -0.0000571753   0.0000025825
        0.0000256683  -0.0000536563   0.0000247072   0.0000156210  -0.0000017117
       -0.0000349503  -0.0000395723  -0.0000026103   0.0000700946  -0.0000105711
        0.0000753537  -0.0000050677   0.0000042436  -0.0000889586  -0.0000343056
        0.0000253476   0.0000236820  -0.0000462055  -0.0000330735  -0.0000010983
       -0.0000258550  -0.0000648612   0.0000126246  -0.0000388955  -0.0000081355
       -0.0000413249   0.0000480318   0.0000958013   0.0000511584  -0.0001508349
        0.0006103800  -0.0004372410   0.0001022546
       -0.0996409180   0.4598943752  -0.2523739529   0.1012877145  -0.0947346803
        0.0024277509   0.0269323913  -0.0138882790   0.0022946795  -0.0088084778
        0.0025347843  -0.0038434946  -0.0010021766  -0.0319621015   0.0277395543
       -0.0895276028  -0.1306704517   0.1044345149   0.0028645793   0.0004183036
        0.0046849936  -0.0000188333   0.0002641406  -0.0000828156   0.0011273016
       -0.0004431951  -0.0003982523  -0.0003618539   0.0009292939  -0.0004681333
       -0.0002183341  -0.0000837331   0.0001387589  -0.0002949384   0.0004342099
       -0.0001081129  -0.0003738408  -0.0008331443   0.0004281631   0.0006274364
       -0.0001932963   0.0002010991  -0.0004370016  -0.0001260036   0.0001889981
        0.0004466923  -0.0001693040   0.0004948424  -0.0004326514   0.0001931533
       -0.0003210317   0.0002263489   0.0000460998  -0.0001135174  -0.0002613345
        0.0002391515  -0.0005005415  -0.0001681736  -0.0000765223   0.0001158343
        0.0001495298  -0.0000193503  -0.0000180209  -0.0000923640  -0.0000212637
        0.0000727136   0.0000602953  -0.0000710517   0.0000209582   0.0000589763
       -0.0000669716   0.0000048923   0.0000380444   0.0000104227   0.0000186381
       -0.0000130741   0.0000302388  -0.0000349459   0.0000151963   0.0000043581
       -0.0000259582   0.0000094337   0.0000004206  -0.0000011606  -0.0000009155
        0.0000063456  -0.0000062533  -0.0000083343  -0.0000067081   0.0000095628
       -0.0000211241   0.0000246310  -0.0000099644   0.0000091327  -0.0000419289
        0.0000556550  -0.0000500910   0.0000947025  -0.0000421280  -0.0000057486
        0.0000124349   0.0000027736   0.0000670725   0.0000351660  -0.0001726831
        0.0000835429  -0.0000083531   0.0000370976  -0.0000014267   0.0000241581
       -0.0000976993  -0.0000230476  -0.0000281327   0.0001613550  -0.0001525440
        0.0000238082  -0.0000480982   0.0000308803  -0.0000570679   0.0001585620
        0.0001887624  -0.0000185411  -0.0000613049   0.0018541519  -0.0030376585
        0.0026347709   0.0721399977  -0.1959461518   0.1086259049  -0.0139055366
        0.0038515508   0.0024963596   0.0032564962  -0.0006785452   0.0058353027
        0.0052368604   0.0040271226  -0.0049827876  -0.0007603150  -0.0001787763
        0.0010733383   0.0003526044   0.0000406182  -0.0003412247  -0.0000179529
        0.0000251576  -0.0000043280  -0.0000178885  -0.0000409598  -0.0000354597
       -0.0000272135  -0.0000261568  -0.0000218931   0.0000049155  -0.0000044749
       -0.0000229254   0.0000118868   0.0000116237  -0.0000087866  -0.0001021441
       -0.0000198661  -0.0000398813   0.0000553560   0.0001304307  -0.0000921521
        0.0000093912   0.0000013789  -0.0000254071  -0.0000043510   0.0000014512
       -0.0000034022   0.0000064667   0.0000191841   0.0000250579  -0.0000001708
        0.0000015028   0.0000013608   0.0000007797  -0.0000142211   0.0000050921
        0.0000067768  -0.0000066346   0.0000089674   0.0000042801  -0.0000024916
       -0.0000015300   0.0000058725  -0.0000089567   0.0000068992  -0.0000360014
       -0.0000228177  -0.0000203608   0.0000020951   0.0000150830   0.0000080644
        0.0000002881   0.0000072019  -0.0000043560   0.0000003940  -0.0000088597
        0.0000038499  -0.0000048207   0.0000029517  -0.0000134486  -0.0000037738
       -0.0000106062   0.0000043602   0.0000000828  -0.0000093016   0.0000111623
       -0.0003770519   0.0001811032  -0.0000858755
       -0.1029958034  -0.2523739529   0.3570495484   0.0105261895   0.0246975524
       -0.0700670194  -0.0146061282  -0.0138420427   0.0187159138   0.0238673338
       -0.0030237317  -0.0116452062  -0.0170946183   0.0444085947  -0.0299179930
        0.1227966440   0.0814036948  -0.1589598395  -0.0004780629   0.0043052790
        0.0034289336   0.0008733503   0.0003675951  -0.0004215585  -0.0014411288
        0.0002313340   0.0001410028   0.0002046466  -0.0005107265   0.0002050325
       -0.0002712929  -0.0001967320   0.0000222060   0.0004979761  -0.0004992001
        0.0004777802  -0.0003954578   0.0012190204  -0.0003934142   0.0004813502
        0.0000554209  -0.0003634326  -0.0003526201  -0.0001727069   0.0002487068
        0.0001927420  -0.0000162981   0.0000639129  -0.0007658836   0.0000030802
        0.0003974891   0.0006609221   0.0000555960  -0.0005076399  -0.0004776350
       -0.0001619419   0.0000556169   0.0002128355   0.0001823041  -0.0002563633
       -0.0002382473  -0.0002618181   0.0001338806   0.0001274207  -0.0001066328
       -0.0003967308  -0.0002201819   0.0001826829   0.0000521555   0.0000901492
        0.0000343405  -0.0001590563  -0.0001639620  -0.0000349314   0.0001565837
        0.0000485069  -0.0000007713   0.0000060196  -0.0001012832   0.0000220785
        0.0000496570  -0.0000373516  -0.0000476605   0.0000313936  -0.0000455123
        0.0000012242   0.0000301889   0.0000440970   0.0000237323  -0.0000656898
        0.0000787023  -0.0000846099  -0.0000043664  -0.0000149222   0.0001302053
       -0.0001449696   0.0000153043  -0.0000861823   0.0002090753  -0.0000857310
       -0.0000825528   0.0000725143   0.0001600341   0.0000207827  -0.0001129607
       -0.0000079536   0.0000064623  -0.0000794591   0.0000724132   0.0000105343
       -0.0000674172  -0.0000398739  -0.0000351589   0.0001422952  -0.0001454309
        0.0000132960  -0.0000060141   0.0000592224  -0.0000086264   0.0001533201
        0.0005047157  -0.0000338418  -0.0001184347  -0.0015161062   0.0021259054
       -0.0016369989  -0.0435456341   0.1088548485  -0.1048185069   0.0190447378
       -0.0041770672  -0.0030092218  -0.0002474316   0.0060124478   0.0029204878
        0.0039275823   0.0021235228  -0.0024799278   0.0000238579  -0.0007916380
        0.0002920109   0.0004683542   0.0000302097  -0.0000056343   0.0000204441
        0.0000431059   0.0000464200  -0.0000045433   0.0000245951   0.0000190936
        0.0000313055  -0.0000139410  -0.0000474206  -0.0000025563  -0.0000023177
        0.0000152323   0.0000066818   0.0000177139   0.0000171194   0.0001417647
        0.0000491389  -0.0000146157   0.0001077276  -0.0001988700   0.0003773368
       -0.0000278079   0.0000133593   0.0000482378   0.0000240661   0.0000027765
        0.0000155142  -0.0000456110  -0.0000165127  -0.0000172474   0.0000024673
       -0.0000042323  -0.0000019954  -0.0000051752   0.0000291242  -0.0000030830
       -0.0000130166   0.0000226381  -0.0000180331  -0.0000124475   0.0000024558
        0.0000152075   0.0000078680   0.0000189858  -0.0000399734   0.0000381463
       -0.0000175888   0.0000126530  -0.0000042243   0.0000369619   0.0000056361
       -0.0000044594  -0.0000137574   0.0000294049   0.0000109852   0.0000073360
        0.0000090985   0.0000257478  -0.0000052615   0.0000326853   0.0000049663
        0.0000254048  -0.0000173938  -0.0000408154  -0.0000232466   0.0000481855
        0.0000476508   0.0000292108   0.0000500668
       -0.3013591430   0.1012877145   0.0105261895   0.6154501556  -0.0836655231
       -0.1169252522  -0.1188527241   0.0465634419  -0.0102824385   0.0475045850
        0.0002920183  -0.0190945334  -0.0306194891   0.0305885784  -0.0148268665
       -0.0471196470  -0.0442293250   0.0547607723  -0.0006323837  -0.0005092613
        0.0005525324   0.0009678909   0.0000137978  -0.0003557446   0.0004555559
       -0.0012090019   0.0004718389  -0.0012546815   0.0012588323  -0.0008262754
       -0.0011516480  -0.0006110576   0.0001622326   0.0000917117  -0.0000583103
        0.0009061577  -0.0009355465   0.0003298090   0.0007032121   0.0031120807
       -0.0005043314  -0.0001195023  -0.0023599503  -0.0009054338   0.0014034535
        0.0019746470  -0.0006970948   0.0020822325  -0.0033740633   0.0007567762
       -0.0003286040   0.0021231759   0.0003781498  -0.0018507489  -0.0019842994
        0.0004524408  -0.0018497928  -0.0000832447   0.0001675808  -0.0002363242
       -0.0005218587  -0.0000900850   0.0002421314   0.0000947714  -0.0001841696
       -0.0000294994  -0.0000673632   0.0000003715  -0.0001380416   0.0005590825
       -0.0001464921  -0.0004537296  -0.0002353245  -0.0002856736   0.0005070073
        0.0000836509   0.0001039365  -0.0001435979  -0.0002364211   0.0001113503
        0.0000258690  -0.0001024838  -0.0001614558   0.0001061377  -0.0001662343
        0.0000414510   0.0000767692   0.0001181622   0.0000477381  -0.0001458797
        0.0001176515  -0.0001441155  -0.0000554507   0.0000138396   0.0001433576
       -0.0001302859  -0.0001975022   0.0002718824   0.0003639940  -0.0002728486
       -0.0001824689   0.0003073725   0.0007890569   0.0001222899  -0.0007804476
        0.0001730878   0.0000235606  -0.0001614867   0.0002748266   0.0000601323
       -0.0004669663  -0.0002055063  -0.0001600838   0.0008734415  -0.0008535416
        0.0000614808  -0.0001243169   0.0003098363  -0.0001560345   0.0009266616
        0.0018160196  -0.0001423046  -0.0007289863  -0.0008399492  -0.0037488163
        0.0068672420  -0.0120034769   0.0050893319   0.0000649008  -0.1366632140
       -0.0731349965   0.0988170073  -0.0131092726   0.0234489815  -0.0144633229
       -0.0010361202  -0.0007582273   0.0039530358   0.0006420010  -0.0003985814
       -0.0008495444   0.0004354864   0.0001523539   0.0001122748   0.0000821003
        0.0001923849   0.0001691782  -0.0000574455  -0.0000719272  -0.0000151723
        0.0000590282  -0.0002052412  -0.0001399992  -0.0000131828  -0.0000256561
       -0.0000873470   0.0001065268   0.0000780207   0.0000060284   0.0001690585
        0.0000013315   0.0000618427   0.0000122942  -0.0000579514  -0.0000399793
        0.0000199816   0.0000193865   0.0000424004   0.0000732610   0.0000218753
        0.0000547167  -0.0000829992   0.0000285048   0.0000335390   0.0000279204
       -0.0000057154  -0.0000070467  -0.0000097178   0.0000782303  -0.0000040483
       -0.0000227005   0.0000697062  -0.0000437992  -0.0000018332   0.0000026101
        0.0000265483   0.0000424353   0.0000079563  -0.0000731109   0.0000184519
       -0.0001250643   0.0000585589  -0.0000046528   0.0001225116   0.0000551410
       -0.0000399631  -0.0000379977   0.0000697842   0.0000318520   0.0000049156
        0.0000270482   0.0000765551  -0.0000191488   0.0000634051  -0.0000042353
        0.0000627863  -0.0000620165  -0.0001669614  -0.0000886661   0.0002588458
       -0.0011851113   0.0002626341   0.0001006551
        0.0423882820  -0.0947346803   0.0246975524  -0.0836655231   0.4552347005
       -0.2524060292   0.1035963377  -0.2248340948   0.1134272175  -0.0403030843
       -0.0331928024   0.0420986258   0.0264549767  -0.0240877376   0.0056944950
       -0.0010044609   0.0341935025  -0.0271197625  -0.0001989359   0.0000171103
        0.0007387979  -0.0002110153  -0.0000162040   0.0000427093  -0.0007466462
        0.0002274743   0.0018921068   0.0008116232  -0.0008475485   0.0003304826
        0.0004552849   0.0001543508  -0.0001643639   0.0001817428  -0.0002588392
       -0.0003718700   0.0005084495   0.0000439957  -0.0008143713  -0.0017480865
        0.0003189913  -0.0000208395   0.0013168333   0.0004821405  -0.0007534191
       -0.0011321213   0.0004019401  -0.0011877826   0.0018272698  -0.0004268771
        0.0002245523  -0.0011908852  -0.0001946302   0.0010017328   0.0011433839
       -0.0002864725   0.0010690767   0.0000839448  -0.0000912563   0.0001533909
        0.0002463135   0.0001093058  -0.0001210726  -0.0001035003   0.0000614156
        0.0001237828   0.0001219455   0.0000414883   0.0000927514  -0.0002890852
       -0.0000235222   0.0002664328   0.0001124575   0.0001562624  -0.0002587252
       -0.0000494521  -0.0000519284   0.0000794730   0.0001258827  -0.0000530300
       -0.0000309221   0.0000664644   0.0000793901  -0.0000344462   0.0000798377
       -0.0000227324  -0.0000296547  -0.0000498246  -0.0000311634   0.0000679112
       -0.0000489872   0.0000911675   0.0000110171  -0.0000166456  -0.0001306683
        0.0001114403   0.0000878560  -0.0000313321  -0.0001962829   0.0001354967
        0.0000855077  -0.0001507006  -0.0004221632  -0.0000768347   0.0005031522
       -0.0001550196   0.0000032033   0.0000434335  -0.0001269092  -0.0000353586
        0.0002901718   0.0001008963   0.0000998207  -0.0005238931   0.0005085524
       -0.0000450335   0.0001027866  -0.0001769183   0.0000896436  -0.0005559252
       -0.0009197374   0.0000643905   0.0003780048  -0.0013998182   0.0039433767
       -0.0002135448   0.0232102929  -0.0089187897  -0.0012677947  -0.0735800104
       -0.1011290290   0.0828123549   0.0053480538  -0.0082753974   0.0045844204
       -0.0011803951   0.0018649208   0.0050450648  -0.0005356599   0.0001531981
        0.0006286490  -0.0000253107  -0.0001481636  -0.0001153314  -0.0001038563
       -0.0001003417  -0.0000664610   0.0000179043   0.0000966983   0.0000281735
       -0.0000317601   0.0001756424   0.0001224948  -0.0000013258   0.0000283533
        0.0000147689  -0.0000379862  -0.0000341708  -0.0000320276  -0.0000621861
        0.0000079243  -0.0000066004  -0.0000640678   0.0000686483  -0.0000624709
        0.0000082817   0.0000060994  -0.0000662036  -0.0000313319   0.0000003902
       -0.0000337000   0.0000469719   0.0000014594  -0.0000319780  -0.0000103797
        0.0000034307  -0.0000143581   0.0000041437  -0.0000612719  -0.0000100960
        0.0000084753  -0.0000474587   0.0000359214  -0.0000087745  -0.0000089016
       -0.0000120068  -0.0000241322  -0.0000237082  -0.0000007309  -0.0000075249
        0.0000553604  -0.0000232530  -0.0000022103  -0.0000448134  -0.0000220520
        0.0000234396   0.0000357773  -0.0000353999  -0.0000118502  -0.0000116147
       -0.0000001761  -0.0000379485   0.0000196601  -0.0000614588   0.0000048694
       -0.0000491332   0.0000293898   0.0000869059   0.0000500405  -0.0001242398
        0.0006023607  -0.0001412413   0.0001976095
        0.0590340111   0.0024277509  -0.0700670194  -0.1169252522  -0.2524060292
        0.3656815736  -0.0572045974   0.1342931584  -0.1322772420   0.0146942911
        0.0267940017  -0.0296708215  -0.0119031703   0.0047473228  -0.0032879505
        0.0189442827  -0.0104650936   0.0029532958   0.0001671997   0.0001537487
       -0.0009316330  -0.0002444719  -0.0002680096   0.0002215040   0.0004049173
        0.0025194133  -0.0009263646   0.0001381569  -0.0001966618   0.0000157171
        0.0001709569   0.0000205367  -0.0001749902  -0.0002260681   0.0001066477
        0.0000389838  -0.0000322249   0.0001498223   0.0000801099   0.0001463455
       -0.0000752942  -0.0000323770  -0.0000793475  -0.0000186072  -0.0000113160
        0.0000829217  -0.0000101023   0.0000273746  -0.0001519410  -0.0000053103
        0.0001013646   0.0002473803   0.0000007953  -0.0000776615  -0.0001399636
       -0.0000050434   0.0000000368  -0.0000049424  -0.0000018470  -0.0000273741
        0.0000989339  -0.0000821997   0.0000415455   0.0000311197   0.0000111397
       -0.0000895810  -0.0000899762  -0.0000049208   0.0000093493  -0.0000315338
        0.0001434178  -0.0000166946  -0.0000275456   0.0000545888  -0.0000214658
        0.0000060537   0.0000043812   0.0000025414  -0.0000108085  -0.0000020726
        0.0000203020  -0.0000070715   0.0000087188  -0.0000270341   0.0000109828
       -0.0000058571  -0.0000162149  -0.0000167829   0.0000021459   0.0000029508
       -0.0000054137  -0.0000124800   0.0000132843   0.0000122162   0.0000861461
       -0.0000649642   0.0000270587  -0.0001401403  -0.0000011633   0.0000064123
       -0.0000006962  -0.0000293294   0.0000110259   0.0000322072  -0.0001455584
        0.0000858000  -0.0000160738   0.0000464638  -0.0000265772   0.0000228331
       -0.0000874924  -0.0000041180  -0.0000280700   0.0001060308  -0.0001021795
        0.0000247506  -0.0000537733   0.0000039682  -0.0000235827   0.0000930611
        0.0000585203  -0.0000043830   0.0000297719   0.0037280497   0.0008008171
        0.0031626935  -0.0147647129   0.0053393763   0.0009222017   0.0990595505
        0.0828289318  -0.1389677766   0.0003632165  -0.0020536119   0.0013569534
        0.0043166372   0.0049349606   0.0018003049   0.0002035317   0.0001058279
       -0.0001784421  -0.0000298980   0.0000168112   0.0001259834   0.0000622652
        0.0000043566   0.0000307591   0.0000345028  -0.0000031178   0.0000087058
        0.0000048556  -0.0000581222  -0.0000136953   0.0000092244  -0.0000166362
        0.0000387655  -0.0000282751  -0.0000096069   0.0000216784  -0.0000517339
        0.0000144620  -0.0000032504  -0.0000087652  -0.0000504057   0.0000407480
       -0.0000140316   0.0000102794   0.0000453027  -0.0000055806  -0.0000125867
       -0.0000079153  -0.0000094640  -0.0000156773   0.0000019141  -0.0000105765
       -0.0000046126   0.0000100936  -0.0000009387   0.0000061492   0.0000065098
        0.0000068699   0.0000052840  -0.0000148029   0.0000068804   0.0000103873
       -0.0000034736   0.0000015264   0.0000325727   0.0000381522  -0.0000071344
        0.0000072465  -0.0000102838   0.0000030702  -0.0000080307  -0.0000084353
        0.0000052888  -0.0000072856  -0.0000039143  -0.0000041748   0.0000090049
       -0.0000133850  -0.0000039208  -0.0000044465   0.0000192240  -0.0000028153
        0.0000095348   0.0000009663   0.0000039390  -0.0000111305  -0.0000215282
       -0.0000159556   0.0002882159   0.0001687061
       -0.0196310128   0.0269323913  -0.0146061282  -0.1188527241   0.1035963377
       -0.0572045974   0.6106599144  -0.1081500134  -0.0996455953  -0.1760390823
       -0.0800525832   0.1134250126  -0.0368617399  -0.0036023803   0.0174088756
        0.0018191554  -0.0045716211   0.0017339715  -0.0040199625   0.0028376793
        0.0015897383   0.0013424406   0.0001155275  -0.0009222463  -0.0009169817
       -0.0000067242  -0.0012572670  -0.0006260773   0.0019497787  -0.0010403582
       -0.0010526949  -0.0000778981   0.0001539208   0.0000043252   0.0000149542
        0.0004408711  -0.0005788268   0.0000724468   0.0004841504   0.0020063205
       -0.0004687243   0.0002191164  -0.0015554521  -0.0006250106   0.0008644982
        0.0014687565  -0.0005494475   0.0016855655  -0.0023957213   0.0006381419
       -0.0006554281   0.0012017562   0.0002769035  -0.0010537389  -0.0010691110
        0.0004966828  -0.0014472725  -0.0002169714   0.0001364928   0.0000482156
       -0.0002813872   0.0000036321   0.0001162398  -0.0000100699  -0.0000585158
        0.0000220321   0.0000041645  -0.0001014135  -0.0001614901   0.0004440891
       -0.0002350832  -0.0002580918  -0.0000573257  -0.0003055197   0.0003519063
        0.0000725450   0.0001064735  -0.0001244510  -0.0001752008   0.0000840927
        0.0000023140  -0.0000636261  -0.0001301832   0.0000909921  -0.0001401779
        0.0000358530   0.0000711322   0.0000952583   0.0000379809  -0.0001232470
        0.0000916692  -0.0001152345  -0.0000663837   0.0000273757   0.0000707009
       -0.0000527382  -0.0001744398   0.0002492834   0.0002361561  -0.0001815378
       -0.0001085075   0.0001862447   0.0005311199   0.0000815172  -0.0005000626
        0.0001189121   0.0000190131  -0.0001268322   0.0001732100   0.0000405747
       -0.0003159317  -0.0001627908  -0.0001062688   0.0005871585  -0.0005648503
        0.0000330181  -0.0000600755   0.0001607533  -0.0000846495   0.0005527467
        0.0014537702  -0.0001481131  -0.0004253489   0.0119056049   0.0012046441
       -0.0007364210  -0.0046930178   0.0032106142   0.0018037629   0.0052061704
       -0.0139417052   0.0096910518  -0.2695154145   0.0704550456   0.0300753795
        0.0008119755  -0.0002215565  -0.0000972689  -0.0003251826  -0.0001400510
        0.0002260285  -0.0006907588  -0.0002616951   0.0006646908   0.0000429191
        0.0001674575   0.0000779806  -0.0000179015   0.0000005932  -0.0000780201
        0.0000169868  -0.0001017025  -0.0001450692  -0.0000181363  -0.0000077528
       -0.0000801214   0.0000843682   0.0000677934  -0.0000038076   0.0001228221
       -0.0000158208   0.0000022849  -0.0000047819   0.0000541454   0.0000281431
        0.0000570248  -0.0000102103   0.0000155135   0.0000448491   0.0000205383
        0.0000499131  -0.0000658633   0.0000535841   0.0000437915   0.0000335393
       -0.0000023811  -0.0000214678   0.0000009097   0.0000468973  -0.0000147738
       -0.0000185978   0.0000490379  -0.0000182701  -0.0000066360   0.0000132284
        0.0000365869   0.0000525228   0.0000015640  -0.0000565900   0.0000146164
       -0.0000827080   0.0000340569   0.0000021688   0.0000872347   0.0000398216
       -0.0000228477  -0.0000165763   0.0000481440   0.0000228454  -0.0000074624
        0.0000261390   0.0000502296  -0.0000104565   0.0000237101  -0.0000015052
        0.0000279423  -0.0000401553  -0.0001197776  -0.0000650774   0.0001926049
        0.0009830960   0.0010932509  -0.0020112122
        0.0704304492  -0.0138882790  -0.0138420427   0.0465634419  -0.2248340948
        0.1342931584  -0.1081500134   0.4584865098  -0.2525605407  -0.0338775616
       -0.1139938476   0.0675344768  -0.0344528371   0.0288180692  -0.0107461850
       -0.0091272365  -0.0321415478   0.0272116507   0.0036299919   0.0019182904
        0.0015435148   0.0006268772  -0.0003003857  -0.0001900311   0.0050430663
       -0.0007362003   0.0012346405  -0.0022775114  -0.0004537369   0.0004143217
       -0.0000094618  -0.0003215928  -0.0001978871  -0.0006415467   0.0005008527
        0.0004369374  -0.0005610804  -0.0000844462   0.0007901482   0.0022858409
       -0.0006218727   0.0003861458  -0.0017054465  -0.0006266895   0.0008711676
        0.0016178559  -0.0005899241   0.0018058016  -0.0024339689   0.0006667475
       -0.0006670790   0.0014203720   0.0002616968  -0.0010977949  -0.0014036522
        0.0005774254  -0.0016707259  -0.0002566614   0.0000509738   0.0000115629
       -0.0001550216  -0.0001272534   0.0000371293  -0.0000154479  -0.0000574377
       -0.0000692847  -0.0001170686  -0.0001508404  -0.0001524242   0.0003578004
       -0.0000548860  -0.0002197334   0.0000042290  -0.0002497855   0.0002584751
        0.0000464134   0.0000859198  -0.0001185468  -0.0001254456   0.0000648070
        0.0000309927  -0.0000823249  -0.0000873683   0.0000239029  -0.0000899550
        0.0000267474   0.0000148074   0.0000479024   0.0000468843  -0.0000860667
        0.0000452735  -0.0000959203  -0.0000226515   0.0000159279   0.0001620307
       -0.0001124378  -0.0001463848   0.0000890017   0.0002525158  -0.0001672536
       -0.0001050716   0.0001596633   0.0004818111   0.0001164268  -0.0006998379
        0.0002592005  -0.0000325013   0.0000233911   0.0001131597   0.0000730338
       -0.0004086810  -0.0001237223  -0.0001390072   0.0007094849  -0.0006505598
        0.0000824517  -0.0001695277   0.0001689772  -0.0001287763   0.0006720326
        0.0012891261  -0.0001168119  -0.0003865488  -0.0134725862  -0.0314475832
        0.0349234183   0.0027485969   0.0027353694   0.0024759458   0.0039597869
       -0.0133646662   0.0099592369   0.0714523880  -0.0605569111  -0.0024392192
       -0.0003884845  -0.0002666355   0.0003478137   0.0000555052  -0.0003709093
        0.0000484888   0.0006849940   0.0005828596  -0.0004419163  -0.0000430487
        0.0002785226   0.0001530990  -0.0000984296  -0.0002138550   0.0000677967
       -0.0000119513  -0.0002128333  -0.0001631237   0.0000091010  -0.0000377229
       -0.0000293768   0.0000311291   0.0000469555   0.0000413923   0.0000294199
        0.0000496329   0.0000291820   0.0001120230  -0.0000508413   0.0000425030
       -0.0000178045   0.0000362572   0.0000693701   0.0000169286  -0.0000095856
        0.0000325279  -0.0000577961   0.0000003490   0.0000414719   0.0000093474
       -0.0000051150   0.0000242066  -0.0000079760   0.0000645434   0.0000208939
       -0.0000073380   0.0000511177  -0.0000379030   0.0000047398   0.0000078873
        0.0000241201   0.0000476410   0.0000323789  -0.0000069074   0.0000146801
       -0.0000569529   0.0000193760   0.0000143367   0.0000500557   0.0000239522
       -0.0000187754  -0.0000437567   0.0000276890   0.0000067409   0.0000136048
       -0.0000116949   0.0000337718  -0.0000242054   0.0000682635  -0.0000129501
        0.0000533063  -0.0000274578  -0.0000964573  -0.0000738585   0.0001311838
       -0.0028750869   0.0006430003  -0.0007122273
       -0.0502302502   0.0022946795   0.0187159138  -0.0102824385   0.1134272175
       -0.1322772420  -0.0996455953  -0.2525605407   0.3538071122   0.0750950023
        0.0868840263  -0.1475198225   0.0439072972  -0.0236776068   0.0020862029
        0.0053986304   0.0255490653  -0.0274799604   0.0014531951   0.0019122423
        0.0041984202   0.0000490924   0.0008326000   0.0000240884  -0.0044852717
        0.0003792800   0.0018032151   0.0020204696   0.0003656870  -0.0000038597
       -0.0000106767   0.0003598633   0.0000654343   0.0006057202  -0.0003299427
       -0.0003998879   0.0001103798  -0.0003195472  -0.0009500395  -0.0020894796
        0.0005495828  -0.0002931182   0.0016041922   0.0006265653  -0.0008174662
       -0.0015485607   0.0005842692  -0.0017605834   0.0023388106  -0.0006406519
        0.0005687098  -0.0015033798  -0.0002654044   0.0011021597   0.0012983412
       -0.0004996823   0.0015904398   0.0003317404   0.0000259317  -0.0001289513
        0.0002118618   0.0000441339  -0.0000056866   0.0000938175  -0.0000332615
       -0.0000186552  -0.0001747333   0.0000557742   0.0000545214  -0.0002919340
        0.0002143302   0.0001472942   0.0000251991   0.0002430708  -0.0002447493
       -0.0000533677  -0.0001033768   0.0001291400   0.0001162040  -0.0000743516
        0.0000073009   0.0000571139   0.0000839233  -0.0000314861   0.0000849157
       -0.0000308900  -0.0000119685  -0.0000483881  -0.0000227539   0.0000620943
       -0.0000165381   0.0000462455   0.0000284745  -0.0000231374   0.0000085757
        0.0000019948   0.0001217910  -0.0002188785  -0.0001538246   0.0001414316
        0.0000937618  -0.0001062207  -0.0004929000  -0.0001210651   0.0007576474
       -0.0002781778   0.0000126526  -0.0000065926  -0.0001023718  -0.0000810631
        0.0004671649   0.0001682867   0.0001360241  -0.0007697079   0.0007243459
       -0.0000757274   0.0001578804  -0.0001349003   0.0001230718  -0.0006759170
       -0.0012525189   0.0001403314   0.0003346704   0.0091723428   0.0287267614
       -0.0250983236   0.0020958429   0.0023680558   0.0044154000  -0.0050894342
        0.0167221780  -0.0116229856   0.0296971178  -0.0020251067  -0.0403089310
       -0.0000649550   0.0002523401  -0.0003749267  -0.0008060031  -0.0003952501