71
 energy: -107.090787480568 gnorm: 0.000042696939 xtb: 6.7.1 (edcfbbe)
C            2.48049872362887        4.61180682969636       -1.43921247416044
C            3.79659458528508        4.20810874867758       -1.59347276885588
C            4.27834616237163        3.12822328703450       -0.87931039831977
C            3.44504211392512        2.44545574751023        0.00574834400420
C            2.11358928917797        2.85008937717975        0.16610447397273
C            1.65010882160892        3.92988161804166       -0.56302807342248
C            1.25534413336047        2.13849328183328        1.17139578391013
C            1.71686629744110        0.73111137476419        1.42544520324159
C            3.07885712951997        0.46503634251839        1.35177576291526
C            3.61750217274533       -0.69969354639049        1.90490349937659
C            2.77661205120430       -1.56158309452845        2.60678789109356
C            1.42520041956000       -1.33858480285722        2.65363618849840
C            0.83401217260399       -0.24430624619398        1.97071554647643
C           -0.58693410746398       -0.18744225492121        1.81604935345623
C           -1.44669937530418       -0.51414653029177        2.90564263292193
C           -2.78746349934602       -0.33632059399107        2.82057690671748
C           -3.37783115578054        0.10884448156406        1.59863093761814
C           -2.57010507031575        0.31820505370314        0.45583763037253
C           -1.20576681058528        0.15139940699379        0.54353992151883
C           -0.34514844767827        0.14388906203643       -0.65545081686659
C           -0.21410287134206        1.27520575942355       -1.46493999511596
C            0.65718346848337        1.29235758232469       -2.53499152662558
C            1.44868959872344        0.19205356024384       -2.80566041345989
C            1.30737510141748       -0.95810120779223       -2.03259252035638
C            0.38142886955412       -1.00617978208647       -0.98751311758188
C            0.11317920136509       -2.34089644025272       -0.34671516117891
C            1.33109244954293       -3.21738393523278       -0.33988852874115
C            1.52421039391023       -4.20262598806564        0.61117230928835
C            2.62426480777550       -5.04370201272578        0.55344629538042
C            3.54915048714618       -4.89743457236489       -0.46721799242644
C            3.38280144762815       -3.90795100334572       -1.41751349028070
C            2.27714390645778       -3.06323744850160       -1.35905044466548
N            2.08977083051234       -2.07026884894805       -2.29980527964311
C           -3.23451286776300        0.61631192173236       -0.86339855564365
C           -4.73167963985531        0.69981288175563       -0.82130869653343
C           -5.45497921151431        0.98525259890017       -1.96412078998537
C           -6.84030354743668        1.07441240312575       -1.93973404343857
C           -7.52647889423285        0.87755739085470       -0.74150091721390
C           -6.83407174657738        0.59511751849062        0.41110977440354
C           -5.43231649394796        0.50291699416470        0.38786443843704
N           -4.73742214598180        0.21897000421664        1.52582966385669
N            3.91859997432633        1.38622883908223        0.74457838885861
H            2.10313475439713        5.45727126529467       -1.99515983901957
H            4.45064201240254        4.73585388567514       -2.27251776098792
H            5.30476551803725        2.80817412116269       -0.99599739069906
H            0.62687897912353        4.25231262919439       -0.43386174573077
H            1.32629046522855        2.68284657107244        2.12837157599785
H            0.20516180825084        2.16751240912377        0.88441894024875
H            4.67595572251382       -0.89946023188768        1.82787455161144
H            3.19668833195882       -2.43222650466653        3.09003183319462
H            0.78451434293586       -2.05247205475804        3.14981631088819
H           -1.00101404560907       -0.83699983176049        3.83486957336329
H           -3.43297547397854       -0.53525703569989        3.66429997954937
H           -0.78134058353101        2.16451730283701       -1.23695541209802
H            0.74744919875883        2.18046519707474       -3.14293524609903
H            2.16701922356265        0.21279164090437       -3.61294082449144
H           -0.67314519327594       -2.84195970228768       -0.93221488685718
H           -0.27746659116775       -2.22221030390914        0.66401109805129
H            0.79731169848420       -4.31987464406520        1.40191327569421
H            2.75672578416838       -5.81306866615589        1.29965827473240
H            4.40689522008159       -5.55231312628929       -0.52080613144001
H            4.10724735249279       -3.78309766634451       -2.21080785029454
H            2.80936298112874       -1.95867620467664       -2.99986110468893
H           -2.85519219166077        1.56481201673141       -1.25650809275815
H           -2.92922616733406       -0.14569105050429       -1.59130475268778
H           -4.92569499910030        1.13799896182559       -2.89437212798711
H           -7.38460764515215        1.29453308034022       -2.84517043211735
H           -8.60409704379449        0.94713199513616       -0.72052999890072
H           -7.35537800272855        0.44071507889205        1.34549395788550
H           -5.26526195295067        0.03939962794656        2.37047272792473
H            4.88132869288321        1.11307918104492        0.61223066085376
