$hessian                                                                        
        0.0543168747   0.0179989618  -0.0831031891  -0.0617886300  -0.0201536226
        0.0772178465   0.0111630582   0.0026205150  -0.0053177382   0.0066283987
        0.0005230077  -0.0113800858   0.0004122335  -0.0002789692  -0.0007205288
        0.0008597531  -0.0009170904   0.0006552515  -0.0005740242   0.0004970685
        0.0000701509   0.0012539096  -0.0000551483   0.0010383575  -0.0050525069
        0.0000527374  -0.0014421796   0.0031378634   0.0004662199   0.0006510965
        0.0000214401   0.0000067651  -0.0001275026   0.0000461160   0.0000070419
        0.0000649833   0.0000125664   0.0000076728  -0.0000086946  -0.0000049981
       -0.0000048158   0.0000597160   0.0000558669  -0.0000264845  -0.0000769969
        0.0001205132   0.0000241329   0.0000393091  -0.0015460860  -0.0063440151
       -0.0010178329  -0.0046862601  -0.0008807570  -0.0012232074   0.0031214117
        0.0010665272   0.0006252266  -0.0002276923  -0.0000375799   0.0002468877
        0.0027870997  -0.0008406740  -0.0002839102  -0.0005147898  -0.0002098558
        0.0003977818   0.0024450356  -0.0002049571  -0.0003131504  -0.0023716651
        0.0008234476  -0.0002234913   0.0002688996  -0.0006851975   0.0005896261
       -0.0024838679   0.0008883268  -0.0001847045  -0.0000536814  -0.0001381450
        0.0001340591  -0.0026931894   0.0003047949   0.0005305238   0.0004381091
        0.0005616022  -0.0007021035  -0.0026611927   0.0002452497   0.0006443963
        0.0025815386  -0.0008564369  -0.0000875764  -0.0004180112   0.0004969419
       -0.0003509089   0.0032287293  -0.0004473699  -0.0002370038  -0.0028092863
        0.0022700488  -0.0001692016   0.0065113457   0.0041946740   0.0031136575
       -0.0111383647  -0.0010915833   0.0210754029   0.0004993586  -0.0000715239
        0.0001703900  -0.0000249591  -0.0000016900   0.0000684563   0.0000087085
        0.0000096344  -0.0001570491  -0.0001249703  -0.0002077249  -0.0001598243
       -0.0000554310  -0.0000070240   0.0000214023  -0.0000201503   0.0000073732
       -0.0000060219  -0.0000178690  -0.0000017528  -0.0000059791  -0.0000292390
        0.0000091689   0.0000000935  -0.0001031278  -0.0000053268  -0.0000259947
       -0.0005255347   0.0002352531  -0.0001663899   0.0000973782  -0.0000826534
        0.0000627786  -0.0000011455  -0.0000147862   0.0000310517  -0.0000229196
       -0.0000145625   0.0000017875  -0.0000975615  -0.0000081634   0.0000026190
       -0.0000728657   0.0000408923   0.0000046826  -0.0000060685   0.0000148190
       -0.0000006821   0.0000014573  -0.0000009168  -0.0000338670   0.0000899112
       -0.0000002887  -0.0001218380  -0.0002091219   0.0001762656  -0.0001403347
        0.0002276333   0.0000399733   0.0002704529
        0.0179989618   0.0795895035  -0.1082596274  -0.0143940554  -0.0766167476
        0.0802019066  -0.0056865339  -0.0121272868   0.0430135542   0.0000111639
        0.0056629026  -0.0121264696   0.0011295997  -0.0004751210  -0.0007902662
       -0.0004750134   0.0000135901   0.0009173615   0.0009753061  -0.0005650237
       -0.0001385919  -0.0010914546  -0.0000107948   0.0006834851  -0.0007159269
       -0.0012518350  -0.0002795011   0.0011735042   0.0009394329  -0.0006098537
       -0.0001041167   0.0000283086   0.0004304796  -0.0000028654   0.0000777693
       -0.0000255176   0.0000240783  -0.0000702617  -0.0000167391   0.0000308156
       -0.0000107485  -0.0001126971   0.0000214012  -0.0000282014  -0.0000392768
        0.0000286554  -0.0000919527   0.0001156200  -0.0007467627  -0.0033238749
       -0.0003252442   0.0000950057   0.0008729820   0.0006879349  -0.0000653389
       -0.0013059420  -0.0006434162  -0.0000369314   0.0001551085   0.0000019477
       -0.0000052839  -0.0000262072   0.0000292142  -0.0000356712   0.0000100499
        0.0000292181   0.0000512558   0.0000188632   0.0000021350  -0.0000344341
        0.0000262163  -0.0000154571   0.0000213851   0.0000071685   0.0000008872
       -0.0000269170  -0.0000114542   0.0000009799   0.0000503369   0.0000511539
       -0.0000506476   0.0001013530  -0.0000760564   0.0000188353   0.0000461262
        0.0000405635  -0.0000463337   0.0000785996  -0.0000439739   0.0000243758
       -0.0000552037   0.0000055852   0.0000175604  -0.0001019437  -0.0000340023
        0.0000667851  -0.0000310304   0.0000168789  -0.0000066932  -0.0002615018
        0.0011713757   0.0006536970   0.0003812480  -0.0000269166  -0.0006389653
        0.0017047501   0.0069015464  -0.0020885251  -0.0003589569   0.0000599229
       -0.0004380181  -0.0000531632  -0.0000764083   0.0000510608   0.0000198862
        0.0001015979  -0.0001540382  -0.0000143578  -0.0000095533  -0.0000242614
       -0.0000095530  -0.0000214968   0.0000051427   0.0000046831  -0.0000147147
       -0.0000123167   0.0000030571  -0.0000217017  -0.0000102019  -0.0000045066
       -0.0000033272   0.0000066264  -0.0000748424   0.0002289207  -0.0000905091
       -0.0001572299   0.0000686971  -0.0000150310   0.0000144878  -0.0000566329
        0.0000152562   0.0000169730   0.0000010739  -0.0000117036   0.0000094662
       -0.0000045253  -0.0000066708   0.0000074003  -0.0000020538  -0.0000062354
        0.0000025433  -0.0000095424  -0.0000025065  -0.0000068001   0.0000070153
       -0.0000057382  -0.0000217742   0.0000292198  -0.0000270995  -0.0000534570
       -0.0000172933   0.0000124005   0.0000009477  -0.0000524719   0.0000800164
        0.0006226349   0.0003006756  -0.0000483271
       -0.0831031891  -0.1082596274   0.4528736312   0.0683375507   0.0952168656
       -0.4128049476   0.0025198892   0.0149198465  -0.0115878785   0.0017419776
        0.0016647051  -0.0193432778   0.0036884141  -0.0033198742  -0.0010621705
       -0.0005610943   0.0003619391   0.0022121547   0.0019921324  -0.0005714723
        0.0000462463  -0.0006276159  -0.0004204410   0.0017145393  -0.0074656443
        0.0007077242  -0.0039279526   0.0034228374   0.0001768710   0.0015255327
       -0.0002912156   0.0011823359   0.0003340890   0.0000491324  -0.0002115211
        0.0000506326  -0.0000591625   0.0000153758   0.0001058475  -0.0000289301
        0.0000310854   0.0000272661  -0.0001055243   0.0001099390   0.0001492191
        0.0000669201   0.0000149130  -0.0003909067  -0.0022720335   0.0049908859
       -0.0007121573   0.0053739490   0.0015970031   0.0010642173  -0.0033971786
       -0.0014850737  -0.0007360714   0.0004921964   0.0000303631  -0.0000801936
       -0.0045062206   0.0008716938   0.0004947240   0.0007130178   0.0005274433
       -0.0006677435  -0.0039794520   0.0003436418   0.0005815965   0.0037356368
       -0.0011600401   0.0002571409  -0.0003992182   0.0009158579  -0.0006987362
        0.0040324893  -0.0012145108   0.0000990677   0.0001940800   0.0000651107
       -0.0001061746   0.0040075483  -0.0005709371  -0.0008038151  -0.0006660919
       -0.0008140685   0.0010529606   0.0039624785  -0.0003897513  -0.0008992827
       -0.0039679704   0.0013372636   0.0001663094   0.0008006743  -0.0006113464
        0.0005837217  -0.0049159291   0.0008978373   0.0001650802   0.0029695770
       -0.0010904874  -0.0000037386  -0.0069060100  -0.0057280260  -0.0028959289
        0.0144250395   0.0002020303  -0.0046491577   0.0003682572   0.0006788552
       -0.0006099187  -0.0004099701  -0.0002193391  -0.0001661420  -0.0000303083
        0.0000504929  -0.0005273916  -0.0002622276  -0.0004899940  -0.0003599484
       -0.0000182386   0.0000864639   0.0000272553   0.0000492580  -0.0000501944
       -0.0000685207   0.0000359013  -0.0000579343  -0.0000184414   0.0000568823
       -0.0001341239   0.0000088334   0.0000497558  -0.0001807303   0.0000207227
        0.0004928198  -0.0001619257   0.0001426599  -0.0001524407   0.0001231598
       -0.0001757353  -0.0000215408   0.0000290465  -0.0000597257   0.0000385674
        0.0000207954  -0.0000291110   0.0001429703  -0.0000027753  -0.0000138667
        0.0001099586  -0.0000594893  -0.0000123650   0.0000292807  -0.0000500389
        0.0000125918   0.0000176230  -0.0001062311   0.0000685216  -0.0000701911
       -0.0001052213   0.0000131018   0.0004396333  -0.0001538498   0.0000138667
       -0.0001390510   0.0004494796  -0.0004002304
       -0.0617886300  -0.0143940554   0.0683375507   0.3949690742  -0.0381153420
       -0.0338961971  -0.0688472196   0.0693232749  -0.0159799131  -0.0747167839
       -0.0345822319  -0.0368851818  -0.0199837801  -0.0093224493  -0.0110364603
       -0.0060583871   0.0036652200  -0.0012423746   0.0006723787  -0.0014488929
       -0.0004034777  -0.0036696805  -0.0003588875  -0.0023662201   0.0224000633
       -0.0008656298   0.0059868840  -0.0130014510  -0.0033299316  -0.0031209429
       -0.0004372678  -0.0003315678  -0.0001501900  -0.0001158377  -0.0000422556
       -0.0002042147   0.0000083473   0.0000454036  -0.0000254761   0.0000024662
        0.0000146695  -0.0001506230  -0.0001004607   0.0000760643   0.0002273382
       -0.0003253229  -0.0000214554   0.0000067122  -0.0086852814   0.0271004512
        0.0128291891   0.0171099717   0.0070236196   0.0027806814  -0.0114376534
       -0.0034269741  -0.0022861425   0.0009655514  -0.0007712291   0.0003677995
       -0.0089590041   0.0032531923   0.0005853027   0.0015740291   0.0003668098
       -0.0009985847  -0.0079087369   0.0008408516   0.0009003605   0.0077025033
       -0.0027364830   0.0007850330  -0.0008067579   0.0023815880  -0.0021440120
        0.0078166649  -0.0031111730   0.0007465486   0.0001219203   0.0004339338
       -0.0002989423   0.0089890549  -0.0012495824  -0.0017168474  -0.0015370478
       -0.0016722944   0.0020627478   0.0086665342  -0.0008789195  -0.0020627279
       -0.0086043055   0.0030881760   0.0001404807   0.0014846545  -0.0019097110
        0.0013984626  -0.0103836543   0.0020012422   0.0005798598   0.0096045763
       -0.0091497831  -0.0039057188  -0.0465180872  -0.0160343959  -0.0060230063
       -0.1302506879   0.0237342205   0.0260759162  -0.0007667890  -0.0002638895
       -0.0000261977  -0.0003564617  -0.0005061375  -0.0004994360   0.0000809362
        0.0002218481   0.0004568501   0.0004344026   0.0010945812   0.0006845847
        0.0001562309  -0.0000076120  -0.0000888241   0.0000687307  -0.0000171964
        0.0000252462   0.0000338910   0.0000114031   0.0000146335   0.0000854460
        0.0000027063  -0.0000109788   0.0002329261  -0.0000787728   0.0000592885
        0.0010499583  -0.0004856584   0.0000902716  -0.0002352283   0.0003343161
       -0.0003028478  -0.0000033930   0.0000994322  -0.0001076297   0.0001085825
        0.0000768305  -0.0000391612   0.0002789010   0.0000095443   0.0000087334
        0.0002259851  -0.0001315327  -0.0000433005   0.0000551712  -0.0001002022
        0.0000288108  -0.0000239516  -0.0000451141   0.0001566215  -0.0002889497
       -0.0001047335   0.0004061574   0.0001169802  -0.0001304388  -0.0000529613
        0.0007948788   0.0004251538   0.0003265257
       -0.0201536226  -0.0766167476   0.0952168656  -0.0381153420   0.6525880933
       -0.1130617997   0.0755320102  -0.4278527977   0.0819597870  -0.0314682211
       -0.0836445079  -0.0383616875  -0.0117569379   0.0057615713   0.0013381033
        0.0023181272   0.0004344750  -0.0027857007  -0.0028949499   0.0005808674
       -0.0002140354   0.0035422485  -0.0034078695  -0.0042444214   0.0017823302
       -0.0134257515  -0.0098697474  -0.0081940469  -0.0004944876   0.0012657132
        0.0005861582  -0.0019352685  -0.0015329626  -0.0001105059   0.0003402170
       -0.0000839728   0.0000504781   0.0000371465  -0.0000279520  -0.0000213771
       -0.0000640344   0.0002747700   0.0001220980  -0.0001894341  -0.0000799985
       -0.0001510706   0.0004582848  -0.0000261057   0.0227044841  -0.0037052042
       -0.0044198284  -0.0048814414  -0.0054568129  -0.0043932352   0.0032722059
        0.0023176004   0.0009863664  -0.0005061367  -0.0002266389   0.0000126305
        0.0052103403  -0.0008370138  -0.0006135303  -0.0009525559  -0.0007272174
        0.0008442476   0.0047654814  -0.0004214294  -0.0007522016  -0.0043228861
        0.0011357658  -0.0001097320   0.0005534874  -0.0008683916   0.0005923868
       -0.0047298110   0.0011160279   0.0001334353  -0.0003140342   0.0001286248
       -0.0000220862  -0.0042721134   0.0005262417   0.0009299528   0.0007149698
        0.0008535311  -0.0011341190  -0.0041891518   0.0002868223   0.0010322601
        0.0040875122  -0.0014632014  -0.0000768809  -0.0005942755   0.0006882169
       -0.0006576343   0.0051648973  -0.0009155738  -0.0001276647  -0.0053407873
       -0.0013187947  -0.0024837699  -0.0011011312   0.0097195789   0.0064488157
        0.0134463136  -0.0520179285  -0.0085899690   0.0023833030  -0.0004810550
        0.0013213186   0.0010245097   0.0005352793   0.0003331233   0.0001969905
       -0.0001253999   0.0007589839  -0.0002344060  -0.0001887948  -0.0000332199
       -0.0000212294   0.0000001892   0.0001292571  -0.0000918732   0.0001474491
        0.0001660077  -0.0000778134   0.0001365732   0.0000747278  -0.0000520965
        0.0001536347  -0.0000346630   0.0000625347  -0.0003778458   0.0002981943
        0.0006415016  -0.0003866336  -0.0002569913   0.0000574589   0.0000782236
        0.0001357099  -0.0000541637  -0.0001027981   0.0001898746  -0.0000914333
       -0.0000432763   0.0000871735  -0.0001584942   0.0000072914   0.0000299602
       -0.0001624301   0.0000633611   0.0000306108  -0.0000598850   0.0000857716
       -0.0000319560   0.0000797255   0.0000297015  -0.0000309658   0.0002169969
        0.0001577422  -0.0001594424  -0.0013704132   0.0002956246  -0.0001114000
       -0.0020715264  -0.0013689979  -0.0002626022
        0.0772178465   0.0802019066  -0.4128049476  -0.0338961971  -0.1130617997
        0.6116056878  -0.0192337794   0.0934165253  -0.0765422416  -0.0323332163
       -0.0411815456  -0.0771790200  -0.0128734957   0.0029397433  -0.0038131606
       -0.0011621190  -0.0025110809   0.0032245309  -0.0024201930   0.0005019155
       -0.0004494285   0.0005475637  -0.0047664801   0.0022215621   0.0072210511
       -0.0079427915  -0.0025419331  -0.0065933876   0.0024787064  -0.0042932392
        0.0002158346  -0.0021310889   0.0002198839  -0.0001655672   0.0003743159
        0.0000775566   0.0000889918   0.0000104806  -0.0001284520   0.0000449013
       -0.0000418044  -0.0000749509   0.0001319404  -0.0000835952  -0.0002021333
       -0.0001429610   0.0000058183   0.0005560713   0.0116398801  -0.0026449176
       -0.0019552559  -0.0045963121  -0.0049132602   0.0010159385   0.0029528679
        0.0020975256   0.0012040751  -0.0006603661   0.0003434727  -0.0007639326
        0.0043618011  -0.0008935287  -0.0004299641  -0.0005095162  -0.0004832251
        0.0005268956   0.0037026183  -0.0003614846  -0.0005972329  -0.0035046078
        0.0011656117  -0.0002877723   0.0003727388  -0.0009344330   0.0007058888
       -0.0037677781   0.0013085082  -0.0001495042  -0.0003155709  -0.0001990375
        0.0001521959  -0.0042121271   0.0010097456   0.0006895247   0.0007152961
        0.0005809469  -0.0008134202  -0.0040436908   0.0005413229   0.0007669379
        0.0042181711  -0.0015146446  -0.0000978959  -0.0008535268   0.0008065469
       -0.0007960317   0.0048146033  -0.0013380235  -0.0000081561  -0.0031523980
       -0.0026104182   0.0023324810   0.0019585757   0.0081542734   0.0018427584
        0.0136511556  -0.0106299484  -0.0423582013   0.0011681602   0.0005335642
       -0.0007004803   0.0005756690   0.0000939739   0.0004736630   0.0005066445
        0.0007335946  -0.0005953042   0.0000395276   0.0003804261   0.0001694228
        0.0000791069  -0.0001379827  -0.0002092664  -0.0000559659   0.0000754757
        0.0001016063  -0.0000534775   0.0001024783   0.0000116363  -0.0000710746
        0.0002051929  -0.0000148460  -0.0000614383   0.0003418384  -0.0000906859
        0.0000406716  -0.0001873881   0.0000996343   0.0001599939  -0.0001085675
        0.0002313134   0.0000566862  -0.0000301264   0.0000474363  -0.0000733621
       -0.0000237388   0.0000650113  -0.0001639519   0.0000257226   0.0000212138
       -0.0001194783   0.0000782899   0.0000224517  -0.0000418258   0.0000770812
       -0.0000264633  -0.0000240009   0.0001633512  -0.0000930805   0.0000493471
        0.0001137968   0.0000598910  -0.0008670181  -0.0000719324   0.0005356224
       -0.0005632406  -0.0000593081  -0.0009638906
        0.0111630582  -0.0056865339   0.0025198892  -0.0688472196   0.0755320102
       -0.0192337794   0.0587977750  -0.0838332292   0.0171690394   0.0062924870
       -0.0096446514   0.0022968769  -0.0007867882  -0.0009276910  -0.0001615684
        0.0013951031  -0.0000382588   0.0001006361  -0.0004589008   0.0002421130
       -0.0000222037   0.0016613994   0.0001468217   0.0000603934  -0.0047993651
       -0.0016437925  -0.0023301222   0.0026005256   0.0003613144   0.0005356009
        0.0001259018  -0.0002176143  -0.0000370089   0.0000425974   0.0000674972
        0.0000159758   0.0000069414   0.0000125824  -0.0000098474   0.0000041756
       -0.0000051817   0.0000430878   0.0000242082  -0.0000196903  -0.0000275220
        0.0000648171   0.0000406139   0.0000395285  -0.0061914663  -0.0018876911
       -0.0021599047  -0.0033301101  -0.0004738712   0.0006778528   0.0024790212
        0.0014493106   0.0009548703  -0.0001175418   0.0004431917  -0.0003968102
        0.0014612970  -0.0006305861  -0.0000716100  -0.0001749267  -0.0000561427
        0.0001798228   0.0013184874  -0.0001828614  -0.0001301190  -0.0013172534
        0.0004155583  -0.0000848196   0.0001452282  -0.0003210611   0.0003076821
       -0.0012746131   0.0003986555  -0.0000335407  -0.0001378964   0.0000573060
       -0.0000452211  -0.0013964291   0.0002875184   0.0002184281   0.0003081985
        0.0001817496  -0.0002673790  -0.0013426268   0.0001211089   0.0003299419
        0.0013127455  -0.0005638472   0.0000596902  -0.0002781314   0.0004047489
       -0.0003084043   0.0016134458  -0.0004624415   0.0000368731  -0.0007560511
        0.0007285538   0.0010531092   0.0044296236   0.0035369733   0.0008997245
       -0.0044088475   0.0220303588  -0.0023896087   0.0011295742  -0.0003555743
       -0.0000017268   0.0000421266   0.0000518132   0.0000416006  -0.0000075972
       -0.0001172968  -0.0000083961  -0.0001515041  -0.0002624850  -0.0001773522
       -0.0000445950  -0.0000144057  -0.0000129610  -0.0000247882   0.0000145273
        0.0000141400  -0.0000198760   0.0000108514   0.0000023661  -0.0000231185
        0.0000153970  -0.0000056042  -0.0000519073  -0.0000318026   0.0000100952
       -0.0007368095   0.0002301412   0.0001171684   0.0000497036  -0.0000237064
       -0.0000160814   0.0000094651  -0.0000277223   0.0000187446  -0.0000329681
       -0.0000209381   0.0000223083  -0.0000475935   0.0000013149  -0.0000014639
       -0.0000599315   0.0000252914   0.0000144307  -0.0000292683   0.0000460807
       -0.0000219034   0.0000226706   0.0000234160  -0.0000482466   0.0000804413
       -0.0000431205  -0.0000098300  -0.0000788021   0.0000046538   0.0000567688
        0.0003459083   0.0006107236   0.0002163891
        0.0026205150  -0.0121272868   0.0149198465   0.0693232749  -0.4278527977
        0.0934165253  -0.0838332292   0.4706949444  -0.1078781518   0.0070275490
       -0.0158265547   0.0022155027   0.0038377728  -0.0018351962  -0.0001645459
        0.0007403413   0.0017274516   0.0003186006   0.0013706713  -0.0003122977
        0.0001428382   0.0012458934   0.0002943232  -0.0008687096  -0.0090526625
       -0.0037698117  -0.0022689376   0.0024755877   0.0012097869   0.0006325757
       -0.0004000850   0.0013141987   0.0005896458   0.0000543929  -0.0002307999
        0.0001532895  -0.0000429424  -0.0000095940   0.0000707554   0.0000040286
        0.0000525810  -0.0001470968  -0.0000627960   0.0001102984   0.0000162914
        0.0000712918  -0.0001419962  -0.0001736019   0.0003506408   0.0022242447
        0.0034711778   0.0042030387   0.0008494607  -0.0002097768  -0.0030335521
       -0.0003987915  -0.0003063560   0.0004486058   0.0000345141   0.0002680523
       -0.0037197489   0.0007653446   0.0004343436   0.0006836014   0.0003645204
       -0.0004723886  -0.0032122885   0.0003179253   0.0004844338   0.0029924292
       -0.0009188574   0.0001918558  -0.0003597957   0.0007760060  -0.0006081913
        0.0031278770  -0.0009643944   0.0000528265   0.0002728909   0.0001019367
       -0.0001199273   0.0033052250  -0.0006334244  -0.0005948840  -0.0005133470
       -0.0005607629   0.0007354568   0.0032931855  -0.0003649524  -0.0007247409
       -0.0032439036   0.0011154356   0.0000942562   0.0004699125  -0.0005720890
        0.0005715219  -0.0039288621   0.0008414338   0.0000841254   0.0026312861
       -0.0014329567  -0.0009677086  -0.0075794530  -0.0044406223  -0.0023218963
        0.0083372357  -0.0095393698  -0.0015644234  -0.0007703066  -0.0001426955
        0.0005015533  -0.0003603310  -0.0000949367  -0.0001710772  -0.0002268285
       -0.0002431989   0.0000663395  -0.0004545128  -0.0006633708  -0.0003842193
        0.0000040785   0.0000076609  -0.0000147001   0.0000565414  -0.0000779633
       -0.0001006558   0.0000406060  -0.0000771558  -0.0000339977   0.0000363806
       -0.0000929657   0.0000298386  -0.0000297513   0.0001768894  -0.0000765378
        0.0006506452  -0.0001237546  -0.0000083550  -0.0000628227  -0.0000560946
       -0.0000821863   0.0000201638   0.0000936094  -0.0001307806   0.0000828437
        0.0000466915  -0.0000681701   0.0001147639  -0.0000136346  -0.0000048138
        0.0000881098  -0.0000470219  -0.0000228316   0.0000316751  -0.0000611427
        0.0000256845  -0.0000506492  -0.0000355600   0.0000472811  -0.0001591702
       -0.0000603008   0.0000589837   0.0004194469  -0.0000027304  -0.0000730908
        0.0006645362   0.0006058248   0.0009691503
       -0.0053177382   0.0430135542  -0.0115878785  -0.0159799131   0.0819597870
       -0.0765422416   0.0171690394  -0.1078781518   0.0808612422   0.0013457444
       -0.0108515248   0.0053048068   0.0002353099  -0.0006978822   0.0005454959
        0.0004328290   0.0005818537  -0.0002192925   0.0005944097  -0.0004091774
       -0.0000772828  -0.0001213152   0.0000818450  -0.0007586668  -0.0021521394
       -0.0020385679  -0.0016267678   0.0007437891  -0.0001599896   0.0007329042
        0.0000684412   0.0000588619  -0.0002516384   0.0000299449  -0.0000026417
       -0.0000697430   0.0000150058  -0.0000564703  -0.0000009396  -0.0000005138
       -0.0000275956   0.0000417014   0.0000027098  -0.0000357609   0.0000241453
        0.0000079123   0.0000295156  -0.0000111049   0.0000837582  -0.0015019892
       -0.0004664699   0.0000799344   0.0003032713   0.0000474780   0.0001644013
       -0.0004744260  -0.0002345309  -0.0000132669   0.0000500132   0.0000412371
       -0.0000184301  -0.0000083280  -0.0000213537  -0.0000815055   0.0000312491
        0.0000209816   0.0000202005   0.0000156366  -0.0000150760   0.0000283457
       -0.0000139373   0.0000199384   0.0000408456   0.0000055470  -0.0000232756
        0.0000507265  -0.0000612584   0.0000386599  -0.0000080891   0.0000413067
       -0.0000236116   0.0001064814  -0.0000421057  -0.0000111581   0.0000171369
       -0.0000084263  -0.0000081618   0.0000728468  -0.0000443871   0.0000208143
       -0.0000912319   0.0000317722   0.0000270669  -0.0000071593  -0.0000176897
        0.0000610032  -0.0001005864   0.0000540447  -0.0000142232  -0.0002117728
        0.0005995322   0.0000841568   0.0002627271  -0.0000029775   0.0005801607
        0.0022207980  -0.0023300136   0.0040942226   0.0001868311  -0.0002091433
       -0.0002820224   0.0000564648   0.0000324002  -0.0000060961  -0.0000326501
       -0.0000724120   0.0001019518  -0.0000803113  -0.0001147953  -0.0001006207
       -0.0000382179   0.0000235272   0.0000991388  -0.0000042251  -0.0000023634
        0.0000129533  -0.0000019194  -0.0000047871   0.0000034876   0.0000057750
       -0.0000188835  -0.0000075585   0.0000135494  -0.0000525170  -0.0000347439
       -0.0000923218   0.0000588791  -0.0000600288  -0.0000383523   0.0000174710
       -0.0000415495  -0.0000221293  -0.0000260961   0.0000190344  -0.0000102175
       -0.0000096127   0.0000010703   0.0000080086  -0.0000017319  -0.0000114240
       -0.0000027725  -0.0000032796   0.0000028583   0.0000017572   0.0000108065
       -0.0000100305   0.0000237032  -0.0000082941  -0.0000090490   0.0000281143
       -0.0000071163  -0.0000585795  -0.0000525234   0.0000133354  -0.0000596950
        0.0003617608   0.0001801235  -0.0001416954
        0.0066283987   0.0000111639   0.0017419776  -0.0747167839  -0.0314682211
       -0.0323332163   0.0062924870   0.0070275490   0.0013457444   0.5662264955
       -0.1187221890   0.0620350094  -0.3006570217   0.0787583099  -0.0231203761
       -0.0533905398  -0.0472279355  -0.0433459934  -0.0189278851   0.0202430714
        0.0078459256   0.0280612649   0.0059154611   0.0117958055  -0.1073381024
        0.0538953859   0.0146423986  -0.0266904834   0.0357446957   0.0116144438
       -0.0049984723  -0.0003089207  -0.0001693076   0.0000167885   0.0011788238
       -0.0000839663   0.0004480587  -0.0002588193   0.0003544906   0.0000684058
        0.0000448533  -0.0004950053   0.0002920546   0.0001773226   0.0003086820
       -0.0003006541   0.0009261146   0.0003070159   0.0076340402  -0.0180660167
       -0.0085971493   0.0061071911   0.0091134811   0.0054181017  -0.0045305513
       -0.0226238920  -0.0115355169  -0.0002797560  -0.0003764104   0.0004500616
        0.0015844057  -0.0000012088  -0.0002227912  -0.0006658842  -0.0003878827
        0.0004778407   0.0012824340   0.0001652619  -0.0002743657  -0.0011456391
        0.0004413872  -0.0001834916   0.0002207020  -0.0004025839   0.0001998449
       -0.0010922227   0.0003739846   0.0000448638   0.0000901292  -0.0000243398
        0.0000665104  -0.0006165859  -0.0002986071   0.0004530199  -0.0000119038
        0.0004820261  -0.0005781111  -0.0008428235  -0.0000070038   0.0003248136
        0.0006513554   0.0000980017  -0.0002459546   0.0000437998  -0.0005523640
        0.0002178522   0.0011685244   0.0003956706  -0.0002130390  -0.0088972186
        0.0164070894   0.0079563017  -0.0037188413  -0.0052722910  -0.0018897053
        0.0001313096   0.0109933837   0.0010083681  -0.0148960255   0.0064774313
        0.0007104900  -0.0009631620  -0.0018319044  -0.0033746686  -0.0001586225
        0.0008557258   0.0001716730  -0.0013034752  -0.0020394795  -0.0028454543
       -0.0001515807  -0.0000762828  -0.0000191412  -0.0000420234   0.0000802399
        0.0000276336  -0.0000967249  -0.0000278287  -0.0000178106  -0.0000239748
        0.0001102302   0.0000359161  -0.0001847767  -0.0000836552  -0.0000391919
        0.0001432774  -0.0003625753  -0.0000129642   0.0000414617  -0.0000352835
        0.0000321745   0.0000109849   0.0000101744   0.0000278505  -0.0000121714
       -0.0000282921  -0.0000312464  -0.0000436598  -0.0000250299  -0.0000261226
       -0.0000220413  -0.0000031252  -0.0000145042  -0.0000013734   0.0000075745
        0.0000042900  -0.0000000111   0.0000102678   0.0000119533   0.0000415753
        0.0000462997   0.0000129512  -0.0006197944   0.0000338334  -0.0000110360
        0.0001556421   0.0004873281   0.0000361254
        0.0005230077   0.0056629026   0.0016647051  -0.0345822319  -0.0836445079
       -0.0411815456  -0.0096446514  -0.0158265547  -0.0108515248  -0.1187221890
        0.4396449242   0.1744407409   0.0363615823  -0.0829254635  -0.0148500274
       -0.0066515187   0.0236251051   0.0104145183   0.0153248109  -0.0128735294
       -0.0011758962  -0.0253229205  -0.0410863909  -0.0331124258   0.0909416384
       -0.2161929983  -0.0789509804   0.0243848627  -0.0129125923  -0.0007564974
        0.0012823233   0.0009273060  -0.0003127667  -0.0000085615  -0.0007466392
        0.0001750339  -0.0001864022   0.0002001743  -0.0001289336  -0.0000521160
        0.0001147410   0.0002132078  -0.0001411564   0.0001219785  -0.0001114141
        0.0000551410  -0.0004430314  -0.0002058950  -0.0030326915   0.0056352240
        0.0024542313  -0.0050372016  -0.0040036274  -0.0025315305   0.0029456112
        0.0106971048   0.0055125419   0.0000765204   0.0000717623  -0.0000082803
       -0.0003674679  -0.0003322892   0.0001291444   0.0002213707   0.0003739606
       -0.0003489969  -0.0004071903  -0.0001112711   0.0001760777   0.0002470359
        0.0000669932  -0.0001223923  -0.0001441836  -0.0001801994   0.0002815142
        0.0004659175   0.0001955920  -0.0002982314   0.0000499504  -0.0001871254
        0.0000908856  -0.0001584590   0.0000989918  -0.0000689878   0.0000564167
        0.0000520360   0.0000307759  -0.0002344759   0.0000741330   0.0000452541
        0.0002305150  -0.0001499782  -0.0000267471  -0.0001434483   0.0002517539
       -0.0000372815   0.0001291419  -0.0001664066  -0.0001518688   0.0026139183
       -0.0069403097  -0.0034471461   0.0033223497   0.0042871369   0.0003311303
        0.0025485662  -0.0053483615  -0.0012789235   0.0252007677  -0.0072642041
        0.0021718424  -0.0018706957  -0.0000508974  -0.0046353228   0.0005197509
        0.0000996199   0.0005892837  -0.0014103325  -0.0007552821  -0.0043296619
        0.0001135505  -0.0000035861  -0.0001025406   0.0000188769  -0.0000797288
       -0.0000536394   0.0000362145  -0.0000218882  -0.0000006169   0.0000177378
       -0.0000802824   0.0000107597   0.0000572616   0.0000622765   0.0000643775
       -0.0001672116   0.0002440436   0.0000341402   0.0000054775  -0.0000374026
        0.0000011759   0.0000052722  -0.0000100493  -0.0000205329  -0.0000106470
       -0.0000160111  -0.0000050527   0.0000031633   0.0000069922   0.0000030594
        0.0000250797   0.0000028069   0.0000055704   0.0000162255   0.0000091072
        0.0000252130  -0.0000163983  -0.0000143294  -0.0000172949  -0.0000221902
       -0.0000118715  -0.0000353206   0.0002016730  -0.0000314539   0.0002345042