$hessian                                                                        
        1.2958842019  -0.0111663160  -0.0134059772  -1.2371007040   0.0105322628
        0.0126090408  -0.0636475690   0.0006834356   0.0008505453   0.0070679414
        0.0027270717  -0.0105649479  -0.0064410349   0.0018305037  -0.0011589795
        0.0075065177  -0.0000562251  -0.0000826822  -0.0039971620   0.0000330144
        0.0000476856   0.0002843594  -0.0002287896  -0.0011299780   0.0002533228
        0.0009344820  -0.0003804299  -0.0016558475  -0.0006817260   0.0005689782
        0.0016340709  -0.0013186819   0.0002879489  -0.0001413585   0.0018935903
       -0.0006326999   0.0001227709  -0.0016174829   0.0005246893  -0.0012006205
        0.0000095450   0.0000090102   0.0010634720  -0.0000114477  -0.0000086226
       -0.0004627731  -0.0001609114  -0.0000185110   0.0004291046  -0.0001756767
       -0.0000727932  -0.0006917452   0.0000091488   0.0000040544   0.0006622891
       -0.0000250549  -0.0000197493  -0.0000444861   0.0004256477   0.0002044850
       -0.0001004160  -0.0003647091  -0.0001708978   0.0000496329  -0.0000284242
       -0.0000139597  -0.0001299609  -0.0000061888  -0.0000030370   0.0001023347
       -0.0000811286  -0.0000392485   0.0000115715  -0.0001138807  -0.0000552546
       -0.0000226357   0.0001482692   0.0000745980   0.0000280860  -0.0001258258
       -0.0000614653  -0.0000540985   0.0000958508   0.0000464287   0.0000296443
       -0.0001309900  -0.0000640718  -0.0000236296   0.0000779130   0.0000387134
        0.0000588897   0.0001036948   0.0000534409  -0.0001149170  -0.0000465481
       -0.0000245808   0.0001132921   0.0000665082   0.0000297862  -0.0005170347
        0.0003888500   0.0001862257   0.0002996765  -0.0003357010  -0.0001779378
        0.0004209261   0.0001711527   0.0000735152  -0.0004647169   0.0001729719
        0.0000285522   0.0001483179   0.0016096948  -0.0005146027  -0.0001735074
       -0.0018851159   0.0006340702   0.0016521517   0.0013074313  -0.0003187421
       -0.0016467960   0.0007008462  -0.0005276335   0.0002276504  -0.0009426160
        0.0003773440   0.0003125364   0.0002511756   0.0011168527  -0.0064113659
       -0.0017769918   0.0013216587   0.0072644612  -0.0028209017   0.0104037776
        0.0001837914  -0.0003734193   0.0002391498  -0.0004415920   0.0000066482
       -0.0001225352   0.0000181297   0.0000562288  -0.0000773176   0.0000300013
       -0.0000682981   0.0000759134  -0.0000249806  -0.0000890273   0.0000014124
       -0.0000237094  -0.0000124815  -0.0000434654   0.0000331887   0.0000136515
        0.0000135298  -0.0000371796  -0.0000350572  -0.0000217226   0.0000460386
        0.0000159511  -0.0000053100  -0.0000097200   0.0000474041   0.0000327336
       -0.0000570887   0.0000320303   0.0000167300  -0.0000116577  -0.0000187880
       -0.0000101768  -0.0000383038   0.0000083555   0.0000043307  -0.0000467271
       -0.0000347160  -0.0000185031  -0.0000066004  -0.0000852995  -0.0000310065
       -0.0000104726   0.0000027406   0.0000011630  -0.0000263045   0.0000226839
        0.0000124984   0.0000339667  -0.0000119921  -0.0000098939   0.0000218282
        0.0000140004   0.0000424846  -0.0000237475   0.0000368006   0.0000012376
        0.0000306609   0.0000726356  -0.0000718352   0.0000193260  -0.0000544186
        0.0000766992  -0.0004299758   0.0000023814   0.0000989539   0.0001862860
        0.0003802595  -0.0002496688
       -0.0111663160   0.0167997557   0.0002089536   0.0105304598  -0.0328495200
        0.0004500125   0.0006823590   0.0153071670  -0.0006566644   0.0006938190
        0.0011795412   0.0007224659   0.0001479625  -0.0013884561  -0.0006451854
       -0.0000770122   0.0000403131   0.0000367078   0.0000398266   0.0003717823
        0.0001002321   0.0000550468  -0.0000023508  -0.0000003884   0.0000695122
        0.0000055057  -0.0000090634   0.0000037229  -0.0000349593   0.0000208109
       -0.0000097632  -0.0000108729   0.0000015208  -0.0000021306   0.0000144461
       -0.0000054600  -0.0000114601   0.0000499798  -0.0000259466   0.0000114175
        0.0000074955   0.0000074615   0.0000035274  -0.0000002648  -0.0000151992
        0.0000103430  -0.0000009354  -0.0000025501  -0.0000080128   0.0000029297
        0.0000013198   0.0000045524   0.0000008242  -0.0000004385  -0.0000103060
       -0.0000030055  -0.0000014219  -0.0000009184   0.0000008749  -0.0000013198
        0.0000020572   0.0000031505   0.0000018740   0.0000034658   0.0000033958
        0.0000019816  -0.0000051092  -0.0000036471  -0.0000017652   0.0000036922
       -0.0000030636  -0.0000012115   0.0000001980   0.0000032320   0.0000019129
       -0.0000077174  -0.0000004692   0.0000000026   0.0000054279  -0.0000006779
        0.0000000659  -0.0000014240  -0.0000019098  -0.0000006330  -0.0000028688
       -0.0000036021  -0.0000016443   0.0000035103  -0.0000009178  -0.0000003879
       -0.0000040618  -0.0000001352  -0.0000002326   0.0000030696  -0.0000059658
       -0.0000031937  -0.0000034240  -0.0000021571  -0.0000009324  -0.0000144175
        0.0000044423   0.0000029622   0.0000248131   0.0000027897   0.0000007045
        0.0000002902  -0.0000017185   0.0000009558   0.0000027342  -0.0000052017
       -0.0000021928   0.0000043316   0.0000044723  -0.0000105113   0.0000054008
        0.0000374184  -0.0000124930  -0.0000288307  -0.0000342596   0.0000053100
        0.0000258880  -0.0000282293   0.0000239709  -0.0000605846   0.0000072119
       -0.0000067261  -0.0000662502  -0.0000213970  -0.0000141756  -0.0000685068
       -0.0013493342  -0.0006681982  -0.0007962723   0.0012451677   0.0005463559
        0.0000838693   0.0003874559   0.0000041901   0.0000864403  -0.0000874072
       -0.0000261013   0.0000004403  -0.0000194120  -0.0000003266   0.0000054865
        0.0000333678  -0.0000121456   0.0000010077   0.0000044595  -0.0000038513
       -0.0000026698   0.0000113852   0.0000070948  -0.0000000331   0.0000057323
        0.0000007747   0.0000022031  -0.0000001870   0.0000011889   0.0000013744
        0.0000015478   0.0000006900  -0.0000026641   0.0000001019   0.0000006843
       -0.0000003069  -0.0000031817  -0.0000003756   0.0000034464  -0.0000015991
        0.0000002764   0.0000010648  -0.0000015260   0.0000001833   0.0000012056
       -0.0000014587   0.0000001493   0.0000026506  -0.0000009944   0.0000006812
       -0.0000022066   0.0000010746   0.0000007866  -0.0000028675   0.0000042238
        0.0000014852  -0.0000023320   0.0000028077   0.0000011586   0.0000035596
        0.0000135833   0.0000053157   0.0000007034   0.0000046545  -0.0000038397
       -0.0000069191   0.0000268962  -0.0000092057  -0.0000058041  -0.0000170890
       -0.0000024007  -0.0000796228  -0.0000853629  -0.0000252694  -0.0000800674
        0.0003820825   0.0000112111
       -0.0134059772   0.0002089536   0.0165327858   0.0125878705   0.0004517337
       -0.0349103049   0.0008658974  -0.0007153815   0.0179169849  -0.0026708275
        0.0006342782  -0.0010960682  -0.0006096137  -0.0005887192   0.0008241243
       -0.0000795565  -0.0001044307   0.0004534948   0.0000442585   0.0000825434
        0.0000573935   0.0000151368   0.0000124308   0.0000037858  -0.0000047028
       -0.0000106647   0.0000153577   0.0000149328   0.0000116554   0.0000054965
       -0.0000210885   0.0000123210  -0.0000000932   0.0000080641  -0.0000121416
        0.0000074879  -0.0000018927   0.0000145149  -0.0000032775   0.0000134458
        0.0000046335   0.0000043956  -0.0000034530  -0.0000032098  -0.0000028148
        0.0000095507  -0.0000029347   0.0000015305  -0.0000061110   0.0000018220
        0.0000038820   0.0000066438   0.0000005630   0.0000015767  -0.0000107351
       -0.0000012727  -0.0000029951  -0.0000004187  -0.0000050329   0.0000012117
        0.0000028288   0.0000054374   0.0000017080   0.0000021953   0.0000024757
        0.0000006268  -0.0000018806  -0.0000031326  -0.0000019476   0.0000018815
        0.0000003043  -0.0000006127  -0.0000003355   0.0000027536   0.0000003106
       -0.0000046626  -0.0000007476  -0.0000016476   0.0000034520   0.0000013320
       -0.0000005933  -0.0000007290  -0.0000011581  -0.0000017905  -0.0000018672
       -0.0000016062  -0.0000018392   0.0000030635  -0.0000010470  -0.0000013145
       -0.0000033253   0.0000006649   0.0000002557   0.0000020851  -0.0000043851
       -0.0000020967  -0.0000025980  -0.0000014256  -0.0000012965  -0.0000056478
        0.0000018265  -0.0000009276   0.0000144017   0.0000034045   0.0000035156
       -0.0000039199  -0.0000047306   0.0000009029   0.0000033711  -0.0000067299
        0.0000015310  -0.0000041112  -0.0000299383   0.0000123539  -0.0000061498
        0.0000207636  -0.0000038659  -0.0000174666  -0.0000144522   0.0000044257
        0.0000203412   0.0000101688   0.0000112309   0.0000101471  -0.0000003661
        0.0000127401  -0.0000257712  -0.0000029435  -0.0000160344   0.0007501727
       -0.0005753336   0.0007863490   0.0024987988   0.0006489207  -0.0013788581
       -0.0003794169   0.0000231100   0.0003472770  -0.0003030329  -0.0000316027
        0.0000558377  -0.0000011231   0.0000013113  -0.0000163238  -0.0000032214
       -0.0000155147   0.0000023184  -0.0000030579   0.0000020742   0.0000027685
       -0.0000017742  -0.0000003092   0.0000055924  -0.0000000723  -0.0000037940
        0.0000016898   0.0000017561   0.0000064960   0.0000013009  -0.0000063965
       -0.0000051426  -0.0000013594  -0.0000010565   0.0000000341  -0.0000024868
       -0.0000001464  -0.0000001862  -0.0000033126  -0.0000049991   0.0000005957
       -0.0000027318   0.0000008196   0.0000002602  -0.0000027539   0.0000008347
        0.0000005019  -0.0000024270   0.0000012878   0.0000074629  -0.0000012082
        0.0000059932   0.0000004102  -0.0000008569  -0.0000011802  -0.0000045775
        0.0000007122  -0.0000004994   0.0000087861   0.0000020683  -0.0000035206
       -0.0000004285   0.0000043617   0.0000038761   0.0000011002   0.0000022388
        0.0000021246  -0.0000064327   0.0000035411   0.0000112821   0.0000022151
       -0.0000186443   0.0003124348  -0.0000363326   0.0000413357   0.0003833908
        0.0000082458   0.0003439825
       -1.2371007040   0.0105304598   0.0125878705   1.5745661005  -0.0130876297
       -0.0155928490  -0.2636087823   0.0018205957   0.0022430845  -0.0448607174
       -0.0068920789   0.0278759808   0.0112600243  -0.0042711776   0.0068821158
       -0.0133108747   0.0001116779   0.0001215285   0.0072909320  -0.0000628540
       -0.0000850802  -0.0004959904   0.0003436174   0.0020311359  -0.0003539368
       -0.0013680692   0.0005174629   0.0026684780   0.0010181326  -0.0009011203
       -0.0026655426   0.0021324984  -0.0004590796   0.0002435053  -0.0029944885
        0.0009927040  -0.0001760841   0.0026394931  -0.0008597502   0.0019017075
       -0.0000160786  -0.0000110040  -0.0015965603   0.0000164451   0.0000127288
        0.0007690098   0.0002728589   0.0000250811  -0.0006623101   0.0002448196
        0.0000967223   0.0010511419  -0.0000102729  -0.0000033717  -0.0010742148
        0.0000316369   0.0000300570   0.0000949973  -0.0006212889  -0.0003091149
        0.0001480459   0.0005446186   0.0002601373  -0.0000802771   0.0000757379
        0.0000385361   0.0001727263  -0.0000093528  -0.0000022450  -0.0001364988
        0.0001050023   0.0000544157   0.0000025509   0.0001830119   0.0000915514
       -0.0000161234  -0.0002179654  -0.0001091322  -0.0000047439   0.0001906978
        0.0000941520   0.0000740203  -0.0001406440  -0.0000687474  -0.0000630470
        0.0001688913   0.0000822337   0.0000465222  -0.0001221034  -0.0000628716
       -0.0001045966  -0.0001414362  -0.0000765592   0.0001750358   0.0000364608
        0.0000199058  -0.0002058217  -0.0001300176  -0.0000611489   0.0006526270
       -0.0005081146  -0.0002526377  -0.0001996356   0.0004932932   0.0002461666
       -0.0006584526  -0.0002434797  -0.0000992150   0.0007646731  -0.0002860655
       -0.0000361549  -0.0002041672  -0.0026440325   0.0008544331   0.0002648762
        0.0029756994  -0.0009925824  -0.0026789357  -0.0020754296   0.0005017211
        0.0026682760  -0.0010646413   0.0008486393  -0.0003349269   0.0013860896
       -0.0005107374  -0.0005312593  -0.0003567019  -0.0020108895   0.0111122234
        0.0042574889  -0.0071584286  -0.0457687749   0.0076380223  -0.0268667116
        0.0008428562   0.0009140964  -0.0016434225  -0.0003609547  -0.0000340149
        0.0001923681  -0.0000945698  -0.0000416501   0.0001494356  -0.0000559431
        0.0001541703  -0.0001201357   0.0000427056   0.0001034340   0.0000041089
        0.0000258058   0.0000157306   0.0000732434  -0.0000570322   0.0000177693
       -0.0000151816   0.0000568989   0.0000270551   0.0000417379  -0.0000330064
        0.0000055223   0.0000098161   0.0000137451  -0.0000745430  -0.0000481536
        0.0000852145  -0.0000556285  -0.0000259350   0.0000627561   0.0000281349
        0.0000160473   0.0000655426  -0.0000143925  -0.0000080813   0.0000750406
        0.0000565657   0.0000273110   0.0000136477   0.0000980532   0.0000461262
       -0.0000207108   0.0000014783  -0.0000015904   0.0000365609  -0.0000059228
       -0.0000267228  -0.0000602845  -0.0000163337   0.0000126482  -0.0000076531
       -0.0000140870  -0.0000680761   0.0000384453  -0.0000866820  -0.0000041268
       -0.0000599466  -0.0001515776   0.0001174555  -0.0000966324   0.0000473949
       -0.0001427782  -0.0003986718   0.0000480584  -0.0001551759   0.0008516908
       -0.0009759575   0.0015901485
        0.0105322628  -0.0328495200   0.0004517337  -0.0130876297   0.0783081830
       -0.0070310964   0.0018242339  -0.0519226418   0.0015927813  -0.0063842520
       -0.0004090549  -0.0002098750  -0.0008244631   0.0070396111   0.0031534722
        0.0000965543  -0.0002352323  -0.0002934772  -0.0000802827  -0.0017081993
       -0.0004081888  -0.0003158805   0.0000352224   0.0000374493  -0.0000548700
        0.0000534262  -0.0000155172  -0.0000128396  -0.0000169546  -0.0000273969
       -0.0000022959   0.0000282841   0.0000121222  -0.0000382168  -0.0000304334
        0.0000153545   0.0000138554  -0.0000563092   0.0000593567  -0.0000155186
       -0.0000436602  -0.0000120293   0.0000252472   0.0000203096   0.0000540962
       -0.0000011901  -0.0000026380  -0.0000019814   0.0000127027  -0.0000002272
       -0.0000074969  -0.0000095633   0.0000096685   0.0000062628   0.0000042737
        0.0000035277   0.0000053831  -0.0000031103  -0.0000006753  -0.0000004303
        0.0000057655  -0.0000007780  -0.0000002340   0.0000037567   0.0000038728
        0.0000016023  -0.0000032358  -0.0000026981  -0.0000016576   0.0000065091
       -0.0000021705  -0.0000014399   0.0000022659   0.0000026374   0.0000007492
       -0.0000075977   0.0000036959   0.0000012855   0.0000064983  -0.0000017098
       -0.0000010874  -0.0000040270   0.0000020027   0.0000007430  -0.0000013370
       -0.0000053731  -0.0000029612   0.0000019083   0.0000023822   0.0000009174
       -0.0000038110   0.0000051186   0.0000027023  -0.0000047051  -0.0000058652
       -0.0000029247   0.0000020525   0.0000010750   0.0000002520  -0.0000303456
        0.0000132343   0.0000067542   0.0000302130  -0.0000131681  -0.0000064062
       -0.0000025916   0.0000002122  -0.0000066716  -0.0000074468   0.0000010414
       -0.0000010883  -0.0000136602  -0.0000272977   0.0000519507   0.0000328415
       -0.0000905287   0.0000344047   0.0000413175   0.0000631179   0.0000017774
       -0.0000334091   0.0000195531  -0.0000494200   0.0000750952   0.0000152847
       -0.0000007255   0.0003191198   0.0000220274   0.0000691504   0.0008248235
        0.0069502315   0.0032502586   0.0071366217  -0.0006483073   0.0000980299
       -0.0003167726  -0.0024490411  -0.0004876468  -0.0003874906   0.0001980688
        0.0000924683   0.0000176712   0.0000385719   0.0000126949  -0.0000050465
       -0.0000256646   0.0000074774   0.0000068802   0.0000013418   0.0000095917
       -0.0000021138  -0.0000313319  -0.0000288637  -0.0000004557  -0.0000061695
        0.0000022680  -0.0000011638  -0.0000001182  -0.0000020376  -0.0000005580
       -0.0000012236  -0.0000000252   0.0000003275   0.0000011650   0.0000001417
       -0.0000000872   0.0000001284  -0.0000004187  -0.0000013409   0.0000002662
       -0.0000002187   0.0000000661   0.0000008992   0.0000002180  -0.0000019730
       -0.0000005038  -0.0000003148  -0.0000006177   0.0000003439  -0.0000007173
        0.0000014584   0.0000007181   0.0000006055  -0.0000006179  -0.0000012591
       -0.0000009020   0.0000007291  -0.0000013372   0.0000021761  -0.0000018330
       -0.0000297710  -0.0000288354  -0.0000062226   0.0000037918   0.0000094181
        0.0000052087  -0.0000211960   0.0000057899  -0.0000124099   0.0000389760
        0.0000143852   0.0004003027   0.0001912807   0.0000876681   0.0002504203
       -0.0024382131  -0.0005214069
        0.0126090408   0.0004500125  -0.0349103049  -0.0155928490  -0.0070310964
        0.1043759074   0.0022593198   0.0018330168  -0.0590945242   0.0257755397
       -0.0001848360  -0.0005159542   0.0037322316   0.0029054161  -0.0039904697
        0.0001224878   0.0002888781  -0.0015358366  -0.0000793524  -0.0003679932
       -0.0000678550  -0.0000866580   0.0000228171  -0.0000100076   0.0000184718
        0.0000509942   0.0000077430  -0.0000219415  -0.0000416745   0.0000057647
        0.0000305123  -0.0000059463   0.0000091319  -0.0000146015   0.0000206809
       -0.0000045000  -0.0000143316  -0.0000264937   0.0000092980  -0.0000198035
       -0.0000215911  -0.0000017053   0.0000223980   0.0000078523   0.0000181509
       -0.0000065113  -0.0000017663  -0.0000021870   0.0000107499  -0.0000013267
       -0.0000057790  -0.0000113952   0.0000049228   0.0000017994   0.0000077939
        0.0000007457   0.0000019931  -0.0000019146   0.0000045398   0.0000009109
        0.0000012306  -0.0000042668  -0.0000015953   0.0000018981   0.0000008915
        0.0000007226  -0.0000020569  -0.0000014184   0.0000000631   0.0000035064
       -0.0000012732   0.0000005699   0.0000004469  -0.0000013389   0.0000008068
       -0.0000028131   0.0000027813   0.0000028315   0.0000023694  -0.0000020449
       -0.0000002276  -0.0000021273   0.0000015206   0.0000014855  -0.0000001669
       -0.0000043298  -0.0000008677   0.0000019717   0.0000015965   0.0000020692
       -0.0000015831   0.0000042267   0.0000027193  -0.0000039650  -0.0000029299
       -0.0000012277   0.0000021164   0.0000011966   0.0000006682  -0.0000181205
        0.0000083648   0.0000048833   0.0000158448  -0.0000078143  -0.0000042943
        0.0000031373   0.0000029338  -0.0000026201  -0.0000077908   0.0000029468
       -0.0000016370   0.0000169710   0.0000186961  -0.0000054939   0.0000069864
       -0.0000468113   0.0000178538   0.0000217560   0.0000402989  -0.0000022875
       -0.0000345941  -0.0000101457  -0.0000150176  -0.0000031977   0.0000140900
        0.0000224792   0.0000951842   0.0000215916   0.0000333125  -0.0040062025
        0.0028947717  -0.0037491926  -0.0247972757   0.0000876841   0.0006180501
        0.0012106417  -0.0005440847  -0.0004084374   0.0014281580   0.0000878487
       -0.0001950051   0.0000077196  -0.0000307130  -0.0000050084   0.0000032191
        0.0000082794  -0.0000024446   0.0000044448  -0.0000044194  -0.0000017102
        0.0000005536  -0.0000093771  -0.0000138005  -0.0000001486   0.0000057856
       -0.0000002979  -0.0000010526  -0.0000066762  -0.0000018762   0.0000072410
        0.0000060816   0.0000007412  -0.0000004181   0.0000004506   0.0000011392
       -0.0000002914  -0.0000002352   0.0000011246   0.0000062003  -0.0000004912
        0.0000009009  -0.0000006009   0.0000004038   0.0000012556  -0.0000017929
       -0.0000008875   0.0000003930   0.0000000666  -0.0000085020  -0.0000006909
       -0.0000065073   0.0000010551   0.0000006930  -0.0000010178   0.0000069074
       -0.0000002042  -0.0000000721  -0.0000060013  -0.0000005556   0.0000043955
       -0.0000069317  -0.0000128361  -0.0000040390  -0.0000022180  -0.0000009978
       -0.0000030672  -0.0000021997  -0.0000034606  -0.0000196217  -0.0000300069
       -0.0000024184  -0.0014205512   0.0001117858  -0.0001604668  -0.0012461715
       -0.0005042238  -0.0004116664
       -0.0636475690   0.0006823590   0.0008658974  -0.2636087823   0.0018242339
        0.0022593198   0.6509406274  -0.0056107978  -0.0017181188  -0.1203900476
       -0.0262116159   0.1072271183  -0.0459069144  -0.0016012428   0.0216750098
        0.0193554790  -0.0001119946  -0.0006717384  -0.0097118001   0.0000714053
        0.0001075755   0.0010404174  -0.0001011251  -0.0026243495   0.0002311823
        0.0011478405  -0.0004318258  -0.0023869650  -0.0010753253   0.0009015200
        0.0026777937  -0.0021089246   0.0004693062  -0.0002311022   0.0030109519
       -0.0009645735   0.0000940829  -0.0024627008   0.0007386384  -0.0018817304
        0.0000139643   0.0000131510   0.0015603693  -0.0000110120  -0.0000074711
       -0.0007710724  -0.0003964298  -0.0000265200   0.0006383409  -0.0002907964
       -0.0001147188  -0.0010429372   0.0000138456   0.0000047074   0.0009565827
       -0.0000858415  -0.0000648173  -0.0001781377   0.0005036969   0.0002504702
       -0.0000533124  -0.0002708421  -0.0001207820   0.0000416843  -0.0000351920
       -0.0000170130  -0.0001152033  -0.0000095097  -0.0000068862   0.0000888497
       -0.0000688291  -0.0000354687   0.0000033476  -0.0000990768  -0.0000484114
        0.0000107728   0.0001200729   0.0000598002   0.0000067852  -0.0001164122
       -0.0000562992  -0.0000718234   0.0000931731   0.0000455865   0.0000447064
       -0.0000874876  -0.0000417136  -0.0000409191   0.0000607863   0.0000315212
        0.0000970415   0.0000919077   0.0000505074  -0.0001215112  -0.0000416154
       -0.0000216418   0.0001720449   0.0000973324   0.0000468750  -0.0004268747
        0.0002569688   0.0001223946   0.0001307395  -0.0003645999  -0.0001850079
        0.0006342552   0.0002878212   0.0001162989  -0.0007627973   0.0004104152
        0.0000378598   0.0001273396   0.0024736620  -0.0007251625  -0.0002577864
       -0.0029912382   0.0009686242   0.0026876518   0.0020664550  -0.0005098605
       -0.0023865946   0.0011170699  -0.0008469981   0.0002007620  -0.0011410665
        0.0004261856   0.0010920783   0.0001158115   0.0025956435  -0.0476627437
        0.0023447318  -0.0202901949  -0.1233782365   0.0282652208  -0.1090162961
        0.0069811450   0.0019147360  -0.0111341217  -0.0058138057   0.0000071980
        0.0000353050  -0.0000764052  -0.0001463972  -0.0000395067   0.0000077758
       -0.0001037516   0.0000962325   0.0000172167  -0.0000598788  -0.0000497387
        0.0000097730   0.0000029706  -0.0000905051   0.0000394048   0.0000186642
        0.0000321374  -0.0000254434   0.0000070364  -0.0000284810   0.0000290130
       -0.0000044313  -0.0000107134  -0.0000027853   0.0000465068   0.0000332106
       -0.0000568404   0.0000367457   0.0000177346  -0.0000356577  -0.0000225408
       -0.0000125060  -0.0000384914   0.0000038895   0.0000028809  -0.0000441331
       -0.0000381700  -0.0000179483  -0.0000071752  -0.0000672667  -0.0000284861
        0.0000194632  -0.0000083401  -0.0000023380  -0.0000190679  -0.0000195266
        0.0000176476   0.0000405403  -0.0000146339  -0.0000245069   0.0000477532
       -0.0000029929   0.0000825310   0.0000186199   0.0000516054   0.0000506223
        0.0000104603   0.0001079714  -0.0000877095  -0.0000814254   0.0001510521
        0.0000409588  -0.0057937510   0.0002574378   0.0001249632   0.0069757427
       -0.0018939338   0.0105241957
        0.0006834356   0.0153071670  -0.0007153815   0.0018205957  -0.0519226418
        0.0018330168  -0.0056107978   0.1449240995  -0.1178705205  -0.0150026539
       -0.0590903971   0.0483885139  -0.0182961381   0.0032042511  -0.0042018141
       -0.0001270601  -0.0091647110   0.0115629403   0.0000775279  -0.0003846821
       -0.0003809980  -0.0000363200  -0.0000682898   0.0000576270  -0.0001069178
        0.0000067680   0.0001279546   0.0000253924   0.0000006092  -0.0000139016
       -0.0000415482  -0.0000059748  -0.0000326438   0.0000067686  -0.0000113301
        0.0000017815   0.0000022624  -0.0000016368  -0.0000199086   0.0000175676
        0.0000285732  -0.0000097276  -0.0000035058  -0.0000048882  -0.0000130392
        0.0000076206   0.0000055562   0.0000022798  -0.0000111513   0.0000020416
        0.0000019345   0.0000082578  -0.0000018617  -0.0000012799  -0.0000128079
        0.0000031119   0.0000010346   0.0000009414  -0.0000072544  -0.0000034984
        0.0000041102   0.0000036266   0.0000014332   0.0000023479   0.0000034994
        0.0000016954  -0.0000015710  -0.0000026256  -0.0000012201   0.0000035721
       -0.0000010781  -0.0000005991   0.0000009073   0.0000034603   0.0000014061
       -0.0000070426   0.0000000320  -0.0000001733   0.0000052132   0.0000002372
        0.0000000439  -0.0000018345  -0.0000006237  -0.0000003584  -0.0000024300
       -0.0000031552  -0.0000016835   0.0000024462  -0.0000000242  -0.0000001447
       -0.0000044079   0.0000013546   0.0000004400  -0.0000001988  -0.0000048421
       -0.0000023056  -0.0000014609  -0.0000012998  -0.0000006129  -0.0000173426
        0.0000053426   0.0000027823   0.0000241097  -0.0000019795  -0.0000009077
       -0.0000012574  -0.0000056237   0.0000002694   0.0000100984  -0.0000031266
        0.0000019908  -0.0000092415  -0.0000592291  -0.0000018141  -0.0000022367
        0.0000328058  -0.0000118139  -0.0000140832  -0.0000433995  -0.0000256789
        0.0000157897  -0.0000012104  -0.0000039733   0.0001169797   0.0000102630
        0.0001236526   0.0000124219  -0.0000834317   0.0000163077   0.0190563747
        0.0028700659  -0.0042647558   0.0171311776  -0.0598220347   0.0498809424
       -0.0026341546  -0.0007156668   0.0063482147   0.0000925333   0.0078155631
        0.0015108851   0.0000215185   0.0000476967   0.0000136071  -0.0000033000
        0.0000060647   0.0000053524   0.0000059466  -0.0000012048   0.0000032280
        0.0000027450   0.0000060857   0.0000148274  -0.0000016897   0.0000026339
       -0.0000013256  -0.0000009740  -0.0000060726  -0.0000003025   0.0000052921
        0.0000050771   0.0000004124  -0.0000008725  -0.0000001411  -0.0000003339
        0.0000009036  -0.0000016484  -0.0000007595   0.0000065344  -0.0000000359
        0.0000000590   0.0000009431   0.0000000586   0.0000000918  -0.0000000953
       -0.0000001397   0.0000000344   0.0000007720  -0.0000051594  -0.0000000421
       -0.0000058997   0.0000013301   0.0000007371  -0.0000001638   0.0000058983
        0.0000002248  -0.0000008310  -0.0000063869  -0.0000008580   0.0000010050
        0.0000086406   0.0000120985  -0.0000047686  -0.0000011417   0.0000020778
        0.0000021302  -0.0000076468   0.0000080393  -0.0000292276   0.0000461460
        0.0000124350   0.0001717759   0.0078137964   0.0015210574   0.0026459667
       -0.0007292603   0.0061209475
        0.0008505453  -0.0006566644   0.0179169849   0.0022430845   0.0015927813
       -0.0590945242  -0.0017181188  -0.1178705205   0.5765786696   0.0587354030
        0.0483429563  -0.2407377250   0.0752069465  -0.0054445409   0.0178508924
       -0.0006867041   0.0108649687  -0.0508990670   0.0001145452   0.0003849105
        0.0002726637  -0.0000327349   0.0004754069  -0.0000585569   0.0005647568
        0.0003615864  -0.0002528915  -0.0000581030  -0.0001745091   0.0000694432
        0.0001140287   0.0001291043   0.0001270710  -0.0000714396  -0.0000710994
        0.0000381985  -0.0001285941   0.0001799033   0.0000333128   0.0000198637
       -0.0002541675   0.0000262479  -0.0000097839   0.0000385761   0.0001248554
        0.0000217616  -0.0000083504  -0.0000117682   0.0000163739   0.0000109698
       -0.0000138480   0.0000119548   0.0000246658   0.0000147734  -0.0000138717
       -0.0000034064   0.0000078486   0.0000008683  -0.0000060266  -0.0000049086
        0.0000033531   0.0000056121   0.0000039199   0.0000027056   0.0000028703
        0.0000013170  -0.0000010817  -0.0000028355  -0.0000020387   0.0000027116
        0.0000007081   0.0000004748   0.0000011676   0.0000034156   0.0000023721
       -0.0000040920  -0.0000004478  -0.0000001036   0.0000039382   0.0000018507
        0.0000011621  -0.0000008403  -0.0000008456  -0.0000002372  -0.0000018150
       -0.0000013317  -0.0000002790   0.0000019270  -0.0000006573   0.0000002816
       -0.0000041602   0.0000012975   0.0000019129   0.0000013439  -0.0000035931
       -0.0000019402  -0.0000026846  -0.0000009303  -0.0000007594  -0.0000050044
        0.0000016250   0.0000013827   0.0000129997   0.0000040948   0.0000021634
       -0.0000324016  -0.0000011164  -0.0000207593  -0.0000026030  -0.0000162793
       -0.0000117882   0.0001291342   0.0001150969   0.0000529569   0.0000759214
       -0.0000107722   0.0000159976  -0.0001694663   0.0000842759   0.0001394179
        0.0001086403  -0.0001895903   0.0000782698  -0.0005557417   0.0003928938
       -0.0002420656   0.0000085621   0.0004621852  -0.0001150830  -0.0738459867
       -0.0042727801   0.0199515411  -0.0605327213   0.0487801624  -0.2370948769
        0.0105394830   0.0068540654  -0.0240958460   0.0000612057   0.0014458263
        0.0018017041   0.0002633903  -0.0000103882   0.0000411898   0.0000181672
       -0.0000253435  -0.0000293578   0.0000051470   0.0000124139  -0.0000057720
       -0.0000061853  -0.0000462557  -0.0000701756   0.0000010240  -0.0000152447
        0.0000073824   0.0000043747   0.0000195625  -0.0000001008  -0.0000188614
       -0.0000177031  -0.0000003543   0.0000009826  -0.0000002367  -0.0000004200
        0.0000000055   0.0000005321  -0.0000001288  -0.0000184886   0.0000007195
        0.0000002351   0.0000006112   0.0000001099   0.0000000758  -0.0000000005
        0.0000005500   0.0000004923  -0.0000006356   0.0000211357   0.0000010116
        0.0000189098  -0.0000008645  -0.0000000779  -0.0000025024  -0.0000168280