$hessian                                                                        
        0.5746106755   0.1354025823  -0.1675057598  -0.0901523687  -0.0068098527
        0.0184011078   0.0333588174   0.0220580082   0.0112870043  -0.0216177808
       -0.0236957542  -0.0151256651  -0.0523592938   0.0120324723   0.0450444205
        0.0016336470   0.0002286199   0.0049699542  -0.0010993013   0.0001623284
        0.0001317789   0.0002474799   0.0000686216  -0.0004955466  -0.0001344313
        0.0000409827  -0.0000631696   0.0000032778   0.0000091214   0.0001020696
        0.0000041279  -0.0000180379   0.0000058094   0.0000109454   0.0000240445
       -0.0000039854  -0.0000053819   0.0000077100  -0.0000068612  -0.0000235997
        0.0000065547   0.0000010374   0.0000091093  -0.0000072312  -0.0000031691
        0.0000021350   0.0000015187   0.0000049692   0.0000004504  -0.0000016510
       -0.0000007392   0.0000006734  -0.0000003805  -0.0000025114  -0.0000044414
        0.0000026650  -0.0000009623  -0.0000031264   0.0000006192  -0.0000013594
       -0.0000050736  -0.0000002212   0.0000052004   0.0000039798  -0.0000015639
       -0.0000013418   0.0000003495   0.0000026902  -0.0000057715  -0.0000030378
        0.0000014327  -0.0000001428  -0.0000040780   0.0000010593   0.0000002096
        0.0000024412  -0.0000015106  -0.0000019529  -0.0000004921  -0.0000002351
       -0.0000017454  -0.0000016546  -0.0000029487  -0.0000030958   0.0000075506
       -0.0000077713   0.0000036789  -0.0000152184   0.0000081893  -0.0000035348
       -0.0000156287   0.0000018023  -0.0000022052  -0.0000016802   0.0000140083
       -0.0000005102  -0.0000152303  -0.0000147829   0.0000006867   0.0000057919
        0.0000007565  -0.0000006632   0.0000007653   0.0000031346   0.0000037070
       -0.0000004035  -0.0000005739  -0.0000011375   0.0000068609   0.0000034114
        0.0000012290  -0.0000051120  -0.0000005800  -0.0000042956  -0.0000048746
       -0.0000034864  -0.0000009045   0.0000017898  -0.0000029577   0.0000061092
        0.0000041266   0.0000018976   0.0000001739  -0.0000027271   0.0000027129
       -0.0000076258  -0.0000049403  -0.0000020435  -0.0000010850  -0.0000027834
       -0.0000044151   0.0000027119   0.0000063008   0.0000051823  -0.0000018638
        0.0000004644   0.0000004546  -0.0000016026   0.0000036963   0.0000008940
       -0.0000053225   0.0000111850  -0.0000028655   0.0000055855  -0.0000029599
       -0.0000138712   0.0000003491   0.0000379425   0.0000147956  -0.0000303190
       -0.0000486958  -0.0000219856   0.0000103227   0.0000951572   0.0000070143
        0.0000726339  -0.0000866802  -0.0001031694   0.0000054045   0.0001799954
       -0.0000490034  -0.0002829966  -0.0006223202  -0.0004481189  -0.0005030276
       -0.0000869522   0.0001848052   0.0002019716  -0.0001257408   0.0002213902
       -0.0001714869   0.0002359938  -0.0000351914  -0.0001078813   0.0000571755
       -0.0000592344   0.0000465636  -0.0001382613   0.0001405574  -0.0000070008
        0.0000946905  -0.0002430511  -0.0001220724  -0.2594425828  -0.1482987794
       -0.0079964835  -0.1761291535   0.0350799325   0.1272458483  -0.0047987320
       -0.0196534629  -0.0142714115   0.0005245807  -0.0005584346  -0.0004433520
        0.0001318084  -0.0002111700   0.0001738235   0.0000054260  -0.0000124634
        0.0000060945  -0.0000000155  -0.0000033740  -0.0000003760   0.0000014008
       -0.0000001685  -0.0000000500  -0.0000014792   0.0000005312  -0.0000004604
       -0.0000017335  -0.0000001594  -0.0000005566  -0.0000011568   0.0000006811
       -0.0000010216  -0.0000018653   0.0000000108  -0.0000004431  -0.0000010898
        0.0000002268  -0.0000005162  -0.0000000464   0.0000004124  -0.0000001876
        0.0000026053  -0.0000008696  -0.0000005232  -0.0000031663   0.0000010904
       -0.0000016407  -0.0000017997  -0.0000000530  -0.0000004340   0.0000005873
        0.0000012638  -0.0000002914  -0.0000001698  -0.0000005626  -0.0000008770
        0.0000003175  -0.0000004386   0.0000006959   0.0000000825   0.0000003397
       -0.0000006724   0.0000008710  -0.0000005266  -0.0000003738   0.0000000465
        0.0000007029  -0.0000015748  -0.0000006539   0.0000006498  -0.0000004354
        0.0000007409   0.0000009565  -0.0000003918  -0.0000022874  -0.0000016479
       -0.0000005837  -0.0000022873   0.0000029701  -0.0000027382  -0.0000206732
       -0.0000387944   0.0000514340  -0.0001356268   0.0001377266   0.0000726398
        0.0000255681  -0.0000063492   0.0000116014  -0.0000286142   0.0000129294
        0.0000353717   0.0000078699   0.0000176095   0.0000161654  -0.0041720975
       -0.0055803280  -0.0007236541
        0.1354025823   0.4222049306   0.2192126287  -0.0590658356  -0.1970683993
       -0.1031887279   0.0660620035   0.0029913356  -0.0582402887  -0.0312076375
       -0.0398620105  -0.0106496376  -0.0226971170   0.0285382470   0.0443911186
        0.0022179289   0.0053756933  -0.0045486261  -0.0022164884  -0.0000770113
        0.0003441842   0.0004453208   0.0004204638   0.0006919475  -0.0002872203
        0.0000533162   0.0000580231   0.0000614344  -0.0000789807  -0.0001411695
       -0.0000602408   0.0000167881  -0.0000076149   0.0000047261  -0.0000192458
       -0.0000017092  -0.0000310905  -0.0000138390   0.0000180211   0.0000792008
       -0.0000727004  -0.0000012068  -0.0000893465   0.0000605308  -0.0000076694
       -0.0000000244  -0.0000454798   0.0000288965   0.0000055544  -0.0000029156
       -0.0000040774  -0.0000137468   0.0000080170   0.0000032866   0.0000135554
       -0.0000051317  -0.0000077043   0.0000015072  -0.0000081801   0.0000167890
        0.0000078458   0.0000072646  -0.0000248796  -0.0000249460   0.0000211751
       -0.0000052192  -0.0000010080  -0.0000190304   0.0000298460   0.0000078749
        0.0000029909  -0.0000169119   0.0000089799  -0.0000077613   0.0000063693
       -0.0000089657   0.0000079864  -0.0000034203   0.0000053653  -0.0000020969
        0.0000030930   0.0000308874   0.0000187062  -0.0000220311  -0.0000185993
        0.0000564540  -0.0000200186   0.0000316516  -0.0000130620   0.0000016724
        0.0000092126   0.0000195974   0.0000056198  -0.0000131213  -0.0000431171
        0.0000118220   0.0000699366   0.0000625363  -0.0000000836  -0.0000875175
       -0.0000552552   0.0000006811   0.0000367538  -0.0000179164   0.0000287772
        0.0000038617   0.0000026190  -0.0000052554  -0.0000060200  -0.0000067484
        0.0000045583   0.0000073480   0.0000077240  -0.0000075977   0.0000063893
       -0.0000038238   0.0000165315  -0.0000028647   0.0000113850  -0.0000212865
       -0.0000206304  -0.0000140700   0.0000000968   0.0000090101  -0.0000058822
        0.0000213844  -0.0000002334   0.0000071166  -0.0000166048   0.0000115295
        0.0000027936   0.0000082891  -0.0000070555  -0.0000029246  -0.0000046355
        0.0000055711   0.0000027093   0.0000035830  -0.0000001387   0.0000417344
       -0.0000283341  -0.0000088977   0.0000151424  -0.0000186170  -0.0000139355
       -0.0000020736  -0.0000061217   0.0000200729   0.0000094230   0.0000396291
       -0.0001398589   0.0001350157  -0.0000132125   0.0002399083  -0.0000332746
       -0.0000357247  -0.0002529552  -0.0002657143  -0.0000331296   0.0002351039
        0.0003053564   0.0001299472   0.0007323067  -0.0002127134  -0.0004946388
       -0.0000222648   0.0001727185   0.0000197009  -0.0001293140   0.0000391087
       -0.0000034637   0.0000351957  -0.0000857182  -0.0001035602   0.0000333620
        0.0001015793   0.0001155942  -0.0001431386   0.0000392557  -0.0000879691
        0.0000415796  -0.0002401080   0.0000452781  -0.0971641092  -0.1462986326
       -0.0341334412   0.0343012097  -0.0490951424  -0.0381542730  -0.0058294869
       -0.0134424062  -0.0124513085  -0.0002556973  -0.0002263237   0.0003321271
        0.0000663095  -0.0002041989  -0.0002221982   0.0000101516  -0.0000166682
       -0.0000028762  -0.0000025159   0.0000074022   0.0000013022  -0.0000002307
       -0.0000016875   0.0000038356   0.0000029153   0.0000002369  -0.0000045323
       -0.0000036419   0.0000042634  -0.0000059295  -0.0000046529   0.0000021299
       -0.0000011079  -0.0000043984   0.0000024744  -0.0000000005  -0.0000045814
        0.0000000551   0.0000038656   0.0000010031  -0.0000025697   0.0000018829
        0.0000007488   0.0000018890  -0.0000052436  -0.0000063159  -0.0000012803
        0.0000002787  -0.0000049760   0.0000014332   0.0000005029   0.0000002135
       -0.0000017509   0.0000042933   0.0000007239   0.0000023776  -0.0000025581
       -0.0000040318  -0.0000003439  -0.0000033411  -0.0000032417  -0.0000023507
       -0.0000002858  -0.0000030240  -0.0000024250   0.0000009595  -0.0000015379
       -0.0000033928   0.0000041724   0.0000032681  -0.0000001659   0.0000029847
       -0.0000006217   0.0000010131  -0.0000040287  -0.0000017779  -0.0000075402
       -0.0000005071   0.0000039780   0.0000066300   0.0000032964   0.0000538245
        0.0000093687   0.0000099221  -0.0000236569   0.0000600963  -0.0000857279
        0.0000408834   0.0000175008   0.0000088723   0.0000164829  -0.0000144210
        0.0000050336   0.0000338012   0.0000205819   0.0000195831  -0.0205303627
       -0.0132906828  -0.0028117745
       -0.1675057598   0.2192126287   0.4378822309  -0.0334283637  -0.1384395192
       -0.1669162477   0.0555777187  -0.0283333048  -0.0447543802  -0.0228985794
       -0.0160273901  -0.0102736867   0.0117552466   0.0243945665   0.0137665782
        0.0048447082  -0.0044194138   0.0008664667   0.0014922721   0.0006338690
       -0.0000406771   0.0002301188  -0.0001542146  -0.0000201627   0.0001301013
        0.0000044219  -0.0000032867   0.0000553917  -0.0000578107  -0.0000142345
       -0.0000349739   0.0000314659   0.0000042132   0.0000014985  -0.0000208568
        0.0000039217  -0.0000139148  -0.0000141865   0.0000130432   0.0000560405
       -0.0000394308  -0.0000002781  -0.0000536895   0.0000300779   0.0000046568
       -0.0000039969  -0.0000195226   0.0000066481   0.0000039687  -0.0000008283
       -0.0000025436  -0.0000077833   0.0000042502   0.0000039154   0.0000096374
       -0.0000049842  -0.0000017960   0.0000027295  -0.0000037949   0.0000093771
        0.0000100801   0.0000034962  -0.0000179183  -0.0000188490   0.0000126953
       -0.0000002023  -0.0000010352  -0.0000113431   0.0000196285   0.0000063138
       -0.0000000530  -0.0000086803   0.0000079559  -0.0000053765   0.0000033291
       -0.0000076966   0.0000053616   0.0000001723   0.0000038771  -0.0000024594
        0.0000033502   0.0000180017   0.0000120145  -0.0000103443  -0.0000155505
        0.0000309932  -0.0000138574   0.0000308479  -0.0000082595  -0.0000033738
        0.0000259720   0.0000042197   0.0000040164  -0.0000098687  -0.0000329916
        0.0000123371   0.0000507015   0.0000405284  -0.0000006715  -0.0000492852
       -0.0000305426   0.0000029307   0.0000169929  -0.0000114183   0.0000107616
        0.0000029265   0.0000028658  -0.0000027363  -0.0000076834  -0.0000053688
        0.0000009468   0.0000075630   0.0000046380  -0.0000012171   0.0000065526
        0.0000000212   0.0000096499  -0.0000023456   0.0000082899  -0.0000157068
       -0.0000140159  -0.0000082332  -0.0000020451   0.0000071858  -0.0000036921
        0.0000150751   0.0000038660   0.0000054377  -0.0000098085   0.0000085774
        0.0000039327   0.0000025432  -0.0000079240  -0.0000067711   0.0000000784
        0.0000040471   0.0000025229   0.0000008771  -0.0000025708   0.0000222412
       -0.0000137416  -0.0000183438   0.0000118876  -0.0000102470  -0.0000018476
        0.0000185060  -0.0000020723  -0.0000488164  -0.0000265127  -0.0000003624
        0.0000397200   0.0000505512  -0.0000087297  -0.0000509357   0.0000016318
        0.0000228054   0.0000184415  -0.0000891258  -0.0000118498   0.0000076600
       -0.0001775149  -0.0001208168  -0.0005871666  -0.0004066349  -0.0001379654
        0.0000048477   0.0001737684   0.0000221527  -0.0003203903   0.0003396023
       -0.0000752522   0.0001078942  -0.0001035594  -0.0001363398   0.0000357418
        0.0001608221   0.0001952412  -0.0001373844  -0.0000113623  -0.0001664847
       -0.0000376153  -0.0000957747   0.0000040614   0.0410153719  -0.0024538704
       -0.0760746269   0.1267755162  -0.0381570075  -0.1553148799  -0.0007209311
       -0.0032940537   0.0000004157  -0.0005179377   0.0001740210   0.0006907001
        0.0000406202   0.0000434054   0.0000212594   0.0000018310  -0.0000013023
       -0.0000054789  -0.0000013216   0.0000052091   0.0000006367  -0.0000011176
        0.0000000947   0.0000017876   0.0000029183   0.0000001083  -0.0000010987
       -0.0000012855   0.0000033279  -0.0000025655  -0.0000028178   0.0000012760
        0.0000007826  -0.0000014689   0.0000015499   0.0000006893  -0.0000021860
       -0.0000003949   0.0000032969   0.0000008375  -0.0000022916   0.0000014696
       -0.0000002221   0.0000017658  -0.0000021978  -0.0000006211  -0.0000012288
       -0.0000003695  -0.0000008684   0.0000012828   0.0000005967  -0.0000001438
       -0.0000021135   0.0000017522   0.0000006869   0.0000019193  -0.0000005519
       -0.0000024240   0.0000002972  -0.0000026491  -0.0000020300  -0.0000016221
       -0.0000003402  -0.0000022893  -0.0000012881   0.0000001432  -0.0000006522
       -0.0000030503   0.0000032118   0.0000027194  -0.0000006530   0.0000012506
        0.0000000551   0.0000005027  -0.0000021158   0.0000003381  -0.0000027330
       -0.0000010549   0.0000029649   0.0000044867   0.0000014837  -0.0000520830
       -0.0000516050   0.0000347618   0.0000927147  -0.0000036407  -0.0000481379
        0.0000234117   0.0000175098   0.0000282436   0.0000297954  -0.0000528526
        0.0000115012   0.0000392927   0.0000137811   0.0000066577  -0.0160174857
       -0.0128958867   0.0005521351
       -0.0901523687  -0.0590658356  -0.0334283637   0.5771114597   0.1531993235
       -0.1379090937  -0.2048556752   0.0497217696   0.1434781354  -0.0787792970
       -0.0314391024   0.0228547769  -0.0031925758   0.0223695034   0.0179145518
       -0.0022290546  -0.0003206924   0.0002324749   0.0006159184  -0.0003466804
       -0.0004266240  -0.0001601531  -0.0000680199   0.0000349890   0.0000733091
       -0.0000293990  -0.0000242788  -0.0000420717   0.0000248907   0.0000189042
        0.0000276013  -0.0000143683  -0.0000034914  -0.0000082940   0.0000410857
       -0.0000055146   0.0000159285   0.0000085837  -0.0000111747  -0.0000572306
        0.0000475206  -0.0000016814   0.0000684677  -0.0000335914  -0.0000017635
        0.0000005558   0.0000266177  -0.0000168081  -0.0000045558   0.0000029294
        0.0000026221   0.0000053660  -0.0000035290  -0.0000019083  -0.0000112681
        0.0000056074   0.0000024794  -0.0000047883   0.0000060240  -0.0000129933
       -0.0000109175  -0.0000030398   0.0000155121   0.0000169743  -0.0000101931
        0.0000037158  -0.0000013312   0.0000101070  -0.0000180446  -0.0000087426
       -0.0000001759   0.0000121290  -0.0000089847   0.0000068888  -0.0000031033
        0.0000050214  -0.0000039252   0.0000009593  -0.0000035243   0.0000044491
       -0.0000024699  -0.0000270085  -0.0000121688   0.0000148228   0.0000080298
       -0.0000198631   0.0000120898  -0.0000316603   0.0000272022   0.0000058676
       -0.0000205646  -0.0000264899  -0.0000039810   0.0000030312   0.0000217529
       -0.0000109375  -0.0000518290  -0.0000502070   0.0000012919   0.0000683810
        0.0000412585   0.0000020795  -0.0000238642   0.0000110116  -0.0000147055
       -0.0000035259  -0.0000028350   0.0000053264   0.0000044129   0.0000047862
       -0.0000005284  -0.0000076427  -0.0000055534   0.0000032496  -0.0000074239
        0.0000007276  -0.0000097453   0.0000023709  -0.0000095051   0.0000158607
        0.0000132821   0.0000109419  -0.0000034098  -0.0000042665   0.0000031066
       -0.0000123810  -0.0000031152  -0.0000047597   0.0000130589  -0.0000081780
       -0.0000034186  -0.0000014213   0.0000064850   0.0000047792   0.0000043728
       -0.0000037126   0.0000010533  -0.0000025434   0.0000020673  -0.0000296698
        0.0000193969   0.0000060071  -0.0000104254   0.0000107113   0.0000100287
       -0.0000271946   0.0000056553  -0.0000116710  -0.0000073623   0.0000089682
        0.0000792905  -0.0000721110  -0.0000098415  -0.0001774030  -0.0000071059
       -0.0000065388   0.0002235369   0.0000149658   0.0000307938  -0.0001959873
        0.0000416815  -0.0000376125   0.0003751530   0.0008108132   0.0000373091
        0.0000275397   0.0000953196  -0.0000450814   0.0000076286  -0.0000202730
       -0.0000849229   0.0000571652  -0.0000333782  -0.0000357661   0.0000612779
       -0.0000108075   0.0000455677  -0.0000847921   0.0000850809   0.0000057397
        0.0000187832  -0.0000755685  -0.0000186936   0.0126941053  -0.0175076520
       -0.0245317152   0.0009249481   0.0151064735   0.0141781553  -0.2053931850
       -0.1198270701  -0.0075736849  -0.0041530943  -0.0062977296   0.0031776935
        0.0000438947  -0.0001587090   0.0000431411   0.0000007207  -0.0000068670
        0.0000058762  -0.0000044249  -0.0000030006  -0.0000013746   0.0000001908
       -0.0000000254  -0.0000005995  -0.0000050314  -0.0000012815   0.0000003446
       -0.0000011541  -0.0000045865   0.0000036208   0.0000020801  -0.0000017336
       -0.0000000551   0.0000012132  -0.0000025077  -0.0000016114   0.0000021894
        0.0000000426  -0.0000046597   0.0000007851   0.0000027769  -0.0000011159
        0.0000003370  -0.0000046230   0.0000005093   0.0000006006   0.0000027096
        0.0000016459  -0.0000006911  -0.0000013504  -0.0000014893   0.0000003979
        0.0000045822  -0.0000004254   0.0000011957  -0.0000027407   0.0000012760
        0.0000031889  -0.0000005232   0.0000047186   0.0000028919   0.0000016482
        0.0000019503   0.0000041801   0.0000014635   0.0000002051   0.0000019166
        0.0000043042  -0.0000029252  -0.0000018101   0.0000025071  -0.0000009990
        0.0000023217  -0.0000006857   0.0000017025   0.0000008160   0.0000068221
        0.0000016231   0.0000007136   0.0000042752  -0.0000041640   0.0000187589
        0.0000239539   0.0000001441  -0.0001149753  -0.0000993365   0.0000702899
        0.0000294454  -0.0000198493   0.0000226693   0.0000116871   0.0000276663
        0.0000082621   0.0000079603   0.0000044288   0.0000387910  -0.0028037681
       -0.0061359147   0.0019142120
       -0.0068098527  -0.1970683993  -0.1384395192   0.1531993235   0.4455217091
        0.2108930295   0.0168345497  -0.1024800211  -0.0553003166   0.0095499125
        0.0333304799   0.0229773762   0.0163352825  -0.0222799699  -0.0229815304
       -0.0018331047  -0.0012581238   0.0005298675   0.0009024993  -0.0000952510
       -0.0001041038  -0.0003009152  -0.0002636880  -0.0000689464   0.0001330901
       -0.0000458649  -0.0000023175  -0.0000702230   0.0002123118   0.0000225987
        0.0000862117  -0.0000391601  -0.0000009503   0.0000020777   0.0000494634
       -0.0000066049   0.0000505173   0.0000281528  -0.0000368732  -0.0001410458
        0.0001304080   0.0000026980   0.0001585736  -0.0001148387   0.0000070814
        0.0000011786   0.0000828168  -0.0000502206  -0.0000088101   0.0000044593
        0.0000010651   0.0000182272  -0.0000121707  -0.0000075089  -0.0000260587
        0.0000053917   0.0000175363   0.0000004206   0.0000143925  -0.0000371130
       -0.0000142245  -0.0000105161   0.0000428879   0.0000394920  -0.0000362362
        0.0000071153   0.0000014857   0.0000330668  -0.0000493459  -0.0000144472
       -0.0000084126   0.0000330468  -0.0000164145   0.0000173383  -0.0000181189
        0.0000150193  -0.0000131388   0.0000039462  -0.0000088160   0.0000007410
       -0.0000041348  -0.0000583837  -0.0000331486   0.0000406191   0.0000333528
       -0.0001033216   0.0000381295  -0.0000691342   0.0000295532   0.0000075570
       -0.0000493015  -0.0000245804  -0.0000098178   0.0000224891   0.0000924442
       -0.0000351752  -0.0001324794  -0.0001195418   0.0000002151   0.0001537852
        0.0000998471  -0.0000038065  -0.0000586166   0.0000334385  -0.0000388794
       -0.0000064221  -0.0000034349   0.0000037038   0.0000163619   0.0000128664
       -0.0000055580  -0.0000164246  -0.0000161796   0.0000128413  -0.0000140074
        0.0000044505  -0.0000303415   0.0000023218  -0.0000265762   0.0000467368
        0.0000428853   0.0000291049  -0.0000023304  -0.0000187762   0.0000130628
       -0.0000431954  -0.0000021244  -0.0000151884   0.0000305063  -0.0000231473
       -0.0000086618  -0.0000130680   0.0000197398   0.0000114621   0.0000051682
       -0.0000062222  -0.0000050392  -0.0000040993   0.0000023205  -0.0000714266
        0.0000433104   0.0000398000  -0.0000205245   0.0000342598   0.0000102352
       -0.0000330799   0.0000069255   0.0000357697   0.0000214185  -0.0000119630
        0.0000741888  -0.0002402044   0.0000076092  -0.0001932139   0.0000290581
        0.0000072167   0.0002091711   0.0002188095   0.0000187990  -0.0001254911
        0.0000015462   0.0000223679   0.0001032403   0.0002862273   0.0000325042
       -0.0000746184  -0.0000553934  -0.0000650410   0.0000932987  -0.0002033976
       -0.0002040508   0.0000592141   0.0001015888   0.0001608174   0.0000108070
       -0.0001053114  -0.0001092200   0.0000394631   0.0000703681   0.0000919818
       -0.0000246887   0.0000568909  -0.0000537953  -0.0582668054  -0.0343510781
        0.0015436647   0.0005566709  -0.0037483648  -0.0036321017  -0.1194397179
       -0.1236381675  -0.0088965736  -0.0057978898   0.0029277075  -0.0038549436
       -0.0001246925   0.0001340435   0.0000823213  -0.0000155707   0.0000150326
        0.0000084249   0.0000056330  -0.0000171426  -0.0000016980   0.0000047268
        0.0000005584  -0.0000063632  -0.0000041213  -0.0000003017   0.0000064328
        0.0000046962  -0.0000061795   0.0000079231   0.0000067899  -0.0000032303
        0.0000017584   0.0000068622  -0.0000031081  -0.0000008042   0.0000074627
        0.0000008365  -0.0000059826  -0.0000001915   0.0000051079  -0.0000033929
        0.0000029271  -0.0000024804   0.0000076405   0.0000090886   0.0000018668
        0.0000011129   0.0000106268  -0.0000014227  -0.0000003560   0.0000023981
        0.0000038260  -0.0000070843  -0.0000006911  -0.0000042471   0.0000041218
        0.0000074457  -0.0000001075   0.0000070758   0.0000062466   0.0000042046
        0.0000010810   0.0000063809   0.0000040039  -0.0000005174   0.0000037944
        0.0000070648  -0.0000072548  -0.0000048762   0.0000015212  -0.0000045311
        0.0000025048   0.0000004407   0.0000063464   0.0000030097   0.0000114299
        0.0000020933  -0.0000067296  -0.0000066080  -0.0000074845  -0.0000038917
        0.0000408491   0.0000173804   0.0000080168  -0.0000266836   0.0001996994
        0.0000149205  -0.0000114438   0.0000136133  -0.0000205952   0.0000474083
        0.0000181614   0.0000052222   0.0000253331   0.0000704440  -0.0051689929
        0.0028572642  -0.0029817797
        0.0184011078  -0.1031887279  -0.1669162477  -0.1379090937   0.2108930295
        0.4244172713   0.1106334758  -0.0773765446  -0.2022069387   0.0628376322
        0.0500796442   0.0118150087   0.0120492730  -0.0273777703  -0.0438693816
       -0.0005402840  -0.0004308076  -0.0004280433   0.0003988608  -0.0000417121
        0.0002794349  -0.0002418904  -0.0001262791  -0.0000309714   0.0001141201
        0.0000086851   0.0000005270  -0.0000814011   0.0001263177   0.0000110117
        0.0000730076  -0.0000302261  -0.0000029997  -0.0000111758   0.0000132129
       -0.0000038139   0.0000390349   0.0000187385  -0.0000257237  -0.0000898918
        0.0000821660   0.0000038942   0.0001023295  -0.0000724203  -0.0000031016
        0.0000038472   0.0000474323  -0.0000250564  -0.0000053862   0.0000035597
        0.0000005129   0.0000114973  -0.0000072754  -0.0000037969  -0.0000142805
        0.0000022921   0.0000116420   0.0000024358   0.0000092351  -0.0000228509
       -0.0000149822  -0.0000065739   0.0000347681   0.0000309590  -0.0000208928
       -0.0000083048   0.0000046517   0.0000174305  -0.0000274669  -0.0000074808
       -0.0000065718   0.0000210601  -0.0000098572   0.0000112825  -0.0000136037
        0.0000117306  -0.0000105074   0.0000034833  -0.0000052015  -0.0000013449
       -0.0000031804  -0.0000407896  -0.0000217970   0.0000323258   0.0000265013
       -0.0000724824   0.0000254574  -0.0000413561   0.0000003399   0.0000038661
       -0.0000332447  -0.0000009652  -0.0000065849   0.0000175645   0.0000655376
       -0.0000250196  -0.0000883078  -0.0000718650  -0.0000004454   0.0000916272
        0.0000654643  -0.0000100102  -0.0000312885   0.0000224969  -0.0000189326
       -0.0000043124  -0.0000008752  -0.0000010806   0.0000110087   0.0000077897
       -0.0000040050  -0.0000096521  -0.0000104002   0.0000090515  -0.0000077336
        0.0000033642  -0.0000201548  -0.0000037381  -0.0000227409   0.0000347937
        0.0000277234   0.0000251869  -0.0000113328  -0.0000097313   0.0000100651
       -0.0000275073   0.0000004656  -0.0000096728   0.0000183061  -0.0000163152
       -0.0000057766  -0.0000111839   0.0000136806   0.0000054528   0.0000050253
       -0.0000030208  -0.0000029914  -0.0000049277  -0.0000020940  -0.0000479759
        0.0000280607   0.0000325320  -0.0000084947   0.0000229661   0.0000048099
       -0.0000177688   0.0000018630   0.0000434355   0.0000327750  -0.0000170227
       -0.0000147281  -0.0001347129   0.0000243073  -0.0000042382   0.0000641959
       -0.0000075475   0.0000087369   0.0001861908  -0.0000035229   0.0000672807
        0.0000580077   0.0000760327   0.0000035494  -0.0002602987   0.0000467447
       -0.0000189530  -0.0002444636  -0.0000216109   0.0000260500  -0.0003325894
        0.0001115409  -0.0000465770   0.0001156048   0.0001952386  -0.0000455646
       -0.0001092069  -0.0001830910   0.0001085224  -0.0000274780   0.0000821803
       -0.0000837455   0.0001296239   0.0000135527  -0.0648331014  -0.0243217249
        0.0194096691  -0.0001130218  -0.0135826316  -0.0129822807  -0.0072060747
       -0.0089318165  -0.0393482501   0.0036151199  -0.0030441247   0.0042623771
       -0.0002232734   0.0003008463   0.0000398257  -0.0000171657   0.0000191708
        0.0000064284   0.0000050819  -0.0000083480   0.0000004318   0.0000035544
       -0.0000013278  -0.0000047637   0.0000000426   0.0000012324   0.0000026739
        0.0000050702  -0.0000024386   0.0000044807   0.0000052700  -0.0000016957
        0.0000012413   0.0000052523  -0.0000011049   0.0000001944   0.0000056901
        0.0000006932  -0.0000029878  -0.0000008038   0.0000030956  -0.0000030976
        0.0000017552   0.0000000106   0.0000073016   0.0000082591  -0.0000001396
        0.0000004682   0.0000079608   0.0000000684   0.0000008750   0.0000017276
        0.0000000236  -0.0000056336  -0.0000017119  -0.0000015130   0.0000017521
        0.0000042757   0.0000005071   0.0000027493   0.0000033645   0.0000030259
       -0.0000009546   0.0000022774   0.0000024730  -0.0000012857   0.0000020300
        0.0000034547  -0.0000048484  -0.0000037463  -0.0000001475  -0.0000046148
        0.0000009046   0.0000001168   0.0000052333   0.0000030855   0.0000056129
        0.0000010410  -0.0000060047  -0.0000087287  -0.0000027537   0.0000007514
        0.0000433377   0.0000179827   0.0001292361   0.0000404027   0.0001155453
       -0.0000441779   0.0000223471  -0.0000085816  -0.0000213799   0.0000117831
        0.0000012909  -0.0000039030   0.0000036089   0.0000308864   0.0029025193
       -0.0025609809   0.0050931382
        0.0333588174   0.0660620035   0.0555777187  -0.2048556752   0.0168345497
        0.1106334758   0.5578935440   0.1307176571  -0.1772947771  -0.2676737590
       -0.1139911580   0.0237869945  -0.0065570707  -0.0801316393  -0.0635858578
        0.0061627441  -0.0025821848  -0.0009078431  -0.0005570087   0.0008127620
        0.0007774856   0.0005264533   0.0002983663  -0.0000712227   0.0000289593
        0.0001324014  -0.0000817205  -0.0000027528  -0.0003064710   0.0000221101
       -0.0000405089   0.0000176923   0.0000059355  -0.0000018443  -0.0000354532
        0.0000074366  -0.0000346314  -0.0000139519   0.0000324816   0.0001161199
       -0.0001240457  -0.0000001734  -0.0001482221   0.0000988673  -0.0000002713
       -0.0000006983  -0.0000735487   0.0000484203   0.0000061336  -0.0000051042
        0.0000017913  -0.0000129278   0.0000082200   0.0000071905   0.0000226497
       -0.0000039044  -0.0000157746  -0.0000014343  -0.0000127450   0.0000366628
        0.0000160203   0.0000068650  -0.0000362434  -0.0000345351   0.0000278996
       -0.0000051507   0.0000009939  -0.0000248726   0.0000393398   0.0000100151
        0.0000087756  -0.0000324435   0.0000132910  -0.0000164096   0.0000187159
       -0.0000109713   0.0000114403  -0.0000060952   0.0000047637  -0.0000002596
        0.0000039268   0.0000618335   0.0000288346  -0.0000426057  -0.0000313408
        0.0000945686  -0.0000322678   0.0000557340  -0.0000484965  -0.0000061979
        0.0000416935   0.0000437301   0.0000062884  -0.0000264365  -0.0000887827
        0.0000362118   0.0001194365   0.0001249672   0.0000007272  -0.0001610743
       -0.0001049235   0.0000084055   0.0000584099  -0.0000308985   0.0000392378
        0.0000052464   0.0000024119  -0.0000034468  -0.0000093040  -0.0000099120
        0.0000070502   0.0000115528   0.0000151611  -0.0000159089   0.0000083765
       -0.0000075135   0.0000320406   0.0000012436   0.0000272893  -0.0000423550
       -0.0000373234  -0.0000297337   0.0000077409   0.0000125762  -0.0000088737
        0.0000362141  -0.0000038346   0.0000116360  -0.0000333181   0.0000188007
        0.0000037809   0.0000165847  -0.0000162966  -0.0000074057  -0.0000077969
        0.0000046373   0.0000026568   0.0000048358   0.0000000743   0.0000777539
       -0.0000499953  -0.0000208652   0.0000158962  -0.0000292560  -0.0000164460
        0.0000197295  -0.0000038497   0.0000210060   0.0000135446  -0.0000094798