      -----------------------------------------------------------      
     |                   =====================                   |     
     |                           x T B                           |     
     |                   =====================                   |     
     |                         S. Grimme                         |     
     |          Mulliken Center for Theoretical Chemistry        |     
     |                    University of Bonn                     |     
      -----------------------------------------------------------      

   * xtb version 6.7.1 (edcfbbe) compiled by 'albert@albert-system' on 2024-07-22

   xtb is free software: you can redistribute it and/or modify it under
   the terms of the GNU Lesser General Public License as published by
   the Free Software Foundation, either version 3 of the License, or
   (at your option) any later version.
   
   xtb is distributed in the hope that it will be useful,
   but WITHOUT ANY WARRANTY; without even the implied warranty of
   MERCHANTABILITY or FITNESS FOR A PARTICULAR PURPOSE.  See the
   GNU Lesser General Public License for more details.
   
   Cite this work as:
   * C. Bannwarth, E. Caldeweyher, S. Ehlert, A. Hansen, P. Pracht,
     J. Seibert, S. Spicher, S. Grimme, WIREs Comput. Mol. Sci., 2020, 11,
     e01493. DOI: 10.1002/wcms.1493
   
   for GFN2-xTB:
   * C. Bannwarth, S. Ehlert and S. Grimme., J. Chem. Theory Comput., 2019,
     15, 1652-1671. DOI: 10.1021/acs.jctc.8b01176
   for GFN1-xTB:
   * S. Grimme, C. Bannwarth, P. Shushkov, J. Chem. Theory Comput., 2017,
     13, 1989-2009. DOI: 10.1021/acs.jctc.7b00118
   for GFN0-xTB:
   * P. Pracht, E. Caldeweyher, S. Ehlert, S. Grimme, ChemRxiv, 2019, preprint.
     DOI: 10.26434/chemrxiv.8326202.v1
   for GFN-FF:
   * S. Spicher and S. Grimme, Angew. Chem. Int. Ed., 2020, 59, 15665-15673.
     DOI: 10.1002/anie.202004239
   
   for ALPB and GBSA implicit solvation:
   * S. Ehlert, M. Stahn, S. Spicher, S. Grimme, J. Chem. Theory Comput.,
     2021, 17, 4250-4261. DOI: 10.1021/acs.jctc.1c00471
   
   for ddCOSMO and CPCM-X implicit solvation:
   * M. Stahn, S. Ehlert, S. Grimme, J. Phys. Chem. A,
     2023, XX, XXXX-XXXX. DOI: 10.1021/acs.jpca.3c04382
   
   for DFT-D4:
   * E. Caldeweyher, C. Bannwarth and S. Grimme, J. Chem. Phys., 2017,
     147, 034112. DOI: 10.1063/1.4993215
   * E. Caldeweyher, S. Ehlert, A. Hansen, H. Neugebauer, S. Spicher,
     C. Bannwarth and S. Grimme, J. Chem. Phys., 2019, 150, 154122.
     DOI: 10.1063/1.5090222
   * E. Caldeweyher, J.-M. Mewes, S. Ehlert and S. Grimme, Phys. Chem. Chem. Phys.
     2020, 22, 8499-8512. DOI: 10.1039/D0CP00502A
   
   for sTDA-xTB:
   * S. Grimme and C. Bannwarth, J. Chem. Phys., 2016, 145, 054103.
     DOI: 10.1063/1.4959605
   
   in the mass-spec context:
   * V. Asgeirsson, C. Bauer and S. Grimme, Chem. Sci., 2017, 8, 4879.
     DOI: 10.1039/c7sc00601b
   * J. Koopman and S. Grimme, ACS Omega 2019, 4, 12, 15120-15133.
     DOI: 10.1021/acsomega.9b02011
   
   for metadynamics refer to:
   * S. Grimme, J. Chem. Theory Comput., 2019, 155, 2847-2862
     DOI: 10.1021/acs.jctc.9b00143
   
   for SPH calculations refer to:
   * S. Spicher and S. Grimme, J. Chem. Theory Comput., 2021, 17, 1701-1714
     DOI: 10.1021/acs.jctc.0c01306
   
   for ONIOM refer to:
   * C. Plett, A. Katbashev, S. Ehlert, S. Grimme, M. Bursch,
     Phys. Chem. Chem. Phys., 2023, 25, 17860-17868. DOI: 10.1039/D3CP02178E
   
   for DIPRO refer to:
   * J. Kohn, N. Gildemeister, S. Grimme, D. Fazzi, A. Hansen,
     J. Chem. Phys., 2023, just accepted.
   
   for PTB refer to:
   * S. Grimme, M. Mueller, A. Hansen, J. Chem. Phys., 2023, 158, 124111.
     DOI: 10.1063/5.0137838
   
   with help from (in alphabetical order)
   P. Atkinson, C. Bannwarth, F. Bohle, G. Brandenburg, E. Caldeweyher
   M. Checinski, S. Dohm, S. Ehlert, S. Ehrlich, I. Gerasimov, C. Hölzer
   A. Katbashev, J. Kohn, J. Koopman, C. Lavigne, S. Lehtola, F. März, M. Müller,
   F. Musil, H. Neugebauer, J. Pisarek, C. Plett, P. Pracht, F. Pultar,
   J. Seibert, P. Shushkov, S. Spicher, M. Stahn, M. Steiner, T. Strunk,
   J. Stückrath, T. Rose, and J. Unsleber
   
 * started run on 2025/09/12 at 23:14:16.982     
   ID    Z sym.   atoms
    1    6 C      1-5, 7-24, 26-33, 35-39, 41-59
    2    7 N      6, 25, 34, 40
    3    1 H      60-99

           -------------------------------------------------
          |                Calculation Setup                |
           -------------------------------------------------

          program call               : xtb data2507/gas/Spiro-CN/Spiro-CN_gas_T1_crest.xyz --gfn 2 --spinpol --tblite --uhf 2 --ohess vtight --parallel 40 --molden --ceasefiles --namespace data2507/gas/Spiro-CN/Spiro-CN_gas_T1_finalOpt
          calculation namespace      : data2507/gas/Spiro-CN/Spiro-CN_gas_T1_finalOpt
          coordinate file            : data2507/gas/Spiro-CN/Spiro-CN_gas_T1_crest.xyz
          omp threads                :                    40

repulsion energy          2.8486355131688E+00 Eh
dispersion energy         3.5738799306540E-03 Eh
interaction energy        0.0000000000000E+00 Eh
number of electrons       2.8000000000000E+02 e
integral cutoff           1.7347787504999E+01 bohr

------------------------------------------------------------
  cycle        total energy    energy error   density error
------------------------------------------------------------
      1     -149.5252671919  -1.5237748E+02   1.0032016E-01
      2     -149.5740907479  -4.8823556E-02   6.2971515E-02
      3     -149.5786044189  -4.5136710E-03   4.4785565E-02
      4     -149.7224295325  -1.4382511E-01   1.6777103E-02
      5     -149.7699823175  -4.7552785E-02   1.2295087E-02
      6     -149.7990878520  -2.9105535E-02   5.1628625E-03
      7     -149.7997903173  -7.0246529E-04   5.0657468E-03
      8     -149.8038195293  -4.0292120E-03   1.3981526E-03
      9     -149.8038613031  -4.1773796E-05   1.1235502E-03
     10     -149.8036986238   1.6267926E-04   1.2579195E-03
     11     -149.8040497302  -3.5110632E-04   6.0433927E-04
     12     -149.8041099749  -6.0244712E-05   2.5851428E-04
     13     -149.8041191403  -9.1654548E-06   1.0664716E-04
     14     -149.8041203173  -1.1769830E-06   4.4733800E-05
     15     -149.8041194840   8.3330681E-07   7.6200399E-05
     16     -149.8041203983  -9.1428478E-07   3.1749769E-05
     17     -149.8041205524  -1.5407150E-07   1.5101503E-05
------------------------------------------------------------

electronic energy        -1.5265632994546E+02 Eh
total energy             -1.4980412055236E+02 Eh

 total:                                   0.396 sec
 - repulsion                              0.000 sec (  0%)
 - dispersion                             0.018 sec (  4%)
 - coulomb                                0.008 sec (  2%)
 - hamiltonian                            0.020 sec (  5%)
 - scc                                    0.348 sec ( 88%)

      ----------------------------------------------------------- 
     |                   =====================                   |
     |                        A N C O P T                        |
     |                   =====================                   |
     |               Approximate Normal Coordinate               |
     |                Rational Function Optimizer                |
      ----------------------------------------------------------- 

Optimization log is written to '/dev/null'
      ----------------------------------------------------------- 
     |                   =====================                   |
     |                        A N C O P T                        |
     |                   =====================                   |
     |               Approximate Normal Coordinate               |
     |                Rational Function Optimizer                |
      ----------------------------------------------------------- 

          ...................................................
          :                      SETUP                      :
          :.................................................:
          :   optimization level         verytight          :
          :   max. optcycles                  1980          :
          :   ANC micro-cycles                  20          :
          :   degrees of freedom               291          :
          :.................................................:
          :   RF solver                   davidson          :
          :   write xtbopt.log                true          :
          :   linear?                        false          :
          :   energy convergence         0.1000000E-06 Eh   :
          :   grad. convergence          0.2000000E-03 Eh/α :
          :   maxmium RF displ.          1.0000000          :
          :   Hlow (freq-cutoff)         0.1000000E-01      :
          :   Hmax (freq-cutoff)         5.0000000          :
          :   S6 in model hess.         20.0000000          :
          ...................................................

generating ANC from exact Hessian ...
Using Lindh-Hessian (1995)
 Shifting diagonal of input Hessian by   9.936712020961424E-003
 Lowest  eigenvalues of input Hessian
    0.000000    0.000000    0.000000    0.000000    0.000000    0.000000
    0.010000    0.010003    0.010075    0.010129    0.010383    0.010418
    0.010514    0.010640    0.010757    0.010835    0.011133    0.011145
 Highest eigenvalues
    2.156512    2.162186    2.170202    2.186080    2.627067    2.627319
 

........................................................................
.............................. CYCLE    1 ..............................
........................................................................
------------------------------------------------------------
  cycle        total energy    energy error   density error
------------------------------------------------------------
      1     -149.8041069330  -1.5265632E+02   2.5261190E-04
      2     -149.8033848618   7.2207122E-04   1.8389175E-03
      3     -149.8041205428  -7.3568097E-04   1.3258649E-05
      4     -149.8041205760  -3.3237882E-08   6.5121054E-06
------------------------------------------------------------

 total:                                   0.111 sec
 * total energy  :  -149.8041206 Eh     change       -0.2366571E-07 Eh
   gradient norm :     0.0023159 Eh/α   predicted     0.0000000E+00 (-100.00%)
   displ. norm   :     0.0075078 α      lambda       -0.2576355E-05
   maximum displ.:     0.0033611 α      in ANC's #7, #15, #91, ...

........................................................................
.............................. CYCLE    2 ..............................
........................................................................
------------------------------------------------------------
  cycle        total energy    energy error   density error
------------------------------------------------------------
      1     -149.8040895615  -1.5265657E+02   4.2081716E-04
      2     -149.8023609831   1.7285784E-03   2.8391734E-03
      3     -149.8041186856  -1.7577026E-03   1.5457298E-04
      4     -149.8041205199  -1.8343428E-06   1.0169498E-04
      5     -149.8041236675  -3.1475011E-06   1.6502682E-05
      6     -149.8041236506   1.6822526E-08   1.4726025E-05
------------------------------------------------------------

 total:                                   0.142 sec
 * total energy  :  -149.8041237 Eh     change       -0.3074599E-05 Eh
   gradient norm :     0.0012663 Eh/α   predicted    -0.2145323E-05 ( -30.22%)
   displ. norm   :     0.0220072 α      lambda       -0.3013590E-05
   maximum displ.:     0.0111838 α      in ANC's #7, #15, #4, ...

........................................................................
.............................. CYCLE    3 ..............................
........................................................................
------------------------------------------------------------
  cycle        total energy    energy error   density error
------------------------------------------------------------
      1     -149.8040987999  -1.5265659E+02   4.2313140E-04
      2     -149.8027840294   1.3147705E-03   2.4780674E-03
      3     -149.8040928814  -1.3088521E-03   3.9692611E-04
      4     -149.8041237854  -3.0903980E-05   8.6457227E-05
      5     -149.8041236039   1.8154492E-07   7.0048333E-05
      6     -149.8041252123  -1.6084924E-06   2.2465496E-05
      7     -149.8041253401  -1.2774265E-07   1.3517435E-05
------------------------------------------------------------

 total:                                   0.162 sec
 * total energy  :  -149.8041253 Eh     change       -0.1689460E-05 Eh
   gradient norm :     0.0009597 Eh/α   predicted    -0.1693353E-05 (   0.23%)
   displ. norm   :     0.0087251 α      lambda       -0.8589037E-06
   maximum displ.:     0.0043674 α      in ANC's #7, #15, #25, ...

........................................................................
.............................. CYCLE    4 ..............................
........................................................................
------------------------------------------------------------
  cycle        total energy    energy error   density error
------------------------------------------------------------
      1     -149.8041040621  -1.5265646E+02   3.3339011E-04
      2     -149.8029107877   1.1932744E-03   2.3641367E-03
      3     -149.8041259930  -1.2152052E-03   5.6805978E-05
      4     -149.8041252299   7.6309027E-07   5.7952352E-05
      5     -149.8041258704  -6.4055649E-07   3.6826264E-05
      6     -149.8041263249  -4.5443866E-07   8.4720508E-06
------------------------------------------------------------

 total:                                   0.150 sec
 * total energy  :  -149.8041263 Eh     change       -0.9847777E-06 Eh
   gradient norm :     0.0005666 Eh/α   predicted    -0.5038997E-06 ( -48.83%)
   displ. norm   :     0.0197340 α      lambda       -0.1328908E-05
   maximum displ.:     0.0104393 α      in ANC's #7, #15, #4, ...

........................................................................
.............................. CYCLE    5 ..............................
........................................................................
------------------------------------------------------------
  cycle        total energy    energy error   density error
------------------------------------------------------------
      1     -149.8041098478  -1.5265637E+02   3.1460736E-04
      2     -149.8032174619   8.9238589E-04   2.0431879E-03
      3     -149.8041207845  -9.0332264E-04   1.7137598E-04
      4     -149.8041231234  -2.3388830E-06   1.1645599E-04
      5     -149.8041265820  -3.4586001E-06   5.2438140E-05
      6     -149.8041273791  -7.9709775E-07   1.2487157E-05
------------------------------------------------------------

 total:                                   0.148 sec
 * total energy  :  -149.8041274 Eh     change       -0.1054240E-05 Eh
   gradient norm :     0.0004927 Eh/α   predicted    -0.6653920E-06 ( -36.88%)
   displ. norm   :     0.0243537 α      lambda       -0.8758095E-06
   maximum displ.:     0.0127739 α      in ANC's #7, #15, #3, ...

........................................................................
.............................. CYCLE    6 ..............................
........................................................................
------------------------------------------------------------
  cycle        total energy    energy error   density error
------------------------------------------------------------
      1     -149.8041206490  -1.5265641E+02   2.1380625E-04
      2     -149.8037000687   4.2058028E-04   1.4045265E-03
      3     -149.8041281881  -4.2811941E-04   6.3997274E-05
      4     -149.8041261742   2.0139528E-06   8.2085192E-05
      5     -149.8041278677  -1.6935292E-06   4.2343866E-05
      6     -149.8041285118  -6.4408150E-07   7.3368368E-06
------------------------------------------------------------

 total:                                   0.149 sec
 * total energy  :  -149.8041285 Eh     change       -0.1132675E-05 Eh
   gradient norm :     0.0003949 Eh/α   predicted    -0.4386052E-06 ( -61.28%)
   displ. norm   :     0.0545478 α      lambda       -0.1558023E-05
   maximum displ.:     0.0284096 α      in ANC's #7, #15, #3, ...

........................................................................
.............................. CYCLE    7 ..............................
........................................................................
------------------------------------------------------------
  cycle        total energy    energy error   density error
------------------------------------------------------------
      1     -149.8041266576  -1.5265647E+02   2.3327143E-04
      2     -149.8039490527   1.7760491E-04   9.1946003E-04
      3     -149.8041286423  -1.7958956E-04   1.3563162E-04
      4     -149.8041113028   1.7339458E-05   2.2341024E-04
      5     -149.8041299762  -1.8673338E-05   2.5250464E-05
      6     -149.8041301563  -1.8018955E-07   4.5008919E-06
------------------------------------------------------------

 total:                                   0.144 sec
 * total energy  :  -149.8041302 Eh     change       -0.1644561E-05 Eh
   gradient norm :     0.0002651 Eh/α   predicted    -0.7833020E-06 ( -52.37%)
   displ. norm   :     0.0391528 α      lambda       -0.6759900E-06
   maximum displ.:     0.0209973 α      in ANC's #7, #3, #15, ...

........................................................................
.............................. CYCLE    8 ..............................
........................................................................
------------------------------------------------------------
  cycle        total energy    energy error   density error
------------------------------------------------------------
      1     -149.8041292413  -1.5265657E+02   1.5121252E-04
      2     -149.8040581535   7.1087830E-05   5.8198733E-04
      3     -149.8041296999  -7.1546389E-05   9.6659496E-05
      4     -149.8041297083  -8.4259284E-09   5.2674494E-05
      5     -149.8041303109  -6.0262948E-07   2.9227103E-05
      6     -149.8041306208  -3.0987528E-07   5.9738374E-06
------------------------------------------------------------

 total:                                   0.141 sec
 * total energy  :  -149.8041306 Eh     change       -0.4644564E-06 Eh
   gradient norm :     0.0002242 Eh/α   predicted    -0.3386314E-06 ( -27.09%)
   displ. norm   :     0.0332528 α      lambda       -0.5371387E-06
   maximum displ.:     0.0181344 α      in ANC's #7, #3, #4, ...

........................................................................
.............................. CYCLE    9 ..............................
........................................................................
------------------------------------------------------------
  cycle        total energy    energy error   density error
------------------------------------------------------------
      1     -149.8041283005  -1.5265657E+02   1.5193525E-04
      2     -149.8039736027   1.5469781E-04   8.5144791E-04
      3     -149.8041307989  -1.5719616E-04   6.8720633E-05
      4     -149.8041248876   5.9112503E-06   1.3248921E-04
      5     -149.8041312849  -6.3972805E-06   1.1131195E-05
      6     -149.8041313183  -3.3377233E-08   3.2100142E-06
------------------------------------------------------------

 total:                                   0.143 sec
 * total energy  :  -149.8041313 Eh     change       -0.6974623E-06 Eh
   gradient norm :     0.0001851 Eh/α   predicted    -0.2719227E-06 ( -61.01%)
   displ. norm   :     0.0484916 α      lambda       -0.9090536E-06
   maximum displ.:     0.0260359 α      in ANC's #7, #3, #4, ...

........................................................................
.............................. CYCLE   10 ..............................
........................................................................
------------------------------------------------------------
  cycle        total energy    energy error   density error
------------------------------------------------------------
      1     -149.8041319617  -1.5265668E+02   1.5448614E-04
      2     -149.8041126407   1.9321081E-05   3.1297114E-04
      3     -149.8041257292  -1.3088569E-05   1.9195886E-04
      4     -149.8041317887  -6.0594898E-06   4.4253949E-05
      5     -149.8041323558  -5.6708510E-07   1.0407254E-05
------------------------------------------------------------

 total:                                   0.121 sec
 * total energy  :  -149.8041324 Eh     change       -0.1037543E-05 Eh
   gradient norm :     0.0002547 Eh/α   predicted    -0.4563207E-06 ( -56.02%)
   displ. norm   :     0.0624016 α      lambda       -0.9194376E-06
   maximum displ.:     0.0328537 α      in ANC's #7, #3, #1, ...

........................................................................
.............................. CYCLE   11 ..............................
........................................................................
------------------------------------------------------------
  cycle        total energy    energy error   density error
------------------------------------------------------------
      1     -149.8041307886  -1.5265660E+02   2.1407055E-04
      2     -149.8041079515   2.2837111E-05   2.8295405E-04
      3     -149.8041243590  -1.6407545E-05   1.9894077E-04
      4     -149.8040631360   6.1223020E-05   5.6427219E-04
      5     -149.8041333725  -7.0236491E-05   1.7741293E-05
      6     -149.8041334482  -7.5745476E-08   4.5257380E-06
------------------------------------------------------------

 total:                                   0.154 sec
 * total energy  :  -149.8041334 Eh     change       -0.1092418E-05 Eh
   gradient norm :     0.0001970 Eh/α   predicted    -0.4617986E-06 ( -57.73%)
   displ. norm   :     0.0366039 α      lambda       -0.4231318E-06
   maximum displ.:     0.0182963 α      in ANC's #7, #3, #1, ...

........................................................................
.............................. CYCLE   12 ..............................
........................................................................
------------------------------------------------------------
  cycle        total energy    energy error   density error
------------------------------------------------------------
      1     -149.8041336960  -1.5265664E+02   1.2358714E-04
      2     -149.8041302018   3.4942890E-06   1.4716625E-04
      3     -149.8041165172   1.3684578E-05   2.8901530E-04
      4     -149.8041326977  -1.6180502E-05   6.3647708E-05
      5     -149.8041338582  -1.1604840E-06   5.5810986E-06
      6     -149.8041338561   2.0922357E-09   5.3636263E-06
------------------------------------------------------------

 total:                                   0.141 sec
 * total energy  :  -149.8041339 Eh     change       -0.4078510E-06 Eh
   gradient norm :     0.0001843 Eh/α   predicted    -0.2125699E-06 ( -47.88%)
   displ. norm   :     0.0332352 α      lambda       -0.4376293E-06
   maximum displ.:     0.0158671 α      in ANC's #3, #7, #1, ...

........................................................................
.............................. CYCLE   13 ..............................
........................................................................
------------------------------------------------------------
  cycle        total energy    energy error   density error
------------------------------------------------------------
      1     -149.8041332467  -1.5265665E+02   1.2421473E-04
      2     -149.8041226750   1.0571677E-05   1.9604662E-04
      3     -149.8041279940  -5.3189583E-06   1.7710873E-04
      4     -149.8041239289   4.0650904E-06   2.0347687E-04
      5     -149.8041342592  -1.0330343E-05   9.2554035E-06
      6     -149.8041342795  -2.0250354E-08   2.4168884E-06
------------------------------------------------------------

 total:                                   0.140 sec
 * total energy  :  -149.8041343 Eh     change       -0.4233881E-06 Eh
   gradient norm :     0.0002425 Eh/α   predicted    -0.2226818E-06 ( -47.40%)
   displ. norm   :     0.0243967 α      lambda       -0.4168109E-06
   maximum displ.:     0.0121512 α      in ANC's #3, #1, #2, ...

........................................................................
.............................. CYCLE   14 ..............................
........................................................................
------------------------------------------------------------
  cycle        total energy    energy error   density error
------------------------------------------------------------
      1     -149.8041345550  -1.5265653E+02   8.7762839E-05
      2     -149.8041321873   2.3676145E-06   1.1727381E-04
      3     -149.8041290183   3.1690755E-06   1.6556925E-04
      4     -149.8041342593  -5.2410256E-06   3.2528552E-05
      5     -149.8041345238  -2.6449649E-07   1.6376893E-05
------------------------------------------------------------

 total:                                   0.122 sec
 * total energy  :  -149.8041345 Eh     change       -0.2443338E-06 Eh
   gradient norm :     0.0001888 Eh/α   predicted    -0.2127062E-06 ( -12.94%)
   displ. norm   :     0.0301564 α      lambda       -0.4124383E-06
   maximum displ.:     0.0151976 α      in ANC's #3, #1, #2, ...

........................................................................
.............................. CYCLE   15 ..............................
........................................................................
------------------------------------------------------------
  cycle        total energy    energy error   density error
------------------------------------------------------------
      1     -149.8041270421  -1.5265648E+02   1.8862549E-04
      2     -149.8039873741   1.3966798E-04   7.4328379E-04
      3     -149.8041130480  -1.2567394E-04   3.0683073E-04
      4     -149.8041337659  -2.0717842E-05   8.0691531E-05
      5     -149.8041347709  -1.0050364E-06   3.0797864E-05
      6     -149.8041350171  -2.4618711E-07   3.2419043E-06
------------------------------------------------------------

 total:                                   0.141 sec
 * total energy  :  -149.8041350 Eh     change       -0.4932974E-06 Eh
   gradient norm :     0.0001164 Eh/α   predicted    -0.2099599E-06 ( -57.44%)
   displ. norm   :     0.0129321 α      lambda       -0.1504984E-06
   maximum displ.:     0.0067972 α      in ANC's #3, #1, #2, ...

........................................................................
.............................. CYCLE   16 ..............................
........................................................................
------------------------------------------------------------
  cycle        total energy    energy error   density error
------------------------------------------------------------
      1     -149.8041350774  -1.5265648E+02   4.5880015E-05
      2     -149.8041303709   4.7065704E-06   1.5116473E-04
      3     -149.8041348286  -4.4577251E-06   4.5666525E-05
      4     -149.8041348274   1.2234693E-09   3.4872229E-05
      5     -149.8041350248  -1.9739926E-07   2.2280794E-05
      6     -149.8041352057  -1.8091421E-07   9.3878469E-07
------------------------------------------------------------

 total:                                   0.141 sec
 * total energy  :  -149.8041352 Eh     change       -0.1886021E-06 Eh
   gradient norm :     0.0000833 Eh/α   predicted    -0.7798850E-07 ( -58.65%)
   displ. norm   :     0.0195472 α      lambda       -0.2593623E-06
   maximum displ.:     0.0100454 α      in ANC's #3, #1, #2, ...

........................................................................
.............................. CYCLE   17 ..............................
........................................................................
------------------------------------------------------------
  cycle        total energy    energy error   density error
------------------------------------------------------------
      1     -149.8041357527  -1.5265651E+02   5.1098526E-05
      2     -149.8041352149   5.3775389E-07   5.2851699E-05
      3     -149.8041337811   1.4338443E-06   9.5609150E-05
      4     -149.8041330887   6.9235122E-07   1.0047596E-04
      5     -149.8041357942  -2.7054364E-06   4.8414939E-06
      6     -149.8041358005  -6.3470793E-09   9.4621028E-07
------------------------------------------------------------

 total:                                   0.141 sec
 * total energy  :  -149.8041358 Eh     change       -0.5948288E-06 Eh
   gradient norm :     0.0001147 Eh/α   predicted    -0.1324641E-06 ( -77.73%)
   displ. norm   :     0.0249134 α      lambda       -0.2767780E-06
   maximum displ.:     0.0127409 α      in ANC's #3, #1, #2, ...

........................................................................
.............................. CYCLE   18 ..............................
........................................................................
------------------------------------------------------------
  cycle        total energy    energy error   density error
------------------------------------------------------------
      1     -149.8041360880  -1.5265655E+02   5.5894609E-05
      2     -149.8041354327   6.5523940E-07   6.2225743E-05
      3     -149.8041329604   2.4723553E-06   1.2222034E-04
      4     -149.8041342155  -1.2551016E-06   7.5416288E-05
      5     -149.8041361154  -1.8999231E-06   4.9040964E-06
      6     -149.8041361212  -5.8354601E-09   1.1329115E-06
------------------------------------------------------------

 total:                                   0.141 sec
 * total energy  :  -149.8041361 Eh     change       -0.3206936E-06 Eh
   gradient norm :     0.0001684 Eh/α   predicted    -0.1393743E-06 ( -56.54%)
   displ. norm   :     0.0294137 α      lambda       -0.2961434E-06
   maximum displ.:     0.0150856 α      in ANC's #3, #1, #2, ...

........................................................................
.............................. CYCLE   19 ..............................
........................................................................
------------------------------------------------------------
  cycle        total energy    energy error   density error
------------------------------------------------------------
      1     -149.8041363953  -1.5265658E+02   6.2736278E-05
      2     -149.8041320114   4.3839481E-06   1.4781083E-04
      3     -149.8041357593  -3.7479777E-06   6.5776506E-05
      4     -149.8041360645  -3.0517086E-07   3.3453642E-05
      5     -149.8041364706  -4.0611636E-07   6.7457381E-06
------------------------------------------------------------

 total:                                   0.124 sec
 * total energy  :  -149.8041365 Eh     change       -0.3494067E-06 Eh
   gradient norm :     0.0001867 Eh/α   predicted    -0.1493367E-06 ( -57.26%)
   displ. norm   :     0.0425498 α      lambda       -0.4425962E-06
   maximum displ.:     0.0219303 α      in ANC's #3, #1, #2, ...

........................................................................
.............................. CYCLE   20 ..............................
........................................................................
------------------------------------------------------------
  cycle        total energy    energy error   density error
------------------------------------------------------------
      1     -149.8041360895  -1.5265658E+02   9.5605033E-05
      2     -149.8041286134   7.4760912E-06   1.5827773E-04
      3     -149.8041355188  -6.9053765E-06   8.6593415E-05
      4     -149.8041267238   8.7949864E-06   2.1518089E-04
      5     -149.8041368631  -1.0139320E-05   2.2709312E-05
      6     -149.8041369921  -1.2897354E-07   2.3017154E-06
------------------------------------------------------------

 total:                                   0.142 sec
 * total energy  :  -149.8041370 Eh     change       -0.5214802E-06 Eh
   gradient norm :     0.0001563 Eh/α   predicted    -0.2252862E-06 ( -56.80%)
   displ. norm   :     0.0579353 α      lambda       -0.5747110E-06
   maximum displ.:     0.0301669 α      in ANC's #3, #1, #2, ...
 * RMSD in coord.:     0.0490990 α      energy gain  -0.1643974E-04 Eh

generating ANC from exact Hessian ...
Using Lindh-Hessian (1995)
 Shifting diagonal of input Hessian by   9.936741312618963E-003
 Lowest  eigenvalues of input Hessian
    0.000000    0.000000    0.000000    0.000000    0.000000    0.000000
    0.010000    0.010002    0.010076    0.010129    0.010384    0.010420
    0.010518    0.010639    0.010757    0.010844    0.011133    0.011143
 Highest eigenvalues
    2.155891    2.161703    2.169679    2.185678    2.627537    2.627762
 

........................................................................
.............................. CYCLE   21 ..............................
........................................................................
------------------------------------------------------------
  cycle        total energy    energy error   density error
------------------------------------------------------------
      1     -149.8041372802  -1.5265655E+02   1.1485321E-04
      2     -149.8041189401   1.8340129E-05   2.9985851E-04
      3     -149.8041354684  -1.6528293E-05   1.1570754E-04
      4     -149.8041375117  -2.0433631E-06   1.8317114E-05
      5     -149.8041375706  -5.8897086E-08   1.3881552E-05
------------------------------------------------------------

 total:                                   0.119 sec
 * total energy  :  -149.8041376 Eh     change       -0.5785398E-06 Eh
   gradient norm :     0.0001500 Eh/α   predicted     0.0000000E+00 (-100.00%)
   displ. norm   :     0.0047202 α      lambda       -0.2601929E-07
   maximum displ.:     0.0019669 α      in ANC's #21, #15, #13, ...

........................................................................
.............................. CYCLE   22 ..............................
........................................................................
------------------------------------------------------------
  cycle        total energy    energy error   density error
------------------------------------------------------------
      1     -149.8041325213  -1.5265654E+02   1.2158603E-04
      2     -149.8040840916   4.8429719E-05   3.8553394E-04
      3     -149.8041341092  -5.0017666E-05   1.3055685E-04
      4     -149.8041377493  -3.6400808E-06   2.4553463E-05
      5     -149.8041378420  -9.2638430E-08   5.7902002E-06
------------------------------------------------------------

 total:                                   0.120 sec
 * total energy  :  -149.8041378 Eh     change       -0.2713073E-06 Eh
   gradient norm :     0.0001139 Eh/α   predicted    -0.8671767E-07 ( -68.04%)
   displ. norm   :     0.0174508 α      lambda       -0.4574589E-06
   maximum displ.:     0.0074657 α      in ANC's #15, #21, #13, ...

........................................................................
.............................. CYCLE   23 ..............................
........................................................................
------------------------------------------------------------
  cycle        total energy    energy error   density error
------------------------------------------------------------
      1     -149.8041380093  -1.5265653E+02   9.1826214E-05
      2     -149.8041362904   1.7189507E-06   9.4352942E-05
      3     -149.8041294115   6.8788181E-06   2.0173844E-04
      4     -149.8041323774  -2.9658330E-06   1.3820426E-04
      5     -149.8041381031  -5.7257211E-06   2.0988353E-05
      6     -149.8041382038  -1.0067959E-07   4.3022445E-06
------------------------------------------------------------

 total:                                   0.137 sec
 * total energy  :  -149.8041382 Eh     change       -0.3618252E-06 Eh
   gradient norm :     0.0001421 Eh/α   predicted    -0.2289188E-06 ( -36.73%)
   displ. norm   :     0.0048449 α      lambda       -0.4322607E-07
   maximum displ.:     0.0020100 α      in ANC's #15, #13, #1, ...

........................................................................
.............................. CYCLE   24 ..............................
........................................................................
------------------------------------------------------------
  cycle        total energy    energy error   density error
------------------------------------------------------------
      1     -149.8041378262  -1.5265647E+02   4.9272135E-05
      2     -149.8041144881   2.3338027E-05   3.2979374E-04
      3     -149.8041382542  -2.3766026E-05   1.5786321E-05
      4     -149.8041382128   4.1325762E-08   1.6443115E-05
------------------------------------------------------------

 total:                                   0.099 sec
 * total energy  :  -149.8041382 Eh     change       -0.9061921E-08 Eh
   gradient norm :     0.0000969 Eh/α   predicted    -0.3584916E-07 ( 295.60%)
   displ. norm   :     0.0175197 α      lambda       -0.1991399E-06
   maximum displ.:     0.0071406 α      in ANC's #13, #15, #1, ...

   *** GEOMETRY OPTIMIZATION CONVERGED AFTER 24 ITERATIONS ***

------------------------------------------------------------------------
 total energy gain   :        -0.0000177 Eh       -0.0111 kcal/mol
 total RMSD          :         0.0497323 a0        0.0263 Å
 total power (kW/mol):        -0.0019320 (step)   -0.0134 (real)
------------------------------------------------------------------------

 ANCopt (total)                0 d,  0 h,  0 min,  3.457 sec
 optimizer setup                ...        0 min,  0.000 sec (  0.012%)
 model hessian                  ...        0 min,  0.130 sec (  3.752%)
 ANC generation                 ...        0 min,  0.019 sec (  0.562%)
 coordinate transformation      ...        0 min,  0.003 sec (  0.093%)
 single point calculation       ...        0 min,  3.285 sec ( 95.024%)
 optimization log               ...        0 min,  0.006 sec (  0.185%)
 hessian update                 ...        0 min,  0.004 sec (  0.105%)
 rational function              ...        0 min,  0.005 sec (  0.136%)

================
 final structure:
================
99
 xtb: 6.7.1 (edcfbbe)
C           -8.62415538569863       -4.16546878975852        2.87347557005834
C           -7.62292839013238       -3.30167462913230        2.17267551556155
C           -7.91962070428807       -2.69763932128749        0.95534291089714
C           -6.99073884797326       -1.91697146045111        0.29917675123805
C           -5.72521928332217       -1.71487861957704        0.85381995853886
N           -4.77755483805691       -0.92854247693667        0.20320276409382
C           -5.17427619192580        0.16927286874584       -0.57277967275937
C           -4.52793399295412        0.44233807432298       -1.78017858639015
C           -4.89299094477326        1.53657125747558       -2.53556310287757
C           -5.91174062904809        2.38611116875625       -2.11713965163187
C           -6.31638160721823        3.56747476054167       -2.94082698202523
C           -6.56083652828410        2.10146397975574       -0.91819824033751
C           -6.20259351680148        1.01252799820562       -0.15084349545294
C           -3.42719424647097       -1.23797714983347        0.26009151447156
C           -2.98539150589424       -2.57923832430662        0.24206714920172
C           -1.65443718311822       -2.88694371591746        0.14764356109572
C           -0.70660468147585       -1.84691801684107        0.08166946036061
C           -1.15767709865238       -0.49663967690128        0.17058826559953
C           -2.48107466881646       -0.19036024654728        0.24821710052280
C           -0.00262208959067        0.45537705273192        0.00733308652628
C            0.33180981985489        1.39089359679472        1.14888008667141
C            0.79397313593142        1.06257578166100        2.39255025037654
C            1.17761808352352        2.10308270045310        3.26073039266192
C            1.70835861874925        1.80025390057117        4.52102479341547
N            2.17811384740736        1.55131758076285        5.54338404212811
C            1.08013353229219        3.44420138037537        2.84612824922419
C            0.61791061134970        3.76424117375183        1.59276493666121
C            0.24592968557494        2.73653355875145        0.72052168050219
C           -0.20604996165929        2.76121071085024       -0.63677298193279
C           -0.55484408053908        3.82195982749178       -1.47844905497017
C           -1.02674566725523        3.54880121735930       -2.73928578738856
C           -1.15708805348469        2.22275170577690       -3.19154642565148
C           -1.69883479760491        1.96890183935729       -4.45781254552743
N           -2.17879498616972        1.76066009860979       -5.48459590467383
C           -0.79523771488607        1.14907262549600       -2.35480373617913
C           -0.32317230313520        1.43065410424005       -1.10346957184999
C            1.14889710531868       -0.49758586227327       -0.17811926920601
C            2.47247939566592       -0.19322091913522       -0.26018966119686
C            3.41643035812977       -1.24234697653156       -0.28540903841577
N            4.76774313748416       -0.93649345832897       -0.23330620531855
C            5.17149728649762        0.15777639878958        0.54374291827205
C            6.20402681360301        0.99579931917297        0.12157783119308
C            6.57000872463476        2.08138540092408        0.89004443414608
C            5.92458255562571        2.36816610936527        2.09037528090091
C            6.31418465089721        3.56570121187779        2.89781592361644
C            4.90155934574520        1.52381592569611        2.50905911259002
C            4.52934661376230        0.43243180329895        1.75316214844558
C            5.70954273470063       -1.72220038426447       -0.89362338073821
C            5.39711971435466       -2.31424857180502       -2.12088757702976
C            6.32801018693183       -3.09406688166600       -2.77154621612176
C            7.59390180943944       -3.30887761758766       -2.23133498160326
C            8.58816337548582       -4.16335772780628       -2.95325100576072
C            7.89860246620031       -2.71532368584448       -1.01148842052336
C            6.97592192460752       -1.93462608120916       -0.34572680563032
C            2.97190593139050       -2.58293585202587       -0.27526984939312
C            1.64075687731817       -2.88881370928020       -0.17850337086142
C            0.69510142779965       -1.84759187354707       -0.10087901450798
C           -5.42095941327720       -2.31733693050380        2.07775651422997
C           -6.35859895646385       -3.09744508421912        2.71920285597226
H           -8.60074897557593       -3.98980353316488        3.94703244528085
H           -8.39336912994835       -5.21777123776070        2.70365627612564
H           -9.62909132425150       -3.97485407054294        2.50551448651174
H           -8.89235973080248       -2.84737108851241        0.50988342901964
H           -7.23166625470340       -1.46868167486909       -0.65325805234194
H           -3.74508089926146       -0.21552670147224       -2.12627107253487
H           -4.38186671931526        1.72807499253710       -3.46749774903766
H           -7.26133105183280        3.36555286098009       -3.44599906108147
H           -6.45652667067585        4.44550148639177       -2.31304828860573
H           -5.56608755111461        3.78621217366906       -3.69587801438011
H           -7.35276514300682        2.75222453458587       -0.57638836874215
H           -6.70204903252068        0.81588472857457        0.78665745383051
H           -3.72540837249477       -3.36637112476383        0.24731416953699
H           -1.33436686440620       -3.91581668524847        0.08576642744222
H           -2.81535300072995        0.83568971697578        0.29313160941480
H            0.87722762018801        0.03318227491969        2.71307618405328
H            1.38697946460008        4.22154763495568        3.53176271811442
H            0.56077852175911        4.79521992240995        1.27607445420721
H           -0.47295074710412        4.84184066432648       -1.13266006096267
H           -1.31625303107990        4.35255654325829       -3.40163003815058
H           -0.90245241879946        0.13159685534360       -2.70476903618137
H            2.80816992520899        0.83265012900919       -0.29803480610618
H            6.70202158252964        0.79700477636913       -0.81623525385749
H            7.36606534799889        2.72719788526772        0.54846884717912
H            5.92127459630929        4.47090072557202        2.43376987028447
H            5.91377994268599        3.49881954019508        3.90586963578406
H            7.39698419630461        3.66219586547186        2.95000925737130
H            4.39403096999586        1.71542627017636        3.44297347821144
H            3.74510175525015       -0.22261560844486        2.10143428640628
H            4.42655681148123       -2.13962000089762       -2.56111653798216
H            6.07556148630117       -3.53952275263298       -3.72282634652584
H            8.72050979431050       -3.81309195183909       -3.97589081122682
H            9.55198579882308       -4.15009709584679       -2.45126869260905
H            8.23644087094108       -5.19385945681731       -3.00013216334882
H            8.87198829991378       -2.87312085112063       -0.57025390363088
H            7.22276247552126       -1.49513882942141        0.60929439458406
H            3.71032995825196       -3.37144708177879       -0.28907917852806
H            1.31896791535722       -3.91754651939210       -0.12354460359966
H           -4.45170310749581       -2.15029598340990        2.52374354527567
H           -6.11147510592028       -3.55035318109995        3.66834571729356
 
 Bond Distances (Angstroems)
 ---------------------------
C1-C2=1.4966         C1-H60=1.0881        C1-H61=1.0906        C1-H62=1.0870        C2-C1=1.4966         C2-C3=1.3910         
C2-C59=1.3925        C3-C2=1.3910         C3-C4=1.3794         C3-H63=1.0803        C4-C3=1.3794         C4-C5=1.3964         
C4-H64=1.0799        C5-C4=1.3964         C5-N6=1.3927         C5-C58=1.3977        N6-C5=1.3927         N6-C7=1.4017         
N6-C14=1.3865        C7-N6=1.4017         C7-C8=1.3965         C7-C13=1.3952        C8-C7=1.3965         C8-C9=1.3788         
C8-H65=1.0795        C9-C8=1.3788         C9-C10=1.3909        C9-H66=1.0800        C10-C9=1.3909        C10-C11=1.4959       
C10-C12=1.3928       C11-C10=1.4959       C11-H67=1.0904       C11-H68=1.0884       C11-H69=1.0867       C12-C10=1.3928       
C12-C13=1.3795       C12-H70=1.0805       C13-C7=1.3952        C13-C12=1.3795       C13-H71=1.0803       C14-N6=1.3865        
C14-C15=1.4123       C14-C19=1.4117       C15-C14=1.4123       C15-C16=1.3693       C15-H72=1.0804       C16-C15=1.3693       
C16-C17=1.4087       C16-H73=1.0793       C17-C16=1.4087       C17-C18=1.4264       C17-C57=1.4135       C18-C17=1.4264       
C18-C19=1.3606       C18-C20=1.5057       C19-C14=1.4117       C19-C18=1.3606       C19-H74=1.0801       C20-C18=1.5057       
C20-C21=1.5133       C20-C36=1.5125       C20-C37=1.5062       C21-C20=1.5133       C21-C22=1.3668       C21-C28=1.4148       
C22-C21=1.3668       C22-C23=1.4084       C22-H75=1.0814       C23-C22=1.4084       C23-C24=1.4006       C23-C26=1.4071       
C24-C23=1.4006       C24-N25=1.1523       N25-C24=1.1523       C26-C23=1.4071       C26-C27=1.3737       C26-H76=1.0810       
C27-C26=1.3737       C27-C28=1.3983       C27-H77=1.0800       C28-C21=1.4148       C28-C27=1.3983       C28-C29=1.4308       
C29-C28=1.4308       C29-C30=1.3983       C29-C36=1.4149       C30-C29=1.3983       C30-C31=1.3737       C30-H78=1.0800       
C31-C30=1.3737       C31-C32=1.4071       C31-H79=1.0810       C32-C31=1.4071       C32-C33=1.4005       C32-C35=1.4085       
C33-C32=1.4005       C33-N34=1.1524       N34-C33=1.1524       C35-C32=1.4085       C35-C36=1.3667       C35-H80=1.0813       
C36-C20=1.5125       C36-C29=1.4149       C36-C35=1.3667       C37-C20=1.5062       C37-C38=1.3606       C37-C57=1.4263       
C38-C37=1.3606       C38-C39=1.4115       C38-H81=1.0801       C39-C38=1.4115       C39-N40=1.3865       C39-C55=1.4124       
N40-C39=1.3865       N40-C41=1.4015       N40-C48=1.3930       C41-N40=1.4015       C41-C42=1.3952       C41-C47=1.3966       
C42-C41=1.3952       C42-C43=1.3795       C42-H82=1.0803       C43-C42=1.3795       C43-C44=1.3927       C43-H83=1.0805       
C44-C43=1.3927       C44-C45=1.4959       C44-C46=1.3910       C45-C44=1.4959       C45-H84=1.0905       C45-H85=1.0867       
C45-H86=1.0883       C46-C44=1.3910       C46-C47=1.3788       C46-H87=1.0800       C47-C41=1.3966       C47-C46=1.3788       
C47-H88=1.0795       C48-N40=1.3930       C48-C49=1.3980       C48-C54=1.3961       C49-C48=1.3980       C49-C50=1.3777       
C49-H89=1.0799       C50-C49=1.3777       C50-C51=1.3930       C50-H90=1.0803       C51-C50=1.3930       C51-C52=1.4966       
C51-C53=1.3904       C52-C51=1.4966       C52-H91=1.0890       C52-H92=1.0868       C52-H93=1.0899       C53-C51=1.3904       
C53-C54=1.3799       C53-H94=1.0803       C54-C48=1.3961       C54-C53=1.3799       C54-H95=1.0799       C55-C39=1.4124       
C55-C56=1.3693       C55-H96=1.0804       C56-C55=1.3693       C56-C57=1.4087       C56-H97=1.0793       C57-C17=1.4135       
C57-C37=1.4263       C57-C56=1.4087       C58-C5=1.3977        C58-C59=1.3781       C58-H98=1.0799       C59-C2=1.3925        
C59-C58=1.3781       C59-H99=1.0803       H60-C1=1.0881        H61-C1=1.0906        H62-C1=1.0870        H63-C3=1.0803        
H64-C4=1.0799        H65-C8=1.0795        H66-C9=1.0800        H67-C11=1.0904       H68-C11=1.0884       H69-C11=1.0867       
H70-C12=1.0805       H71-C13=1.0803       H72-C15=1.0804       H73-C16=1.0793       H74-C19=1.0801       H75-C22=1.0814       
H76-C26=1.0810       H77-C27=1.0800       H78-C30=1.0800       H79-C31=1.0810       H80-C35=1.0813       H81-C38=1.0801       
H82-C42=1.0803       H83-C43=1.0805       H84-C45=1.0905       H85-C45=1.0867       H86-C45=1.0883       H87-C46=1.0800       
H88-C47=1.0795       H89-C49=1.0799       H90-C50=1.0803       H91-C52=1.0890       H92-C52=1.0868       H93-C52=1.0899       
H94-C53=1.0803       H95-C54=1.0799       H96-C55=1.0804       H97-C56=1.0793       H98-C58=1.0799       H99-C59=1.0803       
 C  H  Rav=1.0827 sigma=0.0039  Rmin=1.0793  Rmax=1.0906    40
 C  C  Rav=1.4087 sigma=0.0403  Rmin=1.3606  Rmax=1.5133    60
 N  C  Rav=1.3333 sigma=0.1046  Rmin=1.1523  Rmax=1.4017     8
 
 selected bond angles (degree)
 --------------------
H60-C1-C2=110.76               H61-C1-C2=110.02               H61-C1-H60=107.75              H62-C1-C2=111.02               
H62-C1-H60=109.00              H62-C1-H61=108.19              C3-C2-C1=121.18                C59-C2-C1=120.55               
C59-C2-C3=118.26               C4-C3-C2=121.23                H63-C3-C2=119.52               H63-C3-C4=119.25               
C5-C4-C3=120.21                H64-C4-C3=120.28               H64-C4-C5=119.50               N6-C5-C4=120.85                
C58-C5-C4=118.86               C58-C5-N6=120.29               C7-N6-C5=120.55                C14-N6-C5=121.17               
C14-N6-C7=118.24               C8-C7-N6=120.05                C13-C7-N6=120.97               C13-C7-C8=118.97               
C9-C8-C7=120.42                H65-C8-C7=119.58               H65-C8-C9=120.00               C10-C9-C8=120.92               
H66-C9-C8=119.22               H66-C9-C10=119.86              C11-C10-C9=120.99              C12-C10-C9=118.39              
C12-C10-C11=120.62             
 
 selected dihedral angles (degree)
 ---------------------------------
C3-C2-C1-H60=219.82           C3-C2-C1-H61=100.80           C3-C2-C1-H62=341.06           C59-C2-C1-H60= 40.68          
C59-C2-C1-H61=281.66          C59-C2-C1-H62=161.93          C4-C3-C2-C1=180.95            C4-C3-C2-C59=  0.10           
H63-C3-C2-C1=  0.48           H63-C3-C2-C59=179.63          C5-C4-C3-C2=359.81            C5-C4-C3-H63=180.28           
H64-C4-C3-C2=178.98           H64-C4-C3-H63=359.45          N6-C5-C4-C3=180.04            N6-C5-C4-H64=  0.87           
C58-C5-C4-C3=  0.09           C58-C5-C4-H64=180.92          C7-N6-C5-C4= 32.49            C7-N6-C5-C58=212.43           
C14-N6-C5-C4=215.07           C14-N6-C5-C58= 35.02          C8-C7-N6-C5=219.56            C8-C7-N6-C14= 37.05           
C13-C7-N6-C5= 40.32           C13-C7-N6-C14=217.81          C9-C8-C7-N6=181.38            C9-C8-C7-C13=  0.64           
H65-C8-C7-N6=  2.03           H65-C8-C7-C13=181.29          C10-C9-C8-C7=359.74           C10-C9-C8-H65=179.09          
H66-C9-C8-C7=180.16           H66-C9-C8-H65=359.50          C11-C10-C9-C8=180.49          C11-C10-C9-H66=  0.08         
C12-C10-C9-C8=359.67          C12-C10-C9-H66=179.25         
           -------------------------------------------------
          |                Final Singlepoint                |
           -------------------------------------------------
repulsion energy          2.8487615535229E+00 Eh
dispersion energy         3.5732983456396E-03 Eh
interaction energy        0.0000000000000E+00 Eh
number of electrons       2.8000000000000E+02 e
integral cutoff           1.7347787504999E+01 bohr

------------------------------------------------------------
  cycle        total energy    energy error   density error
------------------------------------------------------------
      1     -149.8041320073  -1.5265647E+02   1.2889023E-04
      2     -149.8040764932   5.5514146E-05   4.0844069E-04
      3     -149.8041348560  -5.8362859E-05   1.2559882E-04
      4     -149.8041382515  -3.3954254E-06   1.2511477E-05
      5     -149.8041382908  -3.9388425E-08   1.0166555E-06
------------------------------------------------------------

electronic energy        -1.5265647314271E+02 Eh
total energy             -1.4980413829084E+02 Eh

 total:                                   0.121 sec
 - repulsion                              0.000 sec (  0%)
 - dispersion                             0.003 sec (  2%)
 - coulomb                                0.006 sec (  4%)
 - hamiltonian                            0.010 sec (  8%)
 - scc                                    0.102 sec ( 84%)

           ------------------------------------------------- 
          |                Numerical Hessian                |
           ------------------------------------------------- 
step length          :   0.00500
SCC accuracy         :   0.30000
Hessian scale factor :   1.00000
frozen atoms in %    :   0.00000    0
RMS gradient         :   0.00009
estimated CPU  time     28.32 min
estimated wall time      0.71 min

writing file <hessian>.

 projected vibrational frequencies (cm⁻¹)
eigval :       -0.00    -0.00    -0.00     0.00     0.00     0.00
eigval :      -12.63     2.25     8.15    11.42    12.98    14.54
eigval :       17.22    19.67    21.43    25.75    32.59    38.34
eigval :       39.78    41.35    46.21    50.24    52.79    53.24
eigval :       68.98    77.77    80.50    84.02    92.44    95.12
eigval :      124.94   126.99   133.46   139.72   147.27   154.09
eigval :      156.69   157.32   176.66   199.25   199.79   221.11
eigval :      227.78   240.74   257.72   259.76   270.55   279.58
eigval :      289.79   291.68   295.49   299.09   317.00   326.80
eigval :      337.27   344.46   351.58   352.91   361.53   361.94
eigval :      375.14   379.22   379.35   382.30   384.94   385.46
eigval :      396.77   418.40   426.11   433.05   439.55   441.59
eigval :      452.94   455.39   461.48   466.65   478.85   490.13
eigval :      496.24   508.98   520.45   526.05   529.78   530.31
eigval :      545.01   558.70   567.38   569.14   577.19   592.05
eigval :      598.45   607.70   609.82   610.37   610.89   614.54
eigval :      616.08   621.10   646.09   661.92   662.29   663.30
eigval :      665.44   666.22   686.78   687.09   689.89   715.02
eigval :      727.20   749.22   756.64   792.82   793.67   800.63
eigval :      804.08   805.96   807.51   808.53   809.54   813.17
eigval :      817.64   820.75   827.55   856.56   866.29   866.96
eigval :      867.97   869.25   869.82   871.04   872.18   873.65
eigval :      884.99   901.50   902.74   903.88   904.71   914.44
eigval :      914.60   917.82   917.89   927.09   927.34   930.38
eigval :      930.71   931.23   932.12   939.28   969.58   970.96
eigval :      981.90  1001.85  1008.11  1008.42  1009.52  1009.77
eigval :     1010.38  1017.21  1022.05  1025.58  1027.93  1029.70
eigval :     1029.82  1029.88  1029.93  1060.68  1125.95  1132.38
eigval :     1143.92  1144.04  1145.06  1145.27  1150.72  1153.26
eigval :     1160.87  1167.64  1172.77  1184.58  1190.38  1192.49
eigval :     1192.96  1200.34  1205.30  1217.20  1222.12  1223.81
eigval :     1233.17  1237.62  1238.51  1254.93  1256.90  1260.83
eigval :     1261.85  1271.85  1272.43  1275.90  1276.19  1292.20
eigval :     1304.35  1310.60  1310.85  1313.51  1322.79  1323.93
eigval :     1324.69  1330.94  1331.50  1331.75  1341.90  1354.16
eigval :     1360.97  1391.42  1403.06  1403.17  1403.39  1403.94
eigval :     1404.10  1412.75  1412.83  1421.38  1421.78  1421.86
eigval :     1423.29  1443.60  1444.91  1451.14  1464.86  1471.38
eigval :     1473.89  1475.67  1475.79  1476.95  1477.19  1477.48
eigval :     1477.92  1479.10  1479.44  1481.79  1482.29  1484.45
eigval :     1484.55  1501.40  1533.75  1553.67  1553.81  1559.30
eigval :     1559.44  1564.73  1576.04  1586.90  1586.96  1589.26
eigval :     1591.78  1593.66  1610.15  2315.77  2320.86  2996.41
eigval :     2998.50  2999.33  3003.79  3021.35  3027.44  3028.54
eigval :     3031.88  3045.78  3049.07  3051.29  3051.83  3069.70
eigval :     3069.99  3071.78  3073.37  3076.80  3076.88  3078.56
eigval :     3078.75  3079.06  3079.78  3080.83  3081.15  3083.93
eigval :     3085.93  3086.14  3086.54  3087.77  3088.24  3088.50
eigval :     3088.63  3091.54  3092.07  3092.46  3092.84  3093.10
eigval :     3094.19  3098.06  3098.37
           -------------------------------------------------
          |                Property Printout                |
           -------------------------------------------------
           -------------------------------------------------
          |                Geometry Summary                 |
           -------------------------------------------------

      molecular mass/u    :      756.9349173
   center of mass at/Å    :       -0.0006629       0.0015227      -0.0031496
  moments of inertia/u·Å² :        0.7593639E+04   0.2034814E+05   0.2099431E+05
rotational constants/cm⁻¹ :        0.2219968E-02   0.8284605E-03   0.8029618E-03

 * 98 selected distances

     #   Z          #   Z                                           value/Å
     2   6 C        3   6 C                                       1.3909651
     3   6 C        4   6 C                                       1.3794268
     4   6 C        5   6 C                                       1.3964278
     5   6 C        6   7 N                                       1.3927295
     6   7 N        7   6 C                                       1.4016902
     7   6 C        8   6 C                                       1.3964725
     8   6 C        9   6 C                                       1.3788470
     9   6 C       10   6 C                                       1.3909161
    10   6 C       12   6 C                                       1.3927708
     7   6 C       13   6 C                                       1.3951868
    12   6 C       13   6 C                                       1.3794757
     6   7 N       14   6 C                                       1.3865281
    14   6 C       15   6 C                                       1.4122664
    15   6 C       16   6 C                                       1.3693203
    16   6 C       17   6 C                                       1.4086848
    17   6 C       18   6 C                                       1.4264028
    14   6 C       19   6 C                                       1.4116603
    18   6 C       19   6 C                                       1.3605935
    21   6 C       22   6 C                                       1.3667858
    22   6 C       23   6 C                                       1.4083946
    24   6 C       25   7 N                                       1.1523272
    23   6 C       26   6 C                                       1.4071240
    26   6 C       27   6 C                                       1.3736795
    21   6 C       28   6 C                                       1.4147839
    27   6 C       28   6 C                                       1.3983424
    28   6 C       29   6 C                                       1.4307843 (max)
    29   6 C       30   6 C                                       1.3983079
    30   6 C       31   6 C                                       1.3736871
    31   6 C       32   6 C                                       1.4071022
    33   6 C       34   7 N                                       1.1523935
    32   6 C       35   6 C                                       1.4084961
    29   6 C       36   6 C                                       1.4148868
    35   6 C       36   6 C                                       1.3667375
    37   6 C       38   6 C                                       1.3606043
    38   6 C       39   6 C                                       1.4115046
    39   6 C       40   7 N                                       1.3864731
    40   7 N       41   6 C                                       1.4015169
    41   6 C       42   6 C                                       1.3952144
    42   6 C       43   6 C                                       1.3794858
    43   6 C       44   6 C                                       1.3926998
    44   6 C       46   6 C                                       1.3909710
    41   6 C       47   6 C                                       1.3965988
    46   6 C       47   6 C                                       1.3787829
    40   7 N       48   6 C                                       1.3929612
    48   6 C       49   6 C                                       1.3979653
    49   6 C       50   6 C                                       1.3776903
    50   6 C       51   6 C                                       1.3930017
    51   6 C       53   6 C                                       1.3903865
    48   6 C       54   6 C                                       1.3960773
    53   6 C       54   6 C                                       1.3798793
    39   6 C       55   6 C                                       1.4124035
    55   6 C       56   6 C                                       1.3692637
    17   6 C       57   6 C                                       1.4135433
    37   6 C       57   6 C                                       1.4263286
    56   6 C       57   6 C                                       1.4086991
     5   6 C       58   6 C                                       1.3976949
     2   6 C       59   6 C                                       1.3924551
    58   6 C       59   6 C                                       1.3781112
     1   6 C       60   1 H                                       1.0880858
     1   6 C       61   1 H                                       1.0906152
     1   6 C       62   1 H                                       1.0870261
     3   6 C       63   1 H                                       1.0803125
     4   6 C       64   1 H                                       1.0798806
     8   6 C       65   1 H                                       1.0795486
     9   6 C       66   1 H                                       1.0800111
    11   6 C       67   1 H                                       1.0903673
    11   6 C       68   1 H                                       1.0884291
    11   6 C       69   1 H                                       1.0866874
    12   6 C       70   1 H                                       1.0804973
    13   6 C       71   1 H                                       1.0802928
    15   6 C       72   1 H                                       1.0803845
    16   6 C       73   1 H                                       1.0792838 (min)
    19   6 C       74   1 H                                       1.0800639
    22   6 C       75   1 H                                       1.0813507
    26   6 C       76   1 H                                       1.0809794
    27   6 C       77   1 H                                       1.0800344
    30   6 C       78   1 H                                       1.0800156
    31   6 C       79   1 H                                       1.0809890
    35   6 C       80   1 H                                       1.0813084
    38   6 C       81   1 H                                       1.0800611
    42   6 C       82   1 H                                       1.0802831
    43   6 C       83   1 H                                       1.0804879
    45   6 C       84   1 H                                       1.0904602
    45   6 C       85   1 H                                       1.0867242
    45   6 C       86   1 H                                       1.0883430
    46   6 C       87   1 H                                       1.0800444
    47   6 C       88   1 H                                       1.0795466
    49   6 C       89   1 H                                       1.0799487
    50   6 C       90   1 H                                       1.0803219
    52   6 C       91   1 H                                       1.0890336
    52   6 C       92   1 H                                       1.0867916
    52   6 C       93   1 H                                       1.0898810
    53   6 C       94   1 H                                       1.0803092
    54   6 C       95   1 H                                       1.0798819
    55   6 C       96   1 H                                       1.0803754
    56   6 C       97   1 H                                       1.0792868
    58   6 C       98   1 H                                       1.0799376
    59   6 C       99   1 H                                       1.0803094

 * 3 distinct bonds (by element types)

   Z      Z             #   av. dist./Å        max./Å        min./Å
   1 H    6 C          40     1.0827048     1.0906152     1.0792838
   6 C    6 C          50     1.3939578     1.4307843     1.3605935
   6 C    7 N           8     1.3333275     1.4016902     1.1523272

           -------------------------------------------------
          |               Frequency Printout                |
           -------------------------------------------------
 projected vibrational frequencies (cm⁻¹)
eigval :       -0.00    -0.00    -0.00     0.00     0.00     0.00
eigval :      -12.63     2.25     8.15    11.42    12.98    14.54
eigval :       17.22    19.67    21.43    25.75    32.59    38.34
eigval :       39.78    41.35    46.21    50.24    52.79    53.24
eigval :       68.98    77.77    80.50    84.02    92.44    95.12
eigval :      124.94   126.99   133.46   139.72   147.27   154.09
eigval :      156.69   157.32   176.66   199.25   199.79   221.11
eigval :      227.78   240.74   257.72   259.76   270.55   279.58
eigval :      289.79   291.68   295.49   299.09   317.00   326.80
eigval :      337.27   344.46   351.58   352.91   361.53   361.94
eigval :      375.14   379.22   379.35   382.30   384.94   385.46
eigval :      396.77   418.40   426.11   433.05   439.55   441.59
eigval :      452.94   455.39   461.48   466.65   478.85   490.13
eigval :      496.24   508.98   520.45   526.05   529.78   530.31
eigval :      545.01   558.70   567.38   569.14   577.19   592.05
eigval :      598.45   607.70   609.82   610.37   610.89   614.54
eigval :      616.08   621.10   646.09   661.92   662.29   663.30
eigval :      665.44   666.22   686.78   687.09   689.89   715.02
eigval :      727.20   749.22   756.64   792.82   793.67   800.63
eigval :      804.08   805.96   807.51   808.53   809.54   813.17
eigval :      817.64   820.75   827.55   856.56   866.29   866.96
eigval :      867.97   869.25   869.82   871.04   872.18   873.65
eigval :      884.99   901.50   902.74   903.88   904.71   914.44
eigval :      914.60   917.82   917.89   927.09   927.34   930.38
eigval :      930.71   931.23   932.12   939.28   969.58   970.96
eigval :      981.90  1001.85  1008.11  1008.42  1009.52  1009.77
eigval :     1010.38  1017.21  1022.05  1025.58  1027.93  1029.70
eigval :     1029.82  1029.88  1029.93  1060.68  1125.95  1132.38
eigval :     1143.92  1144.04  1145.06  1145.27  1150.72  1153.26
eigval :     1160.87  1167.64  1172.77  1184.58  1190.38  1192.49
eigval :     1192.96  1200.34  1205.30  1217.20  1222.12  1223.81
eigval :     1233.17  1237.62  1238.51  1254.93  1256.90  1260.83
eigval :     1261.85  1271.85  1272.43  1275.90  1276.19  1292.20
eigval :     1304.35  1310.60  1310.85  1313.51  1322.79  1323.93
eigval :     1324.69  1330.94  1331.50  1331.75  1341.90  1354.16
eigval :     1360.97  1391.42  1403.06  1403.17  1403.39  1403.94
eigval :     1404.10  1412.75  1412.83  1421.38  1421.78  1421.86
eigval :     1423.29  1443.60  1444.91  1451.14  1464.86  1471.38
eigval :     1473.89  1475.67  1475.79  1476.95  1477.19  1477.48
eigval :     1477.92  1479.10  1479.44  1481.79  1482.29  1484.45
eigval :     1484.55  1501.40  1533.75  1553.67  1553.81  1559.30
eigval :     1559.44  1564.73  1576.04  1586.90  1586.96  1589.26
eigval :     1591.78  1593.66  1610.15  2315.77  2320.86  2996.41
eigval :     2998.50  2999.33  3003.79  3021.35  3027.44  3028.54
eigval :     3031.88  3045.78  3049.07  3051.29  3051.83  3069.70
eigval :     3069.99  3071.78  3073.37  3076.80  3076.88  3078.56
eigval :     3078.75  3079.06  3079.78  3080.83  3081.15  3083.93
eigval :     3085.93  3086.14  3086.54  3087.77  3088.24  3088.50
eigval :     3088.63  3091.54  3092.07  3092.46  3092.84  3093.10
eigval :     3094.19  3098.06  3098.37
 reduced masses (amu)
   1: 11.33   2: 11.40   3: 11.34   4: 11.55   5: 11.52   6: 11.27   7:  1.12   8:  1.20
   9:  9.73  10:  7.37  11:  5.49  12:  9.43  13:  4.48  14:  9.35  15: 10.68  16: 11.94
  17: 10.99  18: 10.62  19: 12.42  20: 10.91  21: 10.38  22: 10.59  23: 10.04  24: 10.11
  25: 12.12  26: 10.69  27: 11.12  28: 10.46  29: 10.23  30: 12.03  31: 10.41  32: 11.89
  33: 10.44  34: 11.05  35: 10.37  36: 10.55  37: 10.75  38: 11.30  39: 10.76  40: 11.11
  41: 11.23  42: 10.63  43: 10.56  44: 10.74  45: 10.60  46: 10.18  47: 10.31  48: 10.65
  49: 11.23  50: 10.66  51: 10.64  52: 10.21  53: 11.36  54: 10.55  55: 10.16  56: 10.33
  57:  9.84  58:  9.44  59:  9.48  60: 10.12  61:  9.28  62:  9.40  63:  9.26  64:  9.70
  65:  9.18  66:  9.18  67:  9.60  68:  9.76  69: 10.84  70: 10.96  71: 12.16  72: 10.71
  73: 10.09  74: 11.08  75:  9.91  76: 11.09  77:  9.43  78: 11.33  79: 10.67  80: 10.43
  81: 10.06  82: 11.36  83: 11.25  84: 10.95  85: 11.58  86: 10.72  87: 10.97  88: 10.82
  89: 11.11  90: 11.21  91: 11.21  92: 11.46  93: 11.28  94: 11.31  95: 11.33  96: 11.35
  97: 11.13  98: 11.43  99: 11.19 100: 11.07 101: 11.00 102: 11.06 103: 10.87 104: 10.90
 105: 11.61 106: 11.41 107: 11.34 108: 11.71 109: 11.16 110: 10.97 111: 11.68 112:  9.15
 113:  9.22 114:  5.56 115:  4.92 116:  5.49 117:  4.73 118:  4.66 119:  5.09 120:  4.94
 121:  4.59 122:  9.22 123: 10.77 124: 11.20 125:  3.73 126:  3.34 127:  3.57 128:  3.29
 129:  3.47 130:  3.62 131:  3.31 132:  3.32 133: 10.18 134:  3.44 135:  3.31 136:  3.46
 137:  3.45 138:  2.79 139:  2.77 140:  2.70 141:  2.70 142:  3.95 143:  3.93 144:  5.71
 145:  5.80 146:  7.95 147: 11.39 148: 10.99 149: 10.31 150: 10.88 151:  9.51 152: 10.30
 153:  4.32 154:  4.22 155:  4.33 156:  4.36 157:  8.62 158:  8.14 159:  7.96 160:  7.85
 161:  7.52 162:  4.74 163:  4.73 164:  4.69 165:  4.79 166:  9.15 167:  6.48 168:  7.90
 169:  2.78 170:  2.79 171:  3.00 172:  2.82 173:  5.89 174:  4.35 175:  2.95 176:  4.83
 177:  6.33 178:  6.79 179:  4.04 180:  2.01 181:  2.47 182:  3.07 183:  4.35 184:  5.18
 185:  6.35 186:  6.76 187:  5.24 188:  7.72 189:  7.31 190:  8.60 191:  7.96 192:  7.16
 193:  7.95 194:  4.16 195:  3.78 196:  3.75 197:  3.64 198:  7.93 199: 11.06 200: 10.85
 201: 11.29 202: 11.36 203: 11.29 204: 11.17 205: 11.27 206: 11.63 207: 11.61 208: 11.50
 209: 11.42 210: 10.39 211: 10.67 212: 10.14 213:  5.27 214:  4.19 215:  6.59 216:  3.27
 217:  3.32 218:  9.93 219:  9.95 220: 10.45 221:  9.62 222: 10.34 223: 10.20 224: 10.93
 225: 10.93 226: 11.08 227: 10.94 228: 10.29 229: 10.13 230:  5.23 231:  5.78 232:  4.25
 233:  3.03 234:  3.35 235:  3.20 236:  4.85 237:  3.62 238:  3.73 239:  4.47 240:  7.15
 241:  6.43 242: 11.44 243: 11.55 244: 11.29 245: 11.29 246: 11.40 247: 11.40 248: 11.66
 249: 11.68 250: 11.42 251: 11.41 252: 11.69 253: 11.51 254: 11.48 255: 11.69 256: 12.78
 257: 12.77 258:  1.81 259:  1.82 260:  1.83 261:  1.89 262:  1.58 263:  1.62 264:  1.63
 265:  1.67 266:  1.66 267:  1.67 268:  1.69 269:  1.69 270:  1.82 271:  1.82 272:  1.77
 273:  1.77 274:  1.78 275:  1.78 276:  1.78 277:  1.78 278:  1.78 279:  1.78 280:  1.78
 281:  1.78 282:  1.88 283:  1.81 284:  1.82 285:  1.87 286:  1.80 287:  1.80 288:  1.88
 289:  1.88 290:  1.88 291:  1.87 292:  1.88 293:  1.87 294:  1.87 295:  1.87 296:  1.88
 297:  1.88
 IR intensities (km·mol⁻¹)
   1:  0.40   2:  0.30   3:  0.53   4:  0.12   5:  0.30   6:  0.11   7:  0.66   8:  0.47
   9:  1.37  10:  0.16  11:  0.08  12:  0.66  13:  0.51  14:  1.25  15:  0.17  16:  1.06
  17:  1.42  18:  0.02  19:  2.67  20:  0.77  21:  0.32  22:  0.42  23:  0.26  24:  0.60
  25:  1.59  26:  0.82  27:  1.36  28:  1.87  29:  0.17  30:  6.79  31:  0.09  32:  1.02
  33:  0.01  34:  0.65  35:  0.68  36:  1.63  37:  0.02  38:  3.42  39:  2.27  40:  1.21
  41:  3.17  42:  1.60  43:  0.21  44:  0.82  45: 22.36  46:  0.16  47: 10.38  48:  0.97
  49:  0.47  50:  0.30  51:  0.36  52:  0.45  53: 10.17  54:  0.99  55:  1.86  56:  0.00
  57:  0.49  58:  0.19  59:  1.61  60:  0.56  61:  0.68  62:  0.77  63:  1.82  64:  0.78
  65:  5.58  66:  0.10  67:  5.40  68:  0.70  69:  7.21  70:  3.43  71:  0.19  72:  5.45
  73:  0.84  74:  3.23  75:  0.30  76:  0.69  77:  2.31  78:  1.14  79:  0.04  80:  1.89
  81:  0.27  82:  1.77  83:  3.33  84:  2.82  85: 19.19  86:  1.45  87:  2.20  88:  5.15
  89:  1.22  90:  4.33  91:  1.90  92:  0.05  93:  0.36  94:  0.13  95:  0.57  96:  0.86
  97:  1.34  98:  1.66  99:  8.98 100:  1.19 101:  0.84 102:  1.60 103:  0.60 104:  0.60
 105:  0.87 106:  0.52 107:  0.61 108: 12.01 109:  2.27 110:  5.56 111:  4.54 112:  5.91
 113:  2.06 114:  4.96 115: 40.90 116: 36.45 117:  7.49 118:  5.33 119: 12.14 120:  1.99
 121:  1.43 122:  9.22 123: 10.10 124: 17.91 125:  0.38 126:  4.45 127: 38.16 128:  5.75
 129: 79.65 130:  3.68 131:  1.42 132:  0.26 133:  8.01 134:  0.37 135:  0.69 136:  1.84
 137:  4.96 138:  0.26 139:  0.25 140:  0.42 141:  0.84 142:  7.35 143:  4.00 144:  5.18
 145: 10.53 146:  5.91 147:  2.98 148: 50.14 149: 14.55 150: 59.37 151:  7.93 152:  2.83
 153: 15.00 154:  3.72 155: 22.94 156: 14.89 157:  0.37 158:  0.16 159:  4.95 160:  4.18
 161:  4.77 162: 38.93 163:  2.26 164: 18.18 165:  6.44 166: 16.79 167:185.08 168: 17.99
 169:  4.06 170:  2.14 171:  4.15 172:  5.60 173: 62.32 174:  0.41 175: 33.28 176:  0.39
 177:  2.01 178:172.71 179: 31.44 180:  1.52 181:  0.05 182:  1.27 183: 25.63 184:  9.15
 185: 65.23 186: 30.10 187: 57.74 188: 49.82 189:104.33 190:229.82 191:  6.30 192:  2.45
 193: 90.28 194:  0.73 195:  3.86 196:  0.19 197:  2.75 198:118.56 199: 26.10 200: 43.61
 201:174.25 202: 62.94 203: 27.18 204: 12.47 205: 41.65 206:  0.15 207:  0.43 208:  1.06
 209:  9.60 210:232.93 211:  6.92 212:  2.65 213: 26.81 214: 40.54 215: 41.70 216:  3.99
 217:  3.98 218: 16.61 219:  0.91 220: 46.92 221: 80.60 222: 28.62 223: 56.74 224: 16.59
 225: 18.67 226:148.71 227:451.74 228: 12.34 229:549.59 230: 63.67 231: 19.99 232: 87.97
 233:  7.49 234:  7.90 235: 33.38 236:112.92 237: 81.72 238:  3.10 239:  6.41 240: 38.02
 241: 32.20 242: 37.94 243: 24.47 244:  2.29 245:  3.38 246:  4.27 247:  5.32 248:157.93
 249:208.20 250: 24.98 251: 20.33 252:345.43 253: 26.60 254:115.41 255: 12.96 256:******
 257:285.77 258: 12.08 259: 17.48 260: 22.07 261: 13.89 262: 18.51 263: 32.95 264: 33.93
 265: 21.36 266:  3.19 267:  1.39 268: 40.27 269: 41.59 270: 30.34 271: 26.55 272: 24.43
 273:  4.27 274: 19.15 275: 19.01 276: 26.06 277:  2.85 278: 17.88 279:  1.00 280:109.38
 281:  8.28 282: 11.83 283:139.80 284: 16.66 285: 60.54 286: 22.94 287: 15.37 288: 37.66
 289:  8.49 290: 31.83 291: 27.18 292: 75.81 293:  5.92 294:  2.77 295: 79.31 296: 49.13
 297: 57.77
 Raman intensities (Ä⁴*amu⁻¹)
   1:  0.00   2:  0.00   3:  0.00   4:  0.00   5:  0.00   6:  0.00   7:  0.00   8:  0.00
   9:  0.00  10:  0.00  11:  0.00  12:  0.00  13:  0.00  14:  0.00  15:  0.00  16:  0.00
  17:  0.00  18:  0.00  19:  0.00  20:  0.00  21:  0.00  22:  0.00  23:  0.00  24:  0.00
  25:  0.00  26:  0.00  27:  0.00  28:  0.00  29:  0.00  30:  0.00  31:  0.00  32:  0.00
  33:  0.00  34:  0.00  35:  0.00  36:  0.00  37:  0.00  38:  0.00  39:  0.00  40:  0.00
  41:  0.00  42:  0.00  43:  0.00  44:  0.00  45:  0.00  46:  0.00  47:  0.00  48:  0.00
  49:  0.00  50:  0.00  51:  0.00  52:  0.00  53:  0.00  54:  0.00  55:  0.00  56:  0.00
  57:  0.00  58:  0.00  59:  0.00  60:  0.00  61:  0.00  62:  0.00  63:  0.00  64:  0.00
  65:  0.00  66:  0.00  67:  0.00  68:  0.00  69:  0.00  70:  0.00  71:  0.00  72:  0.00
  73:  0.00  74:  0.00  75:  0.00  76:  0.00  77:  0.00  78:  0.00  79:  0.00  80:  0.00
  81:  0.00  82:  0.00  83:  0.00  84:  0.00  85:  0.00  86:  0.00  87:  0.00  88:  0.00
  89:  0.00  90:  0.00  91:  0.00  92:  0.00  93:  0.00  94:  0.00  95:  0.00  96:  0.00
  97:  0.00  98:  0.00  99:  0.00 100:  0.00 101:  0.00 102:  0.00 103:  0.00 104:  0.00
 105:  0.00 106:  0.00 107:  0.00 108:  0.00 109:  0.00 110:  0.00 111:  0.00 112:  0.00
 113:  0.00 114:  0.00 115:  0.00 116:  0.00 117:  0.00 118:  0.00 119:  0.00 120:  0.00
 121:  0.00 122:  0.00 123:  0.00 124:  0.00 125:  0.00 126:  0.00 127:  0.00 128:  0.00
 129:  0.00 130:  0.00 131:  0.00 132:  0.00 133:  0.00 134:  0.00 135:  0.00 136:  0.00
 137:  0.00 138:  0.00 139:  0.00 140:  0.00 141:  0.00 142:  0.00 143:  0.00 144:  0.00
 145:  0.00 146:  0.00 147:  0.00 148:  0.00 149:  0.00 150:  0.00 151:  0.00 152:  0.00
 153:  0.00 154:  0.00 155:  0.00 156:  0.00 157:  0.00 158:  0.00 159:  0.00 160:  0.00
 161:  0.00 162:  0.00 163:  0.00 164:  0.00 165:  0.00 166:  0.00 167:  0.00 168:  0.00
 169:  0.00 170:  0.00 171:  0.00 172:  0.00 173:  0.00 174:  0.00 175:  0.00 176:  0.00
 177:  0.00 178:  0.00 179:  0.00 180:  0.00 181:  0.00 182:  0.00 183:  0.00 184:  0.00
 185:  0.00 186:  0.00 187:  0.00 188:  0.00 189:  0.00 190:  0.00 191:  0.00 192:  0.00
 193:  0.00 194:  0.00 195:  0.00 196:  0.00 197:  0.00 198:  0.00 199:  0.00 200:  0.00
 201:  0.00 202:  0.00 203:  0.00 204:  0.00 205:  0.00 206:  0.00 207:  0.00 208:  0.00
 209:  0.00 210:  0.00 211:  0.00 212:  0.00 213:  0.00 214:  0.00 215:  0.00 216:  0.00
 217:  0.00 218:  0.00 219:  0.00 220:  0.00 221:  0.00 222:  0.00 223:  0.00 224:  0.00
 225:  0.00 226:  0.00 227:  0.00 228:  0.00 229:  0.00 230:  0.00 231:  0.00 232:  0.00
 233:  0.00 234:  0.00 235:  0.00 236:  0.00 237:  0.00 238:  0.00 239:  0.00 240:  0.00
 241:  0.00 242:  0.00 243:  0.00 244:  0.00 245:  0.00 246:  0.00 247:  0.00 248:  0.00
 249:  0.00 250:  0.00 251:  0.00 252:  0.00 253:  0.00 254:  0.00 255:  0.00 256:  0.00
 257:  0.00 258:  0.00 259:  0.00 260:  0.00 261:  0.00 262:  0.00 263:  0.00 264:  0.00
 265:  0.00 266:  0.00 267:  0.00 268:  0.00 269:  0.00 270:  0.00 271:  0.00 272:  0.00
 273:  0.00 274:  0.00 275:  0.00 276:  0.00 277:  0.00 278:  0.00 279:  0.00 280:  0.00
 281:  0.00 282:  0.00 283:  0.00 284:  0.00 285:  0.00 286:  0.00 287:  0.00 288:  0.00
 289:  0.00 290:  0.00 291:  0.00 292:  0.00 293:  0.00 294:  0.00 295:  0.00 296:  0.00
 297:  0.00
 output can be read by thermo (or use thermo option).
 writing <g98.out> molden fake output.
 recommended (thermochemical) frequency scaling factor: 1.0
           -------------------------------------------------
          |             Thermodynamic Functions             |
           -------------------------------------------------

Molecule has no symmetry elements
It seems to be the C1 point group
c1  symmetry found (for desy threshold:  0.10E+00) used in thermo
 inverting freq            1   12.6326696874756     

          ...................................................
          :                      SETUP                      :
          :.................................................:
          :  # frequencies                         291      :
          :  # imaginary freq.                       0      :
          :  linear?                             false      :
          :  only rotor calc.                    false      :
          :  symmetry                               c1      :
          :  rotational number                       1      :
          :  scaling factor                  1.0000000      :
          :  rotor cutoff                   50.0000000 cm⁻¹ :
          :  imag. cutoff                  -20.0000000 cm⁻¹ :
          :.................................................:

    mode    ω/cm⁻¹     T·S(HO)/kcal·mol⁻¹    T·S(FR)/kcal·mol⁻¹   T·S(vib)
   ------------------------------------------------------------------------
       1     12.63    -2.25006 (  0.41%)    -1.46408 ( 99.59%)    -1.46727
       2      2.25    -3.27341 (  0.00%)    -1.97568 (100.00%)    -1.97569
       3      8.15    -2.50950 (  0.07%)    -1.59381 ( 99.93%)    -1.59446
       4     11.42    -2.30982 (  0.27%)    -1.49397 ( 99.73%)    -1.49618
       5     12.98    -2.23381 (  0.45%)    -1.45595 ( 99.55%)    -1.45947
       6     14.54    -2.16680 (  0.71%)    -1.42244 ( 99.29%)    -1.42772
       7     17.22    -2.06644 (  1.39%)    -1.37224 ( 98.61%)    -1.38188
       8     19.67    -1.98776 (  2.34%)    -1.33287 ( 97.66%)    -1.34820
       9     21.43    -1.93719 (  3.26%)    -1.30756 ( 96.74%)    -1.32811
      10     25.75    -1.82836 (  6.57%)    -1.25310 ( 93.43%)    -1.29092
      11     32.59    -1.68906 ( 15.29%)    -1.18333 ( 84.71%)    -1.26066
      12     38.34    -1.59303 ( 25.69%)    -1.13520 ( 74.31%)    -1.25282
      13     39.78    -1.57132 ( 28.60%)    -1.12432 ( 71.40%)    -1.25214
      14     41.35    -1.54841 ( 31.87%)    -1.11283 ( 68.13%)    -1.25163
      15     46.21    -1.48276 ( 42.19%)    -1.07988 ( 57.81%)    -1.24985
      16     50.24    -1.43345 ( 50.48%)    -1.05511 ( 49.52%)    -1.24611
      17     52.79    -1.40424 ( 55.42%)    -1.04043 ( 44.58%)    -1.24205
      18     53.24    -1.39934 ( 56.24%)    -1.03797 ( 43.76%)    -1.24120
      19     68.98    -1.24695 ( 78.37%)    -0.96122 ( 21.63%)    -1.18513
      20     77.77    -1.17662 ( 85.41%)    -0.92569 ( 14.59%)    -1.14000
      21     80.50    -1.15644 ( 87.04%)    -0.91548 ( 12.96%)    -1.12522
      22     84.02    -1.13140 ( 88.86%)    -0.90279 ( 11.14%)    -1.10592
      23     92.44    -1.07567 ( 92.11%)    -0.87451 (  7.89%)    -1.05981
      24     95.12    -1.05900 ( 92.91%)    -0.86602 (  7.09%)    -1.04531
      25    124.94    -0.90117 ( 97.50%)    -0.78525 (  2.50%)    -0.89827
      26    126.99    -0.89182 ( 97.65%)    -0.78043 (  2.35%)    -0.88921
      27    133.46    -0.86330 ( 98.07%)    -0.76570 (  1.93%)    -0.86142
      28    139.72    -0.83713 ( 98.39%)    -0.75213 (  1.61%)    -0.83576
      29    147.27    -0.80714 ( 98.69%)    -0.73653 (  1.31%)    -0.80621
      30    154.09    -0.78149 ( 98.90%)    -0.72313 (  1.10%)    -0.78085
      31    156.69    -0.77201 ( 98.97%)    -0.71816 (  1.03%)    -0.77146
      32    157.32    -0.76975 ( 98.99%)    -0.71697 (  1.01%)    -0.76921
      33    176.66    -0.70464 ( 99.36%)    -0.68263 (  0.64%)    -0.70450
      34    199.25    -0.63803 ( 99.61%)    -0.64698 (  0.39%)    -0.63807
      35    199.79    -0.63657 ( 99.61%)    -0.64619 (  0.39%)    -0.63661
      36    221.11    -0.58140 ( 99.74%)    -0.61615 (  0.26%)    -0.58149
      37    227.78    -0.56540 ( 99.77%)    -0.60734 (  0.23%)    -0.56550
      38    240.74    -0.53590 ( 99.81%)    -0.59095 (  0.19%)    -0.53600
      39    257.72    -0.50005 ( 99.86%)    -0.57076 (  0.14%)    -0.50015
      40    259.76    -0.49594 ( 99.86%)    -0.56842 (  0.14%)    -0.49604
      41    270.55    -0.47485 ( 99.88%)    -0.55636 (  0.12%)    -0.47495
      42    279.58    -0.45803 ( 99.90%)    -0.54664 (  0.10%)    -0.45812
      43    289.79    -0.43983 ( 99.91%)    -0.53601 (  0.09%)    -0.43991
      44    291.68    -0.43654 ( 99.91%)    -0.53408 (  0.09%)    -0.43663
      45    295.49    -0.43002 ( 99.92%)    -0.53024 (  0.08%)    -0.43010
      46    299.09    -0.42397 ( 99.92%)    -0.52666 (  0.08%)    -0.42405
   ------------------------------------------------------------------------

   temp. (K)  partition function   enthalpy   heat capacity  entropy
                                   cal/mol     cal/K/mol   cal/K/mol   J/K/mol
 298.15  VIB  0.479E+29            31122.569    181.483    201.706
         ROT  0.138E+09              888.752      2.981     40.222
         INT  0.659E+37            32011.321    184.464    241.928
         TR   0.201E+29             1481.254      4.968     45.731
         TOT                       33492.5751   189.4324   287.6583  1203.5624

       T/K    H(0)-H(T)+PV         H(T)/Eh          T*S/Eh         G(T)/Eh
   ------------------------------------------------------------------------
    298.15    0.533738E-01    0.817551E+00    0.136676E+00    0.680875E+00
   ------------------------------------------------------------------------

         :::::::::::::::::::::::::::::::::::::::::::::::::::::
         ::                  THERMODYNAMIC                  ::
         :::::::::::::::::::::::::::::::::::::::::::::::::::::
         :: total free energy        -149.123263145644 Eh   ::
         ::.................................................::
         :: total energy             -149.804138290345 Eh   ::
         :: zero point energy           0.764177074665 Eh   ::
         :: G(RRHO) w/o ZPVE           -0.083301929965 Eh   ::
         :: G(RRHO) contrib.            0.680875144700 Eh   ::
         :::::::::::::::::::::::::::::::::::::::::::::::::::::
imag cut-off (cm-1) :    5.00
 found            1  significant imaginary frequency
 writing imag mode distorted coords to xtbhess.xyz
 for further optimization.

optimized geometry written to: xtbopt.xyz


           -------------------------------------------------
          | TOTAL ENERGY             -149.804138290345 Eh   |
          | TOTAL ENTHALPY           -148.986587399895 Eh   |
          | TOTAL FREE ENERGY        -149.123263145644 Eh   |
          | GRADIENT NORM               0.000091140743 Eh/α |
           -------------------------------------------------

------------------------------------------------------------------------
 * finished run on 2025/09/12 at 23:14:31.154     
------------------------------------------------------------------------
 total:
 * wall-time:     0 d,  0 h,  0 min, 14.171 sec
 *  cpu-time:     0 d,  0 h,  8 min, 32.281 sec
 * ratio c/w:    36.151 speedup
 SCF:
 * wall-time:     0 d,  0 h,  0 min,  0.398 sec
 *  cpu-time:     0 d,  0 h,  0 min, 15.874 sec
 * ratio c/w:    39.924 speedup
 ANC optimizer:
 * wall-time:     0 d,  0 h,  0 min,  3.580 sec
 *  cpu-time:     0 d,  0 h,  2 min, 23.161 sec
 * ratio c/w:    39.989 speedup
 analytical hessian:
 * wall-time:     0 d,  0 h,  0 min, 10.110 sec
 *  cpu-time:     0 d,  0 h,  5 min, 51.424 sec
 * ratio c/w:    34.760 speedup

