$hessian                                                                        
        0.4899252015  -0.0233436281   0.0204194331  -0.1366220305  -0.0766223852
        0.0008463227  -0.0257595195  -0.0198288238  -0.0029654750  -0.0017766318
        0.0008624523  -0.0045015688   0.0000918276  -0.0000563292  -0.0001439628
       -0.0007793919  -0.0002553916   0.0005687166  -0.0000423939   0.0002930428
       -0.0000666798  -0.0000296617  -0.0000988453   0.0000326047   0.0000497968
       -0.0000253312  -0.0000434998  -0.0000333883   0.0000111792   0.0000208297
       -0.0000162215   0.0000378758   0.0000063535  -0.0000515989   0.0000201845
        0.0000332273   0.0001334653  -0.0001035224  -0.0000845140   0.0003896894
       -0.0001595585   0.0001778600  -0.0000735206   0.0001518441   0.0000636123
        0.0000553249  -0.0000478302  -0.0000455608  -0.0000256043  -0.0000021521
       -0.0000054840   0.0000619776   0.0000369725   0.0000079969  -0.0001370740
       -0.0000592433  -0.0000379227  -0.0000037639  -0.0000342608  -0.0000262579
       -0.0000134422   0.0000062016   0.0000415557  -0.0000067396   0.0000093614
       -0.0000075595   0.0000005390   0.0000071099   0.0000000992  -0.0000065773
       -0.0000209511   0.0000272794   0.0000067136   0.0000173477  -0.0000241010
       -0.0000001715  -0.0000105037   0.0000038710   0.0000000464   0.0000048378
       -0.0000051892   0.0000003500  -0.0000059092   0.0000008728   0.0000000795
       -0.0000052190  -0.0000059682  -0.0000004570  -0.0000044235   0.0000085588
       -0.0000011495  -0.0000018222  -0.0000078601   0.0000005849   0.0000019401
        0.0000046994   0.0000001581   0.0000112276  -0.0000185795  -0.0000025741
       -0.0000131851   0.0000190034  -0.0000050234  -0.0000100823   0.0000080574
       -0.0000151192   0.0000409829  -0.0000116433  -0.0000094350   0.0000160360
        0.0000101624  -0.0000209480   0.0000166365   0.0000017396   0.0001052122
        0.0000361371   0.0000124695  -0.0001388504  -0.0000189161  -0.0000068401
        0.0000471774  -0.0000533023  -0.0000178111  -0.0000095224   0.0000051143
       -0.0000022384   0.0000035090  -0.0000033823   0.0000001654   0.0000033381
       -0.0000092467  -0.0000004584  -0.0000059321   0.0000101907   0.0000020021
        0.0000079806  -0.0000090391   0.0000019349  -0.0000039882   0.0000128803
       -0.0000016215   0.0000104459   0.0000498236   0.0000196209  -0.0000030294
       -0.0000064266   0.0000038542   0.0000008728   0.0000044088   0.0000007833
       -0.0000016943   0.0000067582   0.0000002802  -0.0000035190  -0.0000080790
       -0.0000028043   0.0000024984   0.0000063208   0.0000017383   0.0000011799
       -0.0000087882   0.0000037500  -0.0000258372  -0.0000395557  -0.0000116892
        0.0000101050  -0.0000229182  -0.0000177818   0.0000713588  -0.0000028450
        0.0000035359   0.0018190308   0.0001451230  -0.0029265457   0.0016976003
       -0.0026096979   0.0008873138  -0.1214030368   0.0075229909  -0.1141190966
       -0.1174552519   0.0165204372   0.1070109555  -0.0899293993   0.0972040903
       -0.0075607927   0.0003761391  -0.0005781719   0.0016616072  -0.0008789422
       -0.0009420181  -0.0000409374   0.0000064908  -0.0000020140  -0.0000157438
       -0.0000160176  -0.0000117115   0.0000010989   0.0000027290  -0.0000227538
       -0.0000084891   0.0000051676  -0.0000068915   0.0000107491   0.0000143454
       -0.0000115087   0.0000054927   0.0000162974  -0.0000249691  -0.0000179342
       -0.0000632395  -0.0000028580   0.0000458966   0.0000213677  -0.0000506135
       -0.0000451656  -0.0000194082   0.0000124614   0.0000097928  -0.0000045727
        0.0000059365   0.0000095539   0.0000049673  -0.0000069879   0.0000041987
       -0.0000002963  -0.0000032766  -0.0000048372   0.0000007884  -0.0000051627
       -0.0000025383   0.0000000571  -0.0000047702  -0.0000037778   0.0000000597
       -0.0000057937   0.0000003926  -0.0000001768   0.0000015221  -0.0000051688
       -0.0000065739  -0.0000074441  -0.0000052373  -0.0000012020  -0.0000015414
        0.0000003000  -0.0000053673   0.0000013944   0.0000024675  -0.0000035581
        0.0000000121  -0.0000003862  -0.0000010253   0.0000016056  -0.0000028236
       -0.0000010249   0.0000044415   0.0000023488  -0.0000001513   0.0000043399
       -0.0000031057   0.0000000474  -0.0000022385   0.0000022039  -0.0000034431
        0.0000019114  -0.0000019249  -0.0000046998  -0.0000021856  -0.0000028728
       -0.0000003698  -0.0000021781  -0.0000011697  -0.0000052876  -0.0000009905
        0.0000004268  -0.0000008282  -0.0000004440   0.0000011972  -0.0000011196
       -0.0000018528   0.0000007621  -0.0000017987   0.0000012757  -0.0000038831
       -0.0000140296   0.0000025957   0.0000033205   0.0000035797   0.0000076673
        0.0000044754   0.0001301112   0.0003335178  -0.0000358984   0.0003674201
        0.0017517815   0.0008538554
       -0.0233436281   0.4958813490  -0.0067260404  -0.0785832729  -0.1457072700
        0.0055847481  -0.0042754484  -0.0007422283  -0.0019109184   0.0001055029
        0.0016129949   0.0018590959  -0.0000467850  -0.0001824669   0.0000768596
       -0.0001840729  -0.0004385814  -0.0004722582  -0.0000879362   0.0001548007
       -0.0001075517  -0.0000177113  -0.0000826203   0.0000262179   0.0000337061
       -0.0000045225  -0.0000265369  -0.0000046583   0.0000379466  -0.0000069318
       -0.0000199984   0.0000354542   0.0000048137  -0.0000580527  -0.0000203662
        0.0000523822   0.0000833741  -0.0000133917  -0.0000501677   0.0002477009
       -0.0000142579   0.0000230816  -0.0000926129   0.0001328350   0.0000833240
        0.0000503948  -0.0000330049  -0.0000144599  -0.0000266795  -0.0000274540
       -0.0000237236   0.0000034145   0.0000391848   0.0000345195  -0.0000859693
       -0.0000524734  -0.0000319277   0.0000022725  -0.0000221986  -0.0000181208
       -0.0000109770   0.0000036212   0.0000298781  -0.0000026235   0.0000060172
       -0.0000040465  -0.0000005385   0.0000030270  -0.0000010348  -0.0000109591
       -0.0000096313   0.0000130967   0.0000096863   0.0000090954  -0.0000155607
        0.0000002583  -0.0000076661   0.0000037379   0.0000004421   0.0000047468
       -0.0000027432  -0.0000005394  -0.0000074922  -0.0000012410  -0.0000005281
       -0.0000045481  -0.0000041087  -0.0000003343  -0.0000028127   0.0000080248
       -0.0000006025   0.0000020003  -0.0000048119   0.0000003356   0.0000008844
        0.0000013357   0.0000009156   0.0000098460  -0.0000127104  -0.0000024605
       -0.0000096442   0.0000132915  -0.0000037158  -0.0000058381   0.0000084151
       -0.0000095449   0.0000261298  -0.0000072218  -0.0000080705   0.0000129314
        0.0000080265  -0.0000153685   0.0000098259  -0.0000002254   0.0000636807
        0.0000224582   0.0000090027  -0.0000833586  -0.0000168153  -0.0000039356
        0.0000268705  -0.0000311046  -0.0000110829  -0.0000046621   0.0000021823
       -0.0000014766   0.0000008021   0.0000012978  -0.0000012609   0.0000022228
       -0.0000059278  -0.0000002405  -0.0000031638   0.0000044976   0.0000013547
        0.0000031963  -0.0000060125   0.0000012276  -0.0000036055   0.0000079253
       -0.0000012653   0.0000089393   0.0000339443   0.0000125993  -0.0000032637
       -0.0000041666   0.0000020014  -0.0000001675   0.0000024526   0.0000005010
       -0.0000012893   0.0000054951   0.0000006267  -0.0000027837  -0.0000062644
       -0.0000017184   0.0000023986   0.0000062893   0.0000018254   0.0000005195
       -0.0000067032   0.0000020440  -0.0000151532  -0.0000229159  -0.0000062822
        0.0000035747  -0.0000151336  -0.0000111416   0.0000556208   0.0000012948
       -0.0000007841   0.0007312899  -0.0017306171   0.0046730624  -0.0186837339
       -0.0261928702   0.0045937032   0.0083432086  -0.0451775519   0.0089828718
        0.0195717158  -0.0427916343  -0.0243694594   0.0964265033  -0.2349422579
        0.0092176430   0.0014248548   0.0005970190  -0.0001451239   0.0001455070
        0.0001253936   0.0001570567   0.0000115293  -0.0000087989  -0.0000106828
       -0.0000167745  -0.0000084247  -0.0000004685   0.0000014151  -0.0000225724
       -0.0000086099   0.0000056807  -0.0000031161   0.0000093719   0.0000111622
       -0.0000045063   0.0000066367   0.0000157895  -0.0000176455  -0.0000092895
       -0.0000441161   0.0000082766   0.0000678414  -0.0000034868  -0.0000561915
       -0.0000294259  -0.0000142700   0.0000066127   0.0000047910   0.0000010513
        0.0000056012   0.0000114686  -0.0000013318  -0.0000047820   0.0000012411
       -0.0000012165  -0.0000021043  -0.0000040072   0.0000001021  -0.0000036662
       -0.0000012917  -0.0000002824  -0.0000034209  -0.0000032951   0.0000001917
       -0.0000042434   0.0000003637  -0.0000003559   0.0000000259  -0.0000036368
       -0.0000047744  -0.0000059911  -0.0000041135  -0.0000008078  -0.0000016622
        0.0000008637  -0.0000041214   0.0000002518   0.0000022034  -0.0000027695
       -0.0000001467  -0.0000002110  -0.0000010293   0.0000009939  -0.0000021385
       -0.0000007599   0.0000026195   0.0000009152  -0.0000003828   0.0000025179
       -0.0000018587  -0.0000006914  -0.0000017170   0.0000012083  -0.0000029967
        0.0000008921  -0.0000011200  -0.0000035303  -0.0000014770  -0.0000015514
       -0.0000003471  -0.0000020614  -0.0000002200  -0.0000038823  -0.0000010198
        0.0000008793  -0.0000006709  -0.0000003905   0.0000013436  -0.0000006541
       -0.0000014151   0.0000015800  -0.0000010199   0.0000010468  -0.0000018156
       -0.0000097002   0.0000018121   0.0000007698  -0.0000000017   0.0000051635
        0.0000028654  -0.0008976627  -0.0009572753   0.0000646255  -0.0006839241
        0.0006223187  -0.0015854885
        0.0204194331  -0.0067260404   0.5009695313  -0.0024143516   0.0024897548
       -0.0611087512  -0.0108921869  -0.0097705523   0.0008029252  -0.0048696310
        0.0023719019   0.0033165641  -0.0002990103  -0.0001085267   0.0001219717
        0.0010115208  -0.0001346272  -0.0008071216  -0.0000674171  -0.0002271471
       -0.0000232816  -0.0000010158  -0.0000296277   0.0000289328  -0.0000144819
        0.0000125152   0.0000330838   0.0000329167  -0.0000070658  -0.0000363537
       -0.0000033526   0.0000192328   0.0000029342   0.0000234102  -0.0000749798
        0.0000154534  -0.0000040358   0.0000712482   0.0000639695  -0.0003549608
        0.0002531226  -0.0002054074   0.0000298583  -0.0001077252   0.0000610824
       -0.0000174177  -0.0000137773   0.0000223760   0.0000352730  -0.0000371052
       -0.0000279872  -0.0000902869   0.0000284787   0.0000460557   0.0001469675
        0.0000386563   0.0000365992   0.0000096695   0.0000179752   0.0000147787
        0.0000055852  -0.0000008494  -0.0000187008   0.0000002443   0.0000040699
        0.0000032169  -0.0000008876  -0.0000106959   0.0000036950   0.0000016679
        0.0000198186  -0.0000154381  -0.0000015696  -0.0000145532   0.0000102218
        0.0000005590   0.0000043487   0.0000017563   0.0000000853  -0.0000021741
       -0.0000009532  -0.0000008609   0.0000027000  -0.0000039265  -0.0000006053
       -0.0000027961   0.0000011115   0.0000006024  -0.0000014991  -0.0000027489
        0.0000007726  -0.0000009123   0.0000039419  -0.0000005535  -0.0000006670
       -0.0000086488  -0.0000031487  -0.0000101437   0.0000202909   0.0000034133
        0.0000078208  -0.0000124919   0.0000020652   0.0000019059   0.0000006880
        0.0000041517  -0.0000143712   0.0000057017   0.0000061301  -0.0000017426
       -0.0000001873   0.0000068763  -0.0000116474  -0.0000027945  -0.0000657143
       -0.0000199743  -0.0000062591   0.0000741363   0.0000097834   0.0000044013
       -0.0000211613   0.0000252655   0.0000089515   0.0000068779  -0.0000035052
       -0.0000001980  -0.0000036170  -0.0000000722   0.0000017120  -0.0000026785
        0.0000052600   0.0000000335   0.0000013298  -0.0000026912  -0.0000006764
       -0.0000005007   0.0000028574  -0.0000021785   0.0000020898  -0.0000080944
        0.0000019937  -0.0000039959  -0.0000207390  -0.0000107656   0.0000025283
        0.0000042475  -0.0000002563  -0.0000020627  -0.0000007274  -0.0000013976
       -0.0000005979  -0.0000043949  -0.0000003119   0.0000003871   0.0000024291
        0.0000019844  -0.0000000343  -0.0000027833   0.0000007722  -0.0000004052
        0.0000067914  -0.0000022635   0.0000140245   0.0000236097   0.0000077219
       -0.0000069378   0.0000036393   0.0000040777  -0.0000171292   0.0000027054
       -0.0000062386  -0.0026840137   0.0039647791   0.0029882580   0.0087089159
        0.0119016470  -0.0008355340  -0.1141397701   0.0089265583  -0.2037257579
        0.1102886230  -0.0207402379  -0.1953718360  -0.0070038691   0.0097224911
       -0.0439738646   0.0007827009  -0.0017091202  -0.0011319579  -0.0006618923
       -0.0005368227  -0.0000823506   0.0000056721   0.0000027744  -0.0000063859
        0.0000051399   0.0000102418  -0.0000045641  -0.0000002339   0.0000099725
        0.0000046033  -0.0000006477   0.0000030793  -0.0000051602  -0.0000056589
        0.0000016265  -0.0000022292  -0.0000028138   0.0000095883   0.0000081120
        0.0000009600   0.0000230528  -0.0000370926  -0.0000312361  -0.0000014883
       -0.0000281838   0.0000090194  -0.0000100346  -0.0000075565  -0.0000014312
        0.0000037465  -0.0000077608   0.0000014641  -0.0000009725  -0.0000017258
       -0.0000004551   0.0000000204   0.0000017648  -0.0000009941   0.0000010078
        0.0000017141  -0.0000007109   0.0000026435   0.0000020536  -0.0000007739
        0.0000029235   0.0000001411  -0.0000014005  -0.0000005554   0.0000001820
        0.0000013068   0.0000019740   0.0000016761  -0.0000000218   0.0000011318
        0.0000001883   0.0000024062   0.0000001239  -0.0000014781   0.0000017390
        0.0000004695   0.0000000884   0.0000007839  -0.0000004425   0.0000010320
        0.0000004528  -0.0000019269  -0.0000016764   0.0000002359  -0.0000015837
        0.0000009467   0.0000011149   0.0000011817  -0.0000019413   0.0000010451
       -0.0000009292   0.0000005970   0.0000017694   0.0000009087   0.0000015394
       -0.0000002519   0.0000009043   0.0000001239   0.0000021175   0.0000006302
       -0.0000001493  -0.0000001750   0.0000004031  -0.0000001885  -0.0000005162
        0.0000007101  -0.0000002090   0.0000003896  -0.0000001210   0.0000017716
        0.0000037450  -0.0000017536  -0.0000025475  -0.0000016294  -0.0000033041
       -0.0000015513   0.0003936124   0.0005854196  -0.0000211981   0.0016433142
       -0.0002286465  -0.0010750850
       -0.1366220305  -0.0785832729  -0.0024143516   0.5591442877   0.0758224631
        0.1672227906  -0.2513796602   0.0478715536  -0.1236703692  -0.0516499892
       -0.0545233740  -0.0006693462  -0.0226880145   0.0252009721  -0.0221200689
        0.0009241067  -0.0001467934   0.0014563418   0.0001125409  -0.0000675552
       -0.0001152575   0.0000023456  -0.0000989586   0.0000634437  -0.0001205619
        0.0001227292   0.0000563354   0.0001778367   0.0000560252  -0.0001887439
       -0.0000116861   0.0000373232  -0.0000112050   0.0001169625  -0.0003131630
        0.0001039643  -0.0000493720   0.0004518440   0.0002074584  -0.0011928926
        0.0004507461  -0.0000717835  -0.0003235355  -0.0005062286   0.0000241559
        0.0000800008  -0.0000653640   0.0001440962   0.0000820407  -0.0001895767
       -0.0001285168  -0.0003236588   0.0001796117   0.0001361923   0.0006333203
        0.0002287554   0.0001492035   0.0000214786   0.0000649600   0.0000538039
        0.0000195280  -0.0000048397  -0.0000543898   0.0000002782   0.0000065728
        0.0000086073  -0.0000022139  -0.0000290618   0.0000215091  -0.0000012024
        0.0000562681  -0.0000502356   0.0000018133  -0.0000366148   0.0000400940
        0.0000026407   0.0000121716  -0.0000053125  -0.0000002837  -0.0000100005
        0.0000010031  -0.0000033942   0.0000228233  -0.0000030366  -0.0000026425
        0.0000000670   0.0000078400   0.0000011360  -0.0000005337  -0.0000092728
        0.0000027933  -0.0000047894   0.0000080627  -0.0000032862  -0.0000085161
       -0.0000107709  -0.0000124562  -0.0000159900   0.0000254383   0.0000150043
        0.0000139960  -0.0000170809   0.0000046231   0.0000122291  -0.0000108984
        0.0000115583  -0.0000399971   0.0000148222   0.0000029924  -0.0000051049
       -0.0000014076   0.0000196246  -0.0000332381  -0.0000047892  -0.0001653373
       -0.0000478096  -0.0000140963   0.0001869056   0.0000248411   0.0000119274
       -0.0000582753   0.0000663220   0.0000220257   0.0000199302  -0.0000081124
       -0.0000020150  -0.0000106142  -0.0000023276   0.0000062262  -0.0000094217
        0.0000147675   0.0000007663   0.0000027007  -0.0000049808  -0.0000033701
        0.0000009317   0.0000094382  -0.0000072157   0.0000069591  -0.0000218889
        0.0000060680  -0.0000130176  -0.0000582592  -0.0000302594   0.0000088291
        0.0000118455   0.0000012639  -0.0000090650   0.0000024840  -0.0000079663
       -0.0000018580  -0.0000131057  -0.0000007395  -0.0000000781   0.0000035913
        0.0000016503   0.0000003399  -0.0000068083   0.0000027464  -0.0000030835
        0.0000201615  -0.0000068731   0.0000252079   0.0000557111   0.0000237111
       -0.0000076831   0.0000008127   0.0000028993  -0.0000595122   0.0000283601
       -0.0000335946   0.0379852441   0.0000866826   0.0186953802  -0.0918648055
       -0.0061383117  -0.0183367711  -0.0181973632  -0.0132667018  -0.0029125392
       -0.0181053436  -0.0162697101   0.0054998859   0.0082643363   0.0051968145
        0.0008788541  -0.0057708951   0.0025883406  -0.0046728689  -0.0005327464
       -0.0044336394  -0.0022336789   0.0000223328   0.0000017847  -0.0000267487
        0.0000091467   0.0000278142  -0.0000178711   0.0000071178   0.0000218194
        0.0000215630  -0.0000020524   0.0000153304  -0.0000102407  -0.0000142645
        0.0000037389  -0.0000047931  -0.0000022744   0.0000172554   0.0000326755
        0.0000396887  -0.0000241516  -0.0001052615  -0.0002331088  -0.0000189913
        0.0000054822  -0.0000039666  -0.0000184661  -0.0000022582  -0.0000120628
        0.0000447318   0.0000412402   0.0000021833  -0.0000110073  -0.0000001353
        0.0000000811   0.0000011769   0.0000094175  -0.0000014011   0.0000066886
        0.0000027795  -0.0000021400   0.0000057475   0.0000064032  -0.0000027369
        0.0000051695  -0.0000001262  -0.0000055202  -0.0000005025  -0.0000008933
        0.0000040645   0.0000079882   0.0000064406  -0.0000002265   0.0000026391
       -0.0000001490   0.0000061004   0.0000007713  -0.0000044295   0.0000044484
        0.0000014937   0.0000003411   0.0000025784  -0.0000016031   0.0000048116
        0.0000014836  -0.0000048586  -0.0000038124  -0.0000001029  -0.0000051231
        0.0000044073   0.0000006008   0.0000017647  -0.0000033656   0.0000023663
       -0.0000033341   0.0000015437   0.0000060795   0.0000027874   0.0000042798
       -0.0000018034   0.0000042621   0.0000007231   0.0000059507   0.0000024890
       -0.0000017515  -0.0000012736   0.0000018423  -0.0000026828  -0.0000024348
        0.0000016808  -0.0000012687   0.0000012699   0.0000001730   0.0000040642
        0.0000059527  -0.0000049812  -0.0000081881  -0.0000078346  -0.0000051865
       -0.0000018523  -0.0009942719  -0.0049687435  -0.0020322649  -0.0075162873
        0.0211211438  -0.0149978218
       -0.0766223852  -0.1457072700   0.0024897548   0.0758224631   0.5590650076
       -0.1684118393  -0.0164690495  -0.0883416633   0.0097335138  -0.0064823280
        0.0331094370  -0.0187930304   0.0253052147  -0.0183526617   0.0203619528
       -0.0002374910   0.0002593505  -0.0015119079   0.0003762311  -0.0008115354
        0.0000725898   0.0001171938   0.0004717785  -0.0001384600   0.0001929068
       -0.0002169293  -0.0001306710  -0.0001707471  -0.0000494984   0.0001336858
        0.0000188401   0.0000302723   0.0000263921  -0.0000569569   0.0001403126
       -0.0001325202  -0.0003503452  -0.0003980243  -0.0000263725  -0.0002065094
        0.0001479187   0.0001696522   0.0004905111  -0.0001258147  -0.0002387847
       -0.0004055422   0.0000536417  -0.0001153597   0.0002191231   0.0001677595
        0.0001551364   0.0000391764  -0.0000768015  -0.0000402352   0.0000171790
        0.0000474805  -0.0000144503   0.0000285233   0.0000511512   0.0000404348
        0.0000105662  -0.0000037585  -0.0000455421   0.0000071741  -0.0000143436
        0.0000132027  -0.0000029599  -0.0000186177  -0.0000067458  -0.0000157128
        0.0000269113  -0.0000374640   0.0000210772  -0.0000159121   0.0000340320
        0.0000021258   0.0000072914  -0.0000060950   0.0000002404  -0.0000093178
        0.0000047375  -0.0000035424   0.0000049588  -0.0000090659  -0.0000032084
       -0.0000013012   0.0000153877  -0.0000001606  -0.0000019255  -0.0000104143
        0.0000011508   0.0000010060   0.0000125931  -0.0000021254  -0.0000004855
       -0.0000266617  -0.0000037933  -0.0000243765   0.0000517873   0.0000027408
        0.0000194504  -0.0000355678   0.0000027744   0.0000100608  -0.0000019921
        0.0000140315  -0.0000574412   0.0000122404   0.0000281332   0.0000104715
        0.0000074141   0.0000176689  -0.0000282314  -0.0000106584  -0.0001792003
       -0.0000582986  -0.0000182418   0.0002125023   0.0000378403   0.0000131442
       -0.0000609289   0.0000696132   0.0000274734   0.0000185051  -0.0000074039
       -0.0000009785  -0.0000087669  -0.0000002149   0.0000047071  -0.0000080819
        0.0000160498   0.0000001974   0.0000049917  -0.0000080708  -0.0000031969
       -0.0000041193   0.0000109141  -0.0000055068   0.0000054814  -0.0000243272
        0.0000072611  -0.0000160678  -0.0000746943  -0.0000309802   0.0000096997
        0.0000143381  -0.0000000125  -0.0000094897  -0.0000013698  -0.0000070901
       -0.0000022357  -0.0000139314  -0.0000006276   0.0000001567   0.0000058772
        0.0000037251   0.0000007289  -0.0000082646   0.0000035542  -0.0000031790
        0.0000215041  -0.0000073540   0.0000327980   0.0000651705   0.0000161448
       -0.0000090212  -0.0000022543   0.0000004903  -0.0000785565  -0.0000111648
        0.0000284294  -0.0485972020  -0.0544928280   0.0038766645   0.0589694633
       -0.2452824384   0.1250238610  -0.0035203644   0.0000301160  -0.0016255818
       -0.0050292643  -0.0003989985   0.0042313976  -0.0185411858  -0.0265693621
        0.0035525660   0.0216800898  -0.0058284571   0.0138459596  -0.0048673344
       -0.0015019195   0.0020464512   0.0000483347  -0.0000088725  -0.0000541970
        0.0000082620   0.0000171691  -0.0000238465   0.0000095884   0.0000147875
        0.0000083210   0.0000078122   0.0000114910  -0.0000118682  -0.0000157888
       -0.0000022382   0.0000003626  -0.0000202502  -0.0000076709  -0.0000057086
        0.0000015277  -0.0002140103  -0.0000138351  -0.0000468884   0.0000372995
        0.0001236348   0.0000079403   0.0000080885  -0.0000275881   0.0000043313
        0.0000295896   0.0000318391  -0.0000093065   0.0000051417  -0.0000013935
       -0.0000013164   0.0000031734   0.0000076760  -0.0000010520   0.0000084800
        0.0000041010  -0.0000019706   0.0000055922   0.0000047497  -0.0000013208
        0.0000074814  -0.0000018236  -0.0000023066  -0.0000057929   0.0000001079
        0.0000058552   0.0000060697   0.0000066042   0.0000011351   0.0000037554
       -0.0000005296   0.0000077981   0.0000007556  -0.0000050551   0.0000068577
        0.0000021297   0.0000001838   0.0000025813  -0.0000014497   0.0000037456
        0.0000021942  -0.0000053597  -0.0000039933   0.0000003882  -0.0000044166
        0.0000034480   0.0000016821   0.0000016829  -0.0000050016   0.0000018303
       -0.0000029553   0.0000015729   0.0000056146   0.0000037195   0.0000051067
       -0.0000026912   0.0000043973   0.0000020331   0.0000057006   0.0000026572
       -0.0000008616  -0.0000018037   0.0000026104  -0.0000030163  -0.0000026156
        0.0000032717  -0.0000016698   0.0000007239  -0.0000013158   0.0000055157
        0.0000100508  -0.0000048396  -0.0000085288  -0.0000061316  -0.0000049569
        0.0000048469  -0.0043610024  -0.0010514257   0.0021732535   0.0026326287
       -0.0042198153   0.0032086886
        0.0008463227   0.0055847481  -0.0611087512   0.1672227906  -0.1684118393
        0.3104743206  -0.0921256228   0.0433130021  -0.1163885700  -0.0231781189
       -0.0443782758   0.0089197979  -0.0202692294   0.0191079686  -0.0270439930
        0.0001894759  -0.0008791412   0.0015823849  -0.0001969101   0.0007411386
       -0.0001366682  -0.0000906002  -0.0004134991   0.0001332576  -0.0001612859
        0.0002135861   0.0000919051   0.0001822551   0.0000567584  -0.0001674539
       -0.0000199051   0.0000093011  -0.0000282182   0.0000951778  -0.0002391920
        0.0001561790   0.0002197052   0.0003828092   0.0001263435  -0.0004124231
        0.0000643512   0.0000852475  -0.0004807911  -0.0001407279   0.0001761658
        0.0002929646  -0.0000919392   0.0001307794  -0.0000664974  -0.0001915092
       -0.0001567301  -0.0001778202   0.0001687387   0.0001101359   0.0003147825
        0.0000934499   0.0000783476  -0.0000080101  -0.0000201208  -0.0000118070
       -0.0000035457   0.0000026042   0.0000266179  -0.0000046035   0.0000153992
       -0.0000052640   0.0000002838   0.0000035853   0.0000075314   0.0000016654
       -0.0000074930   0.0000151918  -0.0000023991   0.0000041839  -0.0000132890
        0.0000005431  -0.0000039783   0.0000030461   0.0000005531   0.0000043903
       -0.0000046300   0.0000004926   0.0000019384   0.0000026238   0.0000007159
       -0.0000011358  -0.0000068732   0.0000010417  -0.0000015632   0.0000053477
        0.0000004196  -0.0000027707  -0.0000062631  -0.0000000579  -0.0000012790
        0.0000121442  -0.0000038890   0.0000125781  -0.0000270722   0.0000054307
       -0.0000097859   0.0000194187  -0.0000011112  -0.0000055781   0.0000034811
       -0.0000086374   0.0000348440  -0.0000061921  -0.0000192140   0.0000042245
        0.0000027535  -0.0000125012   0.0000079680   0.0000048392   0.0000705537
        0.0000262910   0.0000106026  -0.0000861730  -0.0000214475  -0.0000058323
        0.0000237446  -0.0000266902  -0.0000123729  -0.0000047907   0.0000019749
       -0.0000004812   0.0000015312   0.0000014616  -0.0000016398   0.0000027030
       -0.0000056932  -0.0000000720  -0.0000023701   0.0000038662   0.0000013738
        0.0000030870  -0.0000055336   0.0000017952  -0.0000024058   0.0000094498
       -0.0000025604   0.0000090160   0.0000369763   0.0000123986  -0.0000040339
       -0.0000054195   0.0000003363   0.0000028708   0.0000010541   0.0000019861
        0.0000002280   0.0000061347  -0.0000000488  -0.0000012050  -0.0000037023
       -0.0000020623  -0.0000001969   0.0000053649  -0.0000014511   0.0000012733
       -0.0000086095   0.0000028939  -0.0000191928  -0.0000298368  -0.0000043473
        0.0000106807  -0.0000066299  -0.0000059561   0.0000271818   0.0000179173
       -0.0000371463   0.0422828055   0.0269847733   0.0071392504  -0.0503370971
        0.0923002123  -0.1198208650  -0.0181986029  -0.0170529856  -0.0000585114
        0.0177626617   0.0174585504  -0.0005962541   0.0007485086   0.0023439225
       -0.0000698091  -0.0141323166   0.0047199401  -0.0077484818  -0.0019546106
        0.0026448130   0.0061175585  -0.0000020382   0.0000129872  -0.0000041741
        0.0000002658   0.0000024285   0.0000060130  -0.0000019579  -0.0000079356
        0.0000021228  -0.0000034919   0.0000031474   0.0000045393   0.0000107893
       -0.0000038395  -0.0000004341   0.0000239245   0.0000019269   0.0000043914
        0.0000356061   0.0001493777  -0.0000448665  -0.0001526996  -0.0000763440
       -0.0000692337  -0.0000098872  -0.0000140068   0.0000147919  -0.0000094667
       -0.0000042398   0.0000029564   0.0000057509  -0.0000109866   0.0000035550
        0.0000001576  -0.0000023908  -0.0000036684  -0.0000000498  -0.0000041496
       -0.0000022302   0.0000000069  -0.0000026386  -0.0000015268  -0.0000005590
       -0.0000039579   0.0000007380  -0.0000005462   0.0000037128  -0.0000036358
       -0.0000042958  -0.0000031193  -0.0000031362  -0.0000007831  -0.0000014452
        0.0000002611  -0.0000034313  -0.0000000943   0.0000019024  -0.0000027778
       -0.0000004718  -0.0000002508  -0.0000006178   0.0000007530  -0.0000012592
       -0.0000006597   0.0000019498   0.0000010246  -0.0000001270   0.0000018539
       -0.0000009668  -0.0000007360  -0.0000010686   0.0000025717  -0.0000008323
        0.0000008361  -0.0000004730  -0.0000023670  -0.0000014926  -0.0000022634
        0.0000008820  -0.0000018580  -0.0000015510  -0.0000024229  -0.0000009375
       -0.0000001332   0.0000004511  -0.0000010168   0.0000012712   0.0000005372
       -0.0000019662   0.0000011593  -0.0000004483   0.0000015411  -0.0000026089
       -0.0000067860   0.0000010864   0.0000022210   0.0000013935   0.0000012949
       -0.0000037581  -0.0024861615   0.0021207383   0.0060906554  -0.0057219193
        0.0134164317  -0.0079703926
       -0.0257595195  -0.0042754484  -0.0108921869  -0.2513796602  -0.0164690495
       -0.0921256228   0.5625425268   0.0969528696   0.1780593401  -0.2025273482
       -0.1018618934  -0.0299435037   0.0347769246  -0.0476020934   0.0436502068
        0.0021024011   0.0030288594  -0.0048634231  -0.0000732755  -0.0005298209
       -0.0001047064   0.0000421044   0.0004314472  -0.0001305925   0.0001582254
       -0.0001824492  -0.0000157108  -0.0002392916  -0.0001640715   0.0002744474
        0.0000372429  -0.0000447956   0.0000259946  -0.0000699591   0.0005100140
       -0.0002795547  -0.0001649004  -0.0007080143  -0.0002125905   0.0007145446
       -0.0000639234  -0.0002464889   0.0005060250   0.0003578119  -0.0002364864
       -0.0000348536   0.0001687370  -0.0000448939  -0.0000654659   0.0002223661
        0.0001709269   0.0003153804  -0.0003004268  -0.0001675520  -0.0004322075
       -0.0001249419  -0.0000387936  -0.0000088282   0.0000284354   0.0000120487