$hessian                                                                        
        0.5024912922   0.0334661744   0.2438279817  -0.2400293838  -0.0963550897
       -0.1046090515  -0.0395362330   0.0493705688  -0.0377822026  -0.0237681561
       -0.0320584688  -0.0061916437  -0.0011091512   0.0024903438  -0.0000065902
       -0.0002815182  -0.0008786863  -0.0000033876   0.0000250714   0.0002311824
       -0.0000894500  -0.0001125026  -0.0001139024   0.0001105600   0.0001295498
       -0.0001091548  -0.0000599404   0.0000779682   0.0001593896   0.0000242989
        0.0000534428  -0.0000809772   0.0002579012   0.0001580562   0.0000906572
        0.0002361432  -0.0005582917   0.0001800934  -0.0000352409   0.0003154564
        0.0000895667   0.0001501008  -0.0000931100   0.0000385225  -0.0001972425
        0.0000946441  -0.0000123364  -0.0000060368  -0.0000409747  -0.0000010822
        0.0000218049   0.0000128356   0.0000164382   0.0000114342  -0.0000337333
       -0.0000037079   0.0000012491   0.0000542991  -0.0000288482  -0.0000149236
       -0.0000281748   0.0000117810   0.0000011484   0.0000210735  -0.0000354749
       -0.0000187118   0.0000000196   0.0000042609  -0.0000007278   0.0000101019
       -0.0000018638  -0.0000028174  -0.0000032058  -0.0000030158  -0.0000075078
        0.0000037881  -0.0000065055  -0.0000056613  -0.0000017296   0.0000102108
        0.0000017764  -0.0000037418  -0.0000064673  -0.0000038504  -0.0000105053
        0.0000024372  -0.0000034944   0.0000032836  -0.0000078766  -0.0000051769
       -0.0000003343   0.0000072405  -0.0000009803  -0.0000006107   0.0000032731
       -0.0000046724   0.0000008690   0.0000072189   0.0000023264   0.0000087020
       -0.0000048778  -0.0000033802  -0.0000211877   0.0000296598   0.0000159329
       -0.0000158865   0.0000330249   0.0000131589  -0.0000098166  -0.0000214160
       -0.0000124391  -0.0000010629   0.0000117380   0.0000051988  -0.0000110316
       -0.0000113344   0.0000097297   0.0000076981   0.0000213794  -0.0000082331
       -0.0000083209  -0.0000108931   0.0000094600  -0.0000099467  -0.0000531072
        0.0000063218   0.0000102646  -0.0000317380  -0.0000192516   0.0000053094
       -0.0000689141  -0.0000081701   0.0000259044   0.0000821125  -0.0000026025
       -0.0000149615  -0.0001052558  -0.0000025508  -0.0000198831   0.0001019880
        0.0000182597   0.0000239634  -0.0000719747  -0.0000170447   0.0000109063
        0.0000524959  -0.0000023052  -0.0000064007   0.0000241772   0.0000062044
       -0.0000115981   0.0000582075   0.0000071828  -0.0000277266  -0.0000796010
        0.0000043622   0.0000156948   0.0001104763  -0.0000016356   0.0000190569
       -0.0001068182  -0.0000179130  -0.0000357080   0.0000857675   0.0000170799
        0.0000009268   0.0000078784   0.0000063475   0.0000001497  -0.0000045185
       -0.0000020234   0.0000191173   0.0000058280  -0.0000185921   0.0000182979
       -0.0000066486  -0.0000168181  -0.0000451549  -0.0000066636  -0.0000342606
       -0.0001105872  -0.0000583394   0.0000927497   0.0001810961   0.0000046449
        0.0001598022   0.0366816395   0.0019355255   0.0223723612  -0.0966939035
       -0.0292394676  -0.0256112255  -0.1239914020   0.0955433978  -0.0774884676
       -0.0076155703  -0.0045896083  -0.0040719444   0.0011167409   0.0019299323
       -0.0049301371  -0.0000008320  -0.0000284670  -0.0000041433   0.0000015992
        0.0000101873   0.0000005098   0.0000037458  -0.0000039536  -0.0000211050
        0.0000302265   0.0000122155  -0.0000031477   0.0000131588  -0.0000258423
       -0.0000411067  -0.0001763544   0.0000352468  -0.0000970345  -0.0000244419
        0.0000215893   0.0000111979   0.0000038508  -0.0000056783  -0.0000021097
       -0.0000052445  -0.0000004227   0.0000056822  -0.0000022327   0.0000011856
        0.0000097205  -0.0000003719   0.0000026131   0.0000051995  -0.0000025601
        0.0000009830  -0.0000021426   0.0000004808   0.0000064011   0.0000018655
        0.0000011227   0.0000008178  -0.0000022171  -0.0000001032  -0.0000006519
       -0.0000023706  -0.0000012052  -0.0000092303   0.0000061213  -0.0000010410
        0.0000006571  -0.0000019996   0.0000073847   0.0000012136  -0.0000001834
        0.0000052722   0.0000005879  -0.0000030875   0.0000006815  -0.0000034248
        0.0000016264   0.0000057373   0.0000105458  -0.0000013819  -0.0000040355
       -0.0000026191   0.0000090329  -0.0000062816   0.0000008442   0.0000035584
       -0.0000031462  -0.0000046734   0.0000045998  -0.0000054541  -0.0000043719
        0.0000020325  -0.0000081286  -0.0000083079   0.0000018871   0.0000076583
       -0.0000028468  -0.0000055822   0.0000092380  -0.0000032560  -0.0000010483
        0.0000069536   0.0000027087  -0.0000047720  -0.0000008147   0.0000009227
        0.0000033688  -0.0000034825  -0.0000035712  -0.0000010754   0.0000072427
        0.0000060754   0.0000121136  -0.0000092348  -0.0000061928  -0.0000096578
       -0.0000051614   0.0000091433   0.0000407895   0.0009231155   0.0023747322
       -0.0050334009  -0.0081030559  -0.0244281200  -0.0009543112
        0.0334661744   0.6438700429  -0.0820997419  -0.0305870620  -0.1159840233
       -0.0060270343   0.0009192822   0.0501184675  -0.0091186526  -0.0312228573
       -0.0315903825  -0.0166003771   0.0019023356  -0.0004252979   0.0024428053
       -0.0000660327   0.0001870919   0.0002250597  -0.0000546944   0.0003698530
       -0.0000540522  -0.0002118434  -0.0000338649   0.0001501674   0.0001745807
       -0.0002061870  -0.0000542146   0.0001206493   0.0003770388  -0.0000500891
        0.0000329458  -0.0005157875   0.0005045811  -0.0009652907  -0.0003686127
       -0.0004576120  -0.0002826846   0.0002760762   0.0000376809   0.0001872007
        0.0001215790   0.0000847686   0.0000172042   0.0000342949  -0.0002094169
       -0.0000521408  -0.0000237078  -0.0000215572   0.0000341835  -0.0000016105
       -0.0000074926  -0.0000072745  -0.0000070796  -0.0000060042   0.0000214889
       -0.0000012214   0.0000021502  -0.0000314802   0.0000209062   0.0000112213
        0.0000025629  -0.0000038198  -0.0000038861  -0.0000052848   0.0000156368
        0.0000096088   0.0000020974   0.0000004041   0.0000005265  -0.0000025665
       -0.0000003835  -0.0000000595   0.0000052529   0.0000026190   0.0000047721
       -0.0000010473   0.0000047201   0.0000024172   0.0000024908  -0.0000090238
       -0.0000031446   0.0000028581   0.0000049011   0.0000013624   0.0000051806
       -0.0000036934   0.0000009331  -0.0000001827   0.0000071753   0.0000018626
        0.0000003002  -0.0000061165  -0.0000014820   0.0000033894  -0.0000051166
        0.0000012228  -0.0000032783  -0.0000061457  -0.0000022705   0.0000013198
        0.0000008579   0.0000021963   0.0000107426  -0.0000145074  -0.0000079686
        0.0000090917  -0.0000217211  -0.0000075575   0.0000030186   0.0000131141
        0.0000141427   0.0000046937  -0.0000086273  -0.0000088859   0.0000043672
        0.0000025103  -0.0000116472   0.0000006509  -0.0000272281  -0.0000024947
       -0.0000132156  -0.0000090950  -0.0000002741   0.0000299593   0.0000955073
       -0.0000194848  -0.0000271851   0.0000245295   0.0000380309   0.0000081381
        0.0001077468   0.0000060883  -0.0000450698  -0.0001413131   0.0000064404
        0.0000306887   0.0001690136   0.0000020744   0.0000351140  -0.0001613740
       -0.0000267945  -0.0000388941   0.0001167225   0.0000264168  -0.0000120520
       -0.0000783795   0.0000041523   0.0000086054  -0.0000344216  -0.0000080019
        0.0000098770  -0.0000871840  -0.0000068032   0.0000447369   0.0001286378
       -0.0000082314  -0.0000306259  -0.0001758447   0.0000081327  -0.0000417381
        0.0001702597   0.0000319236   0.0000578025  -0.0001430259  -0.0000297435
       -0.0000020743  -0.0000050942  -0.0000104176  -0.0000002760   0.0000063318
        0.0000014100  -0.0000165249   0.0000050702   0.0000177712  -0.0000053916
        0.0000024129   0.0000052775   0.0000259260   0.0000100869  -0.0000004708
       -0.0002388546  -0.0000316945   0.0000739084   0.0003232262  -0.0000244789
        0.0001508884   0.0514150218  -0.0554090156   0.0424063121  -0.0952430695
       -0.3100956931  -0.0099100807   0.0956654597  -0.1550230912   0.0854305235
       -0.0245666845  -0.0116114838  -0.0132758436   0.0023068550  -0.0016335491
        0.0034840811  -0.0000205112   0.0000272131   0.0000292335  -0.0000053194
       -0.0000168049   0.0000007650  -0.0000243087  -0.0000222876  -0.0000147467
        0.0000008914  -0.0000152240   0.0000421524   0.0000293869  -0.0002366543
        0.0001046976  -0.0000198202   0.0000047541  -0.0000646605   0.0000192249
        0.0000265999  -0.0000153651  -0.0000064806   0.0000025264   0.0000008901
       -0.0000014637   0.0000010072  -0.0000017892   0.0000028220   0.0000012040
       -0.0000068501   0.0000001781  -0.0000017456  -0.0000062706   0.0000008979
       -0.0000018772  -0.0000000114  -0.0000031745  -0.0000048565  -0.0000032249
       -0.0000019877  -0.0000014484  -0.0000002068  -0.0000032297   0.0000024326
        0.0000002358   0.0000006919   0.0000114429  -0.0000055608   0.0000015606
       -0.0000004328   0.0000003934  -0.0000078132   0.0000026809   0.0000013658
       -0.0000060785   0.0000010265   0.0000048358  -0.0000007319   0.0000073077
       -0.0000013256  -0.0000027811  -0.0000066728   0.0000011854   0.0000034270
       -0.0000003581  -0.0000106694   0.0000105302  -0.0000027963  -0.0000054127
        0.0000075060   0.0000103599  -0.0000071010   0.0000103829   0.0000070978
       -0.0000026347   0.0000074123   0.0000130425  -0.0000006725  -0.0000076861
        0.0000035580   0.0000052439  -0.0000112692   0.0000052849  -0.0000001437
       -0.0000055463  -0.0000026947   0.0000056824   0.0000029978   0.0000016305
       -0.0000018992  -0.0000007626   0.0000002032   0.0000018775  -0.0000045576
       -0.0000030107   0.0000063198   0.0000048896   0.0000026797   0.0000093757
       -0.0000188367  -0.0000135043  -0.0000282790   0.0018881720  -0.0014170945
        0.0030827404  -0.0049587095  -0.0107193006  -0.0002592940
        0.2438279817  -0.0820997419   0.2883513094  -0.1170790696  -0.0493181705
       -0.1143760852  -0.0270110221   0.0225755697  -0.0215915476  -0.0050734411
       -0.0156170989  -0.0069081746  -0.0008492837   0.0017480686  -0.0006878255
       -0.0001761896  -0.0006440885   0.0000180586   0.0000125109   0.0001449241
       -0.0000592639  -0.0000592948  -0.0000767117   0.0000709544   0.0000677430
       -0.0000385921  -0.0000479223   0.0000493592   0.0000692091   0.0000282512
        0.0000632542  -0.0000268672   0.0001289581   0.0001699128   0.0001616322
        0.0002527287  -0.0003707893   0.0001316337  -0.0000668902   0.0001881085
        0.0000577953   0.0000885093  -0.0000423353   0.0000239498  -0.0001109094
        0.0000609726  -0.0000097368  -0.0000022521  -0.0000295939  -0.0000012556
        0.0000105576   0.0000050765   0.0000095822   0.0000089869  -0.0000201911
       -0.0000007692   0.0000021913   0.0000364619  -0.0000238694  -0.0000097336
       -0.0000178129   0.0000083527   0.0000033923   0.0000119347  -0.0000232943
       -0.0000086339  -0.0000027910   0.0000016976   0.0000018061   0.0000061885
       -0.0000016401   0.0000004168  -0.0000042530  -0.0000025852  -0.0000026657
        0.0000020885  -0.0000040084  -0.0000000312  -0.0000010758   0.0000077912
        0.0000032741  -0.0000024091  -0.0000035679  -0.0000016687  -0.0000041006
        0.0000011709   0.0000071358  -0.0000014511  -0.0000050136  -0.0000045486
       -0.0000014270   0.0000046875   0.0000043490  -0.0000004483   0.0000035917
       -0.0000014062  -0.0000015590   0.0000068405   0.0000044647   0.0000066633
       -0.0000027335  -0.0000000357  -0.0000181942   0.0000177973   0.0000077124
       -0.0000094714   0.0000243701   0.0000110782  -0.0000055404  -0.0000136536
       -0.0000130646   0.0000007172   0.0000080392   0.0000069264  -0.0000061783
       -0.0000059067   0.0000121592   0.0000037084   0.0000180092  -0.0000017409
        0.0000034647   0.0000015413   0.0000027646  -0.0000148849  -0.0000664553
        0.0000159566   0.0000144998  -0.0000235316  -0.0000245066  -0.0000042372
       -0.0000769135  -0.0000057158   0.0000283544   0.0000960037  -0.0000047674
       -0.0000249302  -0.0001176025  -0.0000028784  -0.0000289052   0.0001122664
        0.0000215404   0.0000309242  -0.0000794223  -0.0000198305   0.0000032087
        0.0000533761   0.0000008956  -0.0000055635   0.0000216330   0.0000094264
       -0.0000047049   0.0000633190   0.0000073339  -0.0000341055  -0.0000895519
        0.0000070112   0.0000200057   0.0001203274  -0.0000040174   0.0000263793
       -0.0001164060  -0.0000259165  -0.0000391354   0.0000981606   0.0000229814
        0.0000060975   0.0000055225   0.0000111655   0.0000042997  -0.0000032886
        0.0000005095   0.0000158010   0.0000009474  -0.0000132188   0.0000096043
       -0.0000046279  -0.0000101656  -0.0000309089  -0.0000030662  -0.0000217696
       -0.0000734384  -0.0000369903   0.0000717334   0.0001193326  -0.0000056453
        0.0001227085   0.0129632516   0.0118853229   0.0076736026  -0.0133841928
        0.0331521938  -0.0628411985  -0.0773890888   0.0855731041  -0.0998530120
       -0.0008151454  -0.0004995476   0.0008893566  -0.0050117578   0.0030722132
        0.0042552329   0.0000025591  -0.0000248025  -0.0000138561   0.0000021680
        0.0000102163  -0.0000016052   0.0000035898  -0.0000011332  -0.0000174531
        0.0000173634   0.0000042113  -0.0000094095   0.0000179823  -0.0000033150
       -0.0000133935  -0.0001521353   0.0000539327  -0.0000689708  -0.0000259055
        0.0000100408   0.0000057776   0.0000034788  -0.0000026937  -0.0000010678
       -0.0000036367  -0.0000005755   0.0000042694  -0.0000006220   0.0000005959
        0.0000101121  -0.0000015067   0.0000028539   0.0000061225  -0.0000018428
        0.0000013328   0.0000014743   0.0000009950   0.0000044677   0.0000050526
        0.0000015000   0.0000013228   0.0000018161   0.0000005736  -0.0000009075
        0.0000020995  -0.0000004768  -0.0000090610   0.0000100961  -0.0000008064
       -0.0000001103  -0.0000029401   0.0000089946   0.0000004191   0.0000022555
        0.0000071749   0.0000006228  -0.0000003051   0.0000004933  -0.0000036832
        0.0000008596   0.0000045759   0.0000070094  -0.0000019232  -0.0000029435
       -0.0000006739   0.0000071587  -0.0000055030   0.0000012052   0.0000021578
       -0.0000048774  -0.0000040516   0.0000036671  -0.0000059030  -0.0000045686
        0.0000015213  -0.0000052972  -0.0000083053   0.0000017810   0.0000062900
       -0.0000028851  -0.0000030184   0.0000092464  -0.0000032747   0.0000022987
        0.0000051926   0.0000021627  -0.0000030797  -0.0000014897   0.0000008619
        0.0000038046  -0.0000027379  -0.0000018897  -0.0000013723   0.0000053746
        0.0000035011   0.0000088208  -0.0000076434  -0.0000030593  -0.0000080954
        0.0000000785   0.0000066207   0.0000291281  -0.0050931069   0.0033698209
        0.0042219332  -0.0048901802  -0.0136444979   0.0004002411
       -0.2400293838  -0.0305870620  -0.1170790696   0.4973199719   0.0493534534
        0.2368819695  -0.1593464511   0.0552707478  -0.0840603658   0.0324422923
        0.0527136932   0.0130227301   0.0048768857  -0.0071979297  -0.0009199513
        0.0002509930   0.0009090350  -0.0002733407  -0.0000699349  -0.0003756209
        0.0002232992   0.0001090421   0.0001815875  -0.0000838922  -0.0001605516
        0.0001768015   0.0000788183  -0.0000618118  -0.0003511489  -0.0000326739
       -0.0000963870   0.0002634220  -0.0004252317  -0.0007836091  -0.0006940282
       -0.0003419051   0.0007149601  -0.0001700205  -0.0000608635  -0.0002378355
       -0.0000882111  -0.0000183501   0.0002058469  -0.0000300972   0.0001788336
       -0.0001850056  -0.0000043784  -0.0000043594   0.0000958341  -0.0000058290
       -0.0000266619  -0.0000324244  -0.0000284436  -0.0000170588   0.0000658920
        0.0000056409  -0.0000027531  -0.0001187556   0.0000808735   0.0000388413
        0.0000347449  -0.0000320674  -0.0000176679  -0.0000342444   0.0000706095
        0.0000264030   0.0000072293   0.0000020655  -0.0000047318  -0.0000186526
        0.0000000768  -0.0000055489   0.0000156843   0.0000127116  -0.0000362921
       -0.0000072330   0.0000182236  -0.0000000125   0.0000016642  -0.0000294962
       -0.0000199215   0.0000073630   0.0000195466  -0.0000014408   0.0000157149
       -0.0000076753  -0.0000081838  -0.0000055193   0.0000263871   0.0000015253
       -0.0000002392  -0.0000192374  -0.0000145788   0.0000032457  -0.0000113535
       -0.0000374195  -0.0000046061  -0.0000104836   0.0000053651  -0.0000119043
        0.0000059959  -0.0000029906   0.0000403583  -0.0000602017  -0.0000400091
        0.0000357240  -0.0000948182  -0.0000458054   0.0000305448   0.0000717318
        0.0000237557  -0.0000080612  -0.0000514589  -0.0000200600   0.0000333151
        0.0000431316  -0.0000323340  -0.0000083903  -0.0000813192   0.0000074766
       -0.0000031868   0.0000196380  -0.0000250101   0.0000512124   0.0002472388
       -0.0000405157  -0.0000607829   0.0000820688   0.0000938380   0.0000288107
        0.0002783930   0.0000051524  -0.0001147449  -0.0003911632   0.0000096841
        0.0001191080   0.0004410440  -0.0000187051   0.0001321843  -0.0004284681
       -0.0000958045  -0.0000978609   0.0003390132   0.0000682010  -0.0000174964
       -0.0002090461  -0.0000017673   0.0000232981  -0.0000914805  -0.0000268917
        0.0000205939  -0.0002412146  -0.0000203078   0.0001155990   0.0003727209
       -0.0000200846  -0.0001128962  -0.0004649841   0.0000270918  -0.0001184199
        0.0004519472   0.0000876223   0.0001465484  -0.0003799439  -0.0000773650
       -0.0000063954  -0.0000223791  -0.0000339634  -0.0000051730   0.0000174821
        0.0000031114  -0.0000557794  -0.0000029213   0.0000487061  -0.0000249446
        0.0000089168   0.0000218262   0.0001034004   0.0000070372   0.0000186544
        0.0000547519   0.0001257011  -0.0001083205   0.0001172149   0.0000054764
       -0.0000160458  -0.0404590534   0.0128744245  -0.0255911707  -0.0067472033
       -0.0774802323   0.0092204159  -0.0162327818  -0.0038042903  -0.0097543494
       -0.0579088196  -0.0646989003  -0.0035705603  -0.0162839891   0.0152982435
       -0.0142756647   0.0000550722   0.0000315586  -0.0000183422   0.0000197980
       -0.0000358773  -0.0000166840  -0.0000019575  -0.0000170804   0.0000420303
       -0.0000359189   0.0000033120  -0.0000080815   0.0000117890   0.0001005253
       -0.0000280485   0.0000109074   0.0001591648   0.0001405777   0.0000071290
        0.0000058997  -0.0000622364  -0.0000280873   0.0000127520  -0.0000082407
       -0.0000055443   0.0000093977  -0.0000138308  -0.0000191125   0.0000046147
        0.0000954528  -0.0000093146  -0.0000020362   0.0000406223  -0.0000357176
        0.0000001773  -0.0000027967  -0.0000030537   0.0000502332   0.0000371342
       -0.0000057791   0.0000008220  -0.0000013088  -0.0000048788  -0.0000017707
        0.0000059241   0.0000044169  -0.0000824047   0.0000742827   0.0000044767
        0.0000017627  -0.0000034168   0.0000176446   0.0000026282  -0.0000050215
        0.0000350401   0.0000025207   0.0000112351  -0.0000074389   0.0000151311
       -0.0000162989  -0.0000096950  -0.0000230909   0.0000005851   0.0000027028
        0.0000126187  -0.0000212524   0.0000184208  -0.0000009336  -0.0000050991
        0.0000065872   0.0000173743  -0.0000132354   0.0000126933   0.0000069223
       -0.0000023773  -0.0000888954   0.0000470047   0.0000299683  -0.0000109470
        0.0000050550   0.0000045499  -0.0000235026   0.0000127353  -0.0000119521
       -0.0000139359   0.0000003046   0.0000110880   0.0000079510   0.0000081409
       -0.0000063940  -0.0000057929   0.0000088911   0.0000005844  -0.0000160917
       -0.0000035489   0.0000024958   0.0000120727  -0.0000016176   0.0000562514
       -0.0000604065  -0.0000343093  -0.0000256358  -0.0003124706   0.0002639543
       -0.0001394055   0.0027223390  -0.0022300075  -0.0029264446
       -0.0963550897  -0.1159840233  -0.0493181705   0.0493534534   0.6600846193
       -0.0720100058   0.1195214766  -0.1994958572   0.1063050205   0.0052801260
       -0.0518055720   0.0124630160  -0.0041718690  -0.0023944172   0.0004859807
        0.0002513592  -0.0022933132   0.0006663443  -0.0002488263   0.0000852578
        0.0001251283  -0.0001172967  -0.0001813850   0.0000991771   0.0000798534
        0.0000066062  -0.0000597132   0.0000185449  -0.0000201365   0.0000489022
        0.0004678150  -0.0000272703  -0.0000207743   0.0005069222   0.0004094709
        0.0002857435  -0.0004713676   0.0000049278   0.0001871781   0.0002957662
        0.0000388545   0.0000463577  -0.0001409659   0.0000078098  -0.0001170380
        0.0000939121   0.0000087934  -0.0000214007  -0.0000353325  -0.0000145299
        0.0000112015   0.0000150655  -0.0000163394  -0.0000030000  -0.0000059527
       -0.0000007064   0.0000044537  -0.0000295616   0.0000649745   0.0000345313
        0.0000013283  -0.0000399145  -0.0000123448  -0.0000143145   0.0000218828
        0.0000147324   0.0000083216   0.0000024048   0.0000076861  -0.0000122705
       -0.0000043080   0.0000053569   0.0000028158   0.0000039165   0.0000294374
       -0.0000012750   0.0000039787   0.0000086944   0.0000042902  -0.0000145009
        0.0000007727   0.0000006524   0.0000055510   0.0000068978   0.0000024194
       -0.0000055844   0.0000063994   0.0000004037   0.0000083057   0.0000083851
        0.0000005619  -0.0000114627   0.0000022578  -0.0000020126  -0.0000094809
        0.0000192878  -0.0000026870  -0.0000013633  -0.0000077869   0.0000010256
       -0.0000030304   0.0000052601   0.0000260429  -0.0000083815  -0.0000083998
        0.0000117026  -0.0000628726  -0.0000148129   0.0000260262   0.0000448324
        0.0000307325  -0.0000001896  -0.0000317209  -0.0000135118   0.0000194814
        0.0000215538  -0.0000241179  -0.0000129581  -0.0000603779   0.0000072131
       -0.0000092779  -0.0000039849  -0.0000097297   0.0000480318   0.0001871340
       -0.0000320905  -0.0000600182   0.0000658364   0.0000727556   0.0000053832
        0.0002229554   0.0000086322  -0.0000949593  -0.0002712693   0.0000179653
        0.0000610346   0.0003365611  -0.0000006055   0.0000626724  -0.0003162217
       -0.0000535746  -0.0000820329   0.0002276925   0.0000554041  -0.0000279955
       -0.0001564525   0.0000068136   0.0000156545  -0.0000665611  -0.0000175598
        0.0000224413  -0.0001786567  -0.0000166765   0.0000890837   0.0002538220
       -0.0000159481  -0.0000548105  -0.0003511771   0.0000111461  -0.0000760917
        0.0003426757   0.0000629209   0.0001126790  -0.0002815047  -0.0000556297
       -0.0000054385  -0.0000109295  -0.0000203067  -0.0000031309   0.0000110008
        0.0000043406  -0.0000499522   0.0000020597   0.0000426758   0.0000106054
        0.0000062264   0.0000160613  -0.0000481213  -0.0000001643   0.0000033819
        0.0000280721  -0.0000207363   0.0000027652  -0.0001402179   0.0001255423
        0.0000493909   0.0101640858   0.0004422358   0.0056544980  -0.0292172918
       -0.0112108009  -0.0162059463   0.0160999533   0.0049230449   0.0095072012
       -0.0648534379  -0.2832081883   0.0048381070  -0.0040817628   0.0053807796
       -0.0038424335  -0.0000619490   0.0000390202   0.0000313034  -0.0000245800
       -0.0000140850   0.0000173921  -0.0000052910   0.0000154283  -0.0000063816
        0.0000061312  -0.0000033448  -0.0000144914   0.0000071025  -0.0001527028
        0.0000611436   0.0001365900  -0.0001362994  -0.0001299489  -0.0000308911
        0.0000227469   0.0000229000   0.0000074428   0.0000059597   0.0000019877
       -0.0000068227   0.0000089075   0.0000004963   0.0000155391   0.0000033850
       -0.0000540282   0.0000028962  -0.0000061234  -0.0000276840   0.0000147380
       -0.0000038817   0.0000029247  -0.0000043960  -0.0000277920  -0.0000190666
       -0.0000040571  -0.0000032650   0.0000014233  -0.0000035810   0.0000061095
       -0.0000007447   0.0000029439   0.0000577649  -0.0000418540   0.0000061059
       -0.0000018318   0.0000038440  -0.0000287815  -0.0000038224   0.0000082224
       -0.0000299134   0.0000025290   0.0000131963   0.0000000314   0.0000139135
       -0.0000020293   0.0000040112  -0.0000247474   0.0000007871   0.0000165891
       -0.0000123171  -0.0000208834   0.0000208297  -0.0000124513  -0.0000079126
        0.0000156645   0.0000159586  -0.0000154027   0.0000223419   0.0000144091
       -0.0000082235   0.0000507683   0.0000204518  -0.0000156304  -0.0000220865
        0.0000100211   0.0000141168  -0.0000282655   0.0000132447   0.0000025237
       -0.0000163627  -0.0000110859   0.0000150772   0.0000081194  -0.0000014213
       -0.0000086151  -0.0000053240  -0.0000015471  -0.0000032791   0.0000156582
        0.0000029287  -0.0000041161  -0.0000246969   0.0000005258  -0.0000350424
       -0.0000029785   0.0000036556  -0.0000669429   0.0003749877   0.0007700331
        0.0001017287  -0.0027110691  -0.0053983857   0.0008145790
       -0.1046090515  -0.0060270343  -0.1143760852   0.2368819695  -0.0720100058
        0.2849440445  -0.0981030228   0.0649529803  -0.1200501664   0.0221448356
        0.0435378320   0.0056681378  -0.0025516762  -0.0021584242   0.0042782506
        0.0007859237   0.0008179857   0.0007169162  -0.0000880049  -0.0003689184
        0.0001277817   0.0000651933   0.0001177246  -0.0002149086  -0.0001265765
        0.0001172245   0.0000751149  -0.0000919556  -0.0002091499  -0.0000941448
       -0.0000920976   0.0000067140  -0.0002326935  -0.0000138038   0.0006212321
       -0.0001695784   0.0007782842  -0.0004669102  -0.0002544086  -0.0002905449
       -0.0001530520  -0.0000751214   0.0001036724  -0.0000519979   0.0003249818
       -0.0000892836   0.0000158579   0.0000157992   0.0000438979  -0.0000091679
       -0.0000160482  -0.0000161939  -0.0000163571  -0.0000043469   0.0000329360
        0.0000040908  -0.0000030796  -0.0000674939   0.0000509205   0.0000241681
        0.0000177986  -0.0000221972  -0.0000158539  -0.0000178967   0.0000379710
        0.0000121971   0.0000031579   0.0000004386  -0.0000070802  -0.0000091606
        0.0000001683  -0.0000081552   0.0000086494   0.0000068964  -0.0000346368
       -0.0000027519   0.0000107175  -0.0000057988   0.0000022891  -0.0000155781
       -0.0000186336   0.0000050298   0.0000115940  -0.0000081951   0.0000121506
       -0.0000040921  -0.0000033970  -0.0000060023   0.0000148035  -0.0000088940
       -0.0000015542  -0.0000113372  -0.0000121016   0.0000015751  -0.0000060283
       -0.0000334878  -0.0000054201  -0.0000055935   0.0000029941  -0.0000051293
        0.0000040848  -0.0000059420   0.0000241919  -0.0000326014  -0.0000296294
        0.0000176327  -0.0000591887  -0.0000299987   0.0000187772   0.0000472156
        0.0000099709  -0.0000053630  -0.0000343012  -0.0000144645   0.0000199337
        0.0000274692  -0.0000187932  -0.0000065349  -0.0000513101   0.0000060883
        0.0000013554   0.0000180664  -0.0000193639   0.0000286241   0.0001416490
       -0.0000184331  -0.0000337090   0.0000506081   0.0000543470   0.0000180852
        0.0001605214   0.0000029482  -0.0000685394  -0.0002311575   0.0000056164
        0.0000739009   0.0002595125  -0.0000131434   0.0000822756  -0.0002522312
       -0.0000559468  -0.0000536659   0.0002048558   0.0000405998  -0.0000116925
       -0.0001241356   0.0000024740   0.0000143386  -0.0000546089  -0.0000115443
        0.0000125060  -0.0001411113  -0.0000088092   0.0000650414   0.0002229357
       -0.0000099364  -0.0000742764  -0.0002758133   0.0000184178  -0.0000738317
        0.0002677981   0.0000484097   0.0000866539  -0.0002221400  -0.0000433611
        0.0000001763  -0.0000149426  -0.0000165627  -0.0000001692   0.0000113322
        0.0000046126  -0.0000337097  -0.0000041609   0.0000279420  -0.0000051927
        0.0000034146   0.0000100465   0.0000660475   0.0000027046  -0.0000020449
        0.0003018264   0.0000759989  -0.0002349936  -0.0002841077  -0.0000175920
       -0.0002585619  -0.0258556143   0.0075556286  -0.0225915337   0.0006221012
       -0.0483457646   0.0108770993  -0.0137515496  -0.0033107728  -0.0077342920
       -0.0028476098   0.0048338068  -0.0380753536  -0.0101107467   0.0092007742
       -0.0080744836   0.0000469874   0.0000298186   0.0000065731   0.0000157207
       -0.0000254776   0.0000049534   0.0000062955  -0.0000036756   0.0000554610
       -0.0000388717   0.0000007849   0.0000078082  -0.0000008902   0.0001584587
       -0.0000142599   0.0001114249   0.0000811175   0.0001904841  -0.0000170973
       -0.0000172270  -0.0000287299  -0.0000225299   0.0000115467   0.0000004719
       -0.0000059765   0.0000070555  -0.0000090258  -0.0000132623   0.0000030377
        0.0000736604  -0.0000059258   0.0000012521   0.0000284873  -0.0000253518
        0.0000014303  -0.0000075756   0.0000002818   0.0000392022   0.0000246367
       -0.0000019422   0.0000013756  -0.0000054242  -0.0000021662  -0.0000032807
        0.0000004771   0.0000026864  -0.0000701257   0.0000586292   0.0000017940
        0.0000002023  -0.0000083622   0.0000187210   0.0000023860  -0.0000057905
        0.0000295156   0.0000005942   0.0000051361  -0.0000077735   0.0000073850
       -0.0000134641  -0.0000064526  -0.0000139207  -0.0000009486  -0.0000001247
        0.0000109889  -0.0000117666   0.0000103458   0.0000015428  -0.0000006130
        0.0000007387   0.0000107475  -0.0000042003   0.0000044598   0.0000017534
        0.0000029493  -0.0000703020   0.0000284631   0.0000260627  -0.0000048674
        0.0000005257   0.0000025220  -0.0000118178   0.0000055596  -0.0000079626
       -0.0000076767   0.0000016885   0.0000050869   0.0000049019   0.0000067093
       -0.0000032812  -0.0000010706   0.0000068411  -0.0000020345  -0.0000096237
       -0.0000022007   0.0000024475   0.0000025498   0.0000021606   0.0000489803