65
 energy: -101.531047417242 gnorm: 0.000174084657 xtb: 6.7.1 (edcfbbe)
N          -10.42130427194179        0.02118802334835        0.00330127844055
C           -9.27320960031313        0.03555304173373        0.01752199478305
C           -7.86449388299516        0.05329941705521        0.03467948292287
C           -7.17107376403452       -0.20750710037356        1.22132938171636
C           -5.79540583726104       -0.19774209355120        1.23102394438624
C           -5.06511207758750        0.08834554311139        0.06859172689532
C           -3.60955043694502        0.10507168168802        0.08435782365482
C           -2.88761790466635       -1.03500828607996        0.56333875211530
C           -3.53821788895064       -2.21090842124731        0.94438232466859
C           -2.83984017767195       -3.28554576252544        1.48962061572018
C           -1.47692205793447       -3.19365564324166        1.67060809761513
C           -0.79607190349918       -2.05697047775275        1.24272388218776
C           -1.46364024550296       -0.99252684233990        0.63108327158777
C           -0.75902276513342        0.13507373250335        0.10452425187484
C            0.70044410327313        0.14681328204265        0.10661668910458
C            1.39966173347366        1.20950354210916        0.70878260519982
C            2.77574559998331        1.26261289932401        0.73426265959787
C            3.48196617153124        0.23644008224732        0.11766564186384
C            2.80110632345910       -0.85350971009703       -0.47559005019328
C            1.41823438276349       -0.89755049835533       -0.47704589942926
C            3.81464232740636       -1.74384272458657       -0.97182133922606
C            3.77226695423198       -2.95337036115227       -1.65103472225960
C            4.96461090954224       -3.55204049849376       -2.00796807573326
C            6.18538228118776       -2.95236481475806       -1.70795105234622
C            6.25233705444359       -1.74923139825899       -1.03074030038391
C            5.05853555084530       -1.15519626553984       -0.64858143676667
N            4.84046857230759        0.04141802998242        0.00858682079191
C            5.83414054163077        0.91518927165600        0.47356074508820
C            5.78307537740524        2.26735031104836        0.14769617027652
C            6.76245116499151        3.12585768805266        0.61141218857234
C            7.80082987980692        2.64491665036753        1.39163116189054
C            7.85472469901451        1.29878774407067        1.71327681052262
C            6.87470913679808        0.43399732348383        1.26267442804869
C           -1.47979304114151        1.24903922118551       -0.42876754799380
C           -0.82626352482651        2.32818783187175       -1.02967714227656
C           -1.52473526984946        3.45092547669903       -1.46562372011716
C           -2.89164142467265        3.51414465836680       -1.30310761436186
C           -3.57492237301974        2.42394699884065       -0.76994062705423
C           -2.90500026999036        1.26144578992732       -0.38132614296808
C           -5.77412356345901        0.35727129032681       -1.11108641252559
C           -7.14934998653492        0.33269510683170       -1.13476883372240
H           -7.72480367184112       -0.41127917165430        2.12639099561179
H           -5.26341390190689       -0.37724706095680        2.15402766731671
H           -4.60551282834298       -2.29770186482740        0.81002681721598
H           -3.37507182755132       -4.17741290662718        1.77883845958281
H           -0.92753556991364       -4.00284759556576        2.12817234067724
H            0.27098926452234       -1.99798932811812        1.39290637074280
H            0.83110638481925        1.98610857951937        1.19905320141137
H            3.28727513021088        2.07151547448368        1.23396028988500
H            0.89628062862420       -1.71333924511212       -0.95423437062979
H            2.82521986555937       -3.40915382461925       -1.89735246051993
H            4.95501450440590       -4.49371206426300       -2.53604462526794
H            7.10089113182876       -3.43643305021943       -2.01408054241079
H            7.20319590369673       -1.28471663955303       -0.81772415961450
H            4.98446970487069        2.63398915599686       -0.47984075411667
H            6.71881303626775        4.17394780818404        0.35508412703689
H            8.56607351896439        3.31746336013158        1.74821017038478
H            8.65999238072099        0.92071142318693        2.32538768122760
H            6.90054953991925       -0.61181453969294        1.53010983771421
H            0.24386472576495        2.29149656745453       -1.16387522897121
H           -0.98653916457316        4.27226638102763       -1.91486162253158
H           -3.44126074153369        4.39524838807524       -1.59829001925668
H           -4.64577141330719        2.48743957373145       -0.65172256979535
H           -5.22451786196380        0.55062734874898       -2.02087574527897
H           -7.68592306714651        0.52356408290878       -2.05287429647461
