      -----------------------------------------------------------      
     |                   =====================                   |     
     |                           x T B                           |     
     |                   =====================                   |     
     |                         S. Grimme                         |     
     |          Mulliken Center for Theoretical Chemistry        |     
     |                    University of Bonn                     |     
      -----------------------------------------------------------      

   * xtb version 6.7.1 (edcfbbe) compiled by 'albert@albert-system' on 2024-07-22

   xtb is free software: you can redistribute it and/or modify it under
   the terms of the GNU Lesser General Public License as published by
   the Free Software Foundation, either version 3 of the License, or
   (at your option) any later version.
   
   xtb is distributed in the hope that it will be useful,
   but WITHOUT ANY WARRANTY; without even the implied warranty of
   MERCHANTABILITY or FITNESS FOR A PARTICULAR PURPOSE.  See the
   GNU Lesser General Public License for more details.
   
   Cite this work as:
   * C. Bannwarth, E. Caldeweyher, S. Ehlert, A. Hansen, P. Pracht,
     J. Seibert, S. Spicher, S. Grimme, WIREs Comput. Mol. Sci., 2020, 11,
     e01493. DOI: 10.1002/wcms.1493
   
   for GFN2-xTB:
   * C. Bannwarth, S. Ehlert and S. Grimme., J. Chem. Theory Comput., 2019,
     15, 1652-1671. DOI: 10.1021/acs.jctc.8b01176
   for GFN1-xTB:
   * S. Grimme, C. Bannwarth, P. Shushkov, J. Chem. Theory Comput., 2017,
     13, 1989-2009. DOI: 10.1021/acs.jctc.7b00118
   for GFN0-xTB:
   * P. Pracht, E. Caldeweyher, S. Ehlert, S. Grimme, ChemRxiv, 2019, preprint.
     DOI: 10.26434/chemrxiv.8326202.v1
   for GFN-FF:
   * S. Spicher and S. Grimme, Angew. Chem. Int. Ed., 2020, 59, 15665-15673.
     DOI: 10.1002/anie.202004239
   
   for ALPB and GBSA implicit solvation:
   * S. Ehlert, M. Stahn, S. Spicher, S. Grimme, J. Chem. Theory Comput.,
     2021, 17, 4250-4261. DOI: 10.1021/acs.jctc.1c00471
   
   for ddCOSMO and CPCM-X implicit solvation:
   * M. Stahn, S. Ehlert, S. Grimme, J. Phys. Chem. A,
     2023, XX, XXXX-XXXX. DOI: 10.1021/acs.jpca.3c04382
   
   for DFT-D4:
   * E. Caldeweyher, C. Bannwarth and S. Grimme, J. Chem. Phys., 2017,
     147, 034112. DOI: 10.1063/1.4993215
   * E. Caldeweyher, S. Ehlert, A. Hansen, H. Neugebauer, S. Spicher,
     C. Bannwarth and S. Grimme, J. Chem. Phys., 2019, 150, 154122.
     DOI: 10.1063/1.5090222
   * E. Caldeweyher, J.-M. Mewes, S. Ehlert and S. Grimme, Phys. Chem. Chem. Phys.
     2020, 22, 8499-8512. DOI: 10.1039/D0CP00502A
   
   for sTDA-xTB:
   * S. Grimme and C. Bannwarth, J. Chem. Phys., 2016, 145, 054103.
     DOI: 10.1063/1.4959605
   
   in the mass-spec context:
   * V. Asgeirsson, C. Bauer and S. Grimme, Chem. Sci., 2017, 8, 4879.
     DOI: 10.1039/c7sc00601b
   * J. Koopman and S. Grimme, ACS Omega 2019, 4, 12, 15120-15133.
     DOI: 10.1021/acsomega.9b02011
   
   for metadynamics refer to:
   * S. Grimme, J. Chem. Theory Comput., 2019, 155, 2847-2862
     DOI: 10.1021/acs.jctc.9b00143
   
   for SPH calculations refer to:
   * S. Spicher and S. Grimme, J. Chem. Theory Comput., 2021, 17, 1701-1714
     DOI: 10.1021/acs.jctc.0c01306
   
   for ONIOM refer to:
   * C. Plett, A. Katbashev, S. Ehlert, S. Grimme, M. Bursch,
     Phys. Chem. Chem. Phys., 2023, 25, 17860-17868. DOI: 10.1039/D3CP02178E
   
   for DIPRO refer to:
   * J. Kohn, N. Gildemeister, S. Grimme, D. Fazzi, A. Hansen,
     J. Chem. Phys., 2023, just accepted.
   
   for PTB refer to:
   * S. Grimme, M. Mueller, A. Hansen, J. Chem. Phys., 2023, 158, 124111.
     DOI: 10.1063/5.0137838
   
   with help from (in alphabetical order)
   P. Atkinson, C. Bannwarth, F. Bohle, G. Brandenburg, E. Caldeweyher
   M. Checinski, S. Dohm, S. Ehlert, S. Ehrlich, I. Gerasimov, C. Hölzer
   A. Katbashev, J. Kohn, J. Koopman, C. Lavigne, S. Lehtola, F. März, M. Müller,
   F. Musil, H. Neugebauer, J. Pisarek, C. Plett, P. Pracht, F. Pultar,
   J. Seibert, P. Shushkov, S. Spicher, M. Stahn, M. Steiner, T. Strunk,
   J. Stückrath, T. Rose, and J. Unsleber
   
 * started run on 2025/09/09 at 21:52:07.567     
   ID    Z sym.   atoms
    1    7 N      1, 27
    2    6 C      2-26, 28-41
    3    1 H      42-65

           -------------------------------------------------
          |                Calculation Setup                |
           -------------------------------------------------

          program call               : xtb data2507/gas/3CzAnBzt/3CzAnBzt_gas_S0_crest.xyz --gfn 2 --ohess vtight --parallel 40 --molden --ceasefiles --namespace data2507/gas/3CzAnBzt/3CzAnBzt_gas_S0_finalOpt
          calculation namespace      : data2507/gas/3CzAnBzt/3CzAnBzt_gas_S0_finalOpt
          coordinate file            : data2507/gas/3CzAnBzt/3CzAnBzt_gas_S0_crest.xyz
          omp threads                :                    40


           -------------------------------------------------
          |                 G F N 2 - x T B                 |
           -------------------------------------------------

        Reference                      10.1021/acs.jctc.8b01176
      * Hamiltonian:
        H0-scaling (s, p, d)           1.850000    2.230000    2.230000
        zeta-weighting                 0.500000
      * Dispersion:
        s8                             2.700000
        a1                             0.520000
        a2                             5.000000
        s9                             5.000000
      * Repulsion:
        kExp                           1.500000    1.000000
        rExp                           1.000000
      * Coulomb:
        alpha                          2.000000
        third order                    shell-resolved
        anisotropic                    true
        a3                             3.000000
        a5                             4.000000
        cn-shift                       1.200000
        cn-exp                         4.000000
        max-rad                        5.000000


          ...................................................
          :                      SETUP                      :
          :.................................................:
          :  # basis functions                 188          :
          :  # atomic orbitals                 188          :
          :  # shells                          106          :
          :  # electrons                       190          :
          :  max. iterations                   250          :
          :  Hamiltonian                  GFN2-xTB          :
          :  restarted?                      false          :
          :  GBSA solvation                  false          :
          :  PC potential                    false          :
          :  electronic temp.          300.0000000     K    :
          :  accuracy                    1.0000000          :
          :  -> integral cutoff          0.2500000E+02      :
          :  -> integral neglect         0.1000000E-07      :
          :  -> SCF convergence          0.1000000E-05 Eh   :
          :  -> wf. convergence          0.1000000E-03 e    :
          :  Broyden damping             0.4000000          :
          :  net charge                          0          :
          :  unpaired electrons                  0          :
          ...................................................

 iter      E             dE          RMSdq      gap      omega  full diag
   1   -103.5077915 -0.103508E+03  0.455E+00    1.86       0.0  T
   2   -103.5600359 -0.522444E-01  0.282E+00    2.07       1.0  T
   3   -103.4564744  0.103561E+00  0.164E+00    2.00       1.0  T
   4   -103.5842286 -0.127754E+00  0.420E-01    2.04       1.0  T
   5   -103.5905247 -0.629607E-02  0.136E-01    2.03       1.0  T
   6   -103.5912426 -0.717907E-03  0.710E-02    2.03       1.0  T
   7   -103.5914730 -0.230361E-03  0.325E-02    2.03       1.0  T
   8   -103.5915143 -0.413905E-04  0.158E-02    2.03       1.0  T
   9   -103.5915196 -0.527607E-05  0.675E-03    2.03       1.8  T
  10   -103.5915220 -0.235448E-05  0.182E-03    2.03       6.8  T
  11   -103.5915221 -0.844186E-07  0.782E-04    2.03      15.9  T
  12   -103.5915221 -0.317644E-07  0.294E-04    2.03      42.2  T

   *** convergence criteria satisfied after 12 iterations ***

         #    Occupation            Energy/Eh            Energy/eV
      -------------------------------------------------------------
         1        2.0000           -0.6797914             -18.4981
       ...           ...                  ...                  ...
        89        2.0000           -0.4102093             -11.1624
        90        2.0000           -0.4061462             -11.0518
        91        2.0000           -0.4042906             -11.0013
        92        2.0000           -0.4027008             -10.9580
        93        2.0000           -0.3816110             -10.3842
        94        2.0000           -0.3674366              -9.9985
        95        2.0000           -0.3598753              -9.7927 (HOMO)
        96                         -0.2851857              -7.7603 (LUMO)
        97                         -0.2684434              -7.3047
        98                         -0.2494629              -6.7882
        99                         -0.2419429              -6.5836
       100                         -0.2380397              -6.4774
       ...                                ...                  ...
       188                          1.1737981              31.9407
      -------------------------------------------------------------
                  HL-Gap            0.0746896 Eh            2.0324 eV
             Fermi-level           -0.3225305 Eh           -8.7765 eV

 SCC (total)                   0 d,  0 h,  0 min,  0.196 sec
 SCC setup                      ...        0 min,  0.001 sec (  0.289%)
 Dispersion                     ...        0 min,  0.003 sec (  1.457%)
 classical contributions        ...        0 min,  0.000 sec (  0.135%)
 integral evaluation            ...        0 min,  0.006 sec (  2.830%)
 iterations                     ...        0 min,  0.178 sec ( 90.591%)
 molecular gradient             ...        0 min,  0.008 sec (  4.202%)
 printout                       ...        0 min,  0.001 sec (  0.452%)

         :::::::::::::::::::::::::::::::::::::::::::::::::::::
         ::                     SUMMARY                     ::
         :::::::::::::::::::::::::::::::::::::::::::::::::::::
         :: total energy            -101.592943668441 Eh    ::
         :: gradient norm              0.000419611791 Eh/a0 ::
         :: HOMO-LUMO gap              2.032407916375 eV    ::
         ::.................................................::
         :: SCC energy              -103.591695483359 Eh    ::
         :: -> isotropic ES            0.012788480782 Eh    ::
         :: -> anisotropic ES          0.008325510894 Eh    ::
         :: -> anisotropic XC          0.072419000773 Eh    ::
         :: -> dispersion             -0.092453709939 Eh    ::
         :: repulsion energy           1.998751814919 Eh    ::
         :: add. restraining           0.000000000000 Eh    ::
         :: total charge               0.000000000000 e     ::
         :::::::::::::::::::::::::::::::::::::::::::::::::::::

      ----------------------------------------------------------- 
     |                   =====================                   |
     |                        A N C O P T                        |
     |                   =====================                   |
     |               Approximate Normal Coordinate               |
     |                Rational Function Optimizer                |
      ----------------------------------------------------------- 

Optimization log is written to '/dev/null'
      ----------------------------------------------------------- 
     |                   =====================                   |
     |                        A N C O P T                        |
     |                   =====================                   |
     |               Approximate Normal Coordinate               |
     |                Rational Function Optimizer                |
      ----------------------------------------------------------- 

          ...................................................
          :                      SETUP                      :
          :.................................................:
          :   optimization level         verytight          :
          :   max. optcycles                  1300          :
          :   ANC micro-cycles                  20          :
          :   degrees of freedom               189          :
          :.................................................:
          :   RF solver                   davidson          :
          :   write xtbopt.log                true          :
          :   linear?                        false          :
          :   energy convergence         0.1000000E-06 Eh   :
          :   grad. convergence          0.2000000E-03 Eh/α :
          :   maxmium RF displ.          1.0000000          :
          :   Hlow (freq-cutoff)         0.1000000E-01      :
          :   Hmax (freq-cutoff)         5.0000000          :
          :   S6 in model hess.         20.0000000          :
          ...................................................

generating ANC from exact Hessian ...
Using Lindh-Hessian (1995)
 Shifting diagonal of input Hessian by   9.878366048048997E-003
 Lowest  eigenvalues of input Hessian
    0.000000    0.000000    0.000000    0.000000    0.000000    0.000000
    0.010000    0.010013    0.010063    0.010124    0.010791    0.011056
    0.011237    0.011422    0.011538    0.011716    0.011845    0.013040
 Highest eigenvalues
    2.071717    2.123727    2.146269    2.193124    2.219086    2.632509
 

........................................................................
.............................. CYCLE    1 ..............................
........................................................................

 iter      E             dE          RMSdq      gap      omega  full diag
   1   -103.5915221 -0.103592E+03  0.147E-04    2.03       0.0  T
   2   -103.5915221 -0.273403E-09  0.102E-04    2.03     122.1  T
   3   -103.5915221 -0.442157E-09  0.589E-05    2.03     210.5  T
     SCC iter.                  ...        0 min,  0.021 sec
     gradient                   ...        0 min,  0.008 sec
 * total energy  :  -101.5929437 Eh     change       -0.1337497E-08 Eh
   gradient norm :     0.0004190 Eh/α   predicted     0.0000000E+00 (-100.00%)
   displ. norm   :     0.0145838 α      lambda       -0.1847075E-06
   maximum displ.:     0.0070339 α      in ANC's #6, #9, #8, ...

........................................................................
.............................. CYCLE    2 ..............................
........................................................................

 iter      E             dE          RMSdq      gap      omega  full diag
   1   -103.5915893 -0.103592E+03  0.845E-03    2.03       0.0  T
   2   -103.5915893 -0.569953E-07  0.474E-03    2.03       2.6  T
   3   -103.5915894 -0.133913E-07  0.453E-04    2.03      27.4  T
   4   -103.5915894 -0.846748E-08  0.215E-04    2.03      57.6  T
     SCC iter.                  ...        0 min,  0.028 sec
     gradient                   ...        0 min,  0.008 sec
 * total energy  :  -101.5929445 Eh     change       -0.8467445E-06 Eh
   gradient norm :     0.0004353 Eh/α   predicted    -0.7705200E-06 (  -9.00%)
   displ. norm   :     0.0430307 α      lambda       -0.4174149E-05
   maximum displ.:     0.0197962 α      in ANC's #9, #8, #2, ...

........................................................................
.............................. CYCLE    3 ..............................
........................................................................

 iter      E             dE          RMSdq      gap      omega  full diag
   1   -103.5917734 -0.103592E+03  0.154E-02    2.03       0.0  T
   2   -103.5917735 -0.107939E-06  0.887E-03    2.03       1.4  T
   3   -103.5917735  0.456989E-07  0.120E-03    2.03      10.3  T
   4   -103.5917736 -0.887166E-07  0.427E-04    2.03      29.1  T
   5   -103.5917736 -0.242909E-08  0.263E-04    2.03      47.1  T
     SCC iter.                  ...        0 min,  0.034 sec
     gradient                   ...        0 min,  0.008 sec
 * total energy  :  -101.5929429 Eh     change        0.1663494E-05 Eh
   gradient norm :     0.0013779 Eh/α   predicted    -0.2089724E-05 (-225.62%)
   displ. norm   :     0.0533804 α      lambda        0.3165629E-05
   maximum displ.:     0.0253343 α      in ANC's #9, #8, #6, ...

........................................................................
.............................. CYCLE    4 ..............................
........................................................................

 iter      E             dE          RMSdq      gap      omega  full diag
   1   -103.5918475 -0.103592E+03  0.162E-02    2.03       0.0  T
   2   -103.5918476 -0.111092E-06  0.931E-03    2.03       1.3  T
   3   -103.5918476  0.542863E-08  0.937E-04    2.03      13.2  T
   4   -103.5918476 -0.518297E-07  0.350E-04    2.03      35.5  T
     SCC iter.                  ...        0 min,  0.028 sec
     gradient                   ...        0 min,  0.008 sec
 * total energy  :  -101.5929419 Eh     change        0.9450192E-06 Eh
   gradient norm :     0.0017163 Eh/α   predicted     0.1580376E-05 (  67.23%)
   displ. norm   :     0.0321937 α      lambda       -0.8041126E-05
   maximum displ.:     0.0135725 α      in ANC's #9, #8, #6, ...

........................................................................
.............................. CYCLE    5 ..............................
........................................................................

 iter      E             dE          RMSdq      gap      omega  full diag
   1   -103.5916626 -0.103592E+03  0.121E-02    2.03       0.0  T
   2   -103.5916627 -0.532925E-07  0.709E-03    2.03       1.7  T
   3   -103.5916626  0.334240E-07  0.904E-04    2.03      13.7  T
   4   -103.5916627 -0.527650E-07  0.333E-04    2.03      37.2  T
     SCC iter.                  ...        0 min,  0.029 sec
     gradient                   ...        0 min,  0.007 sec
 * total energy  :  -101.5929486 Eh     change       -0.6714379E-05 Eh
   gradient norm :     0.0004404 Eh/α   predicted    -0.4025977E-05 ( -40.04%)
   displ. norm   :     0.0150338 α      lambda       -0.7945433E-06
   maximum displ.:     0.0071932 α      in ANC's #2, #9, #7, ...

........................................................................
.............................. CYCLE    6 ..............................
........................................................................

 iter      E             dE          RMSdq      gap      omega  full diag
   1   -103.5915334 -0.103592E+03  0.514E-03    2.03       0.0  T
   2   -103.5915334 -0.155274E-07  0.293E-03    2.03       4.2  T
   3   -103.5915333  0.120107E-06  0.126E-03    2.03       9.8  T
   4   -103.5915335 -0.134943E-06  0.158E-04    2.03      78.3  T
   5   -103.5915335 -0.703864E-10  0.898E-05    2.03     138.1  T
     SCC iter.                  ...        0 min,  0.034 sec
     gradient                   ...        0 min,  0.007 sec
 * total energy  :  -101.5929496 Eh     change       -0.9805117E-06 Eh
   gradient norm :     0.0001888 Eh/α   predicted    -0.4043124E-06 ( -58.77%)
   displ. norm   :     0.0509130 α      lambda       -0.1546035E-05
   maximum displ.:     0.0236531 α      in ANC's #2, #9, #7, ...

........................................................................
.............................. CYCLE    7 ..............................
........................................................................

 iter      E             dE          RMSdq      gap      omega  full diag
   1   -103.5914186 -0.103591E+03  0.145E-02    2.03       0.0  T
   2   -103.5914187 -0.133172E-06  0.829E-03    2.03       1.5  T
   3   -103.5914187 -0.515010E-08  0.903E-04    2.03      13.7  T
   4   -103.5914187 -0.412804E-07  0.470E-04    2.03      26.4  T
     SCC iter.                  ...        0 min,  0.028 sec
     gradient                   ...        0 min,  0.007 sec
 * total energy  :  -101.5929511 Eh     change       -0.1463588E-05 Eh
   gradient norm :     0.0002954 Eh/α   predicted    -0.7757355E-06 ( -47.00%)
   displ. norm   :     0.0529193 α      lambda        0.4226537E-06
   maximum displ.:     0.0245608 α      in ANC's #2, #9, #7, ...

........................................................................
.............................. CYCLE    8 ..............................
........................................................................

 iter      E             dE          RMSdq      gap      omega  full diag
   1   -103.5912597 -0.103591E+03  0.150E-02    2.03       0.0  T
   2   -103.5912598 -0.131810E-06  0.857E-03    2.03       1.4  T
   3   -103.5912597  0.149009E-06  0.164E-03    2.03       7.5  T
   4   -103.5912599 -0.210674E-06  0.432E-04    2.03      28.7  T
   5   -103.5912599 -0.232821E-08  0.103E-04    2.03     120.6  T
     SCC iter.                  ...        0 min,  0.034 sec
     gradient                   ...        0 min,  0.007 sec
 * total energy  :  -101.5929508 Eh     change        0.2303267E-06 Eh
   gradient norm :     0.0006501 Eh/α   predicted     0.2104908E-06 (  -8.61%)
   displ. norm   :     0.0208922 α      lambda       -0.9250545E-06
   maximum displ.:     0.0095453 α      in ANC's #9, #2, #8, ...

........................................................................
.............................. CYCLE    9 ..............................
........................................................................

 iter      E             dE          RMSdq      gap      omega  full diag
   1   -103.5914085 -0.103591E+03  0.699E-03    2.03       0.0  T
   2   -103.5914085 -0.332899E-07  0.398E-03    2.03       3.1  T
   3   -103.5914085  0.271238E-08  0.495E-04    2.03      25.0  T
   4   -103.5914085 -0.145031E-07  0.241E-04    2.03      51.4  T
     SCC iter.                  ...        0 min,  0.028 sec
     gradient                   ...        0 min,  0.007 sec
 * total energy  :  -101.5929517 Eh     change       -0.8972186E-06 Eh
   gradient norm :     0.0002751 Eh/α   predicted    -0.4629510E-06 ( -48.40%)
   displ. norm   :     0.0105149 α      lambda       -0.4418699E-06
   maximum displ.:     0.0059046 α      in ANC's #4, #7, #2, ...

........................................................................
.............................. CYCLE   10 ..............................
........................................................................

 iter      E             dE          RMSdq      gap      omega  full diag
   1   -103.5914583 -0.103591E+03  0.294E-03    2.03       0.0  T
   2   -103.5914583 -0.121959E-08  0.173E-03    2.03       7.2  T
   3   -103.5914583  0.154381E-07  0.451E-04    2.03      27.5  T
   4   -103.5914583 -0.167183E-07  0.655E-05    2.03     189.5  T
     SCC iter.                  ...        0 min,  0.027 sec
     gradient                   ...        0 min,  0.007 sec
 * total energy  :  -101.5929523 Eh     change       -0.5166743E-06 Eh
   gradient norm :     0.0000670 Eh/α   predicted    -0.2227761E-06 ( -56.88%)
   displ. norm   :     0.0301588 α      lambda       -0.6074267E-06
   maximum displ.:     0.0178941 α      in ANC's #4, #2, #7, ...

........................................................................
.............................. CYCLE   11 ..............................
........................................................................

 iter      E             dE          RMSdq      gap      omega  full diag
   1   -103.5915268 -0.103592E+03  0.714E-03    2.03       0.0  T
   2   -103.5915268 -0.136630E-07  0.416E-03    2.03       3.0  T
   3   -103.5915268  0.771320E-08  0.446E-04    2.03      27.8  T
   4   -103.5915268 -0.127404E-07  0.166E-04    2.03      74.8  T
     SCC iter.                  ...        0 min,  0.027 sec
     gradient                   ...        0 min,  0.007 sec
 * total energy  :  -101.5929529 Eh     change       -0.6593651E-06 Eh
   gradient norm :     0.0002595 Eh/α   predicted    -0.3075000E-06 ( -53.36%)
   displ. norm   :     0.0380708 α      lambda       -0.5350747E-06
   maximum displ.:     0.0242884 α      in ANC's #4, #2, #7, ...

........................................................................
.............................. CYCLE   12 ..............................
........................................................................

 iter      E             dE          RMSdq      gap      omega  full diag
   1   -103.5914843 -0.103591E+03  0.868E-03    2.03       0.0  T
   2   -103.5914844 -0.189423E-07  0.505E-03    2.03       2.5  T
   3   -103.5914843  0.660152E-07  0.984E-04    2.03      12.6  T
   4   -103.5914844 -0.771614E-07  0.198E-04    2.03      62.5  T
     SCC iter.                  ...        0 min,  0.028 sec
     gradient                   ...        0 min,  0.007 sec
 * total energy  :  -101.5929535 Eh     change       -0.6230799E-06 Eh
   gradient norm :     0.0003297 Eh/α   predicted    -0.2704198E-06 ( -56.60%)
   displ. norm   :     0.0401847 α      lambda       -0.5433674E-06
   maximum displ.:     0.0271862 α      in ANC's #4, #2, #7, ...

........................................................................
.............................. CYCLE   13 ..............................
........................................................................

 iter      E             dE          RMSdq      gap      omega  full diag
   1   -103.5914767 -0.103591E+03  0.880E-03    2.03       0.0  T
   2   -103.5914767 -0.182006E-07  0.512E-03    2.03       2.4  T
   3   -103.5914767  0.506041E-07  0.870E-04    2.03      14.2  T
   4   -103.5914768 -0.608748E-07  0.187E-04    2.03      66.2  T
     SCC iter.                  ...        0 min,  0.027 sec
     gradient                   ...        0 min,  0.008 sec
 * total energy  :  -101.5929542 Eh     change       -0.6794443E-06 Eh
   gradient norm :     0.0002479 Eh/α   predicted    -0.2740246E-06 ( -59.67%)
   displ. norm   :     0.0394247 α      lambda       -0.5734606E-06
   maximum displ.:     0.0282403 α      in ANC's #4, #7, #2, ...

........................................................................
.............................. CYCLE   14 ..............................
........................................................................

 iter      E             dE          RMSdq      gap      omega  full diag
   1   -103.5914166 -0.103591E+03  0.838E-03    2.03       0.0  T
   2   -103.5914166 -0.127408E-07  0.488E-03    2.03       2.5  T
   3   -103.5914166  0.432254E-07  0.805E-04    2.03      15.4  T
   4   -103.5914166 -0.511329E-07  0.157E-04    2.03      79.2  T
     SCC iter.                  ...        0 min,  0.027 sec
     gradient                   ...        0 min,  0.008 sec
 * total energy  :  -101.5929549 Eh     change       -0.6989602E-06 Eh
   gradient norm :     0.0001091 Eh/α   predicted    -0.2887023E-06 ( -58.70%)
   displ. norm   :     0.0348431 α      lambda       -0.4405341E-06
   maximum displ.:     0.0261664 α      in ANC's #4, #7, #2, ...

........................................................................
.............................. CYCLE   15 ..............................
........................................................................

 iter      E             dE          RMSdq      gap      omega  full diag
   1   -103.5914179 -0.103591E+03  0.737E-03    2.03       0.0  T
   2   -103.5914180 -0.515706E-08  0.431E-03    2.03       2.9  T
   3   -103.5914179  0.386336E-07  0.728E-04    2.03      17.0  T
   4   -103.5914180 -0.430378E-07  0.111E-04    2.03     112.1  T
     SCC iter.                  ...        0 min,  0.028 sec
     gradient                   ...        0 min,  0.008 sec
 * total energy  :  -101.5929554 Eh     change       -0.5370121E-06 Eh
   gradient norm :     0.0001320 Eh/α   predicted    -0.2229854E-06 ( -58.48%)
   displ. norm   :     0.0220369 α      lambda       -0.2510405E-06
   maximum displ.:     0.0167554 α      in ANC's #4, #7, #2, ...

........................................................................
.............................. CYCLE   16 ..............................
........................................................................

 iter      E             dE          RMSdq      gap      omega  full diag
   1   -103.5914040 -0.103591E+03  0.491E-03    2.03       0.0  T
   2   -103.5914040 -0.192622E-08  0.288E-03    2.03       4.3  T
   3   -103.5914040  0.164831E-07  0.489E-04    2.03      25.4  T
   4   -103.5914040 -0.182374E-07  0.708E-05    2.03     175.2  T
     SCC iter.                  ...        0 min,  0.028 sec
     gradient                   ...        0 min,  0.008 sec
 * total energy  :  -101.5929558 Eh     change       -0.3209568E-06 Eh
   gradient norm :     0.0001390 Eh/α   predicted    -0.1298882E-06 ( -59.53%)
   displ. norm   :     0.0205623 α      lambda       -0.2339774E-06
   maximum displ.:     0.0155704 α      in ANC's #4, #7, #3, ...

........................................................................
.............................. CYCLE   17 ..............................
........................................................................

 iter      E             dE          RMSdq      gap      omega  full diag
   1   -103.5914420 -0.103591E+03  0.483E-03    2.03       0.0  T
   2   -103.5914420 -0.196832E-08  0.283E-03    2.03       4.4  T
   3   -103.5914420  0.101171E-07  0.379E-04    2.03      32.7  T
   4   -103.5914420 -0.112687E-07  0.749E-05    2.03     165.7  T
     SCC iter.                  ...        0 min,  0.028 sec
     gradient                   ...        0 min,  0.008 sec
 * total energy  :  -101.5929561 Eh     change       -0.2980026E-06 Eh
   gradient norm :     0.0000962 Eh/α   predicted    -0.1214716E-06 ( -59.24%)
   displ. norm   :     0.0200388 α      lambda       -0.1877497E-06
   maximum displ.:     0.0151799 α      in ANC's #4, #3, #7, ...

........................................................................
.............................. CYCLE   18 ..............................
........................................................................

 iter      E             dE          RMSdq      gap      omega  full diag
   1   -103.5914410 -0.103591E+03  0.465E-03    2.03       0.0  T
   2   -103.5914410 -0.165402E-08  0.273E-03    2.03       4.5  T
   3   -103.5914410  0.634800E-08  0.315E-04    2.03      39.3  T
   4   -103.5914410 -0.728036E-08  0.680E-05    2.03     182.5  T
     SCC iter.                  ...        0 min,  0.028 sec
     gradient                   ...        0 min,  0.007 sec
 * total energy  :  -101.5929563 Eh     change       -0.2316042E-06 Eh
   gradient norm :     0.0000554 Eh/α   predicted    -0.9795781E-07 ( -57.70%)
   displ. norm   :     0.0164987 α      lambda       -0.1297902E-06
   maximum displ.:     0.0126415 α      in ANC's #4, #3, #5, ...

........................................................................
.............................. CYCLE   19 ..............................
........................................................................

 iter      E             dE          RMSdq      gap      omega  full diag
   1   -103.5914527 -0.103591E+03  0.373E-03    2.03       0.0  T
   2   -103.5914527 -0.108477E-08  0.219E-03    2.03       5.7  T
   3   -103.5914527  0.485808E-08  0.263E-04    2.03      47.2  T
   4   -103.5914527 -0.553858E-08  0.520E-05    2.03     238.8  T
     SCC iter.                  ...        0 min,  0.030 sec
     gradient                   ...        0 min,  0.008 sec
 * total energy  :  -101.5929565 Eh     change       -0.1727819E-06 Eh
   gradient norm :     0.0000657 Eh/α   predicted    -0.6767001E-07 ( -60.84%)
   displ. norm   :     0.0138591 α      lambda       -0.1131761E-06
   maximum displ.:     0.0104935 α      in ANC's #4, #3, #5, ...

........................................................................
.............................. CYCLE   20 ..............................
........................................................................

 iter      E             dE          RMSdq      gap      omega  full diag
   1   -103.5914392 -0.103591E+03  0.310E-03    2.03       0.0  T
   2   -103.5914392 -0.802558E-09  0.182E-03    2.03       6.8  T
   3   -103.5914392  0.128701E-08  0.155E-04    2.03      80.2  T
   4   -103.5914392 -0.168623E-08  0.423E-05    2.03     293.1  T
     SCC iter.                  ...        0 min,  0.028 sec
     gradient                   ...        0 min,  0.008 sec
 * total energy  :  -101.5929566 Eh     change       -0.1533397E-06 Eh
   gradient norm :     0.0000656 Eh/α   predicted    -0.5972924E-07 ( -61.05%)
   displ. norm   :     0.0166422 α      lambda       -0.1374473E-06
   maximum displ.:     0.0126931 α      in ANC's #4, #3, #5, ...
 * RMSD in coord.:     0.0497576 α      energy gain  -0.1295616E-04 Eh

generating ANC from exact Hessian ...
Using Lindh-Hessian (1995)
 Shifting diagonal of input Hessian by   9.873405626618589E-003
 Lowest  eigenvalues of input Hessian
    0.000000    0.000000    0.000000    0.000000    0.000000    0.000000
    0.010000    0.010041    0.010100    0.010613    0.010801    0.011235
    0.011404    0.011530    0.011696    0.011834    0.013038    0.013145
 Highest eigenvalues
    2.071603    2.123543    2.146289    2.193030    2.219107    2.632419
 

........................................................................
.............................. CYCLE   21 ..............................
........................................................................

 iter      E             dE          RMSdq      gap      omega  full diag
   1   -103.5914335 -0.103591E+03  0.364E-03    2.03       0.0  T
   2   -103.5914335 -0.132701E-08  0.213E-03    2.03       5.8  T
   3   -103.5914335  0.214972E-08  0.195E-04    2.03      63.6  T
   4   -103.5914335 -0.276846E-08  0.554E-05    2.03     224.0  T
     SCC iter.                  ...        0 min,  0.028 sec
     gradient                   ...        0 min,  0.007 sec
 * total energy  :  -101.5929568 Eh     change       -0.1661243E-06 Eh
   gradient norm :     0.0000510 Eh/α   predicted     0.0000000E+00 (-100.00%)
   displ. norm   :     0.0000765 α      lambda        0.0000000E+00
   maximum displ.:     0.0000501 α      in ANC's #189, #172, #56, ...

........................................................................
.............................. CYCLE   22 ..............................
........................................................................

 iter      E             dE          RMSdq      gap      omega  full diag
   1   -103.5914079 -0.103591E+03  0.829E-05    2.03       0.0  T
   2   -103.5914079 -0.632809E-10  0.530E-05    2.03     233.8  T
   3   -103.5914079  0.172804E-10  0.402E-05    2.03     308.6  T
     SCC iter.                  ...        0 min,  0.021 sec
     gradient                   ...        0 min,  0.008 sec
 * total energy  :  -101.5929568 Eh     change        0.5249774E-09 Eh
   gradient norm :     0.0001155 Eh/α   predicted    -0.4996951E-09 (-195.18%)
   displ. norm   :     0.0023577 α      lambda        0.1327610E-07
   maximum displ.:     0.0010873 α      in ANC's #3, #11, #7, ...

........................................................................
.............................. CYCLE   23 ..............................
........................................................................

 iter      E             dE          RMSdq      gap      omega  full diag
   1   -103.5914239 -0.103591E+03  0.619E-04    2.03       0.0  T
   2   -103.5914239 -0.892300E-10  0.361E-04    2.03      34.3  T
   3   -103.5914239  0.168856E-08  0.160E-04    2.03      77.6  T
     SCC iter.                  ...        0 min,  0.021 sec
     gradient                   ...        0 min,  0.008 sec
 * total energy  :  -101.5929568 Eh     change       -0.3676244E-07 Eh
   gradient norm :     0.0000723 Eh/α   predicted    -0.1484889E-07 ( -59.61%)
   displ. norm   :     0.0110657 α      lambda       -0.1128048E-06
   maximum displ.:     0.0048104 α      in ANC's #3, #11, #7, ...

   *** GEOMETRY OPTIMIZATION CONVERGED AFTER 23 ITERATIONS ***

------------------------------------------------------------------------
 total energy gain   :        -0.0000132 Eh       -0.0083 kcal/mol
 total RMSD          :         0.0498291 a0        0.0264 Å
 total power (kW/mol):        -0.0015021 (step)   -0.0350 (real)
------------------------------------------------------------------------

 ANCopt (total)                0 d,  0 h,  0 min,  0.986 sec
 optimizer setup                ...        0 min,  0.000 sec (  0.030%)
 model hessian                  ...        0 min,  0.051 sec (  5.183%)
 ANC generation                 ...        0 min,  0.009 sec (  0.887%)
 coordinate transformation      ...        0 min,  0.002 sec (  0.207%)
 single point calculation       ...        0 min,  0.911 sec ( 92.423%)
 optimization log               ...        0 min,  0.005 sec (  0.511%)
 hessian update                 ...        0 min,  0.003 sec (  0.259%)
 rational function              ...        0 min,  0.003 sec (  0.277%)

================
 final structure:
================
65
 xtb: 6.7.1 (edcfbbe)
N          -10.41542063525252        0.01848608765686        0.04463624813798
C           -9.26874323292491        0.03077110407624        0.04930111366371
C           -7.85597387294559        0.04578190847202        0.05538211597659
C           -7.16544369604673        0.28730233991516        1.24414574944808
C           -5.78587940093397        0.29823988633733        1.24417002123036
C           -5.07266459737308        0.07489994493134        0.06753323726215
C           -3.59591226766318        0.09014134009984        0.07418124753044
C           -2.89213220163477       -0.92593084603203        0.73651495893938
C           -3.55854857635560       -2.00286813032830        1.37874039510729
C           -2.86480006134301       -2.96945037422945        2.03900721794183
C           -1.45827260262590       -2.91701023200082        2.10273037630109
C           -0.78029775425930       -1.91590338901737        1.47856860029977
C           -1.46279141646462       -0.90135367876357        0.75696174509245
C           -0.77202530742566        0.11943600504963        0.08759580218983
C            0.70587532217884        0.13638695340808        0.09407639624395
C            1.38541306263921        1.14545786892625        0.78776245674277
C            2.76386996381260        1.20507609807254        0.82226680220521
C            3.47506707800678        0.23497020197045        0.12990626826850
C            2.80489965753855       -0.80359013893928       -0.55735391355122
C            1.41877345052429       -0.84832932407421       -0.57385249185977
C            3.82403822615914       -1.64873510557153       -1.11293447152209
C            3.79120726202055       -2.79871718657871       -1.89060793681363
C            4.98726814603324       -3.36451479790358       -2.28348566745058
C            6.20425474991602       -2.78978083882935       -1.92282974441918
C            6.26224662370117       -1.64660353852756       -1.14909445903054
C            5.06366424061904       -1.08648420693666       -0.73072770634663
N            4.83782133910382        0.05143762052300        0.01867439241999
C            5.82460823667190        0.88062742351035        0.57114439504713
C            5.77970487359149        2.25583442850496        0.36165397799672
C            6.75191663463680        3.06989328975685        0.91247648964915
C            7.77819330758337        2.52233749270590        1.66417089919937
C            7.82688317299345        1.15347049855877        1.86930049768561
C            6.85321442898334        0.33235919000644        1.33165273536293
C           -1.47789896627836        1.12500747693260       -0.58883551173791
C           -0.80919666366423        2.15253766139891       -1.30485123803694
C           -1.50115165466269        3.13916244271604       -1.93660379403586
C           -2.90901572710639        3.16297972036376       -1.88636506526444
C           -3.58932567200682        2.18312053013901       -1.23167249432017
C           -2.90738128709161        1.12045227503338       -0.58207822061811
C           -5.77073063401000       -0.16300439979623       -1.11529687019578
C           -7.15019983147728       -0.18094601251941       -1.12729051721346
H           -7.71743157255878        0.46405381506706        2.15570917152442
H           -5.24627852375532        0.48760953751637        2.16074997200360
H           -4.63673525200710       -2.04685963082816        1.33203936260929
H           -3.38728506596805       -3.78178947541808        2.52254374762060
H           -0.92424171534231       -3.68115056677443        2.64808751789944
H            0.29764612392705       -1.87705687254933        1.52555592363459
H            0.80686927523346        1.88747736154776        1.31885370560469
H            3.26865325833852        1.97813128426424        1.38171464510345
H            0.89879740534829       -1.63368291421457       -1.10217886869238
H            2.84729395524968       -3.23384069702040       -2.18259048467558
H            4.98513839194836       -4.26000807845804       -2.88685700368076
H            7.12361298888650       -3.24633121807258       -2.25870532615652
H            7.21007585703424       -1.19946194167761       -0.88988385138223
H            4.99076688188930        2.67657314435590       -0.24381873698719
H            6.71241741374500        4.13630487547637        0.74654377317002
H            8.53801789756817        3.16065111077641        2.08897062730999
H            8.62294318452330        0.72280275358516        2.45844366043263
H            6.87521216144704       -0.73275673275660        1.50784563488975
H            0.26972253602031        2.13443678222354       -1.34144645051382
H           -0.97784584327314        3.91351762514339       -2.47801595399231
H           -3.44319191677768        3.96405575759263       -2.37587519263478
H           -4.66858719422860        2.20522149141867       -1.19552251400807
H           -5.21934825854112       -0.34104613394408       -2.02710211775657
H           -7.69038179987360       -0.36912444347037       -2.04362104114901
 
 Bond Distances (Angstroems)
 ---------------------------
N1-C2=1.1468         C2-N1=1.1468         C2-C3=1.4129         C3-C2=1.4129         C3-C4=1.3958         C3-C41=1.3958        
C4-C3=1.3958         C4-C5=1.3796         C4-H42=1.0802        C5-C4=1.3796         C5-C6=1.3939         C5-H43=1.0803        
C6-C5=1.3939         C6-C7=1.4768         C6-C40=1.3939        C7-C6=1.4768         C7-C8=1.4023         C7-C39=1.4022        
C8-C7=1.4023         C8-C9=1.4200         C8-C13=1.4297        C9-C8=1.4200         C9-C10=1.3607        C9-H44=1.0801        
C10-C9=1.3607        C10-C11=1.4089       C10-H45=1.0801       C11-C10=1.4089       C11-C12=1.3607       C11-H46=1.0801       
C12-C11=1.3607       C12-C13=1.4198       C12-H47=1.0797       C13-C8=1.4297        C13-C12=1.4198       C13-C14=1.4026       
C14-C13=1.4026       C14-C15=1.4780       C14-C34=1.4025       C15-C14=1.4780       C15-C16=1.4004       C15-C20=1.3871       
C16-C15=1.4004       C16-C17=1.3802       C16-H48=1.0804       C17-C16=1.3802       C17-C18=1.3879       C17-H49=1.0795       
C18-C17=1.3879       C18-C19=1.4142       C18-N27=1.3795       C19-C18=1.4142       C19-C20=1.3869       C19-C21=1.4358       
C20-C15=1.3871       C20-C19=1.3869       C20-H50=1.0799       C21-C19=1.4358       C21-C22=1.3886       C21-C26=1.4138       
C22-C21=1.3886       C22-C23=1.3802       C22-H51=1.0796       C23-C22=1.3802       C23-C24=1.3934       C23-H52=1.0798       
C24-C23=1.3934       C24-C25=1.3816       C24-H53=1.0800       C25-C24=1.3816       C25-C26=1.3876       C25-H54=1.0796       
C26-C21=1.4138       C26-C25=1.3876       C26-N27=1.3811       N27-C18=1.3795       N27-C26=1.3811       N27-C28=1.4023       
C28-N27=1.4023       C28-C29=1.3918       C28-C33=1.3918       C29-C28=1.3918       C29-C30=1.3825       C29-H55=1.0798       
C30-C29=1.3825       C30-C31=1.3850       C30-H56=1.0800       C31-C30=1.3850       C31-C32=1.3850       C31-H57=1.0795       
C32-C31=1.3850       C32-C33=1.3825       C32-H58=1.0799       C33-C28=1.3918       C33-C32=1.3825       C33-H59=1.0798       
C34-C14=1.4025       C34-C35=1.4197       C34-C39=1.4295       C35-C34=1.4197       C35-C36=1.3606       C35-H60=1.0797       
C36-C35=1.3606       C36-C37=1.4090       C36-H61=1.0801       C37-C36=1.4090       C37-C38=1.3607       C37-H62=1.0801       
C38-C37=1.3607       C38-C39=1.4200       C38-H63=1.0801       C39-C7=1.4022        C39-C34=1.4295       C39-C38=1.4200       
C40-C6=1.3939        C40-C41=1.3796       C40-H64=1.0803       C41-C3=1.3958        C41-C40=1.3796       C41-H65=1.0802       
H42-C4=1.0802        H43-C5=1.0803        H44-C9=1.0801        H45-C10=1.0801       H46-C11=1.0801       H47-C12=1.0797       
H48-C16=1.0804       H49-C17=1.0795       H50-C20=1.0799       H51-C22=1.0796       H52-C23=1.0798       H53-C24=1.0800       
H54-C25=1.0796       H55-C29=1.0798       H56-C30=1.0800       H57-C31=1.0795       H58-C32=1.0799       H59-C33=1.0798       
H60-C35=1.0797       H61-C36=1.0801       H62-C37=1.0801       H63-C38=1.0801       H64-C40=1.0803       H65-C41=1.0802       
 C  H  Rav=1.0800 sigma=0.0003  Rmin=1.0795  Rmax=1.0804    24
 C  C  Rav=1.3994 sigma=0.0250  Rmin=1.3606  Rmax=1.4780    44
 N  C  Rav=1.3274 sigma=0.1047  Rmin=1.1468  Rmax=1.4023     4
 
 selected bond angles (degree)
 --------------------
C3-C2-N1=179.99                C4-C3-C2=120.01                C41-C3-C2=120.02               C41-C3-C4=119.97               
C5-C4-C3=119.74                H42-C4-C3=119.62               H42-C4-C5=120.64               C6-C5-C4=120.69                
H43-C5-C4=120.06               H43-C5-C6=119.25               C7-C6-C5=120.41                C40-C6-C5=119.17               
C40-C6-C7=120.42               C8-C7-C6=119.77                C39-C7-C6=119.77               C39-C7-C8=120.46               
C9-C8-C7=121.84                C13-C8-C7=119.74               C13-C8-C9=118.41               C10-C9-C8=121.26               
H44-C9-C8=118.67               H44-C9-C10=120.07              C11-C10-C9=120.30              H45-C10-C9=120.32              
H45-C10-C11=119.38             
 
 selected dihedral angles (degree)
 ---------------------------------
C4-C3-C2-N1=328.29            C41-C3-C2-N1=148.29           C5-C4-C3-C2=179.88            C5-C4-C3-C41=359.88           
H42-C4-C3-C2=359.87           H42-C4-C3-C41=179.88          C6-C5-C4-C3=  0.22            C6-C5-C4-H42=180.23           
H43-C5-C4-C3=179.81           H43-C5-C4-H42=359.82          C7-C6-C5-C4=179.90            C7-C6-C5-H43=  0.30           
C40-C6-C5-C4=359.90           C40-C6-C5-H43=180.30          C8-C7-C6-C5= 68.27            C8-C7-C6-C40=248.27           
C39-C7-C6-C5=248.26           C39-C7-C6-C40= 68.26          C9-C8-C7-C6=  1.76            C9-C8-C7-C39=181.77           
C13-C8-C7-C6=180.79           C13-C8-C7-C39=  0.80          C10-C9-C8-C7=181.22           C10-C9-C8-C13=  2.18          
H44-C9-C8-C7=  1.46           H44-C9-C8-C13=182.42          C11-C10-C9-C8=  0.23          C11-C10-C9-H44=179.99         
H45-C10-C9-C8=179.98          H45-C10-C9-H44=359.74         
           -------------------------------------------------
          |                Final Singlepoint                |
           -------------------------------------------------

          ...................................................
          :                      SETUP                      :
          :.................................................:
          :  # basis functions                 188          :
          :  # atomic orbitals                 188          :
          :  # shells                          106          :
          :  # electrons                       190          :
          :  max. iterations                   250          :
          :  Hamiltonian                  GFN2-xTB          :
          :  restarted?                      false          :
          :  GBSA solvation                  false          :
          :  PC potential                    false          :
          :  electronic temp.          300.0000000     K    :
          :  accuracy                    1.0000000          :
          :  -> integral cutoff          0.2500000E+02      :
          :  -> integral neglect         0.1000000E-07      :
          :  -> SCF convergence          0.1000000E-05 Eh   :
          :  -> wf. convergence          0.1000000E-03 e    :
          :  Broyden damping             0.4000000          :
          :  net charge                          0          :
          :  unpaired electrons                  0          :
          ...................................................

 iter      E             dE          RMSdq      gap      omega  full diag
   1   -103.5914239 -0.103591E+03  0.208E-05    2.03       0.0  T
   2   -103.5914239  0.108287E-10  0.207E-05    2.03     598.1  T
   3   -103.5914239 -0.308518E-10  0.637E-06    2.03    1947.5  T

   *** convergence criteria satisfied after 3 iterations ***

         #    Occupation            Energy/Eh            Energy/eV
      -------------------------------------------------------------
         1        2.0000           -0.6798281             -18.4991
       ...           ...                  ...                  ...
        89        2.0000           -0.4102264             -11.1628
        90        2.0000           -0.4060752             -11.0499
        91        2.0000           -0.4042778             -11.0010
        92        2.0000           -0.4026988             -10.9580
        93        2.0000           -0.3816485             -10.3852
        94        2.0000           -0.3674914              -9.9999
        95        2.0000           -0.3598133              -9.7910 (HOMO)
        96                         -0.2853927              -7.7659 (LUMO)
        97                         -0.2682250              -7.2988
        98                         -0.2495026              -6.7893
        99                         -0.2418624              -6.5814
       100                         -0.2380541              -6.4778
       ...                                ...                  ...
       188                          1.1737058              31.9382
      -------------------------------------------------------------
                  HL-Gap            0.0744205 Eh            2.0251 eV
             Fermi-level           -0.3226030 Eh           -8.7785 eV

 SCC (total)                   0 d,  0 h,  0 min,  0.033 sec
 SCC setup                      ...        0 min,  0.000 sec (  0.442%)
 Dispersion                     ...        0 min,  0.001 sec (  2.307%)
 classical contributions        ...        0 min,  0.000 sec (  0.091%)
 integral evaluation            ...        0 min,  0.003 sec (  7.917%)
 iterations                     ...        0 min,  0.021 sec ( 63.302%)
 molecular gradient             ...        0 min,  0.008 sec ( 24.442%)
 printout                       ...        0 min,  0.000 sec (  1.285%)

         :::::::::::::::::::::::::::::::::::::::::::::::::::::
         ::                     SUMMARY                     ::
         :::::::::::::::::::::::::::::::::::::::::::::::::::::
         :: total energy            -101.592956828813 Eh    ::
         :: gradient norm              0.000074944851 Eh/a0 ::
         :: HOMO-LUMO gap              2.025085257350 eV    ::
         ::.................................................::
         :: SCC energy              -103.591605486217 Eh    ::
         :: -> isotropic ES            0.012793664653 Eh    ::
         :: -> anisotropic ES          0.008313170603 Eh    ::
         :: -> anisotropic XC          0.072408397002 Eh    ::
         :: -> dispersion             -0.092470551223 Eh    ::
         :: repulsion energy           1.998648657403 Eh    ::
         :: add. restraining           0.000000000000 Eh    ::
         :: total charge              -0.000000000000 e     ::
         :::::::::::::::::::::::::::::::::::::::::::::::::::::

           ------------------------------------------------- 
          |                Numerical Hessian                |
           ------------------------------------------------- 
step length          :   0.00500
SCC accuracy         :   0.30000
Hessian scale factor :   1.00000
frozen atoms in %    :   0.00000    0
RMS gradient         :   0.00007
estimated CPU  time     22.17 min
estimated wall time      0.56 min

writing file <hessian>.

 projected vibrational frequencies (cm⁻¹)
eigval :       -0.00    -0.00     0.00     0.00     0.00     0.00
eigval :       12.82    13.65    18.91    37.99    39.58    44.97
eigval :       59.72    62.74    68.25    73.91   101.37   112.66
eigval :      119.92   131.50   135.92   138.00   148.02   185.09
eigval :      205.61   213.73   216.30   236.62   251.20   263.35
eigval :      269.79   316.46   335.91   354.75   363.60   380.60
eigval :      385.42   390.56   398.24   398.48   410.26   428.15
eigval :      430.69   447.64   450.52   458.82   462.50   477.51
eigval :      512.48   534.06   534.18   537.73   543.81   560.09
eigval :      581.03   583.37   587.31   589.04   599.75   610.02
eigval :      620.16   628.03   640.18   648.98   669.79   681.78
eigval :      686.57   693.16   697.56   708.26   724.55   740.02
eigval :      763.47   771.23   775.69   776.03   776.71   798.44
eigval :      815.20   823.55   869.97   870.54   873.55   875.66
eigval :      880.37   884.55   889.35   898.42   901.66   906.25
eigval :      913.74   916.67   919.22   920.97   922.21   922.73
eigval :      925.43   927.75   928.46   930.89   932.84   933.55
eigval :      934.21   964.96   998.23  1019.81  1031.03  1071.72
eigval :     1080.65  1082.48  1083.23  1118.11  1119.82  1132.09
eigval :     1135.13  1138.35  1156.87  1178.55  1181.22  1181.70
eigval :     1183.11  1184.72  1186.64  1195.58  1201.94  1207.72
eigval :     1229.08  1236.15  1243.37  1246.15  1259.33  1261.83
eigval :     1266.73  1275.10  1280.85  1304.16  1308.65  1318.18
eigval :     1325.71  1344.97  1350.62  1359.82  1361.92  1380.84
eigval :     1385.09  1393.29  1418.07  1418.84  1429.16  1432.75
eigval :     1436.91  1444.78  1468.45  1481.85  1484.58  1488.79
eigval :     1494.41  1526.98  1529.03  1541.71  1548.03  1564.75
eigval :     1582.93  1584.65  1588.68  1596.42  1598.60  1608.49
eigval :     1614.79  1622.69  2373.91  3074.56  3074.80  3077.23
eigval :     3078.54  3079.61  3080.42  3080.65  3081.24  3081.47
eigval :     3082.30  3082.49  3086.22  3089.74  3089.93  3090.43
eigval :     3090.64  3091.58  3092.57  3092.94  3094.24  3095.38
eigval :     3096.28  3096.77  3099.80
           -------------------------------------------------
          |                Property Printout                |
           -------------------------------------------------

    * Orbital Energies and Occupations

         #    Occupation            Energy/Eh            Energy/eV
      -------------------------------------------------------------
         1        2.0000           -0.6798281             -18.4991
       ...           ...                  ...                  ...
        83        2.0000           -0.4226848             -11.5018
        84        2.0000           -0.4207922             -11.4503
        85        2.0000           -0.4185339             -11.3889
        86        2.0000           -0.4171374             -11.3509
        87        2.0000           -0.4148259             -11.2880
        88        2.0000           -0.4103060             -11.1650
        89        2.0000           -0.4102264             -11.1628
        90        2.0000           -0.4060752             -11.0499
        91        2.0000           -0.4042779             -11.0010
        92        2.0000           -0.4026988             -10.9580
        93        2.0000           -0.3816485             -10.3852
        94        2.0000           -0.3674914             -10.0000
        95        2.0000           -0.3598133              -9.7910 (HOMO)
        96                         -0.2853927              -7.7659 (LUMO)
        97                         -0.2682249              -7.2988
        98                         -0.2495027              -6.7893
        99                         -0.2418623              -6.5814
       100                         -0.2380541              -6.4778
       101                         -0.2363632              -6.4318
       102                         -0.2344307              -6.3792
       103                         -0.2256044              -6.1390
       104                         -0.2237018              -6.0872
       105                         -0.2032785              -5.5315
       106                         -0.1965849              -5.3493
       ...                                ...                  ...
       188                          1.1737058              31.9382
      -------------------------------------------------------------
                  HL-Gap            0.0744205 Eh            2.0251 eV
             Fermi-level           -0.3226030 Eh           -8.7785 eV

     #   Z          covCN         q      C6AA      α(0)
     1   7 N        0.911    -0.237    26.208     7.404
     2   6 C        1.912     0.111    28.356     8.600
     3   6 C        2.974     0.016    27.648     8.625
     4   6 C        2.925    -0.021    28.533     8.760
     5   6 C        2.923    -0.029    28.727     8.789
     6   6 C        2.977     0.025    27.432     8.591
     7   6 C        2.977    -0.011    28.279     8.723
     8   6 C        2.983     0.007    27.863     8.659
     9   6 C        2.917    -0.036    28.887     8.814
    10   6 C        2.914    -0.029    28.726     8.789
    11   6 C        2.914    -0.030    28.751     8.793
    12   6 C        2.918    -0.033    28.833     8.805
    13   6 C        2.984     0.006    27.875     8.660
    14   6 C        2.978    -0.002    28.078     8.692
    15   6 C        2.977     0.003    27.951     8.672
    16   6 C        2.928    -0.036    28.908     8.817
    17   6 C        2.908    -0.052    29.286     8.874
    18   6 C        3.077     0.045    26.904     8.504
    19   6 C        3.067    -0.018    28.384     8.736
    20   6 C        2.917    -0.036    28.905     8.816
    21   6 C        3.068    -0.017    28.369     8.734
    22   6 C        2.912    -0.032    28.810     8.801
    23   6 C        2.920    -0.040    29.005     8.832
    24   6 C        2.924    -0.033    28.819     8.804
    25   6 C        2.910    -0.051    29.257     8.869
    26   6 C        3.077     0.047    26.866     8.498
    27   7 N        2.803    -0.044    22.086     6.980
    28   6 C        2.913     0.065    26.550     8.449
    29   6 C        2.922    -0.042    29.048     8.838
    30   6 C        2.920    -0.028    28.694     8.784
    31   6 C        2.919    -0.033    28.816     8.803
    32   6 C        2.920    -0.028    28.692     8.784
    33   6 C        2.922    -0.042    29.047     8.838
    34   6 C        2.984     0.006    27.877     8.661
    35   6 C        2.918    -0.033    28.831     8.805
    36   6 C        2.914    -0.030    28.755     8.793
    37   6 C        2.915    -0.029    28.729     8.789
    38   6 C        2.917    -0.036    28.886     8.813
    39   6 C        2.983     0.007    27.864     8.659
    40   6 C        2.923    -0.029    28.727     8.789
    41   6 C        2.925    -0.021    28.532     8.760
    42   1 H        0.926     0.041     2.437     2.441
    43   1 H        0.926     0.039     2.462     2.454
    44   1 H        0.926     0.028     2.618     2.530
    45   1 H        0.926     0.030     2.590     2.516
    46   1 H        0.926     0.030     2.588     2.516
    47   1 H        0.926     0.034     2.524     2.484
    48   1 H        0.926     0.030     2.585     2.514
    49   1 H        0.926     0.029     2.600     2.521
    50   1 H        0.926     0.032     2.560     2.502
    51   1 H        0.926     0.031     2.569     2.507
    52   1 H        0.926     0.029     2.605     2.524
    53   1 H        0.926     0.030     2.590     2.517
    54   1 H        0.926     0.028     2.616     2.529
    55   1 H        0.926     0.040     2.447     2.446
    56   1 H        0.926     0.037     2.494     2.470
    57   1 H        0.926     0.036     2.505     2.475
    58   1 H        0.926     0.037     2.493     2.469
    59   1 H        0.926     0.041     2.438     2.442
    60   1 H        0.926     0.034     2.532     2.488
    61   1 H        0.926     0.029     2.594     2.519
    62   1 H        0.926     0.030     2.591     2.517
    63   1 H        0.926     0.028     2.618     2.530
    64   1 H        0.926     0.039     2.460     2.453
    65   1 H        0.926     0.041     2.436     2.441

 Mol. C6AA /au·bohr⁶  :      65474.560654
 Mol. C8AA /au·bohr⁸  :    1681717.704381
 Mol. α(0) /au        :        415.013079


MOs/occ written to file <molden.input>


molecular dipole:
                 x           y           z       tot (Debye)
 q only:        2.158       0.295       0.205
   full:        2.646       0.350       0.238       6.810
molecular quadrupole (traceless):
                xx          xy          yy          xz          yz          zz
 q only:      -33.893       5.112      17.871       4.708      -0.356      16.022
  q+dip:      -40.742       5.758      24.611       7.459      -1.337      16.131
   full:      -48.389       5.511      25.969       5.700      -0.787      22.421

           -------------------------------------------------
          |                Geometry Summary                 |
           -------------------------------------------------

      molecular mass/u    :      520.6226845
   center of mass at/Å    :       -0.0002846      -0.0000925       0.0001876
  moments of inertia/u·Å² :        0.2378669E+04   0.1404714E+05   0.1486874E+05
rotational constants/cm⁻¹ :        0.7087001E-02   0.1200076E-02   0.1133764E-02

 * 69 selected distances

     #   Z          #   Z                                           value/Å
     1   7 N        2   6 C                                       1.1467528
     3   6 C        4   6 C                                       1.3958235
     4   6 C        5   6 C                                       1.3796078
     5   6 C        6   6 C                                       1.3939263
     7   6 C        8   6 C                                       1.4022822
     8   6 C        9   6 C                                       1.4199854
     9   6 C       10   6 C                                       1.3607060
    10   6 C       11   6 C                                       1.4089466
    11   6 C       12   6 C                                       1.3606774
     8   6 C       13   6 C                                       1.4296984
    12   6 C       13   6 C                                       1.4197977
    13   6 C       14   6 C                                       1.4025764
    15   6 C       16   6 C                                       1.4004272
    16   6 C       17   6 C                                       1.3801770
    17   6 C       18   6 C                                       1.3879014
    18   6 C       19   6 C                                       1.4142344
    15   6 C       20   6 C                                       1.3870902
    19   6 C       20   6 C                                       1.3869463
    19   6 C       21   6 C                                       1.4358216 (max)
    21   6 C       22   6 C                                       1.3886371
    22   6 C       23   6 C                                       1.3802325
    23   6 C       24   6 C                                       1.3933587
    24   6 C       25   6 C                                       1.3816237
    21   6 C       26   6 C                                       1.4138179
    25   6 C       26   6 C                                       1.3875750
    18   6 C       27   7 N                                       1.3795493
    26   6 C       27   7 N                                       1.3811137
    27   7 N       28   6 C                                       1.4023293
    28   6 C       29   6 C                                       1.3917964
    29   6 C       30   6 C                                       1.3824953
    30   6 C       31   6 C                                       1.3849570
    31   6 C       32   6 C                                       1.3850076
    28   6 C       33   6 C                                       1.3917622
    32   6 C       33   6 C                                       1.3825050
    14   6 C       34   6 C                                       1.4024947
    34   6 C       35   6 C                                       1.4197394
    35   6 C       36   6 C                                       1.3606402
    36   6 C       37   6 C                                       1.4089616
    37   6 C       38   6 C                                       1.3607235
     7   6 C       39   6 C                                       1.4022455
    34   6 C       39   6 C                                       1.4295057
    38   6 C       39   6 C                                       1.4199595
     6   6 C       40   6 C                                       1.3939089
     3   6 C       41   6 C                                       1.3957928
    40   6 C       41   6 C                                       1.3796381
     4   6 C       42   1 H                                       1.0802221
     5   6 C       43   1 H                                       1.0803467
     9   6 C       44   1 H                                       1.0800940
    10   6 C       45   1 H                                       1.0801357
    11   6 C       46   1 H                                       1.0800528
    12   6 C       47   1 H                                       1.0796667
    16   6 C       48   1 H                                       1.0804462
    17   6 C       49   1 H                                       1.0795381
    20   6 C       50   1 H                                       1.0799464
    22   6 C       51   1 H                                       1.0796105
    23   6 C       52   1 H                                       1.0798009
    24   6 C       53   1 H                                       1.0800326
    25   6 C       54   1 H                                       1.0795861
    29   6 C       55   1 H                                       1.0798341
    30   6 C       56   1 H                                       1.0799665
    31   6 C       57   1 H                                       1.0794595 (min)
    32   6 C       58   1 H                                       1.0799427
    33   6 C       59   1 H                                       1.0798148
    35   6 C       60   1 H                                       1.0796915
    36   6 C       61   1 H                                       1.0800936
    37   6 C       62   1 H                                       1.0801330
    38   6 C       63   1 H                                       1.0800930
    40   6 C       64   1 H                                       1.0803288
    41   6 C       65   1 H                                       1.0802174

 * 3 distinct bonds (by element types)

   Z      Z             #   av. dist./Å        max./Å        min./Å
   1 H    6 C          24     1.0799606     1.0804462     1.0794595
   6 C    6 C          41     1.3952196     1.4358216     1.3606402
   6 C    7 N           4     1.3274363     1.4023293     1.1467528

           -------------------------------------------------
          |               Frequency Printout                |
           -------------------------------------------------
 projected vibrational frequencies (cm⁻¹)
eigval :       -0.00    -0.00     0.00     0.00     0.00     0.00
eigval :       12.82    13.65    18.91    37.99    39.58    44.97
eigval :       59.72    62.74    68.25    73.91   101.37   112.66
eigval :      119.92   131.50   135.92   138.00   148.02   185.09
eigval :      205.61   213.73   216.30   236.62   251.20   263.35
eigval :      269.79   316.46   335.91   354.75   363.60   380.60
eigval :      385.42   390.56   398.24   398.48   410.26   428.15
eigval :      430.69   447.64   450.52   458.82   462.50   477.51
eigval :      512.48   534.06   534.18   537.73   543.81   560.09
eigval :      581.03   583.37   587.31   589.04   599.75   610.02
eigval :      620.16   628.03   640.18   648.98   669.79   681.78
eigval :      686.57   693.16   697.56   708.26   724.55   740.02
eigval :      763.47   771.23   775.69   776.03   776.71   798.44
eigval :      815.20   823.55   869.97   870.54   873.55   875.66
eigval :      880.37   884.55   889.35   898.42   901.66   906.25
eigval :      913.74   916.67   919.22   920.97   922.21   922.73
eigval :      925.43   927.75   928.46   930.89   932.84   933.55
eigval :      934.21   964.96   998.23  1019.81  1031.03  1071.72
eigval :     1080.65  1082.48  1083.23  1118.11  1119.82  1132.09
eigval :     1135.13  1138.35  1156.87  1178.55  1181.22  1181.70
eigval :     1183.11  1184.72  1186.64  1195.58  1201.94  1207.72
eigval :     1229.08  1236.15  1243.37  1246.15  1259.33  1261.83
eigval :     1266.73  1275.10  1280.85  1304.16  1308.65  1318.18
eigval :     1325.71  1344.97  1350.62  1359.82  1361.92  1380.84
eigval :     1385.09  1393.29  1418.07  1418.84  1429.16  1432.75
eigval :     1436.91  1444.78  1468.45  1481.85  1484.58  1488.79
eigval :     1494.41  1526.98  1529.03  1541.71  1548.03  1564.75
eigval :     1582.93  1584.65  1588.68  1596.42  1598.60  1608.49
eigval :     1614.79  1622.69  2373.91  3074.56  3074.80  3077.23
eigval :     3078.54  3079.61  3080.42  3080.65  3081.24  3081.47
eigval :     3082.30  3082.49  3086.22  3089.74  3089.93  3090.43
eigval :     3090.64  3091.58  3092.57  3092.94  3094.24  3095.38
eigval :     3096.28  3096.77  3099.80
 reduced masses (amu)
   1: 11.44   2: 11.57   3: 11.73   4: 11.71   5: 11.38   6: 11.18   7: 11.58   8: 11.05
   9: 11.47  10: 11.85  11: 10.02  12: 11.13  13: 10.73  14: 10.75  15: 10.17  16: 10.86
  17: 10.47  18: 10.00  19: 11.79  20: 11.23  21: 10.58  22: 11.56  23: 10.81  24: 11.10
  25: 10.52  26: 10.56  27: 10.67  28: 10.62  29: 10.72  30: 11.19  31: 10.46  32: 11.01
  33: 10.84  34: 11.09  35:  9.02  36:  9.06  37:  9.70  38: 10.36  39: 11.25  40: 10.26
  41: 10.98  42: 10.23  43: 10.47  44:  9.18  45: 11.02  46:  9.85  47: 10.96  48: 10.02
  49: 11.55  50: 11.18  51: 11.54  52: 10.76  53: 10.87  54: 10.47  55: 11.01  56: 11.17
  57: 10.83  58: 11.20  59: 11.28  60: 11.42  61: 11.18  62: 10.89  63: 10.50  64: 11.14
  65:  9.99  66: 11.63  67: 11.14  68: 11.42  69: 11.23  70: 11.55  71: 11.08  72: 11.59
  73:  4.39  74:  8.06  75:  3.92  76:  3.81  77:  7.63  78: 11.12  79:  5.06  80:  4.56
  81:  3.42  82:  3.42  83:  3.82  84:  3.78  85:  3.45  86:  3.42  87: 11.11  88: 11.05
  89:  4.15  90:  4.00  91:  3.55  92:  3.31  93:  3.76  94:  3.75  95: 10.41  96:  3.88
  97: 11.06  98:  3.62  99:  3.26 100:  3.75 101: 10.26 102:  3.15 103:  3.82 104: 11.21
 105: 10.76 106:  8.80 107:  8.23 108:  6.09 109:  6.80 110:  6.59 111:  7.18 112:  4.28
 113:  7.57 114:  3.20 115:  6.70 116:  6.80 117:  4.05 118:  2.29 119:  1.38 120:  1.79
 121:  2.88 122:  1.96 123:  2.11 124:  5.01 125:  3.56 126:  5.84 127:  3.52 128:  5.50
 129:  8.47 130:  7.01 131:  5.03 132:  7.46 133:  6.81 134:  4.38 135:  8.27 136:  8.44
 137: 11.61 138: 11.82 139:  9.40 140: 10.99 141:  6.96 142: 10.60 143: 10.23 144: 10.55
 145:  9.64 146:  9.97 147: 10.94 148:  9.84 149:  9.70 150: 10.05 151:  9.08 152: 10.41
 153: 10.07 154: 10.41 155: 10.25 156: 10.57 157: 10.73 158: 11.63 159: 11.83 160: 11.73
 161: 11.67 162: 11.65 163: 11.54 164: 11.59 165: 11.48 166: 11.48 167: 11.70 168: 11.33
 169: 11.71 170: 11.42 171: 12.79 172:  1.75 173:  1.75 174:  1.75 175:  1.78 176:  1.75
 177:  1.79 178:  1.79 179:  1.79 180:  1.79 181:  1.80 182:  1.78 183:  1.83 184:  1.86
 185:  1.86 186:  1.86 187:  1.86 188:  1.86 189:  1.88 190:  1.89 191:  1.88 192:  1.90
 193:  1.90 194:  1.91 195:  1.92
 IR intensities (km·mol⁻¹)
   1:  0.03   2:  0.10   3:  0.14   4:  0.03   5:  0.05   6:  0.02   7:  0.15   8:  0.10
   9:  0.23  10:  1.32  11:  0.16  12:  0.72  13:  0.03  14:  0.57  15:  0.77  16:  0.16
  17:  0.08  18:  0.45  19:  3.73  20:  4.31  21:  0.34  22:  1.93  23:  0.63  24:  0.23
  25:  0.34  26:  0.02  27:  0.18  28:  0.20  29:  0.45  30:  2.39  31:  1.87  32:  0.23
  33:  1.35  34:  0.10  35:  0.17  36:  1.63  37:  0.78  38:  2.00  39:  0.24  40:  0.89
  41:  0.96  42:  0.28  43:  0.16  44:  0.59  45:  2.29  46:  0.76  47:  1.70  48:  1.52
  49:  0.35  50:  3.62  51:  3.24  52:  2.25  53:  6.12  54:  3.42  55:  0.77  56:  0.99
  57:  5.83  58:  1.97  59:  3.69  60:  0.85  61:  1.23  62:  0.52  63:  0.15  64:  0.31
  65:  2.53  66:  2.02  67:  1.34  68:  0.70  69:  0.92  70:  2.73  71:  1.05  72:  0.13
  73: 32.30  74: 14.04  75:  6.45  76: 10.79  77: 19.16  78: 13.53  79: 13.53  80:  7.84
  81:  0.28  82:  0.26  83:  0.30  84:  0.75  85:  0.70  86:  1.30  87:  1.86  88:  0.05
  89:  0.65  90:  0.56  91:  0.67  92:  0.31  93:  0.11  94:  0.31  95:  1.45  96:  0.48
  97:  3.07  98:  0.05  99:  0.06 100:  0.06 101:  2.55 102:  0.18 103:  0.38 104:  1.33
 105:  0.59 106:  4.71 107:  2.66 108:  0.05 109:  0.08 110:  0.75 111:  0.14 112:  1.14
 113:  1.63 114:  0.75 115:  0.18 116: 14.68 117:  8.57 118:  2.47 119:  0.12 120:  0.04
 121:  6.10 122:  1.72 123:  3.24 124:  0.24 125:  2.94 126:  6.04 127:  0.13 128:  7.78
 129:  8.12 130: 17.06 131:  2.76 132:  3.00 133:  2.73 134: 17.52 135: 20.48 136: 66.83
 137:  0.28 138:  0.11 139: 38.43 140: 15.98 141:  0.84 142: 12.65 143: 37.86 144:136.50
 145: 10.92 146:  0.55 147: 18.81 148:  2.78 149:  0.85 150:136.58 151:  7.09 152: 12.63
 153: 38.65 154: 30.59 155:260.86 156:  1.92 157:  0.70 158:  0.09 159:  0.84 160: 11.40
 161:  0.30 162:  5.77 163:  6.57 164: 25.27 165: 67.41 166: 71.54 167: 46.06 168:  0.17
 169: 33.70 170:  0.04 171:412.03 172:  1.87 173:  2.41 174:  0.34 175: 23.43 176:  6.86
 177: 24.00 178: 23.23 179: 13.59 180:  8.95 181: 20.22 182: 24.80 183: 11.71 184:170.72
 185: 43.08 186: 34.68 187: 34.46 188:  6.03 189: 59.25 190: 10.11 191: 39.73 192:111.86
 193:  8.53 194: 78.65 195: 40.54
 Raman intensities (Ä⁴*amu⁻¹)
   1:  0.00   2:  0.00   3:  0.00   4:  0.00   5:  0.00   6:  0.00   7:  0.00   8:  0.00
   9:  0.00  10:  0.00  11:  0.00  12:  0.00  13:  0.00  14:  0.00  15:  0.00  16:  0.00
  17:  0.00  18:  0.00  19:  0.00  20:  0.00  21:  0.00  22:  0.00  23:  0.00  24:  0.00
  25:  0.00  26:  0.00  27:  0.00  28:  0.00  29:  0.00  30:  0.00  31:  0.00  32:  0.00
  33:  0.00  34:  0.00  35:  0.00  36:  0.00  37:  0.00  38:  0.00  39:  0.00  40:  0.00
  41:  0.00  42:  0.00  43:  0.00  44:  0.00  45:  0.00  46:  0.00  47:  0.00  48:  0.00
  49:  0.00  50:  0.00  51:  0.00  52:  0.00  53:  0.00  54:  0.00  55:  0.00  56:  0.00
  57:  0.00  58:  0.00  59:  0.00  60:  0.00  61:  0.00  62:  0.00  63:  0.00  64:  0.00
  65:  0.00  66:  0.00  67:  0.00  68:  0.00  69:  0.00  70:  0.00  71:  0.00  72:  0.00
  73:  0.00  74:  0.00  75:  0.00  76:  0.00  77:  0.00  78:  0.00  79:  0.00  80:  0.00
  81:  0.00  82:  0.00  83:  0.00  84:  0.00  85:  0.00  86:  0.00  87:  0.00  88:  0.00
  89:  0.00  90:  0.00  91:  0.00  92:  0.00  93:  0.00  94:  0.00  95:  0.00  96:  0.00
  97:  0.00  98:  0.00  99:  0.00 100:  0.00 101:  0.00 102:  0.00 103:  0.00 104:  0.00
 105:  0.00 106:  0.00 107:  0.00 108:  0.00 109:  0.00 110:  0.00 111:  0.00 112:  0.00
 113:  0.00 114:  0.00 115:  0.00 116:  0.00 117:  0.00 118:  0.00 119:  0.00 120:  0.00
 121:  0.00 122:  0.00 123:  0.00 124:  0.00 125:  0.00 126:  0.00 127:  0.00 128:  0.00
 129:  0.00 130:  0.00 131:  0.00 132:  0.00 133:  0.00 134:  0.00 135:  0.00 136:  0.00
 137:  0.00 138:  0.00 139:  0.00 140:  0.00 141:  0.00 142:  0.00 143:  0.00 144:  0.00
 145:  0.00 146:  0.00 147:  0.00 148:  0.00 149:  0.00 150:  0.00 151:  0.00 152:  0.00
 153:  0.00 154:  0.00 155:  0.00 156:  0.00 157:  0.00 158:  0.00 159:  0.00 160:  0.00
 161:  0.00 162:  0.00 163:  0.00 164:  0.00 165:  0.00 166:  0.00 167:  0.00 168:  0.00
 169:  0.00 170:  0.00 171:  0.00 172:  0.00 173:  0.00 174:  0.00 175:  0.00 176:  0.00
 177:  0.00 178:  0.00 179:  0.00 180:  0.00 181:  0.00 182:  0.00 183:  0.00 184:  0.00
 185:  0.00 186:  0.00 187:  0.00 188:  0.00 189:  0.00 190:  0.00 191:  0.00 192:  0.00
 193:  0.00 194:  0.00 195:  0.00
 output can be read by thermo (or use thermo option).
 writing <g98.out> molden fake output.
 recommended (thermochemical) frequency scaling factor: 1.0
           -------------------------------------------------
          |             Thermodynamic Functions             |
           -------------------------------------------------

Refinement of some symmetry elements was terminated before convergence was reached.
Some symmetry elements may remain unidentified.
Molecule has no symmetry elements
It seems to be the C1 point group
c1  symmetry found (for desy threshold:  0.10E+00) used in thermo

          ...................................................
          :                      SETUP                      :
          :.................................................:
          :  # frequencies                         189      :
          :  # imaginary freq.                       0      :
          :  linear?                             false      :
          :  only rotor calc.                    false      :
          :  symmetry                               c1      :
          :  rotational number                       1      :
          :  scaling factor                  1.0000000      :
          :  rotor cutoff                   50.0000000 cm⁻¹ :
          :  imag. cutoff                  -20.0000000 cm⁻¹ :
          :.................................................:

    mode    ω/cm⁻¹     T·S(HO)/kcal·mol⁻¹    T·S(FR)/kcal·mol⁻¹   T·S(vib)
   ------------------------------------------------------------------------
       1     12.82    -2.24149 (  0.43%)    -1.45978 ( 99.57%)    -1.46314
       2     13.65    -2.20409 (  0.55%)    -1.44107 ( 99.45%)    -1.44529
       3     18.91    -2.01103 (  2.01%)    -1.34450 ( 97.99%)    -1.35788
       4     37.99    -1.59844 ( 25.00%)    -1.13791 ( 75.00%)    -1.25303
       5     39.58    -1.57420 ( 28.20%)    -1.12576 ( 71.80%)    -1.25221
       6     44.97    -1.49888 ( 39.55%)    -1.08796 ( 60.45%)    -1.25047
       7     59.72    -1.33168 ( 67.05%)    -1.00393 ( 32.95%)    -1.22369
       8     62.74    -1.30264 ( 71.26%)    -0.98930 ( 28.74%)    -1.21258
       9     68.25    -1.25321 ( 77.63%)    -0.96438 ( 22.37%)    -1.18861
      10     73.91    -1.20640 ( 82.69%)    -0.94075 ( 17.31%)    -1.16041
      11    101.37    -1.02197 ( 94.41%)    -0.84716 (  5.59%)    -1.01220
      12    112.66    -0.96080 ( 96.27%)    -0.81589 (  3.73%)    -0.95539
      13    119.92    -0.92474 ( 97.07%)    -0.79739 (  2.93%)    -0.92101
      14    131.50    -0.87180 ( 97.95%)    -0.77009 (  2.05%)    -0.86972
      15    135.92    -0.85288 ( 98.20%)    -0.76030 (  1.80%)    -0.85121
      16    138.00    -0.84417 ( 98.31%)    -0.75578 (  1.69%)    -0.84267
      17    148.02    -0.80427 ( 98.71%)    -0.73503 (  1.29%)    -0.80338
      18    185.09    -0.67872 ( 99.47%)    -0.66882 (  0.53%)    -0.67867
      19    205.61    -0.62083 ( 99.65%)    -0.63767 (  0.35%)    -0.62089
      20    213.73    -0.59976 ( 99.70%)    -0.62620 (  0.30%)    -0.59984
      21    216.30    -0.59327 ( 99.72%)    -0.62266 (  0.28%)    -0.59336
      22    236.62    -0.54507 ( 99.80%)    -0.59606 (  0.20%)    -0.54517
      23    251.20    -0.51346 ( 99.84%)    -0.57835 (  0.16%)    -0.51356
      24    263.35    -0.48880 ( 99.87%)    -0.56435 (  0.13%)    -0.48890
      25    269.79    -0.47631 ( 99.88%)    -0.55720 (  0.12%)    -0.47641
   ------------------------------------------------------------------------

   temp. (K)  partition function   enthalpy   heat capacity  entropy
                                   cal/mol     cal/K/mol   cal/K/mol   J/K/mol
 298.15  VIB  0.617E+14            18220.606    117.399    112.682
         ROT  0.538E+08              888.752      2.981     38.357
         INT  0.332E+22            19109.359    120.380    151.039
         TR   0.115E+29             1481.254      4.968     44.616
         TOT                       20590.6126   125.3479   195.6549   818.6201

       T/K    H(0)-H(T)+PV         H(T)/Eh          T*S/Eh         G(T)/Eh
   ------------------------------------------------------------------------
    298.15    0.328132E-01    0.527332E+00    0.929620E-01    0.434370E+00
   ------------------------------------------------------------------------

         :::::::::::::::::::::::::::::::::::::::::::::::::::::
         ::                  THERMODYNAMIC                  ::
         :::::::::::::::::::::::::::::::::::::::::::::::::::::
         :: total free energy        -101.158587118580 Eh   ::
         ::.................................................::
         :: total energy             -101.592956828805 Eh   ::
         :: zero point energy           0.494518435579 Eh   ::
         :: G(RRHO) w/o ZPVE           -0.060148725353 Eh   ::
         :: G(RRHO) contrib.            0.434369710226 Eh   ::
         :::::::::::::::::::::::::::::::::::::::::::::::::::::

optimized geometry written to: xtbopt.xyz


           -------------------------------------------------
          | TOTAL ENERGY             -101.592956828805 Eh   |
          | TOTAL ENTHALPY           -101.065625163408 Eh   |
          | TOTAL FREE ENERGY        -101.158587118580 Eh   |
          | GRADIENT NORM               0.000074840537 Eh/α |
          | HOMO-LUMO GAP               2.025085596474 eV   |
           -------------------------------------------------

------------------------------------------------------------------------
 * finished run on 2025/09/09 at 21:52:11.073     
------------------------------------------------------------------------
 total:
 * wall-time:     0 d,  0 h,  0 min,  3.505 sec
 *  cpu-time:     0 d,  0 h,  2 min, 13.180 sec
 * ratio c/w:    37.998 speedup
 SCF:
 * wall-time:     0 d,  0 h,  0 min,  0.197 sec
 *  cpu-time:     0 d,  0 h,  0 min,  7.363 sec
 * ratio c/w:    37.457 speedup
 ANC optimizer:
 * wall-time:     0 d,  0 h,  0 min,  1.020 sec
 *  cpu-time:     0 d,  0 h,  0 min, 40.811 sec
 * ratio c/w:    39.995 speedup
 analytical hessian:
 * wall-time:     0 d,  0 h,  0 min,  2.138 sec
 *  cpu-time:     0 d,  0 h,  1 min, 19.637 sec
 * ratio c/w:    37.253 speedup

