$hessian                                                                        
        0.5055451033  -0.0281442229   0.0226195395  -0.1046549496  -0.0441993871
        0.0360810338  -0.0267873685  -0.0183362732   0.0119350455  -0.0023102193
       -0.0023554144   0.0049981700   0.0049674160   0.0031552296  -0.0035637779
       -0.0008300226   0.0009132204  -0.0001514045   0.0003849450   0.0001782460
       -0.0002029892   0.0001462428  -0.0001974334  -0.0000284482  -0.0001762047
        0.0003906823  -0.0000104987   0.0003368097  -0.0000695009  -0.0000478533
       -0.0000719344   0.0000611065   0.0000040047   0.0000781975   0.0000163066
        0.0000126093  -0.0000985031   0.0000241736  -0.0000132223   0.0000846197
        0.0000021544   0.0000057265  -0.0000646068  -0.0000102426  -0.0000071674
        0.0000456696  -0.0000053549  -0.0000048054  -0.0000075280  -0.0000262026
       -0.0000007996  -0.0000067635   0.0000243851   0.0000004081   0.0000028748
       -0.0000024947   0.0000003184  -0.0000079085   0.0000054285  -0.0000009739
       -0.0000014947   0.0000032954  -0.0000011234   0.0000013273   0.0000043776
        0.0000007071   0.0000009402   0.0000006083   0.0000000386  -0.0000050671
        0.0000003213   0.0000011310   0.0000012891   0.0000028726   0.0000003980
       -0.0000006653  -0.0000015267  -0.0000003756  -0.0000015757   0.0000006731
        0.0000002967  -0.0000004114   0.0000006051   0.0000006246  -0.0000034644
       -0.0000096861   0.0000003596   0.0000011641   0.0000099777  -0.0000002577
       -0.0000009446  -0.0000042347   0.0000004060  -0.0000040198   0.0000014242
       -0.0000007853  -0.0000011458  -0.0000033803   0.0000007857   0.0000029062
       -0.0000004331  -0.0000005118  -0.0000025345   0.0000013556  -0.0000002278
        0.0000031482  -0.0000004264  -0.0000002057  -0.0000032442   0.0000008284
       -0.0000003819   0.0000019872   0.0000010766  -0.0000001830  -0.0000017654
        0.0000008666   0.0000000603   0.0000029550   0.0000010241   0.0000000898
       -0.0000046641   0.0000040424  -0.0000005813   0.0000132205  -0.0000048952
       -0.0000001771  -0.0000250789  -0.0000372617   0.0000060012   0.0000365191
        0.0000190455  -0.0000044938  -0.0000285146   0.0000061593   0.0000013234
        0.0000198313   0.0000064736  -0.0000001462  -0.0000141610   0.0000080805
        0.0000086240   0.0000010388  -0.0000030837   0.0000033091  -0.0000037514
        0.0000040779  -0.0000031265   0.0000703629  -0.0000510264   0.0000096426
       -0.0001014898  -0.0000160191   0.0000118062  -0.0001428366  -0.0001252679
        0.0000392915   0.0000202947   0.0000242304  -0.0000059313  -0.0000186941
       -0.0000274006  -0.0000022279  -0.0000011033  -0.0000026904   0.0000000412
        0.0000005242   0.0000084383  -0.0000019224   0.0000071159   0.0000045466
       -0.0000006307   0.0000050345   0.0000061411   0.0000007148   0.0000049496
        0.0000057075   0.0000044053  -0.0000137271  -0.0000092686  -0.0000076811
        0.0000132148   0.0000125250   0.0000186813   0.0000438921   0.0003779781
       -0.0000695748  -0.0002862908   0.0017640209   0.0004822008  -0.0438980961
        0.0005946863   0.0009686001  -0.0773439806   0.0834425581   0.0089004916
       -0.2508783870   0.0029363918  -0.0813007779  -0.0064103152  -0.0007123952
       -0.0016260162   0.0004848157  -0.0011874670   0.0006544490   0.0006956009
       -0.0001630609   0.0009508145   0.0003916332   0.0000999061   0.0005013254
        0.0006552816   0.0002238682  -0.0009459920   0.0000345917  -0.0003118405
       -0.0001378181   0.0001081001   0.0015644285   0.0000761769   0.0000001108
       -0.0000112120   0.0000094129  -0.0000012420   0.0000004220   0.0000023005
       -0.0000043010  -0.0000004141   0.0000022687   0.0000008118   0.0000012626
        0.0000017185   0.0000018662   0.0000019628   0.0000013805  -0.0000008877
       -0.0000033194   0.0000013847   0.0000012544  -0.0000003861  -0.0000000083
       -0.0000010118  -0.0000008015   0.0000002686  -0.0000002676   0.0000003634
       -0.0000001775   0.0000002433   0.0000000954  -0.0000003940  -0.0000000192
        0.0000005855   0.0000001518  -0.0000007271   0.0000002295  -0.0000002165
       -0.0000001666   0.0000004145  -0.0000005517  -0.0000005473  -0.0000001430
       -0.0000006374  -0.0000001274   0.0000006311  -0.0000001596   0.0000001373
       -0.0000009180  -0.0000000097  -0.0000005575  -0.0000005289  -0.0000013306
       -0.0000170449   0.0000026151  -0.0000121899   0.0000211049   0.0000027099
       -0.0000068863  -0.0000127130  -0.0000080274  -0.0000017406   0.0000060183
        0.0000056449   0.0000066301  -0.0000026875   0.0000007397  -0.0000001188
        0.0000036298   0.0000025686  -0.0000008472  -0.0000012133  -0.0000036136
        0.0000021520  -0.0000012893  -0.0000025794  -0.0000031755  -0.0000000248
       -0.0000041924   0.0000000867   0.0000026591   0.0000031278   0.0000006008
       -0.0000024643  -0.0000017625  -0.0000029292  -0.0000019968  -0.0000006477
       -0.0000002470   0.0000031044   0.0000008109   0.0000003378   0.0000022931
        0.0000038919  -0.0000033193  -0.0000029750  -0.0000012327  -0.0000031367
       -0.0000232101   0.0001483053  -0.0000648476   0.0000320565  -0.0000322564
       -0.0000823327
       -0.0281442229   0.4879857512   0.0266007110  -0.0458404929  -0.1135946522
        0.0400132314  -0.0045858967  -0.0018351473   0.0009580994   0.0014519118
        0.0020194009  -0.0004023054  -0.0135896438  -0.0247648235   0.0135486142
        0.0001446081  -0.0008030498  -0.0001327870  -0.0007435001   0.0001217998
        0.0005207408  -0.0002990971   0.0000500576   0.0002374937   0.0000947037
       -0.0002903098  -0.0000304703  -0.0001819489   0.0000263291   0.0000377161
        0.0000507219  -0.0000455468  -0.0000131590  -0.0000248801  -0.0000021070
        0.0000029548   0.0000596725  -0.0000206846   0.0000019977  -0.0000747591
        0.0000052172  -0.0000054019   0.0000493264  -0.0000021484   0.0000031284
       -0.0000405694   0.0000099903   0.0000031121   0.0000069544   0.0000164837
       -0.0000042439   0.0000024156  -0.0000227498   0.0000011354   0.0000002576
        0.0000052164  -0.0000006377   0.0000056102  -0.0000062446   0.0000008782
        0.0000030752  -0.0000039966   0.0000008620  -0.0000036202  -0.0000028101
        0.0000005672  -0.0000001755   0.0000000943   0.0000002148   0.0000054804
        0.0000002404  -0.0000008263  -0.0000023268  -0.0000042479  -0.0000000802
        0.0000009690   0.0000039413  -0.0000002719  -0.0000016567  -0.0000020147
        0.0000007823   0.0000007744   0.0000022375  -0.0000004416   0.0000045989
        0.0000105077  -0.0000013650  -0.0000022978  -0.0000080219   0.0000007625
       -0.0000032326   0.0000014764   0.0000001322   0.0000066396   0.0000000971
       -0.0000005400  -0.0000001573   0.0000008754   0.0000000688  -0.0000012998
        0.0000003524   0.0000000029   0.0000029966  -0.0000015042  -0.0000001860
       -0.0000042222   0.0000006610  -0.0000003837   0.0000041169   0.0000000861
       -0.0000003729  -0.0000035822   0.0000002713   0.0000000086   0.0000020676
        0.0000011899  -0.0000003320  -0.0000015425   0.0000006730  -0.0000005016
        0.0000027850   0.0000000193  -0.0000000994  -0.0000075969   0.0000030682
       -0.0000000079   0.0000178899   0.0000320531  -0.0000033785  -0.0000250272
       -0.0000155040   0.0000016621   0.0000218336  -0.0000071274   0.0000007112
       -0.0000110547  -0.0000069771  -0.0000004783   0.0000108456  -0.0000041903
       -0.0000045637   0.0000019098   0.0000122597  -0.0000026215   0.0000031161
       -0.0000089920   0.0000019612  -0.0000377108   0.0000137340  -0.0000171125
        0.0000734582   0.0000440657   0.0000301137   0.0000622962   0.0000303672
       -0.0000169339  -0.0000271775  -0.0000028044  -0.0000394865   0.0000135308
       -0.0000097346   0.0000141609   0.0000085216  -0.0000029651   0.0000099610
        0.0000163916   0.0000143657   0.0000063413  -0.0000022049  -0.0000029059
       -0.0000069159  -0.0000074295   0.0000012992   0.0000010466  -0.0000014008
       -0.0000036937   0.0000050415  -0.0000180868   0.0000044395  -0.0000124976
       -0.0000162677  -0.0000272222  -0.0000037290  -0.0005347087  -0.0013880705
        0.0006441573   0.0020836018  -0.0040527557  -0.0006368351   0.0008005725
       -0.0557150572  -0.0546081187   0.0831355955  -0.2444439606  -0.0246601729
        0.0033452279  -0.0428848678   0.0005963860   0.0000759299   0.0004035948
       -0.0001133892   0.0011790094   0.0007346189  -0.0000237949   0.0002376845
        0.0000308777   0.0002143882   0.0003444253   0.0002710433  -0.0015686359
        0.0001803879   0.0001128892  -0.0003051457   0.0004167622   0.0007900074
       -0.0011713564   0.0002260735  -0.0023895413   0.0003387070  -0.0000180964
        0.0000375731   0.0000065962  -0.0000032556   0.0000025217   0.0000036413
        0.0000052431  -0.0000043242  -0.0000037695  -0.0000037228   0.0000014397
        0.0000023774  -0.0000014414  -0.0000022985   0.0000008380   0.0000012993
        0.0000028168   0.0000001747  -0.0000008964  -0.0000002392   0.0000008214
        0.0000005226   0.0000013733   0.0000006572  -0.0000000265   0.0000003502
        0.0000000474  -0.0000008192   0.0000004080   0.0000006584  -0.0000004375
       -0.0000000700  -0.0000000609   0.0000008184   0.0000003790   0.0000000494
        0.0000005326  -0.0000001229  -0.0000004197  -0.0000005345   0.0000002619
       -0.0000000162   0.0000004723  -0.0000001925  -0.0000000235  -0.0000006210
        0.0000006906   0.0000000974   0.0000023365  -0.0000012055   0.0000015665
        0.0000049672  -0.0000016031   0.0000053508  -0.0000291157  -0.0000156885
       -0.0000196260   0.0000160997  -0.0000023523   0.0000366677  -0.0000017717
        0.0000017995   0.0000013776   0.0000051329   0.0000038569  -0.0000017060
       -0.0000059155  -0.0000073904   0.0000020093   0.0000007236   0.0000029758
       -0.0000018611   0.0000011967   0.0000011885  -0.0000016370  -0.0000004303
        0.0000028856  -0.0000002251  -0.0000026781  -0.0000081553  -0.0000012348
        0.0000010793   0.0000011352  -0.0000006118   0.0000046711  -0.0000011612
        0.0000004418  -0.0000048030  -0.0000054800  -0.0000001781  -0.0000017774
       -0.0000075623   0.0000018053  -0.0000014331   0.0000014987  -0.0000010147
        0.0001022797  -0.0004099967  -0.0000025379   0.0000134410   0.0000194641
       -0.0000385282
        0.0226195395   0.0266007110   0.5116459209   0.0363468833   0.0388850513
       -0.0944911798  -0.0043975357  -0.0037172052   0.0035318038   0.0184681608
        0.0164055960  -0.0248535929  -0.0008118767   0.0020100718   0.0007851617
       -0.0000265493  -0.0006417361  -0.0007349066  -0.0000605360  -0.0001119153
        0.0001797522   0.0000203470   0.0001037667   0.0000651224   0.0000349585
       -0.0001967544  -0.0000367588  -0.0001473613   0.0000351331   0.0000343937
        0.0000283392  -0.0000176433   0.0000008551  -0.0000392853  -0.0000106319
       -0.0000088491   0.0000449756  -0.0000156305  -0.0000003932  -0.0000370305
       -0.0000051348  -0.0000024056   0.0000252567   0.0000174266  -0.0000025678
       -0.0000186513   0.0000021716   0.0000055432   0.0000078092   0.0000061163
       -0.0000053789   0.0000024360  -0.0000073043   0.0000024172   0.0000008629
       -0.0000011468  -0.0000022018  -0.0000031859  -0.0000012725  -0.0000008630
        0.0000024449   0.0000025175  -0.0000018094  -0.0000024791  -0.0000015070
        0.0000001990  -0.0000003710  -0.0000002144   0.0000000978  -0.0000006982
        0.0000012837   0.0000002025  -0.0000009104   0.0000000889   0.0000004096
        0.0000022686   0.0000023990  -0.0000011513  -0.0000029351  -0.0000026843
        0.0000002076   0.0000021428   0.0000006646  -0.0000006627   0.0000036037
       -0.0000000864   0.0000003972  -0.0000012421  -0.0000031365  -0.0000001152
        0.0000009176   0.0000051799   0.0000008910   0.0000015902  -0.0000013623
       -0.0000010419  -0.0000018140   0.0000002972   0.0000005179  -0.0000016249
       -0.0000004709   0.0000000744   0.0000014994  -0.0000000921   0.0000005854
       -0.0000034658   0.0000015771   0.0000007850   0.0000037897  -0.0000023264
        0.0000001703  -0.0000030845  -0.0000003466   0.0000002844   0.0000026445
        0.0000003169   0.0000003663   0.0000007708   0.0000003287   0.0000004915
        0.0000010034   0.0000004488   0.0000001940  -0.0000050123  -0.0000002255
        0.0000007321   0.0000078057   0.0000156040  -0.0000004064  -0.0000144974
       -0.0000095901   0.0000003879   0.0000124894  -0.0000052320   0.0000018911
       -0.0000078449  -0.0000004556  -0.0000009215   0.0000081116  -0.0000073703
       -0.0000032389  -0.0000010698   0.0000016735  -0.0000001751   0.0000006430
       -0.0000036757   0.0000005730  -0.0000336393   0.0000386991   0.0000077587
        0.0000349433   0.0000039915   0.0000017742   0.0000985447   0.0000856298
       -0.0000175336  -0.0000016150  -0.0000249511   0.0000114551   0.0000098436
        0.0000151907  -0.0000026459  -0.0000035240   0.0000060342  -0.0000043646
       -0.0000021662  -0.0000070455   0.0000022862  -0.0000040590  -0.0000024248
        0.0000005821  -0.0000025511  -0.0000051774   0.0000015158  -0.0000039018
       -0.0000041232  -0.0000013383   0.0000143746   0.0000058892   0.0000082494
       -0.0000090429  -0.0000097864  -0.0000108081   0.0001042845  -0.0000098888
        0.0000211268   0.0004177628  -0.0004305810   0.0005991434   0.0011781744
       -0.0542116679  -0.2699891552   0.0089400460  -0.0248647954  -0.0467412991
       -0.0816108984   0.0006154690  -0.0757708878  -0.0022058646  -0.0002727391
       -0.0000381158  -0.0002133571  -0.0002968013   0.0001673545  -0.0009229146
       -0.0004282740   0.0007181924   0.0009107132  -0.0007094110  -0.0067136384
        0.0008785692   0.0005926503   0.0006827791   0.0002029396   0.0012264772
        0.0005574869   0.0002991017  -0.0006073936   0.0004760374   0.0000038723
        0.0000013831  -0.0000101281  -0.0000018867  -0.0000070943  -0.0000053799
        0.0000032973  -0.0000025029  -0.0000017476  -0.0000010215  -0.0000028081
        0.0000021438  -0.0000001478   0.0000004299   0.0000004442  -0.0000011489
       -0.0000005510   0.0000001608   0.0000007445  -0.0000007056  -0.0000010052
        0.0000001231  -0.0000005879  -0.0000006964   0.0000013675  -0.0000006051
       -0.0000003861  -0.0000002373  -0.0000005957   0.0000003015  -0.0000004098
       -0.0000003977  -0.0000002010   0.0000003673   0.0000001688   0.0000004509
        0.0000003122  -0.0000003512   0.0000007044  -0.0000000743  -0.0000000323
        0.0000007449   0.0000002816  -0.0000009889   0.0000006089  -0.0000003802
        0.0000002841   0.0000002688  -0.0000002035   0.0000000842   0.0000014712
       -0.0000006316  -0.0000018069  -0.0000004702   0.0000052606   0.0000069240
       -0.0000067640  -0.0000056923   0.0000090248  -0.0000014661  -0.0000061804
       -0.0000010772  -0.0000045021   0.0000005825  -0.0000006843  -0.0000013352
       -0.0000020463  -0.0000011499   0.0000002302   0.0000009071   0.0000014812
       -0.0000017601   0.0000015881   0.0000017595   0.0000012291   0.0000001809
        0.0000021204  -0.0000002425  -0.0000017555  -0.0000017448  -0.0000001615
        0.0000013232   0.0000015646   0.0000005162   0.0000007856   0.0000016009
       -0.0000010084  -0.0000014426  -0.0000005053  -0.0000003053  -0.0000009807
       -0.0000017527   0.0000025484   0.0000017184   0.0000018799   0.0000012500
       -0.0000484100  -0.0000448584  -0.0000242275  -0.0000880587   0.0000038511
       -0.0000290496
       -0.1046549496  -0.0458404929   0.0363468833   0.4674480242   0.0085117178
       -0.0077323569  -0.1626911350   0.0081676723  -0.0399257378  -0.0604043524
       -0.0016568833  -0.0005631866  -0.0731140516   0.0332858454   0.0067817509
       -0.0089777663   0.0216090250   0.0035521511  -0.0008284658   0.0007622940
        0.0051981982  -0.0006785445   0.0002676459   0.0007341806  -0.0005891075
       -0.0001141192  -0.0006952438   0.0001214348   0.0001053171  -0.0000834243
       -0.0000640606   0.0000395653   0.0000268056   0.0000419995  -0.0000108522
        0.0000151364  -0.0000186781  -0.0000235944  -0.0000275668   0.0000446349
       -0.0000034215  -0.0000016884  -0.0000280988   0.0000112870  -0.0000074280
        0.0000257243   0.0000017504   0.0000026980  -0.0000029346  -0.0000195336
       -0.0000002140  -0.0000057467   0.0000187381   0.0000008980   0.0000026375
       -0.0000037457  -0.0000005537  -0.0000055282   0.0000083433  -0.0000025285
       -0.0000010619   0.0000017038  -0.0000021330  -0.0000008054   0.0000046028
       -0.0000004222   0.0000000837   0.0000000162  -0.0000005562  -0.0000041703
       -0.0000004107  -0.0000001041   0.0000010480   0.0000019645  -0.0000009165
        0.0000025017  -0.0000018345  -0.0000011846  -0.0000017438  -0.0000016293
       -0.0000006281   0.0000020011  -0.0000001848  -0.0000004514   0.0000007325
       -0.0000092728  -0.0000002176  -0.0000012542   0.0000068088  -0.0000009173
        0.0000013028   0.0000008696   0.0000005582  -0.0000017558  -0.0000016481
        0.0000001369  -0.0000039022  -0.0000026180   0.0000010969  -0.0000000180
       -0.0000009925   0.0000006062  -0.0000007314   0.0000009245   0.0000012478
        0.0000011266  -0.0000009261   0.0000009104  -0.0000012085  -0.0000017828
        0.0000012517  -0.0000006318   0.0000009143   0.0000020052   0.0000003559
       -0.0000002270   0.0000015701   0.0000011690   0.0000023417   0.0000005447
       -0.0000006956   0.0000010569   0.0000006944   0.0000072160  -0.0000048534
        0.0000004004  -0.0000145364  -0.0000191123   0.0000029993   0.0000155452
        0.0000081382  -0.0000013427  -0.0000125988   0.0000009894   0.0000010878
        0.0000044564   0.0000070874  -0.0000008164  -0.0000060366  -0.0000028003
        0.0000047535   0.0000045247   0.0000038313   0.0000021251  -0.0000042053
       -0.0000029835  -0.0000022760  -0.0000141701   0.0000193702   0.0000320143
       -0.0000077711  -0.0000275163   0.0000256631   0.0001057283  -0.0000124310
       -0.0000302597   0.0000506072  -0.0000310977   0.0000658691  -0.0000034702
        0.0000014353   0.0000046306  -0.0000126973   0.0000208656  -0.0000188854
       -0.0000087134  -0.0000188584   0.0000002320  -0.0000060206   0.0000005694
        0.0000025869  -0.0000035064  -0.0000063265   0.0000028763  -0.0000071447
       -0.0000065785  -0.0000087690   0.0000313256   0.0000147272   0.0000245306
       -0.0000173589   0.0000033804  -0.0000229032   0.0010404018  -0.0027477135
        0.0039129286   0.0055060859  -0.0089997287  -0.0030373844  -0.0013874789
       -0.0008461831   0.0027266306   0.0051151306   0.0051181273  -0.0044280270
       -0.0211508679  -0.0188013641   0.0127330887  -0.0217193355  -0.0018214573
       -0.0049760665  -0.0142419553   0.0046683120  -0.0046588476  -0.0028280343
       -0.0004293385  -0.0038988669  -0.0016403916   0.0036645891   0.0179286498
       -0.0026406277  -0.0076465206  -0.0267980138  -0.0002226620   0.0035674053
        0.0087032576  -0.0004035622  -0.0002617695  -0.0012445919  -0.0003734878
        0.0009481347   0.0000800566  -0.0000005691  -0.0000151713  -0.0000120206
       -0.0000018343   0.0000040023   0.0000001761   0.0000025864  -0.0000039735
        0.0000005923   0.0000017462   0.0000011812  -0.0000004311  -0.0000005172
       -0.0000039680  -0.0000006269   0.0000024879  -0.0000007232  -0.0000023901
        0.0000005759  -0.0000014363  -0.0000019885   0.0000012895  -0.0000014914
       -0.0000007843   0.0000009262  -0.0000013188  -0.0000007157  -0.0000001223
       -0.0000004243   0.0000002795  -0.0000004685  -0.0000005526   0.0000008255
       -0.0000003145  -0.0000016121   0.0000017318  -0.0000008264  -0.0000010382
        0.0000014116  -0.0000004529  -0.0000002644   0.0000014213  -0.0000007897
        0.0000006222   0.0000009514  -0.0000019643   0.0000017345  -0.0000003780
       -0.0000085638  -0.0000041394  -0.0000063244   0.0000172769   0.0000194426
        0.0000059859   0.0000034534   0.0000340204  -0.0000278265  -0.0000141911
       -0.0000061929  -0.0000116072   0.0000010261   0.0000020169   0.0000024352
       -0.0000008210   0.0000007871  -0.0000023157  -0.0000003965   0.0000051633
       -0.0000022365   0.0000022709   0.0000025852   0.0000032120  -0.0000008220
        0.0000041857  -0.0000006522  -0.0000012873   0.0000024160   0.0000002875
        0.0000019742   0.0000020597   0.0000010566  -0.0000034558   0.0000062346
        0.0000014317   0.0000000147   0.0000035343  -0.0000015398  -0.0000008117
        0.0000035220   0.0000000874  -0.0000038845   0.0000085983   0.0000012709
        0.0001521603  -0.0009040457   0.0001610246  -0.0009134626  -0.0006323194
       -0.0008615385
       -0.0441993871  -0.1135946522   0.0388850513   0.0085117178   0.4888214827
       -0.0108809502   0.0014478297  -0.0616357058   0.0019497740  -0.0006993851
       -0.0703939139  -0.0270002830   0.0372317471  -0.1687845190  -0.0070160738
        0.0098374675  -0.0097315504  -0.0049337588   0.0008128053   0.0015680792
        0.0004054384   0.0005843206  -0.0015509783  -0.0001226588  -0.0006773472
        0.0010072396  -0.0001144231   0.0007046213  -0.0001386913  -0.0001236493
       -0.0001594655   0.0001301750  -0.0000020834   0.0001882117   0.0000541732
        0.0000360221  -0.0002482803   0.0000690691  -0.0000175189   0.0002164103
       -0.0000005159   0.0000134541  -0.0001534319  -0.0000526367  -0.0000039942
        0.0001058536  -0.0000246567  -0.0000193373  -0.0000241666  -0.0000556910
        0.0000034941  -0.0000200218   0.0000681142  -0.0000044167   0.0000024583
       -0.0000082549   0.0000040160  -0.0000128382   0.0000102619   0.0000015108
       -0.0000141426   0.0000068612  -0.0000000837   0.0000128440   0.0000139135
        0.0000011070   0.0000017288   0.0000060279   0.0000019994  -0.0000164557
       -0.0000014301   0.0000044996   0.0000067864   0.0000142424   0.0000033720
       -0.0000129873  -0.0000101343   0.0000036061   0.0000061780   0.0000107852
        0.0000001827  -0.0000060407  -0.0000047670   0.0000030724  -0.0000138601
       -0.0000247959   0.0000042229   0.0000023873   0.0000228672  -0.0000007234
        0.0000041276  -0.0000148873  -0.0000001237  -0.0000197629   0.0000037528
       -0.0000012427   0.0000094127  -0.0000012427  -0.0000009460   0.0000091666
        0.0000009411  -0.0000022730  -0.0000113059   0.0000041737  -0.0000027489
        0.0000148218   0.0000010334  -0.0000013483  -0.0000136576   0.0000063366
       -0.0000025140   0.0000118855  -0.0000002156  -0.0000047089  -0.0000090240
       -0.0000000328  -0.0000024915   0.0000044156  -0.0000066661   0.0000011841
       -0.0000112982   0.0000045258  -0.0000022954   0.0000245441  -0.0000059287
       -0.0000013040  -0.0000434563  -0.0000964596   0.0000139793   0.0000940285
        0.0000414215  -0.0000104333  -0.0000806020   0.0000314733  -0.0000003659
        0.0000519677   0.0000012161   0.0000024945  -0.0000512440   0.0000341849
        0.0000183203   0.0000118814  -0.0000121921   0.0000062462  -0.0000109364
        0.0000188163  -0.0000081655   0.0001534950  -0.0001439672   0.0000071192
       -0.0002112898  -0.0000258301   0.0000067002  -0.0002533163  -0.0002649424
        0.0001161801   0.0000337405   0.0000554747  -0.0000031202  -0.0000418121
       -0.0000725988   0.0000198068   0.0000027991  -0.0000127250   0.0000063808
        0.0000207161   0.0000327017  -0.0000064129   0.0000231156  -0.0000060293
       -0.0000054274   0.0000154234   0.0000169636  -0.0000087821   0.0000158710
        0.0000068944   0.0000105990  -0.0000299288  -0.0000132404  -0.0000278530
       -0.0000071347  -0.0000127796   0.0000473647  -0.0024787034  -0.0003243168
        0.0026560874   0.0018982225  -0.0297388637   0.0034229086   0.0030055881
        0.0039045753  -0.0013455283  -0.0149794146  -0.0249906731   0.0144779896
       -0.0025850413  -0.0005994271  -0.0002972972  -0.0166900570  -0.0002465858
       -0.0055735220   0.0269891812  -0.0051487988   0.0104515035  -0.0075112980
        0.0004175898  -0.0034287021  -0.0005919904   0.0037849140   0.0162656029
       -0.0009210892   0.0002295963   0.0005239794   0.0014447019  -0.0123459429
       -0.0282235442  -0.0014702319   0.0000438570   0.0006495084  -0.0001906447
       -0.0000390252   0.0001620845   0.0000009482   0.0000130553   0.0000237718
       -0.0000082643  -0.0000028917   0.0000109699   0.0000037160   0.0000095991
        0.0000005291   0.0000025571   0.0000051048   0.0000027956  -0.0000013913
       -0.0000061351   0.0000049639   0.0000007045   0.0000010449   0.0000035020
       -0.0000047487  -0.0000031785   0.0000029806  -0.0000044032   0.0000030799
        0.0000013223   0.0000005997   0.0000024805  -0.0000016176   0.0000012644
        0.0000022161   0.0000001481  -0.0000030248   0.0000003798  -0.0000025937
       -0.0000010155   0.0000053743  -0.0000038473   0.0000016492   0.0000018534
       -0.0000044881  -0.0000003239   0.0000039682  -0.0000037520   0.0000032983
       -0.0000034075  -0.0000019836   0.0000006066  -0.0000006598  -0.0000044741
       -0.0000284989   0.0000017918  -0.0000193850   0.0000324087  -0.0000493798
       -0.0000199230  -0.0000033680  -0.0000470096   0.0000160821   0.0000080234
        0.0000018609   0.0000188818  -0.0000015278  -0.0000025353   0.0000029543
        0.0000115828   0.0000034422   0.0000004147  -0.0000084026  -0.0000090493
       -0.0000004252  -0.0000064232  -0.0000110579  -0.0000081354  -0.0000071244
       -0.0000090606  -0.0000025447   0.0000097958   0.0000058551   0.0000024545
       -0.0000065793  -0.0000122767  -0.0000082424  -0.0000052399  -0.0000140204
        0.0000036857   0.0000121121   0.0000022134   0.0000039430  -0.0000071387
        0.0000045261  -0.0000159055  -0.0000225533  -0.0000076357  -0.0000185335
        0.0003007436  -0.0007337941  -0.0000336158   0.0006885936   0.0005367761
       -0.0009356898
        0.0360810338   0.0400132314  -0.0944911798  -0.0077323569  -0.0108809502
        0.4652468887  -0.0418613239   0.0050890804  -0.0772875971   0.0022796883
       -0.0340766751  -0.1707182263   0.0063698759  -0.0041951123  -0.0589415526
        0.0053376778  -0.0129949227  -0.0001097590   0.0052331668   0.0000274334
        0.0031388106   0.0006430878   0.0001067196  -0.0000598747  -0.0007088065
       -0.0003139711  -0.0009168073   0.0000400235   0.0001615963  -0.0000688348
       -0.0000388495   0.0000101753   0.0000201612   0.0000338087   0.0000001174
        0.0000440025   0.0000362725  -0.0000709768  -0.0000456527  -0.0000594178
        0.0000015118  -0.0000143566   0.0000405475   0.0000076703  -0.0000009207
       -0.0000340450   0.0000050598   0.0000071481   0.0000101681   0.0000154400
       -0.0000113872   0.0000036829  -0.0000203825   0.0000044600  -0.0000001163
        0.0000032660  -0.0000027397   0.0000008186  -0.0000070212   0.0000000047
        0.0000045661  -0.0000002426  -0.0000011319  -0.0000044808  -0.0000041429
        0.0000015855  -0.0000003592  -0.0000000828   0.0000002549   0.0000029803
        0.0000014895  -0.0000009098  -0.0000033500  -0.0000027830   0.0000007855
        0.0000026428   0.0000052615  -0.0000021996  -0.0000040048  -0.0000035712
        0.0000010333   0.0000016055   0.0000024130  -0.0000008859   0.0000040989
        0.0000073342  -0.0000020109  -0.0000011010  -0.0000069175   0.0000013608
       -0.0000020769   0.0000042846   0.0000012472   0.0000051209   0.0000000079
       -0.0000024458  -0.0000016057   0.0000004429   0.0000012438  -0.0000016112
        0.0000000925   0.0000000544   0.0000028354  -0.0000008159   0.0000000011
       -0.0000059076   0.0000020440   0.0000005148   0.0000060949  -0.0000019007
       -0.0000008851  -0.0000045495   0.0000002438   0.0000002254   0.0000035646
        0.0000013340  -0.0000002455   0.0000006773   0.0000005501  -0.0000002753
        0.0000008494   0.0000015774  -0.0000002524  -0.0000078337   0.0000016891
        0.0000001967   0.0000131570   0.0000283164  -0.0000000475  -0.0000220951
       -0.0000141599  -0.0000023528   0.0000194320  -0.0000068710   0.0000038609
       -0.0000081330  -0.0000035211  -0.0000013579   0.0000109003  -0.0000045114
       -0.0000026667  -0.0000034509   0.0000049346   0.0000030430   0.0000017091
       -0.0000064423  -0.0000042947  -0.0000808225   0.0000398189   0.0000243775
        0.0000723143  -0.0000003077   0.0000963433   0.0002236633   0.0000345983
       -0.0001186554  -0.0000425606  -0.0000074168   0.0000703949  -0.0000245676
       -0.0000221031   0.0000232490  -0.0000247014   0.0000182248  -0.0000293591
        0.0000121943   0.0000057036   0.0000023144   0.0000030305   0.0000011954
       -0.0000039682  -0.0000022094   0.0000023060   0.0000018224   0.0000002648
       -0.0000037720   0.0000033577   0.0000335864   0.0000281563   0.0000306049
       -0.0000293239  -0.0000969987   0.0000257063   0.0037534496   0.0032291373
        0.0029101729  -0.0049208175   0.0107354326   0.0006434536   0.0169783463
        0.0183046969  -0.0197466147  -0.0011133990   0.0005612464   0.0006129220
       -0.0048334042  -0.0060597298   0.0044851527   0.0133145412  -0.0005014872
        0.0046200819  -0.0007738896   0.0010206563   0.0001823991  -0.0268971297
        0.0009289283  -0.0150887104   0.0028376225  -0.0020248295  -0.0194634041
       -0.0037361047  -0.0040502571  -0.0151162988   0.0014773531  -0.0049135022
       -0.0066506225  -0.0010457474  -0.0002406123  -0.0014936596   0.0002916395
       -0.0006517011  -0.0001751345  -0.0000031823  -0.0000080607  -0.0000077909
        0.0000015667  -0.0000055943  -0.0000073148  -0.0000034756  -0.0000002423
        0.0000046169  -0.0000008350  -0.0000012354   0.0000021189  -0.0000000031
        0.0000023481   0.0000007730  -0.0000000165  -0.0000007581   0.0000005144