101
 energy: -152.450437846679 gnorm: 0.000131239047 xtb: 6.7.1 (edcfbbe)
C           -5.86854822769030       -6.72728232522173       -1.10435411829044
C           -6.94563029656451       -5.84239425458699       -0.46096383634371
C           -8.20027574708210       -5.90544794919531       -1.33609638101421
C           -7.30415377775666       -6.38802853348450        0.92864968951511
C           -6.40413656008969       -4.42954517525191       -0.31481260607627
C           -6.99339122292260       -3.32304452279662       -0.91515490793007
C           -6.46997748413066       -2.05288231308848       -0.76309842766263
C           -5.33230793685435       -1.84273904082836        0.00944638102843
N           -4.80305929851986       -0.55737947786730        0.17936705482158
C           -3.42976982633041       -0.35362122672049        0.20838490338017
C           -2.56461228634019       -1.13470396754040       -0.56189253507492
C           -1.21368610896674       -0.86440853112229       -0.58405068677228
C           -0.68343194229728        0.19812231246689        0.14522915111926
C            0.73274102264446        0.55979913903677        0.02323125868579
C            1.71206011214920       -0.39495950148456        0.13247540627413
C            3.07369290485559       -0.04750296026524        0.05145343484874
N            4.01599205810033       -0.99143588075358        0.16894026528171
C            5.28052239446553       -0.61450993940853        0.10383892218406
C            6.31489120954073       -1.61759568122438        0.22753171223041
C            5.94751186163476       -2.95593718264384        0.40710648017127
C            6.89697537633553       -3.93898417027301        0.52719628799001
C            8.25078633278395       -3.58452773635024        0.46672643279108
C            9.24542354531743       -4.58290367586360        0.58747480003327
N           10.05061444422371       -5.39272903048352        0.68586128934158
C            8.62936184826496       -2.26085382859181        0.28943399287164
C            7.67472470145438       -1.24893473895969        0.16680073163688
C            8.04046190321052        0.14962065355691       -0.01847010756973
C            9.36997941033794        0.57253095471818       -0.07820338165463
C            9.68802309812741        1.91209097236056       -0.25548772962192
C           11.04587185832432        2.30421467946238       -0.30906313724286
N           12.14598759468928        2.62323689443116       -0.35196314516349
C            8.67904526695710        2.87575306451878       -0.38045918992600
C            7.36811124880910        2.47553114733885       -0.32321685729913
C            7.03288021055497        1.12866349318473       -0.14318926368693
C            5.63857094381769        0.75186179115283       -0.08413717241174
N            4.71726322679646        1.69234641654614       -0.20492347209935
C            3.43380684015586        1.32229483056124       -0.14176936149224
C            2.41427651480065        2.28618552486065       -0.27611922252804
C            1.09421815039288        1.92433221483272       -0.20927485827799
C            0.05074117742190        2.93794679093323       -0.42284936582404
C            0.06190818869397        4.14974271842592        0.26268338874280
C           -0.96006336995796        5.05834245543373        0.04655720131206
C           -1.96279795340431        4.72080890400099       -0.84886655554304
N           -1.96620375924185        3.58994352825865       -1.53542428684582
C           -0.98812036227590        2.73132478911169       -1.33498908470416
C           -1.54036012969752        0.93399834449386        0.96504619311910
C           -2.88715630914739        0.66040282488232        1.00351234121387
C           -5.66562149316523        0.54581811154216        0.27238547261749
C           -5.34208397432726        1.75724479725976       -0.33646100632540
C           -6.19589495294503        2.83490375308636       -0.23504241625410
C           -7.40142164979470        2.75693956643162        0.46005967610751
C           -8.30433888143746        3.97761861812537        0.53482616087324
C           -8.71366380985854        4.38455487188727       -0.88779805471749
C           -7.53732347366378        5.12734368386969        1.20335136174192
C           -9.57869398784277        3.72088184018313        1.34356530454805
C           -7.71526758523332        1.54096226517329        1.05542319844688
C           -6.86526779471433        0.45391631366141        0.96989242373607
C           -4.73545107075122       -2.94330388766973        0.62135983177805
C           -5.26343132560206       -4.20594994097138        0.45386521625484
H           -5.59543478536409       -6.33557062225909       -2.08208654541114
H           -6.24273150591461       -7.74098020125496       -1.23094446423741
H           -4.97219319293837       -6.76977097469545       -0.49189516640400
H           -8.54224629886771       -6.93617489700372       -1.40500729450160
H           -9.00590001296259       -5.31271653570939       -0.90899165740951
H           -7.99295965471417       -5.55296874285077       -2.34382844949833
H           -7.71086045403959       -7.39346075998499        0.84302717970289
H           -6.43274775837056       -6.42797494335965        1.57622545267052
H           -8.05079690565796       -5.75264349260297        1.40061041701946
H           -7.87518953977713       -3.43362339277309       -1.52465920699452
H           -6.94485848987005       -1.21318519970983       -1.24924872772070
H           -2.96650975669926       -1.93396364931923       -1.16658291483093
H           -0.56218266665713       -1.44974265908725       -1.21663727659831
H            1.45951283862617       -1.42914975535558        0.30984099945881
H            4.89454673249702       -3.18567729218304        0.44734376916340
H            6.61911354743745       -4.97286021058891        0.66590780689044
H            9.68414881937340       -2.03932662126090        0.24895106198241
H           10.18272025075135       -0.13064625538959        0.01286005969149
H            8.94292928519876        3.91336637340550       -0.51867034935994
H            6.56120353856391        3.18524871844806       -0.41466951577042
H            2.70396103000586        3.30957025389257       -0.46187221168505
H            0.84929897472376        4.36074200278298        0.97289628480349
H           -0.98307064703561        6.00164385984529        0.56991144010781
H           -2.79783514476499        5.38315765826505       -1.03406181386681
H           -1.02300363770305        1.83289734475052       -1.93716941535169
H           -1.13899309400783        1.71621743753050        1.59271573048712
H           -3.53885681615927        1.23854457377448        1.64131624626765
H           -4.41999068209642        1.85432725995143       -0.89111393500218
H           -5.90842702799654        3.75367406268765       -0.72291929202776
H           -9.24285910235336        3.56784765670787       -1.37439687963111
H           -7.84697197337461        4.63627577790937       -1.49247722676209
H           -9.37084781310411        5.25106704720977       -0.85562501776054
H           -7.22548754142938        4.83864646104923        2.20511428466731
H           -8.17251892831902        6.00737395787827        1.27976556082576
H           -6.65119844115844        5.39535373135521        0.63485149719988
H           -9.34308905224843        3.45000886009159        2.37020611908646
H          -10.17533741921244        2.93069647006977        0.89379004795708
H          -10.18256328520176        4.62588067637396        1.36533564682486
H           -8.63231772385815        1.41996112852859        1.60846116630344
H           -7.13167603392584       -0.47679786511306        1.44972197770369
H           -3.85700822599538       -2.80041527390787        1.23406332547092
H           -4.77240114487870       -5.03183843041444        0.94611530369173
