102
 energy: -163.470936225359 gnorm: 0.000044246339 xtb: 6.7.1 (edcfbbe)
C            6.62834057876232       -2.71472098531695       -2.06408847312989
C            7.55767790472215       -2.35869481973543       -0.94018765680222
C            8.77568641969220       -3.02092789935427       -0.84404518732405
C            9.68302591932138       -2.72326046741067        0.15529729308839
C            9.37886162283796       -1.74452119595738        1.08566832019612
C            8.17355129184620       -1.07581346216688        1.00419598855373
C            7.25337975018327       -1.36805359728977       -0.00002256291683
C            5.98031528981806       -0.62357938675832       -0.02970507206924
C            4.77566644028055       -1.31574574898932        0.00211988813541
C            3.55000261235150       -0.66090950850413        0.02403855186611
N            2.38515217631507       -1.31390158940827        0.04758461338666
C            1.22607413466178       -0.67104489407457        0.07660757854064
C           -0.00954187639564       -1.38530227505865        0.11109012691170
C            0.01025373343816       -2.79058449125534        0.08744936692032
C           -1.14952317075129       -3.51558829889367        0.09359391586924
C           -2.38069832022076       -2.84439244198020        0.15044732676665
N           -3.58687329776763       -3.58305403317138        0.14487418997881
C           -3.87517498438678       -4.46801654532164        1.18157459563654
C           -3.05083539499506       -4.60043994960626        2.29352265401730
C           -3.36300643810385       -5.49605315994081        3.30361041037343
C           -4.50766484336291       -6.26535667105982        3.22756050380718
C           -5.35774080094811       -6.12198069081693        2.14145594702801
C           -5.05238434513725       -5.22883930865201        1.13097407034993
O           -5.95279324022432       -5.11807675400151        0.10271661572367
C           -5.67302487333742       -4.21540740307913       -0.89081844461825
C           -6.60139897323530       -4.09774996887982       -1.90908464136774
C           -6.37588828282021       -3.22737309636687       -2.96445188888891
C           -5.20784260542415       -2.49143891701073       -3.00138303087574
C           -4.27416585004290       -2.60429512016661       -1.98396205448766
C           -4.49776147975976       -3.44899180426131       -0.90196428113609
C           -2.41914093454897       -1.46714130003844        0.19676881075223
C           -1.24777279147293       -0.69982454419798        0.15923866302603
C           -1.26023553287195        0.74105067486431        0.14628607369252
C           -2.44463816423120        1.48867553947855        0.16827988196602
C           -2.42954306337037        2.86534441810589        0.09770241204827
N           -3.64820617376558        3.58307737464937        0.07669720180947
C           -4.55307338888440        3.41675260118798       -0.97060544170336
C           -4.31217224789869        2.55754931722107       -2.03738543013445
C           -5.24032083714555        2.41259181094313       -3.05575908115469
C           -6.42015000884597        3.13019678281690       -3.03509998691287
C           -6.66338719918073        4.01441686877092       -1.99531578802655
C           -5.74062000879236        4.16412446427271       -0.97614192675936
O           -6.03840800098971        5.07851430969998        0.00121754999766
C           -5.14306031733843        5.22181727619677        1.02979782832038
C           -5.46582990593455        6.12737649231609        2.02370030555176
C           -4.62139234923011        6.30341866886327        3.10937561893077
C           -3.46459592805352        5.55427849145226        3.20190062005743
C           -3.13494995899190        4.64640203011493        2.20849235099223
C           -3.95381700753024        4.48119338294308        1.09685912945974
C           -1.20989437162339        3.55647415745930        0.03115315487140
C           -0.03786454412507        2.85157904612339        0.03931639719817
C           -0.03376091439877        1.44666656420258        0.08749719540504
C            1.21352346131847        0.75316037740602        0.06652486160480
N            2.36213874652019        1.41529716116836        0.03434840012650
C            3.53700822437531        0.78261331498127        0.02030227049766
C            4.75371746327853        1.45559938157843        0.00081277111747
C            5.96639881870957        0.78044218807683       -0.02747681939804
C            7.21232581368603        1.57615326608856       -0.01915357030124
C            7.46342344682864        2.38259101869380        1.08831622254995
C            8.61650583006571        3.13776631797331        1.17285209944810
C            9.53255422332299        3.10307384722280        0.13529795247877
C            9.27396606411641        2.33025195117017       -0.98091546285610
C            8.11865530385038        1.56507451021311       -1.08098667586077
C            7.86463234024668        0.77345389709756       -2.32756086925586
H            7.19706316441078       -2.94817555209003       -2.96260092493889
H            6.04339360844922       -3.59781957994571       -1.80560528910798
H            5.93823620791278       -1.90467785880806       -2.28394429556298
H            9.01540181152690       -3.78198808913466       -1.57399783165118
H           10.62377521999730       -3.25156655640894        0.20641098008832
H           10.07802257337792       -1.50275796799286        1.87234352432427
H            7.92910162154386       -0.32135976565419        1.73680612524667
H            4.77234182406540       -2.39385433853036        0.04101292305702
H            0.97181881261323       -3.27858531000746        0.04620915699955
H           -1.13333425494404       -4.59414492354152        0.04960140772145
H           -2.16206115146455       -3.99437261873257        2.37087711808710
H           -2.70269338073581       -5.58364310907355        4.15252246729803
H           -4.75104435138980       -6.96713908578630        4.00941083419686
H           -6.26876897941153       -6.69298898504805        2.06060968579427
H           -7.49307006228454       -4.70183646388292       -1.85848762515069
H           -7.10700800325556       -3.13887077514942       -3.75222333566975
H           -5.00996767522694       -1.82341367713866       -3.82534613348764
H           -3.35850356075935       -2.03698575989927       -2.03583388533786
H           -3.38507843478369       -0.99052538144801        0.25494631455400
H           -3.40245868698601        0.99671418828929        0.23279228573731
H           -3.38734488572270        2.00427273584029       -2.07664000131171
H           -5.02884321760248        1.73412718382528       -3.86772610050786
H           -7.14690505182224        3.01675511555336       -3.82371422194650
H           -7.56481627488192        4.60482229629030       -1.95784587240958
H           -6.38571070228555        6.68206382012336        1.93043210393878
H           -4.87840533556877        7.01467262680586        3.87819528670728
H           -2.80831387520525        5.66745448688999        4.05090706965652
H           -2.23664231414521        4.05637371595015        2.29863812529296
H           -1.21206888604082        4.63420558666272       -0.03179428648306
H            0.91524716031021        3.35520890411729       -0.00959709325406
H            4.73920400702151        2.53523410965813       -0.00363815515823
H            6.74497834448805        2.39749855442636        1.89642022773504
H            8.80053102676695        3.75007868698182        2.04349474714873
H           10.44037199735753        3.68574764874300        0.19146128443518
H            9.97942014071156        2.32071164538674       -1.80008464283879
H            8.36341707154378       -0.19370880863709       -2.26725308354983
H            8.25569429568503        1.30062044501988       -3.19568850970804
H            6.80061165467907        0.60027569905557       -2.46998813163423
