 Entering Gaussian System
 *********************************************
 Gaussian 98:
 frequency output generated by the xtb code
 *********************************************
                         Standard orientation:
 --------------------------------------------------------------------
  Center     Atomic     Atomic              Coordinates (Angstroms)
  Number     Number      Type              X           Y           Z
 --------------------------------------------------------------------
    1          7             0       -9.533580   -6.992417    0.113977
    2          6             0       -8.584614   -6.341161    0.115864
    3          6             0       -7.424087   -5.548156    0.118149
    4          6             0       -6.263579   -5.994126   -0.527458
    5          6             0       -5.128969   -5.216499   -0.516840
    6          6             0       -5.109332   -3.971323    0.125022
    7          6             0       -3.898591   -3.153033    0.128295
    8          6             0       -2.634748   -3.749169    0.216708
    9          6             0       -1.505311   -2.970230    0.213047
   10          6             0       -1.597760   -1.574527    0.116346
   11          6             0       -2.861025   -0.939031    0.043750
   12          6             0       -3.984814   -1.760147    0.045129
   13          6             0       -2.945220    0.521524   -0.022380
   14          6             0       -4.162585    1.172821   -0.013330
   15          6             0       -4.300146    2.574055   -0.041605
   16          6             0       -5.600276    3.198278   -0.034464
   17          6             0       -5.789228    4.493538    0.492192
   18          6             0       -7.022923    5.089485    0.509977
   19          6             0       -8.142693    4.420355   -0.014954
   20          6             0       -9.403301    5.026273   -0.003325
   21          7             0      -10.442173    5.528370    0.006766
   22          6             0       -7.972193    3.132393   -0.552292
   23          6             0       -6.735771    2.541714   -0.554904
   24          6             0       -3.111130    3.337696   -0.066712
   25          6             0       -1.890600    2.736146   -0.090137
   26          6             0       -1.748860    1.322378   -0.075783
   27          6             0       -0.522729    0.658094   -0.076934
   28          6             0       -0.437248   -0.763794    0.068366
   29          7             0        0.836512   -1.151902    0.133386
   30          6             0        1.583564   -0.058022    0.005928
   31          6             0        3.002402   -0.127548   -0.023740
   32          6             0        3.605083   -1.325579    0.430756
   33          6             0        4.961742   -1.484571    0.440223
   34          6             0        5.808144   -0.451590   -0.008424
   35          7             0        7.180644   -0.595703    0.019243
   36          6             0        7.767196   -1.860809   -0.134917
   37          6             0        8.875621   -2.218466    0.633802
   38          6             0        9.456295   -3.461502    0.472528
   39          6             0        8.943418   -4.360583   -0.450200
   40          6             0        7.842814   -4.007903   -1.216312
   41          6             0        7.255454   -2.766705   -1.065367
   42          6             0        8.011386    0.519050    0.199126
   43          6             0        9.214786    0.618204   -0.501338
   44          6             0       10.034922    1.714179   -0.315968
   45          6             0        9.670478    2.722445    0.563429
   46          6             0        8.476872    2.626523    1.262569
   47          6             0        7.650122    1.533981    1.087331
   48          6             0        5.216701    0.728029   -0.494838
   49          6             0        3.856385    0.886171   -0.508879
   50          7             0        0.785698    1.084977   -0.124520
   51          6             0        1.255239    2.412926   -0.198591
   52          6             0        1.895513    2.979577    0.899555
   53          6             0        2.374911    4.274701    0.819572
   54          6             0        2.217008    5.006610   -0.346595
   55          6             0        1.576138    4.442341   -1.438902
   56          6             0        1.095440    3.147140   -1.371569
   57          6             0       -6.277760   -3.535623    0.763571
   58          6             0       -7.417078   -4.306977    0.767178
   59          1             0       -6.272178   -6.948798   -1.033608
   60          1             0       -4.247298   -5.561004   -1.036037
   61          1             0       -2.551977   -4.821100    0.313897
   62          1             0       -0.521022   -3.407219    0.280725
   63          1             0       -4.968527   -1.330793   -0.051324
   64          1             0       -5.067927    0.594534    0.063422
   65          1             0       -4.952027    5.017683    0.927632
   66          1             0       -7.151127    6.076481    0.932280
   67          1             0       -8.827772    2.618938   -0.968769
   68          1             0       -6.628187    1.565559   -1.003544
   69          1             0       -3.167896    4.414922   -0.101881
   70          1             0       -1.003366    3.347331   -0.111574
   71          1             0        2.956184   -2.106205    0.793693
   72          1             0        5.396074   -2.395684    0.822871
   73          1             0        9.266736   -1.522232    1.360669
   74          1             0       10.309853   -3.732827    1.075445
   75          1             0        9.399703   -5.331017   -0.572438
   76          1             0        7.444118   -4.700460   -1.942359
   77          1             0        6.408728   -2.484174   -1.673258
   78          1             0        9.492756   -0.160756   -1.195510
   79          1             0       10.960760    1.785313   -0.866845
   80          1             0       10.313667    3.577616    0.704279
   81          1             0        8.192049    3.403696    1.955846
   82          1             0        6.729053    1.450441    1.644865
   83          1             0        5.847736    1.507939   -0.893964
   84          1             0        3.443531    1.784358   -0.936142
   85          1             0        2.012137    2.399715    1.803328
   86          1             0        2.868805    4.714228    1.672915
   87          1             0        2.591830    6.017060   -0.405237
   88          1             0        1.451517    5.010176   -2.348657
   89          1             0        0.595160    2.696720   -2.216724
   90          1             0       -6.279079   -2.591742    1.288239
   91          1             0       -8.310550   -3.966729    1.271112
 --------------------------------------------------------------------
     1 basis functions        1 primitive gaussians
     1 alpha electrons        1 beta electrons
 
 Harmonic frequencies (cm**-1), IR intensities (km*mol⁻¹),
 Raman scattering activities (A**4/amu), Raman depolarization ratios,
 reduced masses (AMU), force constants (mDyne/A) and normal coordinates:
                      1                      2                      3
                        a                      a                      a 
 Frequencies --     7.3198                 8.9111                14.1489
 Red. masses --    11.3466                11.5845                11.2101
 Frc consts  --     0.0000                 0.0000                 0.0000
 IR Inten    --     4.6055                 0.8051                 4.5834
 Raman Activ --     0.0000                 0.0000                 0.0000
 Depolar     --     0.0000                 0.0000                 0.0000
 Atom AN      X      Y      Z        X      Y      Z        X      Y      Z
   1   7    -0.02   0.01  -0.26     0.03  -0.01  -0.15     0.11  -0.07  -0.15
   2   6    -0.01   0.01  -0.20     0.02  -0.01  -0.10     0.09  -0.05  -0.10
   3   6    -0.01   0.00  -0.15     0.02  -0.01  -0.06     0.08  -0.03  -0.06
   4   6     0.01   0.00  -0.10     0.04   0.00  -0.04     0.11  -0.02  -0.02
   5   6     0.02  -0.00  -0.06     0.04   0.00  -0.00     0.10  -0.00   0.02
   6   6    -0.00  -0.00  -0.05     0.01  -0.00   0.01     0.06   0.00   0.02
   7   6    -0.00  -0.00  -0.01     0.01   0.00   0.04     0.04   0.02   0.05
   8   6    -0.01  -0.00   0.02     0.01   0.01   0.07     0.05   0.04   0.10
   9   6    -0.01  -0.00   0.04     0.01   0.01   0.09     0.04   0.05   0.12
  10   6    -0.00  -0.00   0.04     0.00   0.01   0.09     0.02   0.05   0.09
  11   6    -0.00  -0.00   0.02     0.00   0.01   0.07     0.02   0.03   0.06
  12   6    -0.00  -0.00  -0.01     0.01   0.00   0.05     0.03   0.02   0.04
  13   6    -0.00  -0.00   0.02    -0.00   0.01   0.07     0.00   0.03   0.03
  14   6     0.00  -0.00   0.05    -0.01   0.00   0.03    -0.00   0.02   0.03
  15   6     0.00  -0.00   0.05    -0.01   0.00   0.02    -0.02   0.01  -0.00
  16   6     0.00   0.00   0.08    -0.01  -0.00  -0.03    -0.03  -0.00   0.01
  17   6     0.02   0.01   0.08    -0.05  -0.01  -0.04    -0.03   0.01  -0.02
  18   6     0.02   0.01   0.10    -0.05  -0.01  -0.10    -0.04  -0.01  -0.01
  19   6     0.01   0.01   0.14    -0.02  -0.02  -0.15    -0.04  -0.03   0.03
  20   6     0.01   0.01   0.17    -0.03  -0.03  -0.21    -0.05  -0.05   0.04
  21   7     0.01   0.02   0.20    -0.03  -0.03  -0.28    -0.06  -0.07   0.06
  22   6    -0.01   0.00   0.14     0.01  -0.02  -0.14    -0.04  -0.05   0.06
  23   6    -0.01   0.00   0.11     0.01  -0.01  -0.09    -0.03  -0.03   0.05
  24   6     0.00  -0.00   0.02    -0.01   0.01   0.08    -0.03   0.03  -0.05
  25   6     0.00  -0.01  -0.00    -0.01   0.01   0.12    -0.02   0.04  -0.04
  26   6     0.00  -0.01   0.00    -0.00   0.01   0.11    -0.01   0.04   0.00
  27   6    -0.00  -0.01   0.00    -0.00   0.02   0.12     0.00   0.05   0.03
  28   6    -0.00  -0.01   0.03     0.00   0.02   0.12     0.01   0.06   0.08
  29   7    -0.00  -0.00   0.05     0.00   0.02   0.14     0.02   0.08   0.11
  30   6    -0.00  -0.01   0.02    -0.00   0.02   0.13     0.01   0.08   0.07
  31   6    -0.00  -0.01   0.01    -0.00   0.02   0.12     0.01   0.07   0.08
  32   6     0.00   0.02   0.08     0.01   0.03   0.11    -0.01   0.06   0.07
  33   6     0.00   0.02   0.08     0.01   0.02   0.07    -0.01   0.03   0.05
  34   6    -0.00  -0.00   0.02    -0.00   0.01   0.02     0.00   0.02   0.06
  35   7    -0.00   0.01   0.02    -0.00  -0.01  -0.04    -0.00  -0.03   0.03
  36   6     0.00  -0.00   0.11    -0.02  -0.02  -0.04    -0.05  -0.04  -0.03
  37   6     0.01   0.06   0.14     0.01  -0.01  -0.09    -0.05  -0.11  -0.06
  38   6     0.01   0.05   0.22    -0.01  -0.02  -0.09    -0.10  -0.13  -0.12
  39   6     0.01  -0.02   0.29    -0.06  -0.03  -0.04    -0.16  -0.08  -0.14
  40   6     0.01  -0.08   0.26    -0.09  -0.04   0.01    -0.16  -0.01  -0.10
  41   6     0.01  -0.07   0.17    -0.08  -0.04   0.01    -0.10   0.01  -0.05
  42   6    -0.00   0.02  -0.06     0.02  -0.01  -0.11     0.04  -0.06   0.05
  43   6    -0.02  -0.02  -0.09    -0.02  -0.04  -0.19     0.04  -0.09   0.04
  44   6    -0.02  -0.01  -0.18    -0.00  -0.04  -0.27     0.08  -0.13   0.07
  45   6    -0.01   0.05  -0.24     0.06  -0.02  -0.27     0.13  -0.14   0.10
  46   6     0.01   0.09  -0.22     0.11   0.01  -0.19     0.13  -0.11   0.10
  47   6     0.01   0.08  -0.13     0.09   0.01  -0.11     0.08  -0.07   0.08
  48   6    -0.01  -0.03  -0.05    -0.01   0.01   0.04     0.02   0.04   0.09
  49   6    -0.01  -0.03  -0.05    -0.01   0.02   0.08     0.03   0.07   0.10
  50   7    -0.00  -0.01  -0.01    -0.00   0.02   0.15    -0.00   0.07   0.03
  51   6     0.00  -0.02  -0.06    -0.00   0.02   0.15    -0.03   0.07  -0.07
  52   6     0.04   0.01  -0.10     0.02   0.00   0.15    -0.05   0.17  -0.10
  53   6     0.04   0.01  -0.15     0.02   0.00   0.16    -0.09   0.18  -0.19
  54   6     0.01  -0.02  -0.17     0.01   0.02   0.18    -0.09   0.08  -0.25
  55   6    -0.03  -0.05  -0.13    -0.01   0.04   0.18    -0.06  -0.02  -0.22
  56   6    -0.04  -0.05  -0.08    -0.02   0.04   0.17    -0.03  -0.02  -0.12
  57   6    -0.03  -0.00  -0.09    -0.00  -0.01  -0.01     0.03  -0.01  -0.03
  58   6    -0.03  -0.00  -0.14     0.00  -0.02  -0.05     0.04  -0.03  -0.07
  59   1     0.01   0.00  -0.03     0.02   0.00  -0.01     0.04  -0.01  -0.00
  60   1     0.01  -0.00  -0.01     0.01   0.00   0.00     0.04   0.00   0.02
  61   1    -0.00  -0.00   0.01     0.00   0.00   0.02     0.02   0.01   0.03
  62   1    -0.00  -0.00   0.02     0.00   0.01   0.03     0.01   0.02   0.04
  63   1     0.00  -0.00  -0.01     0.00  -0.00   0.01     0.01   0.00  -0.00
  64   1     0.00  -0.00   0.02    -0.00  -0.00  -0.00     0.00   0.00   0.02
  65   1     0.01   0.00   0.02    -0.02  -0.00  -0.00    -0.01   0.01  -0.02
  66   1     0.01   0.00   0.03    -0.02  -0.00  -0.03    -0.01   0.00  -0.01
  67   1    -0.01   0.00   0.05     0.01  -0.01  -0.05    -0.01  -0.02   0.03
  68   1    -0.01  -0.00   0.03     0.01  -0.00  -0.02    -0.01  -0.01   0.02
  69   1     0.00  -0.00   0.00    -0.00   0.00   0.03    -0.01   0.01  -0.02
  70   1     0.00  -0.00  -0.01    -0.00   0.01   0.05    -0.01   0.01  -0.02
  71   1     0.00   0.01   0.04     0.00   0.01   0.04    -0.01   0.02   0.02
  72   1     0.00   0.01   0.04     0.00   0.01   0.02    -0.01   0.00   0.01
  73   1     0.00   0.03   0.02     0.02   0.00  -0.04    -0.00  -0.04  -0.01
  74   1     0.00   0.03   0.07     0.01  -0.00  -0.04    -0.03  -0.05  -0.04
  75   1     0.00  -0.01   0.10    -0.02  -0.01  -0.01    -0.06  -0.03  -0.05
  76   1     0.00  -0.04   0.09    -0.04  -0.02   0.01    -0.06   0.01  -0.03
  77   1     0.00  -0.03   0.04    -0.03  -0.01   0.01    -0.03   0.02  -0.01
  78   1    -0.01  -0.02  -0.01    -0.02  -0.02  -0.06     0.00  -0.02   0.01
  79   1    -0.01  -0.01  -0.06    -0.01  -0.02  -0.10     0.02  -0.04   0.02
  80   1    -0.00   0.02  -0.09     0.02  -0.01  -0.10     0.05  -0.05   0.04
  81   1     0.00   0.04  -0.08     0.05   0.01  -0.05     0.05  -0.03   0.04
  82   1     0.01   0.03  -0.03     0.04   0.01  -0.02     0.02  -0.02   0.02
  83   1    -0.00  -0.02  -0.03    -0.01  -0.00   0.00     0.01   0.01   0.03
  84   1    -0.00  -0.02  -0.03    -0.01   0.00   0.03     0.01   0.02   0.03
  85   1     0.02   0.01  -0.03     0.01  -0.00   0.04    -0.01   0.07  -0.02
  86   1     0.02   0.01  -0.05     0.01  -0.00   0.05    -0.03   0.07  -0.06
  87   1     0.00  -0.01  -0.06     0.00   0.01   0.06    -0.03   0.03  -0.09
  88   1    -0.02  -0.02  -0.04    -0.01   0.02   0.06    -0.02  -0.03  -0.08
  89   1    -0.02  -0.02  -0.01    -0.01   0.02   0.05    -0.00  -0.03  -0.03
  90   1    -0.01  -0.00  -0.03    -0.01  -0.00  -0.00    -0.00  -0.00  -0.01
  91   1    -0.01  -0.00  -0.05    -0.00  -0.01  -0.02     0.00  -0.01  -0.03
                      4                      5                      6
                        a                      a                      a 
 Frequencies --    17.7292                24.3513                25.6195
 Red. masses --    11.6790                11.1748                12.0887
 Frc consts  --     0.0000                 0.0000                 0.0000
 IR Inten    --     6.9769                 1.1406                 0.3150
 Raman Activ --     0.0000                 0.0000                 0.0000
 Depolar     --     0.0000                 0.0000                 0.0000
 Atom AN      X      Y      Z        X      Y      Z        X      Y      Z
   1   7     0.14  -0.14   0.27    -0.13   0.19  -0.12    -0.19   0.34  -0.06
   2   6     0.10  -0.09   0.17    -0.09   0.13  -0.06    -0.13   0.24  -0.02
   3   6     0.07  -0.05   0.07    -0.06   0.08  -0.01    -0.08   0.16   0.01
   4   6     0.05  -0.03   0.02    -0.04   0.03   0.06    -0.10   0.12  -0.00
   5   6     0.03  -0.00  -0.05    -0.02  -0.01   0.09    -0.06   0.06   0.01
   6   6     0.03   0.01  -0.08    -0.01   0.01   0.05     0.01   0.04   0.04
   7   6     0.02   0.03  -0.12     0.00  -0.01   0.06     0.03   0.01   0.01
   8   6     0.03   0.04  -0.15    -0.00  -0.01   0.10     0.02   0.01  -0.03
   9   6     0.02   0.04  -0.16     0.00  -0.01   0.08     0.03   0.00  -0.04
  10   6     0.01   0.04  -0.14     0.01  -0.01   0.03     0.03   0.01  -0.02
  11   6     0.00   0.03  -0.13     0.01  -0.01  -0.01     0.03   0.01  -0.00
  12   6     0.01   0.02  -0.12     0.01  -0.01   0.01     0.03   0.01   0.02
  13   6    -0.01   0.04  -0.11     0.01  -0.02  -0.07     0.03   0.01   0.01
  14   6    -0.01   0.03  -0.10     0.01  -0.02  -0.07     0.03  -0.00  -0.01
  15   6    -0.02   0.02  -0.07     0.00  -0.02  -0.16     0.01  -0.01   0.02
  16   6    -0.03   0.01  -0.04     0.00  -0.03  -0.11    -0.01  -0.05  -0.01
  17   6    -0.04  -0.01   0.01     0.03   0.01  -0.20    -0.09  -0.09   0.06
  18   6    -0.05  -0.03   0.06     0.02  -0.01  -0.11    -0.13  -0.16   0.06
  19   6    -0.05  -0.04   0.06    -0.02  -0.07   0.06    -0.07  -0.19  -0.02
  20   6    -0.07  -0.06   0.11    -0.03  -0.10   0.16    -0.12  -0.28   0.00
  21   7    -0.08  -0.10   0.17    -0.05  -0.14   0.27    -0.17  -0.40   0.02
  22   6    -0.04  -0.01   0.00    -0.05  -0.11   0.13     0.02  -0.13  -0.12
  23   6    -0.03   0.01  -0.04    -0.04  -0.08   0.04     0.05  -0.06  -0.12
  24   6    -0.03   0.04  -0.06     0.00  -0.02  -0.29     0.00   0.01   0.12
  25   6    -0.03   0.05  -0.07     0.00  -0.02  -0.27     0.01   0.02   0.13
  26   6    -0.01   0.05  -0.09     0.01  -0.02  -0.13     0.03   0.02   0.05
  27   6    -0.01   0.06  -0.09     0.01  -0.02  -0.06     0.03   0.02   0.02
  28   6    -0.00   0.06  -0.11     0.01  -0.01   0.01     0.03   0.01  -0.02
  29   7    -0.00   0.07  -0.10     0.01  -0.01   0.06     0.03   0.01  -0.04
  30   6    -0.00   0.07  -0.05     0.01  -0.01   0.02     0.03   0.02  -0.02
  31   6    -0.00   0.07  -0.02     0.01  -0.00   0.05     0.03   0.01  -0.03
  32   6    -0.03   0.06  -0.01     0.01   0.00   0.06     0.02   0.01  -0.04
  33   6    -0.03   0.04   0.01     0.02   0.01   0.06     0.02   0.01  -0.04
  34   6    -0.01   0.02   0.02     0.01   0.01   0.06     0.03   0.01  -0.03
  35   7    -0.01  -0.01   0.02     0.01   0.01   0.03     0.03   0.00  -0.02
  36   6    -0.05  -0.04   0.06     0.01   0.01   0.00     0.02  -0.00  -0.00
  37   6    -0.09  -0.06   0.10     0.05   0.02  -0.04    -0.01  -0.02   0.04
  38   6    -0.14  -0.09   0.15     0.06   0.03  -0.08    -0.02  -0.03   0.06
  39   6    -0.15  -0.09   0.16     0.03   0.03  -0.06    -0.00  -0.02   0.04
  40   6    -0.11  -0.07   0.12    -0.00   0.02  -0.01     0.03  -0.01   0.00
  41   6    -0.06  -0.04   0.07    -0.01   0.01   0.02     0.04   0.00  -0.02
  42   6     0.03  -0.04  -0.02     0.02   0.01   0.00     0.03  -0.01  -0.00
  43   6     0.03  -0.11  -0.02    -0.02   0.03  -0.05     0.06  -0.03   0.03
  44   6     0.08  -0.14  -0.06    -0.02   0.03  -0.08     0.07  -0.04   0.06
  45   6     0.13  -0.10  -0.09     0.02   0.02  -0.06     0.06  -0.03   0.04
  46   6     0.13  -0.03  -0.08     0.05   0.01   0.00     0.03  -0.01  -0.00
  47   6     0.08   0.00  -0.05     0.05   0.00   0.03     0.02   0.01  -0.02
  48   6     0.01   0.04   0.02     0.01   0.02   0.07     0.03   0.01  -0.04
  49   6     0.02   0.06   0.01     0.01   0.01   0.07     0.03   0.01  -0.04
  50   7    -0.01   0.07  -0.05     0.01  -0.02  -0.05     0.03   0.02   0.02
  51   6    -0.00   0.07   0.02     0.01  -0.02   0.01     0.02   0.02  -0.00
  52   6    -0.01   0.01   0.06    -0.15  -0.01   0.10     0.12   0.01  -0.05
  53   6    -0.00   0.01   0.13    -0.14  -0.01   0.17     0.11   0.01  -0.08
  54   6     0.02   0.07   0.16     0.04  -0.02   0.15     0.00   0.02  -0.06
  55   6     0.04   0.13   0.13     0.20  -0.02   0.05    -0.09   0.03  -0.01
  56   6     0.02   0.13   0.05     0.18  -0.02  -0.01    -0.08   0.03   0.02
  57   6     0.05  -0.00  -0.03    -0.02   0.06  -0.00     0.04   0.08   0.07
  58   6     0.07  -0.03   0.04    -0.05   0.09  -0.03    -0.00   0.14   0.06
  59   1     0.01  -0.01   0.01    -0.01   0.00   0.02    -0.04   0.04  -0.01
  60   1     0.00   0.00  -0.03    -0.00  -0.01   0.04    -0.02   0.01   0.00
  61   1     0.01   0.01  -0.05    -0.00  -0.00   0.04     0.01   0.00  -0.01
  62   1     0.01   0.02  -0.05    -0.00  -0.00   0.03     0.01  -0.00  -0.02
  63   1     0.00   0.00  -0.03     0.00  -0.00  -0.01     0.01   0.00   0.01
  64   1    -0.00   0.00  -0.03     0.00  -0.00   0.00     0.01  -0.00  -0.02
  65   1    -0.01  -0.00   0.00     0.02   0.02  -0.09    -0.04  -0.02   0.04
  66   1    -0.02  -0.01   0.03     0.01   0.00  -0.05    -0.06  -0.06   0.04
  67   1    -0.01  -0.00  -0.00    -0.02  -0.04   0.07     0.02  -0.04  -0.06
  68   1    -0.01   0.01  -0.02    -0.02  -0.03   0.03     0.04  -0.01  -0.06
  69   1    -0.01   0.01  -0.01    -0.00  -0.01  -0.12    -0.00   0.00   0.05
  70   1    -0.01   0.02  -0.02     0.00  -0.01  -0.11     0.00   0.01   0.06
  71   1    -0.01   0.02  -0.00     0.00  -0.00   0.02     0.01   0.00  -0.01
  72   1    -0.01   0.01   0.01     0.01   0.00   0.02     0.01   0.00  -0.01
  73   1    -0.02  -0.02   0.03     0.02   0.01  -0.02    -0.01  -0.01   0.01
  74   1    -0.05  -0.03   0.05     0.03   0.01  -0.03    -0.01  -0.01   0.03
  75   1    -0.05  -0.03   0.06     0.01   0.01  -0.03    -0.00  -0.01   0.02
  76   1    -0.03  -0.02   0.04    -0.01   0.01  -0.00     0.01  -0.00  -0.00
  77   1    -0.01  -0.01   0.01    -0.01   0.00   0.02     0.02   0.00  -0.01
  78   1    -0.00  -0.04   0.00    -0.01   0.01  -0.02     0.02  -0.01   0.01
  79   1     0.02  -0.06  -0.02    -0.01   0.01  -0.04     0.03  -0.02   0.02
  80   1     0.05  -0.04  -0.03     0.00   0.01  -0.02     0.02  -0.01   0.02
  81   1     0.05   0.00  -0.03     0.02  -0.00   0.01     0.01   0.00  -0.00
  82   1     0.02   0.02  -0.01     0.02  -0.00   0.02     0.00   0.01  -0.01
  83   1     0.01   0.01   0.01     0.00   0.01   0.02     0.01   0.00  -0.01
  84   1     0.01   0.02   0.00     0.00   0.00   0.03     0.01   0.00  -0.01
  85   1    -0.01  -0.01   0.01    -0.08  -0.00   0.04     0.06   0.00  -0.02
  86   1    -0.00  -0.01   0.05    -0.08  -0.00   0.07     0.05   0.00  -0.04
  87   1     0.01   0.02   0.06     0.01  -0.01   0.06    -0.00   0.01  -0.02
  88   1     0.02   0.05   0.04     0.10  -0.01   0.01    -0.05   0.01   0.00
  89   1     0.01   0.05   0.01     0.09  -0.01  -0.03    -0.04   0.01   0.02
  90   1     0.02   0.00  -0.02    -0.00   0.02  -0.01     0.03   0.02   0.03
  91   1     0.03  -0.01   0.02    -0.02   0.04  -0.02     0.01   0.05   0.02
                      7                      8                      9
                        a                      a                      a 
 Frequencies --    31.1370                34.4567                41.9382
 Red. masses --    10.9658                11.0730                10.6681
 Frc consts  --     0.0000                 0.0000                 0.0000
 IR Inten    --     8.2174                 0.9126                 1.1337
 Raman Activ --     0.0000                 0.0000                 0.0000
 Depolar     --     0.0000                 0.0000                 0.0000
 Atom AN      X      Y      Z        X      Y      Z        X      Y      Z
   1   7     0.04  -0.02  -0.26    -0.13   0.17  -0.01    -0.10   0.07   0.01
   2   6     0.04  -0.02  -0.14    -0.08   0.09   0.00    -0.07   0.03   0.01
   3   6     0.04  -0.02  -0.03    -0.04   0.04   0.02    -0.04  -0.00   0.01
   4   6     0.07   0.00   0.01    -0.09   0.03  -0.06    -0.01  -0.10   0.14
   5   6     0.07   0.01   0.09    -0.06  -0.01  -0.06     0.01  -0.12   0.13
   6   6     0.03  -0.01   0.13     0.01  -0.05   0.01    -0.01  -0.05  -0.01
   7   6     0.02   0.00   0.16     0.02  -0.06  -0.02     0.00  -0.06  -0.02
   8   6     0.03   0.01   0.15     0.03  -0.07  -0.11     0.00  -0.05   0.05
   9   6     0.02   0.02   0.11     0.03  -0.06  -0.13     0.00  -0.06   0.05
  10   6     0.00   0.02   0.08     0.02  -0.06  -0.07     0.01  -0.06  -0.00
  11   6    -0.00   0.01   0.12     0.02  -0.06   0.00     0.01  -0.06  -0.06
  12   6     0.00   0.00   0.16     0.02  -0.06   0.03     0.01  -0.06  -0.09
  13   6    -0.01   0.01   0.08     0.00  -0.06   0.04     0.00  -0.06  -0.07
  14   6    -0.01   0.00   0.11     0.00  -0.07   0.07    -0.00  -0.06  -0.09
  15   6    -0.02   0.00   0.03    -0.01  -0.06   0.09     0.01  -0.06  -0.04
  16   6    -0.03  -0.01   0.03     0.00  -0.05   0.09     0.02  -0.04  -0.02
  17   6    -0.01   0.05  -0.09     0.03  -0.03   0.04     0.04  -0.08   0.09
  18   6    -0.01   0.05  -0.11     0.05   0.01  -0.01     0.06  -0.05   0.11
  19   6    -0.03  -0.00  -0.02     0.04   0.03  -0.01     0.05   0.02   0.02
  20   6    -0.02   0.01  -0.05     0.07   0.09  -0.09     0.08   0.07   0.03
  21   7    -0.02   0.02  -0.09     0.10   0.16  -0.19     0.11   0.13   0.05
  22   6    -0.04  -0.06   0.11     0.00  -0.01   0.07     0.03   0.06  -0.09
  23   6    -0.04  -0.06   0.14    -0.02  -0.05   0.12     0.02   0.03  -0.10
  24   6    -0.03   0.00  -0.06    -0.01  -0.06   0.06     0.01  -0.06  -0.00
  25   6    -0.02   0.01  -0.07    -0.01  -0.06   0.03     0.01  -0.06  -0.01
  26   6    -0.01   0.01   0.00    -0.00  -0.05   0.02     0.00  -0.06  -0.03
  27   6    -0.01   0.02  -0.02    -0.00  -0.05  -0.01     0.00  -0.06  -0.01
  28   6    -0.00   0.02   0.00     0.02  -0.05  -0.06     0.01  -0.06   0.01
  29   7     0.00   0.02  -0.06     0.03  -0.03  -0.09     0.02  -0.04   0.05
  30   6    -0.01   0.02  -0.10     0.01  -0.01  -0.05     0.00  -0.04   0.04
  31   6    -0.01   0.02  -0.15     0.01   0.02  -0.02     0.01   0.00   0.05
  32   6    -0.01   0.01  -0.17     0.02  -0.00  -0.08     0.04   0.05   0.13
  33   6    -0.01   0.01  -0.17     0.02   0.02  -0.06     0.05   0.10   0.13
  34   6    -0.01   0.02  -0.15     0.02   0.05   0.02     0.01   0.10   0.06
  35   7    -0.01   0.03  -0.12     0.02   0.05   0.01     0.02   0.12   0.04
  36   6    -0.02   0.01  -0.04     0.01   0.03   0.02    -0.04   0.09  -0.01
  37   6    -0.13  -0.03   0.09    -0.05   0.01   0.09    -0.09  -0.03   0.01
  38   6    -0.17  -0.06   0.17    -0.06   0.00   0.11    -0.18  -0.07  -0.03
  39   6    -0.09  -0.04   0.11    -0.01   0.02   0.06    -0.21   0.02  -0.09
  40   6     0.03   0.00  -0.03     0.05   0.05  -0.01    -0.16   0.14  -0.12
  41   6     0.06   0.03  -0.11     0.06   0.06  -0.03    -0.07   0.17  -0.07
  42   6    -0.00   0.01  -0.05     0.06   0.02  -0.01     0.04   0.09   0.02
  43   6     0.09  -0.06   0.10     0.05  -0.04  -0.04     0.12  -0.03   0.14
  44   6     0.11  -0.08   0.17     0.10  -0.07  -0.07     0.15  -0.05   0.12
  45   6     0.03  -0.04   0.09     0.17  -0.06  -0.06     0.10   0.06  -0.02
  46   6    -0.06   0.03  -0.06     0.18   0.00  -0.03     0.01   0.18  -0.14
  47   6    -0.08   0.05  -0.13     0.13   0.04  -0.01    -0.01   0.19  -0.12
  48   6    -0.01   0.01  -0.17     0.01   0.08   0.10    -0.02   0.05  -0.02
  49   6    -0.01   0.01  -0.17     0.01   0.07   0.09    -0.03  -0.00  -0.02
  50   7    -0.01   0.02  -0.09    -0.01  -0.03  -0.02    -0.00  -0.05   0.01
  51   6     0.01   0.02  -0.02    -0.07  -0.00  -0.01    -0.00  -0.05   0.01
  52   6     0.02  -0.06   0.02    -0.24   0.08   0.04     0.05  -0.07  -0.01
  53   6     0.06  -0.07   0.10    -0.34   0.12   0.05     0.07  -0.08  -0.01
  54   6     0.08  -0.00   0.14    -0.26   0.07   0.01     0.03  -0.06   0.00
  55   6     0.07   0.08   0.10    -0.08  -0.03  -0.05    -0.02  -0.04   0.02
  56   6     0.03   0.09   0.03     0.02  -0.06  -0.06    -0.04  -0.03   0.02
  57   6     0.00  -0.05   0.10     0.06  -0.05   0.10    -0.04   0.04  -0.13
  58   6     0.01  -0.05   0.02     0.03  -0.01   0.11    -0.06   0.07  -0.13
  59   1     0.03   0.01  -0.01    -0.04   0.02  -0.04     0.00  -0.05   0.07
  60   1     0.03   0.01   0.03    -0.03  -0.00  -0.04     0.01  -0.06   0.06
  61   1     0.01   0.00   0.05     0.01  -0.02  -0.05     0.00  -0.01   0.03
  62   1     0.01   0.01   0.03     0.01  -0.02  -0.05    -0.00  -0.02   0.03
  63   1    -0.00  -0.00   0.05     0.00  -0.02   0.03     0.01  -0.02  -0.04
  64   1    -0.00  -0.00   0.05     0.00  -0.02   0.03    -0.00  -0.02  -0.04
  65   1     0.00   0.03  -0.05     0.01  -0.01   0.01     0.01  -0.04   0.05
  66   1     0.00   0.03  -0.06     0.02   0.01  -0.02     0.02  -0.02   0.05
  67   1    -0.02  -0.03   0.06    -0.00  -0.00   0.03     0.01   0.04  -0.04
  68   1    -0.02  -0.03   0.07    -0.01  -0.02   0.05     0.00   0.02  -0.05
  69   1    -0.01   0.00  -0.04    -0.00  -0.02   0.02     0.00  -0.02   0.01
  70   1    -0.01   0.00  -0.04    -0.00  -0.01   0.00     0.00  -0.02   0.01
  71   1    -0.00   0.00  -0.05     0.01  -0.01  -0.04     0.02   0.02   0.05
  72   1    -0.00   0.00  -0.05     0.01  -0.00  -0.03     0.02   0.04   0.05
  73   1    -0.06  -0.01   0.04    -0.03  -0.00   0.04    -0.02  -0.03   0.02
  74   1    -0.07  -0.03   0.08    -0.03  -0.01   0.05    -0.07  -0.05  -0.00
  75   1    -0.03  -0.02   0.05    -0.00   0.01   0.02    -0.08  -0.00  -0.04
  76   1     0.03   0.01  -0.02     0.03   0.02  -0.01    -0.05   0.06  -0.05
  77   1     0.04   0.02  -0.06     0.03   0.02  -0.02    -0.01   0.08  -0.02
  78   1     0.04  -0.03   0.04    -0.00  -0.02  -0.01     0.05  -0.03   0.07
  79   1     0.05  -0.04   0.08     0.03  -0.03  -0.02     0.06  -0.04   0.06
  80   1     0.01  -0.02   0.04     0.06  -0.03  -0.02     0.03   0.01  -0.01
  81   1    -0.03   0.02  -0.04     0.07   0.01  -0.01    -0.01   0.07  -0.07
  82   1    -0.04   0.03  -0.07     0.04   0.02   0.00    -0.02   0.08  -0.06
  83   1    -0.00   0.00  -0.05     0.00   0.04   0.05    -0.01   0.01  -0.02
  84   1    -0.00   0.00  -0.05     0.00   0.03   0.05    -0.02  -0.02  -0.03
  85   1     0.00  -0.03  -0.00    -0.09   0.04   0.02     0.02  -0.02  -0.01
  86   1     0.02  -0.04   0.04    -0.14   0.06   0.03     0.03  -0.03  -0.01
  87   1     0.03  -0.00   0.06    -0.10   0.03   0.01     0.01  -0.02  -0.00
  88   1     0.03   0.04   0.04    -0.00  -0.02  -0.02    -0.01  -0.01   0.01
  89   1     0.01   0.04  -0.00     0.04  -0.04  -0.03    -0.02  -0.00   0.01
  90   1    -0.01  -0.02   0.04     0.04  -0.03   0.05    -0.02   0.03  -0.07
  91   1    -0.00  -0.02  -0.00     0.02  -0.00   0.05    -0.02   0.04  -0.07
                     10                     11                     12
                        a                      a                      a 
 Frequencies --    43.0863                48.3634                49.8972
 Red. masses --    10.2886                10.5194                11.0607
 Frc consts  --     0.0000                 0.0000                 0.0000
 IR Inten    --     2.3651                26.1321                 4.2103
 Raman Activ --     0.0000                 0.0000                 0.0000
 Depolar     --     0.0000                 0.0000                 0.0000
 Atom AN      X      Y      Z        X      Y      Z        X      Y      Z
   1   7    -0.04   0.08   0.05     0.04  -0.05  -0.20     0.07  -0.17   0.22
   2   6    -0.02   0.04   0.03     0.03  -0.04  -0.08     0.01  -0.07   0.08
   3   6     0.00   0.02   0.01     0.03  -0.03   0.01    -0.04   0.00  -0.04
   4   6    -0.08   0.10  -0.20    -0.02   0.10  -0.18    -0.07   0.06  -0.14
   5   6    -0.07   0.08  -0.21    -0.03   0.11  -0.12    -0.09   0.10  -0.18
   6   6     0.02  -0.02  -0.03     0.01  -0.02   0.12    -0.09   0.07  -0.13
   7   6     0.02  -0.02  -0.05    -0.00   0.00   0.12    -0.08   0.05  -0.08
   8   6     0.03  -0.03  -0.16    -0.00  -0.00   0.05    -0.09   0.03  -0.06
   9   6     0.02  -0.02  -0.14    -0.01  -0.00   0.02    -0.07   0.00   0.02
  10   6     0.01  -0.02  -0.05    -0.02  -0.00   0.02    -0.04   0.01   0.07
  11   6     0.01  -0.02   0.01    -0.02  -0.00   0.05    -0.03   0.03   0.05
  12   6     0.01  -0.02   0.03    -0.02  -0.00   0.15    -0.05   0.06  -0.03
  13   6     0.00  -0.02   0.04    -0.01  -0.00  -0.02     0.00   0.04   0.07
  14   6    -0.00  -0.03   0.09    -0.01   0.01  -0.12     0.01   0.06   0.05
  15   6    -0.02  -0.03   0.05     0.02   0.01  -0.12     0.03   0.06   0.01
  16   6    -0.02  -0.03   0.06     0.03   0.03  -0.13     0.03   0.06  -0.04
  17   6     0.00   0.04  -0.11     0.02  -0.06   0.08     0.01   0.09  -0.12
  18   6     0.01   0.05  -0.14     0.02  -0.06   0.15    -0.01   0.05  -0.12
  19   6    -0.02  -0.02   0.00     0.04   0.04  -0.02    -0.01  -0.02  -0.03
  20   6    -0.01  -0.00  -0.06     0.04   0.02   0.09    -0.04  -0.09   0.02
  21   7    -0.00   0.02  -0.12     0.04   0.02   0.22    -0.09  -0.19   0.07
  22   6    -0.05  -0.10   0.19     0.06   0.14  -0.27     0.02  -0.04   0.03
  23   6    -0.05  -0.10   0.21     0.06   0.13  -0.31     0.04   0.00   0.02
  24   6    -0.02  -0.02  -0.04     0.02   0.00  -0.06     0.05   0.04   0.01
  25   6    -0.02  -0.01  -0.05     0.02  -0.01  -0.03     0.04   0.02   0.06
  26   6    -0.00  -0.01  -0.01    -0.00  -0.01  -0.01     0.01   0.02   0.09
  27   6    -0.00  -0.01  -0.02    -0.01  -0.01   0.00     0.00  -0.01   0.12
  28   6     0.01  -0.01  -0.02    -0.01  -0.01   0.00    -0.02  -0.01   0.12
  29   7     0.01   0.00  -0.00    -0.01  -0.02   0.00    -0.03  -0.03   0.12
  30   6     0.00   0.00   0.01    -0.01  -0.01  -0.00    -0.01  -0.04   0.10
  31   6     0.00   0.02   0.05    -0.01  -0.01   0.00    -0.01  -0.05   0.06
  32   6     0.01   0.06   0.15    -0.01  -0.01   0.00     0.02  -0.06  -0.01
  33   6     0.01   0.07   0.18    -0.01   0.00   0.01     0.02  -0.04  -0.04
  34   6    -0.00   0.04   0.10    -0.01   0.01   0.01     0.00  -0.00  -0.01
  35   7     0.00   0.03   0.08    -0.01   0.01   0.02     0.00   0.03   0.00
  36   6    -0.03   0.02   0.03    -0.02   0.01   0.01     0.02   0.02  -0.00
  37   6     0.02  -0.01  -0.07    -0.03  -0.01   0.01    -0.09  -0.03   0.12
  38   6    -0.04  -0.03  -0.12    -0.05  -0.02   0.01    -0.07  -0.02   0.10
  39   6    -0.15  -0.02  -0.08    -0.05  -0.01   0.00     0.07   0.06  -0.05
  40   6    -0.20   0.02   0.02    -0.04   0.01  -0.01     0.17   0.12  -0.17
  41   6    -0.14   0.04   0.07    -0.02   0.02  -0.01     0.14   0.10  -0.14
  42   6     0.00   0.03   0.05    -0.01   0.01   0.01     0.01   0.02  -0.02
  43   6     0.01   0.02   0.06    -0.00   0.00   0.02     0.07  -0.07   0.07
  44   6    -0.01   0.04   0.02    -0.01   0.01   0.00     0.09  -0.08   0.05
  45   6    -0.02   0.07  -0.01    -0.03   0.03  -0.03     0.04   0.00  -0.06
  46   6    -0.03   0.08  -0.02    -0.04   0.04  -0.04    -0.02   0.09  -0.15
  47   6    -0.01   0.06   0.02    -0.03   0.03  -0.02    -0.03   0.10  -0.12
  48   6    -0.00   0.00   0.01    -0.02   0.01   0.01    -0.03  -0.01   0.03
  49   6    -0.00  -0.01  -0.02    -0.01  -0.00   0.01    -0.03  -0.03   0.06
  50   7    -0.00   0.00  -0.01    -0.01  -0.01  -0.00     0.01  -0.03   0.13
  51   6     0.03  -0.01  -0.01    -0.01  -0.01  -0.01     0.01  -0.04   0.06
  52   6     0.13  -0.06  -0.05    -0.07   0.01   0.02    -0.06   0.04   0.07
  53   6     0.21  -0.09  -0.06    -0.06   0.01   0.02    -0.04   0.03  -0.01
  54   6     0.19  -0.07  -0.05     0.01  -0.02  -0.01     0.07  -0.07  -0.08
  55   6     0.08  -0.02  -0.01     0.07  -0.04  -0.03     0.14  -0.14  -0.08
  56   6     0.00   0.01   0.00     0.06  -0.04  -0.03     0.11  -0.13  -0.01
  57   6     0.11  -0.09   0.17     0.07  -0.15   0.32    -0.07   0.03  -0.07
  58   6     0.10  -0.08   0.20     0.08  -0.17   0.28    -0.05  -0.01  -0.03
  59   1    -0.05   0.05  -0.10    -0.02   0.06  -0.11    -0.02   0.02  -0.05
  60   1    -0.04   0.04  -0.10    -0.02   0.07  -0.07    -0.03   0.04  -0.07
  61   1     0.01  -0.01  -0.07    -0.00  -0.00   0.01    -0.03   0.01  -0.03
  62   1     0.01  -0.01  -0.06    -0.00   0.00  -0.00    -0.02  -0.01   0.01
  63   1     0.00  -0.01   0.03    -0.01  -0.00   0.07    -0.01   0.02  -0.01
  64   1     0.00  -0.01   0.05    -0.01   0.01  -0.05     0.00   0.02   0.02
  65   1     0.01   0.03  -0.06     0.00  -0.04   0.06     0.00   0.04  -0.05
  66   1     0.01   0.03  -0.08     0.00  -0.04   0.09    -0.01   0.02  -0.05
  67   1    -0.02  -0.05   0.09     0.02   0.07  -0.12     0.01  -0.02   0.02
  68   1    -0.02  -0.05   0.10     0.03   0.06  -0.14     0.01  -0.00   0.02
  69   1    -0.01  -0.01  -0.02     0.01   0.00  -0.02     0.02   0.01  -0.00
  70   1    -0.01  -0.00  -0.03     0.01  -0.01  -0.00     0.01   0.00   0.02
  71   1     0.00   0.03   0.06    -0.00  -0.00  -0.00     0.01  -0.02  -0.01
  72   1     0.00   0.03   0.07    -0.00   0.00   0.00     0.01  -0.01  -0.03
  73   1     0.03  -0.01  -0.03    -0.01  -0.01   0.01    -0.06  -0.02   0.07
  74   1     0.00  -0.02  -0.06    -0.02  -0.01   0.01    -0.04  -0.02   0.06
  75   1    -0.06  -0.01  -0.03    -0.02  -0.00  -0.00     0.03   0.02  -0.02
  76   1    -0.08   0.01   0.02    -0.01   0.01  -0.01     0.08   0.05  -0.08
  77   1    -0.05   0.02   0.04    -0.00   0.01  -0.00     0.06   0.04  -0.06
  78   1     0.01   0.00   0.02     0.00  -0.00   0.01     0.03  -0.04   0.05
  79   1    -0.00   0.01   0.01    -0.00   0.00   0.00     0.04  -0.05   0.04
  80   1    -0.01   0.02  -0.01    -0.01   0.01  -0.02     0.02  -0.00  -0.02
  81   1    -0.01   0.03  -0.01    -0.02   0.02  -0.02    -0.01   0.05  -0.07
  82   1    -0.00   0.02   0.00    -0.01   0.01  -0.01    -0.02   0.05  -0.05
  83   1    -0.00  -0.01  -0.01    -0.01   0.00   0.00    -0.02   0.00   0.01
  84   1    -0.00  -0.02  -0.03    -0.01  -0.00   0.00    -0.01  -0.01   0.03
  85   1     0.04  -0.02  -0.02    -0.04   0.01   0.01    -0.04   0.03   0.03
  86   1     0.08  -0.04  -0.03    -0.03   0.01   0.01    -0.03   0.03  -0.00
  87   1     0.07  -0.03  -0.02     0.00  -0.01  -0.00     0.03  -0.02  -0.04
  88   1     0.02  -0.00  -0.00     0.04  -0.02  -0.02     0.06  -0.06  -0.04
  89   1    -0.02   0.01   0.01     0.03  -0.02  -0.01     0.05  -0.06  -0.00
  90   1     0.05  -0.05   0.09     0.03  -0.07   0.14    -0.02   0.01  -0.02
  91   1     0.05  -0.04   0.11     0.04  -0.08   0.13    -0.01  -0.01   0.01
                     13                     14                     15
                        a                      a                      a 
 Frequencies --    56.2270                57.3666                65.5527
 Red. masses --    10.6597                10.7525                10.9714
 Frc consts  --     0.0000                 0.0000                 0.0000
 IR Inten    --     5.0958                 0.5165                 0.5560
 Raman Activ --     0.0000                 0.0000                 0.0000
 Depolar     --     0.0000                 0.0000                 0.0000
 Atom AN      X      Y      Z        X      Y      Z        X      Y      Z
   1   7     0.02  -0.03  -0.00    -0.03  -0.06  -0.11     0.04   0.01  -0.11
   2   6     0.00  -0.01  -0.00    -0.03  -0.05  -0.04     0.04   0.01  -0.03
   3   6    -0.01  -0.00  -0.00    -0.03  -0.04   0.02     0.04   0.00   0.03
   4   6     0.02  -0.02   0.06    -0.02  -0.03   0.03     0.06  -0.00   0.07
   5   6     0.01  -0.02   0.06    -0.02  -0.02   0.06     0.06   0.00   0.09
   6   6    -0.01   0.01   0.00    -0.04  -0.02   0.06     0.03   0.02   0.06
   7   6    -0.01   0.02   0.01    -0.05  -0.01   0.06     0.02   0.03   0.04
   8   6    -0.01   0.01   0.00    -0.04   0.00   0.03     0.02   0.03   0.01
   9   6    -0.01   0.01  -0.02    -0.05   0.00  -0.01     0.02   0.03  -0.05
  10   6    -0.01   0.01  -0.02    -0.05   0.00  -0.03     0.01   0.03  -0.07
  11   6    -0.01   0.01   0.02    -0.06  -0.00  -0.00     0.01   0.03  -0.03
  12   6    -0.01   0.02   0.01    -0.06  -0.01   0.04     0.01   0.03   0.02
  13   6    -0.00   0.01   0.05    -0.06  -0.00  -0.02     0.02   0.03  -0.02
  14   6     0.00   0.02   0.12    -0.06  -0.01  -0.02     0.02   0.03   0.03
  15   6     0.01   0.02   0.14    -0.07  -0.01  -0.02     0.01   0.03   0.05
  16   6     0.00  -0.00   0.15    -0.07  -0.00  -0.00     0.01   0.02   0.06
  17   6    -0.06  -0.05   0.24    -0.06  -0.01   0.02    -0.01   0.01   0.06
  18   6    -0.07  -0.08   0.19    -0.05   0.00   0.03    -0.02  -0.00   0.04
  19   6    -0.01  -0.04   0.02    -0.06   0.03   0.01    -0.01  -0.01   0.02
  20   6    -0.02  -0.06  -0.10    -0.05   0.05   0.00    -0.01  -0.02  -0.04
  21   7    -0.04  -0.10  -0.25    -0.03   0.09  -0.00    -0.03  -0.05  -0.12
  22   6     0.05  -0.00  -0.06    -0.07   0.03  -0.01     0.01  -0.02   0.04
  23   6     0.06   0.01   0.01    -0.07   0.02  -0.02     0.02  -0.00   0.06
  24   6     0.01   0.02   0.10    -0.07  -0.00  -0.02     0.01   0.03   0.02
  25   6     0.00   0.02   0.01    -0.07  -0.00  -0.02     0.01   0.03  -0.03
  26   6    -0.01   0.02  -0.00    -0.06  -0.00  -0.03     0.02   0.03  -0.06
  27   6    -0.01   0.01  -0.04    -0.06   0.01  -0.04     0.02   0.03  -0.10
  28   6    -0.01   0.01  -0.05    -0.05   0.00  -0.05     0.01   0.03  -0.10
  29   7    -0.01   0.01  -0.09    -0.06   0.00  -0.07    -0.00   0.02  -0.10
  30   6    -0.01   0.01  -0.08    -0.05   0.01  -0.04     0.01   0.01  -0.08
  31   6    -0.01   0.02  -0.06    -0.05   0.01  -0.02     0.01  -0.03  -0.01
  32   6    -0.02   0.02  -0.05    -0.04   0.00  -0.04    -0.04  -0.05   0.01
  33   6    -0.02   0.03  -0.02    -0.04   0.02   0.01    -0.05  -0.08   0.09
  34   6    -0.01   0.03   0.01    -0.03   0.04   0.09    -0.00  -0.08   0.16
  35   7    -0.01   0.02   0.01    -0.04   0.04   0.11    -0.01  -0.11   0.28
  36   6    -0.03   0.02   0.00    -0.01   0.04   0.08    -0.01  -0.09   0.14
  37   6    -0.02   0.01  -0.02    -0.02   0.06   0.10    -0.04  -0.18   0.15
  38   6    -0.06  -0.02  -0.01     0.08   0.12   0.02     0.01  -0.14  -0.02
  39   6    -0.11  -0.02   0.03     0.19   0.17  -0.09     0.10  -0.00  -0.20
  40   6    -0.11  -0.01   0.04     0.19   0.14  -0.09     0.11   0.08  -0.19
  41   6    -0.07   0.02   0.03     0.08   0.08  -0.01     0.06   0.03  -0.01
  42   6    -0.01   0.02   0.01     0.02   0.01   0.04    -0.02  -0.09   0.16
  43   6    -0.04   0.06  -0.04    -0.04  -0.06  -0.08    -0.03  -0.12   0.14
  44   6    -0.05   0.07  -0.05     0.07  -0.14  -0.11    -0.11  -0.02  -0.07
  45   6    -0.03   0.04  -0.01     0.24  -0.15  -0.03    -0.19   0.11  -0.26
  46   6     0.00   0.00   0.04     0.29  -0.07   0.07    -0.16   0.13  -0.20
  47   6     0.01  -0.00   0.05     0.18   0.01   0.10    -0.06   0.02   0.02
  48   6    -0.00   0.04   0.02    -0.02   0.06   0.12     0.05  -0.07   0.13
  49   6    -0.00   0.04  -0.01    -0.03   0.03   0.05     0.05  -0.04   0.05
  50   7    -0.02   0.01  -0.08    -0.06   0.01  -0.03     0.03   0.02  -0.10
  51   6     0.02   0.00  -0.05    -0.02  -0.01  -0.02     0.02   0.02  -0.06
  52   6    -0.16   0.03   0.04     0.12  -0.08  -0.06     0.01  -0.00  -0.04
  53   6    -0.03  -0.02   0.04     0.25  -0.13  -0.08    -0.04   0.02   0.01
  54   6     0.28  -0.10  -0.05     0.22  -0.10  -0.05    -0.08   0.07   0.04
  55   6     0.43  -0.11  -0.13     0.06  -0.01  -0.00    -0.06   0.08   0.02
  56   6     0.29  -0.06  -0.13    -0.06   0.04   0.01    -0.01   0.06  -0.03
  57   6    -0.04   0.04  -0.06    -0.05  -0.04   0.06     0.01   0.02   0.03
  58   6    -0.04   0.03  -0.07    -0.05  -0.05   0.03     0.02   0.01   0.01
  59   1     0.01  -0.01   0.03    -0.00  -0.01   0.01     0.02  -0.00   0.03
  60   1     0.01  -0.01   0.03    -0.00  -0.00   0.02     0.02  -0.00   0.03
  61   1    -0.00   0.00   0.00    -0.01   0.00   0.01     0.01   0.01   0.01
  62   1    -0.00   0.00  -0.01    -0.01   0.00  -0.01     0.01   0.01  -0.02
  63   1    -0.00   0.01   0.00    -0.02  -0.00   0.02     0.00   0.01   0.01
  64   1     0.00   0.01   0.05    -0.02  -0.00  -0.01     0.01   0.01   0.02
  65   1    -0.03  -0.02   0.10    -0.02  -0.01   0.01    -0.01   0.01   0.02
  66   1    -0.04  -0.03   0.08    -0.01  -0.00   0.01    -0.01  -0.00   0.01
  67   1     0.03   0.01  -0.05    -0.02   0.01  -0.01     0.01  -0.01   0.01
  68   1     0.03   0.01  -0.02    -0.02   0.01  -0.01     0.01  -0.00   0.02
  69   1    -0.00   0.01   0.03    -0.02  -0.00  -0.00     0.00   0.01   0.01
  70   1     0.00   0.00  -0.02    -0.02   0.00  -0.01     0.00   0.01  -0.02
  71   1    -0.01   0.00  -0.02    -0.01  -0.01  -0.03    -0.02  -0.01  -0.01
  72   1    -0.01   0.01  -0.00    -0.01  -0.00  -0.01    -0.02  -0.03   0.03
  73   1     0.01   0.00  -0.01    -0.03   0.01   0.05    -0.03  -0.08   0.08
  74   1    -0.02  -0.01  -0.01     0.02   0.04   0.01    -0.00  -0.06  -0.01
  75   1    -0.04  -0.01   0.01     0.08   0.06  -0.05     0.04   0.01  -0.10
  76   1    -0.04  -0.00   0.02     0.08   0.05  -0.05     0.05   0.05  -0.10
  77   1    -0.02   0.01   0.01     0.02   0.02  -0.00     0.02   0.03  -0.00
  78   1    -0.02   0.02  -0.02    -0.05  -0.02  -0.04     0.01  -0.06   0.07
  79   1    -0.02   0.03  -0.03     0.01  -0.06  -0.06    -0.04  -0.01  -0.03
  80   1    -0.01   0.01  -0.01     0.10  -0.06  -0.01    -0.08   0.06  -0.13
  81   1     0.01  -0.01   0.02     0.12  -0.02   0.04    -0.06   0.06  -0.09
  82   1     0.01  -0.01   0.03     0.06   0.02   0.05    -0.01   0.01   0.02
  83   1     0.00   0.02   0.02    -0.00   0.02   0.05     0.02  -0.02   0.05
  84   1     0.00   0.01   0.00    -0.00   0.01   0.01     0.03  -0.01   0.01
  85   1    -0.11   0.02   0.03     0.04  -0.03  -0.02     0.01  -0.01  -0.02
  86   1    -0.05   0.00   0.03     0.11  -0.06  -0.03    -0.02   0.00   0.01
  87   1     0.11  -0.04  -0.02     0.10  -0.04  -0.02    -0.04   0.02   0.03
  88   1     0.19  -0.05  -0.06     0.01   0.01   0.01    -0.03   0.03   0.01
  89   1     0.12  -0.02  -0.06    -0.05   0.03   0.01     0.00   0.02  -0.01
  90   1    -0.02   0.02  -0.03    -0.02  -0.01   0.02    -0.00   0.01   0.01
  91   1    -0.02   0.02  -0.03    -0.02  -0.02   0.01     0.00   0.00  -0.01
                     16                     17                     18
                        a                      a                      a 
 Frequencies --    67.5659                69.7588                78.6446
 Red. masses --    11.4914                10.5189                10.8110
 Frc consts  --     0.0000                 0.0000                 0.0000
 IR Inten    --     7.3495                 7.6013                10.2165
 Raman Activ --     0.0000                 0.0000                 0.0000
 Depolar     --     0.0000                 0.0000                 0.0000
 Atom AN      X      Y      Z        X      Y      Z        X      Y      Z
   1   7    -0.08   0.22   0.05    -0.02   0.02  -0.09     0.07  -0.08   0.21
   2   6    -0.00   0.10   0.03    -0.00  -0.01  -0.02     0.01   0.00   0.04
   3   6     0.06   0.01   0.01     0.01  -0.03   0.03    -0.03   0.07  -0.09
   4   6     0.03  -0.03  -0.01     0.04  -0.06   0.10    -0.07   0.12  -0.18
   5   6     0.06  -0.07  -0.04     0.04  -0.07   0.10    -0.06   0.12  -0.17
   6   6     0.10  -0.06  -0.05     0.02  -0.03   0.04    -0.04   0.06  -0.07
   7   6     0.10  -0.06  -0.08     0.01  -0.03   0.01    -0.02   0.03   0.03
   8   6     0.11  -0.02  -0.05     0.02  -0.02  -0.06    -0.04   0.01   0.17
   9   6     0.08   0.02   0.01     0.02  -0.02  -0.10    -0.02  -0.01   0.23
  10   6     0.04   0.02   0.03     0.01  -0.02  -0.06     0.01  -0.01   0.14
  11   6     0.02  -0.02  -0.05     0.01  -0.02  -0.00     0.02   0.00   0.05
  12   6     0.05  -0.06  -0.11     0.01  -0.02   0.04     0.01   0.02  -0.02
  13   6    -0.02  -0.03  -0.06     0.01  -0.01   0.02     0.03  -0.01  -0.00
  14   6    -0.04  -0.07  -0.08     0.02   0.00  -0.05     0.03  -0.01   0.06
  15   6    -0.09  -0.07  -0.07     0.03   0.01  -0.02     0.03  -0.02  -0.01
  16   6    -0.10  -0.09  -0.00     0.05   0.03  -0.09     0.02  -0.04   0.05
  17   6    -0.06  -0.12   0.08     0.07   0.08  -0.20     0.01  -0.08   0.13
  18   6    -0.05  -0.08   0.10     0.07   0.08  -0.19     0.01  -0.09   0.14
  19   6    -0.06  -0.01   0.04     0.04   0.03  -0.06     0.03  -0.06   0.05
  20   6    -0.01   0.09  -0.00     0.02  -0.00   0.05     0.04  -0.03  -0.03
  21   7     0.06   0.24  -0.05     0.01  -0.04   0.20     0.05  -0.01  -0.16
  22   6    -0.10  -0.00   0.01     0.02  -0.00   0.01     0.04  -0.03   0.01
  23   6    -0.12  -0.05  -0.01     0.02   0.00  -0.01     0.04  -0.03   0.01
  24   6    -0.11  -0.04  -0.11     0.05  -0.00   0.10     0.02  -0.02  -0.17
  25   6    -0.09   0.00  -0.09     0.04  -0.02   0.17     0.02  -0.01  -0.22
  26   6    -0.04   0.01  -0.02     0.02  -0.02   0.10     0.03  -0.01  -0.11
  27   6    -0.02   0.05   0.08     0.01  -0.02   0.07     0.02  -0.03  -0.07
  28   6     0.01   0.06   0.11     0.02  -0.03  -0.05     0.02  -0.02   0.08
  29   7     0.01   0.09   0.18     0.02  -0.03  -0.11     0.02  -0.02   0.12
  30   6    -0.00   0.09   0.17     0.01  -0.02  -0.03     0.02  -0.03  -0.00
  31   6    -0.01   0.06   0.11     0.01  -0.00  -0.03     0.02  -0.03  -0.02
  32   6    -0.03   0.01  -0.01     0.01  -0.04  -0.13     0.03  -0.03  -0.04
  33   6    -0.04  -0.05  -0.10     0.01  -0.03  -0.11     0.03  -0.01  -0.03
  34   6    -0.02  -0.05  -0.07     0.00   0.03   0.02     0.02   0.02   0.01
  35   7    -0.03  -0.06  -0.08    -0.00   0.03   0.02     0.02   0.03   0.01
  36   6    -0.00  -0.05  -0.04    -0.02   0.02  -0.01     0.01   0.03  -0.01
  37   6    -0.09  -0.05   0.07    -0.12  -0.07   0.09    -0.08  -0.04   0.08
  38   6    -0.05  -0.04   0.12    -0.23  -0.12   0.14    -0.14  -0.08   0.11
  39   6     0.07  -0.02   0.03    -0.21  -0.07   0.08    -0.11  -0.03   0.05
  40   6     0.15  -0.02  -0.09    -0.08   0.05  -0.06    -0.00   0.06  -0.07
  41   6     0.11  -0.03  -0.12     0.01   0.10  -0.10     0.05   0.09  -0.09
  42   6    -0.05  -0.05  -0.04    -0.01   0.03   0.03     0.02   0.03   0.02
  43   6    -0.04  -0.01  -0.02    -0.11   0.14  -0.12    -0.06   0.10  -0.11
  44   6    -0.08   0.02  -0.01    -0.16   0.19  -0.18    -0.09   0.13  -0.14
  45   6    -0.13   0.01  -0.02    -0.10   0.11  -0.07    -0.01   0.05  -0.03
  46   6    -0.13  -0.04  -0.03     0.02  -0.02   0.12     0.08  -0.04   0.12
  47   6    -0.09  -0.07  -0.03     0.06  -0.06   0.16     0.09  -0.05   0.13
  48   6    -0.01  -0.01   0.01     0.01   0.07   0.12     0.01   0.02   0.04
  49   6     0.00   0.05   0.10     0.01   0.05   0.09     0.01  -0.01   0.00
  50   7    -0.02   0.09   0.15     0.01  -0.01   0.09     0.03  -0.04  -0.13
  51   6    -0.01   0.07   0.09     0.01  -0.01   0.05     0.02  -0.03  -0.08
  52   6     0.02   0.10   0.06     0.07   0.01   0.01     0.09  -0.10  -0.08
  53   6     0.11   0.07  -0.03     0.10  -0.01  -0.05     0.04  -0.08  -0.01
  54   6     0.17  -0.00  -0.08     0.07  -0.04  -0.07    -0.08   0.01   0.07
  55   6     0.13  -0.02  -0.04    -0.00  -0.05  -0.02    -0.14   0.08   0.06
  56   6     0.04   0.01   0.05    -0.03  -0.04   0.04    -0.08   0.05  -0.01
  57   6     0.14  -0.03  -0.00     0.00  -0.01  -0.00    -0.03   0.05  -0.04
  58   6     0.12   0.01   0.03    -0.00  -0.01  -0.01    -0.03   0.04  -0.04
  59   1    -0.01  -0.01  -0.00     0.02  -0.02   0.04    -0.02   0.04  -0.07
  60   1     0.01  -0.03  -0.02     0.01  -0.03   0.04    -0.02   0.04  -0.06
  61   1     0.04  -0.01  -0.02     0.01  -0.01  -0.02    -0.02   0.00   0.06
  62   1     0.03   0.02   0.02     0.01  -0.01  -0.04    -0.01  -0.01   0.09
  63   1     0.01  -0.03  -0.05     0.00  -0.00   0.03     0.01   0.01  -0.04
  64   1    -0.01  -0.03  -0.03     0.00   0.00  -0.04     0.01  -0.00   0.05
  65   1    -0.02  -0.05   0.03     0.02   0.04  -0.08     0.00  -0.03   0.05
  66   1    -0.01  -0.03   0.04     0.03   0.03  -0.08    -0.00  -0.03   0.06
  67   1    -0.03   0.01  -0.00     0.00  -0.01   0.03     0.01  -0.00  -0.01
  68   1    -0.04  -0.01  -0.01    -0.00  -0.01   0.01     0.02  -0.00  -0.01
  69   1    -0.04  -0.01  -0.05     0.02  -0.00   0.04     0.00  -0.01  -0.07
  70   1    -0.03   0.01  -0.04     0.01  -0.01   0.08     0.00  -0.00  -0.09
  71   1    -0.01   0.00  -0.01     0.00  -0.02  -0.07     0.01  -0.01  -0.02
  72   1    -0.01  -0.03  -0.06     0.00  -0.02  -0.05     0.01  -0.01  -0.02
  73   1    -0.05  -0.02   0.04    -0.04  -0.03   0.04    -0.03  -0.02   0.04
  74   1    -0.04  -0.01   0.06    -0.09  -0.06   0.07    -0.06  -0.04   0.06
  75   1     0.03  -0.00   0.02    -0.09  -0.03   0.04    -0.05  -0.02   0.02
  76   1     0.07  -0.00  -0.05    -0.01   0.03  -0.04     0.01   0.03  -0.04
  77   1     0.05  -0.01  -0.06     0.03   0.05  -0.05     0.04   0.04  -0.05
  78   1    -0.00  -0.00  -0.00    -0.05   0.06  -0.06    -0.03   0.04  -0.05
  79   1    -0.02   0.02  -0.00    -0.07   0.08  -0.09    -0.05   0.06  -0.07
  80   1    -0.05   0.01  -0.01    -0.04   0.04  -0.04    -0.01   0.02  -0.01
  81   1    -0.05  -0.01  -0.01     0.02  -0.02   0.06     0.04  -0.03   0.06
  82   1    -0.02  -0.03  -0.01     0.04  -0.04   0.08     0.04  -0.03   0.06
  83   1    -0.00  -0.00   0.00     0.00   0.03   0.06     0.00   0.01   0.02
  84   1     0.00   0.03   0.05     0.00   0.02   0.04     0.00  -0.00   0.00
  85   1    -0.00   0.04   0.03     0.03   0.01   0.01     0.05  -0.05  -0.04
  86   1     0.04   0.02  -0.02     0.04   0.00  -0.03     0.03  -0.04  -0.00
  87   1     0.07  -0.01  -0.04     0.03  -0.02  -0.03    -0.04   0.01   0.04
  88   1     0.05  -0.02  -0.02    -0.01  -0.02  -0.01    -0.07   0.04   0.04
  89   1     0.00  -0.00   0.02    -0.02  -0.02   0.02    -0.03   0.03  -0.00
  90   1     0.06  -0.01   0.00    -0.00   0.00  -0.01    -0.00   0.01   0.00
  91   1     0.04   0.01   0.02    -0.00   0.01  -0.02    -0.00   0.00   0.00
                     19                     20                     21
                        a                      a                      a 
 Frequencies --    99.6308               103.6535               109.7943
 Red. masses --    11.8361                11.2182                10.1314
 Frc consts  --     0.0000                 0.0000                 0.0000
 IR Inten    --     9.3385                 1.6533                18.8560
 Raman Activ --     0.0000                 0.0000                 0.0000
 Depolar     --     0.0000                 0.0000                 0.0000
 Atom AN      X      Y      Z        X      Y      Z        X      Y      Z
   1   7     0.04  -0.12  -0.31    -0.14   0.25   0.06    -0.03  -0.05   0.02
   2   6    -0.00  -0.05  -0.02     0.01   0.03   0.02    -0.04  -0.02   0.00
   3   6    -0.02  -0.03   0.15     0.09  -0.09   0.01    -0.05  -0.01  -0.01
   4   6    -0.00  -0.02   0.16     0.08  -0.12   0.01    -0.01  -0.05   0.07
   5   6    -0.03   0.01   0.13     0.08  -0.11  -0.03    -0.02  -0.05   0.07
   6   6    -0.06   0.04   0.08     0.09  -0.09  -0.08    -0.02  -0.01   0.01
   7   6    -0.07   0.06  -0.04     0.06  -0.05  -0.09    -0.01  -0.02   0.01
   8   6    -0.07   0.04  -0.12     0.07  -0.03  -0.06     0.01  -0.03  -0.31
   9   6    -0.05   0.01  -0.18     0.04   0.01   0.02     0.01  -0.03  -0.30
  10   6    -0.03   0.01  -0.15    -0.00   0.01   0.07     0.01  -0.00   0.00
  11   6    -0.02   0.04  -0.14    -0.01  -0.01   0.05     0.00  -0.00   0.24
  12   6    -0.04   0.06  -0.07     0.01  -0.04  -0.04    -0.00   0.01   0.28
  13   6     0.02   0.04  -0.13    -0.02  -0.00   0.09    -0.00  -0.00   0.26
  14   6     0.03   0.06  -0.08    -0.01   0.03   0.17    -0.01  -0.00   0.32
  15   6     0.05   0.07  -0.03     0.03   0.03   0.11     0.00  -0.01   0.02
  16   6     0.05   0.06   0.06     0.06   0.08   0.05    -0.00  -0.01  -0.00
  17   6     0.04   0.04   0.10     0.06   0.10  -0.00     0.01  -0.03   0.05
  18   6     0.02   0.02   0.12     0.06   0.11  -0.06     0.01  -0.03   0.04
  19   6     0.03   0.01   0.12     0.08   0.11  -0.08     0.03   0.00  -0.05
  20   6     0.01  -0.04  -0.02     0.02  -0.01  -0.01     0.03  -0.01  -0.01
  21   7    -0.05  -0.17  -0.26    -0.08  -0.22   0.09     0.03  -0.02   0.07
  22   6     0.04   0.00   0.13     0.09   0.12  -0.10     0.04   0.04  -0.14
  23   6     0.05   0.03   0.10     0.08   0.10  -0.04     0.04   0.02  -0.10
  24   6     0.06   0.05  -0.09     0.04   0.02   0.03    -0.02  -0.00  -0.31
  25   6     0.05   0.02  -0.14     0.02  -0.01  -0.03    -0.02  -0.00  -0.27
  26   6     0.03   0.02  -0.13    -0.02  -0.01  -0.01    -0.01   0.00   0.04
  27   6     0.02  -0.00  -0.06    -0.02  -0.00  -0.04    -0.00   0.01   0.07
  28   6    -0.01  -0.01  -0.06    -0.02   0.01   0.07     0.01   0.01   0.04
  29   7    -0.03  -0.03   0.09    -0.02   0.02   0.11     0.01   0.02   0.00
  30   6     0.00  -0.04   0.16    -0.03   0.01  -0.00     0.00   0.02   0.03
  31   6     0.00  -0.04   0.18    -0.04   0.01   0.00     0.01   0.02   0.02
  32   6     0.05  -0.00   0.21    -0.05   0.08   0.20     0.00  -0.00  -0.04
  33   6     0.05   0.00   0.09    -0.05   0.07   0.18     0.00  -0.01  -0.05
  34   6     0.00  -0.01  -0.03    -0.08   0.00  -0.00     0.01   0.00  -0.00
  35   7     0.01   0.02  -0.15    -0.09  -0.00  -0.01     0.01  -0.00  -0.00
  36   6     0.02   0.02  -0.10    -0.08   0.00   0.02     0.01  -0.00  -0.00
  37   6    -0.05   0.02  -0.00    -0.13   0.01   0.09     0.02  -0.00  -0.02
  38   6    -0.07  -0.00   0.09    -0.06   0.04   0.07     0.02  -0.01  -0.01
  39   6    -0.02  -0.01   0.06     0.06   0.08  -0.04    -0.00  -0.02   0.01
  40   6     0.06   0.00  -0.05     0.09   0.07  -0.09    -0.01  -0.02   0.02
  41   6     0.07   0.02  -0.12     0.00   0.03  -0.05    -0.00  -0.01   0.01
  42   6    -0.01   0.03  -0.10    -0.08  -0.01  -0.03     0.01  -0.00   0.01
  43   6    -0.00   0.07  -0.09    -0.12  -0.00  -0.09     0.03  -0.01   0.02
  44   6     0.01   0.04   0.00    -0.07  -0.04  -0.06     0.01   0.00   0.02
  45   6     0.01  -0.02   0.08     0.01  -0.10   0.04    -0.01   0.02  -0.01
  46   6    -0.00  -0.05   0.05     0.03  -0.10   0.08    -0.02   0.02  -0.03
  47   6    -0.02  -0.02  -0.05    -0.02  -0.05   0.04    -0.00   0.01  -0.01
  48   6    -0.04  -0.03  -0.03    -0.06  -0.06  -0.17     0.02   0.02   0.05
  49   6    -0.04  -0.05   0.07    -0.06  -0.07  -0.18     0.02   0.04   0.06
  50   7     0.04  -0.03   0.09    -0.03  -0.01  -0.13    -0.00   0.02   0.06
  51   6     0.03  -0.03   0.06    -0.01  -0.01  -0.09     0.00   0.02   0.04
  52   6     0.05   0.01   0.03    -0.05  -0.05  -0.05     0.06   0.03   0.00
  53   6     0.01   0.02  -0.01    -0.06  -0.04   0.03     0.06   0.03  -0.03
  54   6    -0.06  -0.00  -0.02    -0.04   0.01   0.05    -0.01   0.03  -0.02
  55   6    -0.07  -0.04   0.01     0.01   0.04   0.01    -0.07   0.02   0.02
  56   6    -0.02  -0.06   0.05     0.03   0.03  -0.07    -0.05   0.02   0.04
  57   6    -0.05   0.00   0.12     0.11  -0.09  -0.04    -0.06   0.02  -0.08
  58   6    -0.03  -0.03   0.15     0.11  -0.09  -0.00    -0.07   0.04  -0.10
  59   1     0.00  -0.01   0.05     0.02  -0.04   0.01     0.00  -0.02   0.04
  60   1    -0.01   0.01   0.03     0.02  -0.04  -0.01    -0.00  -0.03   0.03
  61   1    -0.02   0.01  -0.03     0.03  -0.01  -0.03     0.01  -0.01  -0.16
  62   1    -0.02  -0.00  -0.06     0.02   0.01   0.01     0.00  -0.01  -0.15
  63   1    -0.01   0.02  -0.00     0.00  -0.02  -0.02    -0.00   0.01   0.14
  64   1     0.01   0.02  -0.02    -0.00   0.01   0.08    -0.00   0.01   0.15
  65   1     0.01   0.01   0.02     0.01   0.03   0.01     0.00  -0.02   0.03
  66   1     0.00   0.00   0.04     0.01   0.03  -0.02    -0.00  -0.02   0.03
  67   1     0.01  -0.00   0.04     0.03   0.04  -0.04     0.02   0.02  -0.06
  68   1     0.02   0.01   0.03     0.03   0.03  -0.01     0.02   0.01  -0.04
  69   1     0.02   0.01  -0.02     0.01   0.01   0.00    -0.02  -0.00  -0.17
  70   1     0.02   0.00  -0.05     0.01  -0.01  -0.03    -0.01   0.00  -0.15
  71   1     0.02   0.00   0.09    -0.02   0.04   0.10    -0.00  -0.01  -0.02
  72   1     0.03   0.01   0.03    -0.01   0.04   0.09    -0.00  -0.01  -0.03
  73   1    -0.03   0.01   0.00    -0.06  -0.00   0.04     0.01   0.00  -0.01
  74   1    -0.04  -0.00   0.05    -0.03   0.01   0.03     0.01   0.00  -0.01
  75   1    -0.01  -0.01   0.04     0.04   0.03  -0.02    -0.00  -0.01   0.00
  76   1     0.03  -0.00  -0.02     0.05   0.03  -0.05    -0.01  -0.01   0.01
  77   1     0.03   0.01  -0.05     0.01   0.01  -0.02    -0.00  -0.01   0.00
  78   1     0.00   0.03  -0.04    -0.05   0.01  -0.04     0.01  -0.00   0.01
  79   1     0.00   0.02   0.01    -0.03  -0.01  -0.03     0.01  -0.00   0.01
  80   1     0.01  -0.01   0.05     0.02  -0.04   0.02    -0.01   0.01  -0.01
  81   1    -0.00  -0.03   0.03     0.03  -0.04   0.04    -0.01   0.01  -0.01
  82   1    -0.01  -0.02  -0.02    -0.00  -0.01   0.02    -0.00   0.00  -0.01
  83   1    -0.02  -0.01  -0.03    -0.01  -0.04  -0.08     0.00   0.01   0.02
  84   1    -0.02  -0.02   0.02    -0.02  -0.04  -0.09     0.01   0.02   0.03
  85   1     0.03   0.01   0.01    -0.02  -0.03  -0.02     0.03   0.01  -0.00
  86   1     0.01   0.02  -0.01    -0.03  -0.02   0.02     0.03   0.01  -0.02
  87   1    -0.03   0.00  -0.01    -0.02   0.01   0.03    -0.01   0.01  -0.01
  88   1    -0.03  -0.02   0.00     0.01   0.02   0.01    -0.03   0.01   0.01
  89   1    -0.01  -0.03   0.02     0.02   0.02  -0.03    -0.02   0.00   0.02
  90   1    -0.02   0.00   0.03     0.04  -0.02  -0.01    -0.03   0.01  -0.03
  91   1    -0.01  -0.01   0.05     0.04  -0.02   0.00    -0.03   0.02  -0.05
                     22                     23                     24
                        a                      a                      a 
 Frequencies --   115.2263               132.4832               133.8410
 Red. masses --    11.0547                11.4295                11.5552
 Frc consts  --     0.0000                 0.0000                 0.0000
 IR Inten    --     1.1815                 5.5096                 0.7516
 Raman Activ --     0.0000                 0.0000                 0.0000
 Depolar     --     0.0000                 0.0000                 0.0000
 Atom AN      X      Y      Z        X      Y      Z        X      Y      Z
   1   7    -0.16   0.20   0.00     0.03  -0.16   0.01    -0.12   0.10  -0.11
   2   6    -0.01  -0.02   0.01    -0.07  -0.01  -0.01    -0.01  -0.05   0.03
   3   6     0.07  -0.13   0.03    -0.10   0.05  -0.03     0.03  -0.12   0.10
   4   6     0.05  -0.11   0.00    -0.11   0.04  -0.04     0.03  -0.09   0.07
   5   6     0.04  -0.08  -0.04    -0.08  -0.00   0.00    -0.01  -0.03  -0.02
   6   6     0.02  -0.07  -0.06    -0.04  -0.03   0.04    -0.04   0.00  -0.08
   7   6    -0.00  -0.02  -0.08    -0.01  -0.06   0.05    -0.06   0.05  -0.11
   8   6    -0.01   0.00   0.07    -0.00  -0.04   0.09    -0.06   0.05  -0.07
   9   6    -0.02   0.02   0.12     0.00  -0.04   0.02    -0.06   0.05   0.02
  10   6    -0.04   0.01   0.05     0.03  -0.04  -0.06    -0.05   0.05   0.06
  11   6    -0.04   0.00  -0.05     0.01  -0.06  -0.05    -0.05   0.06   0.01
  12   6    -0.03  -0.02  -0.15     0.01  -0.06  -0.02    -0.05   0.05  -0.09
  13   6    -0.03   0.01  -0.04    -0.03  -0.06  -0.03    -0.03   0.06   0.05
  14   6    -0.02   0.04   0.03    -0.03  -0.07   0.13    -0.04   0.05   0.09
  15   6     0.02   0.04   0.02    -0.04  -0.06   0.18    -0.09   0.05   0.07
  16   6     0.04   0.09   0.06    -0.02  -0.02   0.10    -0.12   0.03   0.02
  17   6     0.06   0.10   0.05     0.00   0.03   0.00    -0.18   0.03   0.01
  18   6     0.07   0.13   0.04     0.03   0.09  -0.14    -0.19   0.01  -0.04
  19   6     0.06   0.14   0.04     0.03   0.10  -0.16    -0.17   0.01  -0.08
  20   6     0.00   0.01  -0.01     0.01   0.04  -0.05    -0.16   0.05  -0.02
  21   7    -0.15  -0.29  -0.12    -0.05  -0.09   0.19    -0.10   0.20   0.12
  22   6     0.05   0.14   0.03     0.03   0.08  -0.12    -0.12   0.02  -0.09
  23   6     0.04   0.12   0.04     0.00   0.02   0.01    -0.10   0.04  -0.03
  24   6     0.03   0.02  -0.07    -0.04  -0.06   0.17    -0.07   0.04   0.03
  25   6     0.01  -0.01  -0.11    -0.04  -0.06   0.00    -0.06   0.04  -0.01
  26   6    -0.02  -0.01  -0.07    -0.04  -0.06  -0.12    -0.01   0.04   0.01
  27   6    -0.02  -0.01  -0.01    -0.02  -0.03  -0.19     0.01   0.02   0.00
  28   6    -0.03  -0.00   0.05     0.02  -0.02  -0.10    -0.02   0.03   0.08
  29   7    -0.04  -0.01   0.07     0.05   0.06   0.04    -0.03  -0.02   0.09
  30   6    -0.02  -0.02   0.03     0.01   0.09   0.04     0.03  -0.06  -0.01
  31   6    -0.03  -0.03  -0.01     0.02   0.14   0.19     0.05  -0.09  -0.02
  32   6    -0.01  -0.12  -0.26     0.03   0.12   0.16     0.12  -0.05   0.03
  33   6    -0.01  -0.10  -0.25     0.03   0.06   0.04     0.13  -0.02   0.04
  34   6     0.00   0.00   0.01     0.05   0.02   0.00     0.14  -0.03   0.01
  35   7     0.01   0.02   0.02     0.06  -0.03  -0.15     0.18  -0.00   0.01
  36   6     0.01   0.03  -0.01     0.05  -0.04  -0.10     0.17  -0.00  -0.03
  37   6     0.07   0.05  -0.08     0.02  -0.03  -0.05     0.15  -0.08  -0.03
  38   6     0.05   0.03  -0.07     0.01  -0.04   0.04     0.03  -0.15   0.01
  39   6    -0.05  -0.02   0.03     0.05  -0.07   0.05    -0.05  -0.13   0.04
  40   6    -0.10  -0.04   0.09     0.09  -0.09  -0.02     0.02  -0.03  -0.01
  41   6    -0.05  -0.01   0.06     0.09  -0.08  -0.09     0.14   0.03  -0.05
  42   6     0.01   0.02   0.03     0.06  -0.04  -0.07     0.15   0.02   0.03
  43   6     0.04  -0.02   0.08     0.09   0.01   0.00     0.14   0.09   0.01
  44   6     0.05  -0.03   0.05     0.03   0.05   0.05     0.07   0.14  -0.02
  45   6     0.02   0.03  -0.03    -0.07   0.04   0.01     0.04   0.13  -0.02
  46   6    -0.01   0.08  -0.07    -0.09  -0.02  -0.04     0.07   0.04   0.03
  47   6    -0.00   0.07  -0.03    -0.01  -0.07  -0.07     0.13  -0.01   0.05
  48   6    -0.01   0.08   0.22     0.05   0.09   0.15     0.08  -0.08  -0.04
  49   6    -0.01   0.07   0.21     0.06   0.15   0.25     0.07  -0.12  -0.06
  50   7    -0.02  -0.02   0.01    -0.04   0.04  -0.15     0.04  -0.05  -0.08
  51   6    -0.02  -0.02   0.01    -0.07   0.05  -0.10     0.05  -0.05  -0.07
  52   6     0.03  -0.04  -0.01    -0.06  -0.02  -0.07     0.01  -0.06  -0.04
  53   6     0.06  -0.05  -0.02     0.03  -0.05  -0.01    -0.05  -0.04   0.02
  54   6     0.02  -0.03  -0.01     0.09   0.01   0.01    -0.06  -0.01   0.04
  55   6    -0.06  -0.00   0.02     0.03   0.10  -0.00     0.01  -0.01  -0.00
  56   6    -0.07   0.00   0.02    -0.05   0.12  -0.06     0.07  -0.03  -0.06
  57   6     0.05  -0.11   0.00    -0.04  -0.00   0.03    -0.02  -0.05  -0.01
  58   6     0.07  -0.14   0.06    -0.07   0.03  -0.01     0.02  -0.11   0.09
  59   1     0.02  -0.03   0.00    -0.04   0.02  -0.02     0.02  -0.03   0.03
  60   1     0.01  -0.02  -0.02    -0.02  -0.01   0.00    -0.01  -0.00  -0.01
  61   1    -0.00   0.00   0.04    -0.00  -0.01   0.05    -0.02   0.01  -0.03
  62   1    -0.01   0.01   0.06    -0.00  -0.02   0.01    -0.02   0.01   0.02
  63   1    -0.01  -0.01  -0.08     0.00  -0.02  -0.01    -0.01   0.02  -0.04
  64   1    -0.01   0.02   0.03    -0.01  -0.02   0.06    -0.01   0.01   0.04
  65   1     0.02   0.03   0.01    -0.00   0.00   0.01    -0.06   0.02   0.01
  66   1     0.02   0.04   0.01     0.01   0.03  -0.06    -0.06   0.00  -0.01
  67   1     0.01   0.05   0.01     0.01   0.03  -0.05    -0.02  -0.00  -0.04
  68   1     0.01   0.03   0.01     0.00  -0.00   0.02    -0.02   0.01  -0.01
  69   1     0.01   0.01  -0.03    -0.01  -0.02   0.07    -0.02   0.01   0.01
  70   1     0.01  -0.01  -0.05    -0.01  -0.02  -0.01    -0.02   0.02  -0.02
  71   1    -0.00  -0.06  -0.13     0.01   0.04   0.05     0.04  -0.02   0.02
  72   1    -0.01  -0.05  -0.12     0.00   0.01  -0.01     0.04  -0.00   0.02
  73   1     0.04   0.02  -0.04    -0.00  -0.00  -0.02     0.06  -0.03  -0.01
  74   1     0.03   0.02  -0.04    -0.01  -0.01   0.03    -0.00  -0.06   0.01
  75   1    -0.02  -0.01   0.02     0.01  -0.02   0.03    -0.05  -0.05   0.03
  76   1    -0.05  -0.02   0.05     0.04  -0.03  -0.00    -0.01   0.00  -0.01
  77   1    -0.02  -0.01   0.02     0.03  -0.03  -0.04     0.05   0.03  -0.02
  78   1     0.02  -0.02   0.04     0.05   0.01   0.00     0.05   0.03   0.00
  79   1     0.02  -0.02   0.03     0.02   0.03   0.03     0.02   0.06  -0.01
  80   1     0.00   0.01  -0.02    -0.04   0.02   0.01    -0.01   0.05  -0.01
  81   1    -0.01   0.04  -0.04    -0.05  -0.01  -0.01     0.01   0.01   0.01
  82   1    -0.00   0.03  -0.01    -0.01  -0.04  -0.03     0.04  -0.02   0.02
  83   1    -0.01   0.05   0.11     0.01   0.03   0.05     0.02  -0.02  -0.02
  84   1     0.00   0.04   0.11     0.02   0.06   0.10     0.02  -0.04  -0.03
  85   1     0.02  -0.01  -0.01    -0.03  -0.02  -0.03     0.00  -0.03  -0.02
  86   1     0.03  -0.02  -0.01     0.02  -0.03   0.00    -0.03  -0.01   0.01
  87   1     0.01  -0.01  -0.00     0.05  -0.01   0.01    -0.03   0.00   0.03
  88   1    -0.03   0.00   0.01     0.02   0.04   0.01     0.01   0.00   0.00
  89   1    -0.03   0.01   0.01    -0.02   0.06  -0.03     0.03  -0.01  -0.02
  90   1     0.02  -0.03  -0.00    -0.01  -0.00   0.01    -0.01  -0.01  -0.01
  91   1     0.03  -0.05   0.03    -0.02   0.02  -0.00     0.01  -0.04   0.04
                     25                     26                     27
                        a                      a                      a 
 Frequencies --   138.6710               146.4196               148.0720
 Red. masses --    11.7342                11.8422                11.6366
 Frc consts  --     0.0000                 0.0000                 0.0000
 IR Inten    --     8.9311                 9.9058                 2.8195
 Raman Activ --     0.0000                 0.0000                 0.0000
 Depolar     --     0.0000                 0.0000                 0.0000
 Atom AN      X      Y      Z        X      Y      Z        X      Y      Z
   1   7    -0.13   0.11   0.31     0.24  -0.25  -0.18     0.24   0.09   0.09
   2   6    -0.02  -0.03  -0.07    -0.01   0.10   0.03     0.17   0.15  -0.03
   3   6     0.00  -0.07  -0.22    -0.08   0.21   0.09     0.14   0.17  -0.09
   4   6     0.05  -0.02  -0.16    -0.13   0.10   0.07     0.15   0.12  -0.04
   5   6     0.05  -0.02   0.00    -0.06  -0.02   0.01     0.17   0.08   0.03
   6   6     0.01  -0.06   0.10     0.04  -0.01  -0.02     0.14   0.06   0.07
   7   6     0.00  -0.04   0.19     0.08  -0.07  -0.08     0.12   0.03   0.08
   8   6     0.02  -0.02   0.07     0.08  -0.07  -0.06     0.10   0.00   0.02
   9   6     0.01  -0.00  -0.04     0.06  -0.04   0.01     0.08   0.02  -0.08
  10   6    -0.00  -0.00  -0.06     0.04  -0.04   0.06    -0.01   0.00  -0.09
  11   6    -0.02  -0.01   0.06     0.03  -0.06  -0.02     0.00   0.03  -0.01
  12   6    -0.01  -0.03   0.26     0.06  -0.08  -0.11     0.03   0.02   0.06
  13   6    -0.04  -0.01  -0.04    -0.03  -0.06   0.01    -0.01   0.03  -0.01
  14   6    -0.04  -0.00  -0.19    -0.06  -0.09  -0.02    -0.02   0.02   0.07
  15   6    -0.06   0.01  -0.13    -0.09  -0.08  -0.01    -0.05   0.02   0.08
  16   6    -0.04   0.05  -0.05    -0.07  -0.01   0.02    -0.07   0.02   0.05
  17   6     0.00   0.04   0.01     0.01   0.00   0.03    -0.10   0.03   0.02
  18   6     0.02   0.09   0.11     0.07   0.13   0.02    -0.10   0.04  -0.04
  19   6    -0.03   0.16   0.13     0.02   0.23  -0.00    -0.09   0.05  -0.08
  20   6    -0.07   0.08   0.04    -0.04   0.13   0.00    -0.09   0.05  -0.03
  21   7    -0.20  -0.17  -0.20    -0.23  -0.24  -0.05    -0.09   0.07   0.09
  22   6    -0.09   0.16   0.11    -0.07   0.22  -0.01    -0.06   0.05  -0.07
  23   6    -0.11   0.11   0.01    -0.13   0.09   0.02    -0.06   0.04   0.01
  24   6    -0.04  -0.01  -0.04    -0.09  -0.08  -0.05    -0.04   0.00   0.03
  25   6    -0.04  -0.01   0.02    -0.08  -0.05  -0.02    -0.03   0.01  -0.05
  26   6    -0.02  -0.01   0.02    -0.04  -0.05   0.05     0.00   0.01  -0.07
  27   6    -0.01   0.00   0.01    -0.02  -0.02   0.10    -0.00  -0.03  -0.09
  28   6     0.00  -0.01  -0.11     0.02  -0.02   0.11    -0.03  -0.03  -0.11
  29   7     0.01  -0.01  -0.17     0.03   0.00   0.06    -0.07  -0.11  -0.06
  30   6     0.01  -0.00  -0.04     0.01   0.01  -0.00    -0.02  -0.14   0.02
  31   6     0.03   0.01   0.02     0.02   0.00  -0.11    -0.03  -0.16   0.10
  32   6     0.05   0.06   0.11     0.01   0.01  -0.08     0.00  -0.16   0.05
  33   6     0.06   0.05   0.11     0.01   0.01  -0.04     0.01  -0.11   0.02
  34   6     0.07  -0.00   0.00     0.03   0.00  -0.03    -0.04  -0.05   0.05
  35   7     0.08  -0.02  -0.03     0.04  -0.01   0.09    -0.04   0.03  -0.05
  36   6     0.07  -0.02  -0.02     0.02  -0.01   0.06    -0.00   0.05  -0.06
  37   6     0.05  -0.06  -0.00     0.03  -0.04   0.03    -0.00   0.07  -0.05
  38   6     0.01  -0.08   0.02     0.02  -0.05  -0.02    -0.03   0.05   0.01
  39   6     0.01  -0.07   0.01    -0.00  -0.02  -0.03    -0.05   0.02   0.05
  40   6     0.05  -0.03  -0.03    -0.02   0.02   0.00    -0.02   0.02   0.01
  41   6     0.08  -0.01  -0.04     0.00   0.02   0.05     0.00   0.04  -0.05
  42   6     0.07  -0.01  -0.01     0.04  -0.01   0.07    -0.06   0.05  -0.06
  43   6     0.08   0.04  -0.01     0.02   0.00   0.03    -0.05   0.03  -0.05
  44   6     0.03   0.07  -0.00    -0.00   0.02  -0.03     0.01  -0.03   0.02
  45   6    -0.01   0.06   0.00     0.01   0.03  -0.04     0.04  -0.05   0.06
  46   6     0.00  -0.01   0.02     0.05   0.01   0.02    -0.01   0.01  -0.01
  47   6     0.05  -0.04   0.01     0.06  -0.00   0.07    -0.06   0.06  -0.07
  48   6     0.05  -0.03  -0.05     0.04  -0.04  -0.14    -0.08  -0.04   0.13
  49   6     0.05  -0.02  -0.03     0.03  -0.04  -0.18    -0.08  -0.10   0.15
  50   7     0.00   0.00   0.07    -0.02  -0.01   0.06     0.02  -0.12  -0.01
  51   6     0.00   0.00   0.06    -0.02  -0.01   0.04     0.02  -0.13  -0.00
  52   6    -0.00   0.04   0.04    -0.03   0.00   0.03     0.01  -0.13   0.00
  53   6    -0.00   0.04   0.00    -0.02   0.00   0.01    -0.03  -0.12   0.00
  54   6    -0.00  -0.00  -0.02    -0.01  -0.02  -0.00    -0.07  -0.12   0.00
  55   6     0.00  -0.03  -0.01     0.00  -0.04  -0.00    -0.05  -0.13  -0.00
  56   6     0.00  -0.03   0.04    -0.01  -0.03   0.02    -0.01  -0.14  -0.00
  57   6    -0.06  -0.09  -0.02     0.10   0.10   0.02     0.13   0.12   0.01
  58   6    -0.06  -0.08  -0.18     0.03   0.21   0.07     0.11   0.17  -0.08
  59   1     0.03   0.00  -0.06    -0.07   0.02   0.03     0.04   0.04  -0.01
  60   1     0.03   0.00   0.02    -0.03  -0.03   0.00     0.06   0.02   0.02
  61   1     0.02  -0.01   0.01     0.03  -0.02  -0.02     0.03   0.00   0.01
  62   1     0.01   0.00  -0.04     0.02  -0.01   0.01     0.03   0.02  -0.04
  63   1    -0.01  -0.01   0.12     0.02  -0.03  -0.05     0.00  -0.01   0.03
  64   1    -0.01  -0.00  -0.10    -0.01  -0.03  -0.02    -0.00  -0.00   0.03
  65   1     0.01   0.00  -0.00     0.01  -0.02   0.02    -0.03   0.01   0.01
  66   1     0.03   0.02   0.04     0.05   0.04   0.01    -0.03   0.01  -0.01
  67   1    -0.04   0.06   0.04    -0.03   0.09  -0.01    -0.01   0.01  -0.03
  68   1    -0.05   0.03  -0.00    -0.06   0.02   0.01    -0.01   0.01   0.01
  69   1    -0.01  -0.00  -0.00    -0.03  -0.02  -0.03    -0.01   0.00   0.01
  70   1    -0.01  -0.00   0.02    -0.03  -0.01  -0.02    -0.01   0.01  -0.03
  71   1     0.02   0.02   0.05     0.00   0.01  -0.02     0.01  -0.06   0.00
  72   1     0.02   0.02   0.05    -0.00   0.01   0.00     0.02  -0.03  -0.01
  73   1     0.01  -0.02   0.00     0.02  -0.02   0.01    -0.00   0.03  -0.02
  74   1    -0.01  -0.03   0.02     0.01  -0.02  -0.01    -0.01   0.02   0.01
  75   1    -0.00  -0.02   0.01    -0.00  -0.00  -0.02    -0.02   0.00   0.03
  76   1     0.02  -0.00  -0.01    -0.01   0.01  -0.00    -0.01  -0.00   0.01
  77   1     0.03   0.00  -0.02    -0.00   0.01   0.02     0.00   0.01  -0.02
  78   1     0.03   0.01  -0.00     0.00  -0.00   0.01    -0.02   0.01  -0.02
  79   1     0.01   0.03  -0.00    -0.01   0.01  -0.02     0.01  -0.02   0.02
  80   1    -0.01   0.02  -0.00    -0.00   0.02  -0.02     0.03  -0.03   0.04
  81   1    -0.01  -0.01   0.01     0.02   0.00   0.01     0.00   0.00  -0.00
  82   1     0.02  -0.02   0.00     0.02  -0.00   0.03    -0.02   0.03  -0.03
  83   1     0.01  -0.01  -0.03     0.01  -0.02  -0.05    -0.03  -0.00   0.05
  84   1     0.01  -0.01  -0.02     0.01  -0.02  -0.07    -0.03  -0.03   0.05
  85   1     0.00   0.02   0.02    -0.01   0.01   0.01     0.01  -0.04  -0.00
  86   1    -0.00   0.02  -0.00    -0.01   0.01   0.00    -0.01  -0.03  -0.00
  87   1    -0.00  -0.00  -0.01    -0.00  -0.01  -0.01    -0.03  -0.03   0.00
  88   1     0.00  -0.02  -0.01     0.01  -0.02  -0.00    -0.02  -0.04   0.00
  89   1     0.00  -0.02   0.02    -0.00  -0.01   0.01    -0.00  -0.05   0.00
  90   1    -0.04  -0.03   0.01     0.06   0.03   0.00     0.05   0.03   0.01
  91   1    -0.03  -0.03  -0.07     0.02   0.09   0.03     0.02   0.05  -0.04
                     28                     29                     30
                        a                      a                      a 
 Frequencies --   167.2347               183.8746               200.1677
 Red. masses --    11.1604                11.3773                11.2915
 Frc consts  --     0.0000                 0.0000                 0.0000
 IR Inten    --     1.7305                39.0322                 6.2965
 Raman Activ --     0.0000                 0.0000                 0.0000
 Depolar     --     0.0000                 0.0000                 0.0000
 Atom AN      X      Y      Z        X      Y      Z        X      Y      Z
   1   7    -0.06   0.03   0.05    -0.06  -0.10   0.12    -0.03  -0.09  -0.08
   2   6    -0.01  -0.04  -0.02    -0.10  -0.02  -0.08    -0.08  -0.01   0.06
   3   6    -0.00  -0.04  -0.04    -0.11   0.00  -0.13    -0.08  -0.00   0.08
   4   6     0.00   0.01  -0.06    -0.07  -0.01  -0.05    -0.12  -0.04   0.02
   5   6    -0.01   0.03  -0.00    -0.03  -0.06   0.09    -0.08  -0.08  -0.07
   6   6    -0.03   0.00   0.04     0.00  -0.08   0.13     0.01  -0.06  -0.11
   7   6    -0.03   0.02   0.04     0.01  -0.06   0.10     0.02  -0.05  -0.07
   8   6    -0.04   0.03   0.24     0.05  -0.01  -0.09     0.03  -0.01   0.09
   9   6    -0.03   0.01   0.07     0.03   0.02  -0.12     0.02   0.02   0.14
  10   6     0.00  -0.01  -0.15     0.01   0.03  -0.04     0.02   0.02   0.06
  11   6     0.00  -0.01  -0.15    -0.00  -0.02  -0.05     0.01  -0.01   0.08
  12   6    -0.01   0.00  -0.17     0.01  -0.05   0.10     0.02  -0.04  -0.05
  13   6     0.01  -0.01  -0.07     0.02  -0.01  -0.12     0.02  -0.00   0.13
  14   6     0.01  -0.03   0.19     0.02  -0.02  -0.13     0.01  -0.02   0.08
  15   6    -0.02  -0.04   0.17    -0.00  -0.02   0.05    -0.02  -0.03  -0.05
  16   6    -0.02  -0.05   0.17    -0.00  -0.03   0.07    -0.02  -0.03  -0.08
  17   6    -0.03  -0.02   0.09    -0.01  -0.01   0.04     0.02  -0.04  -0.04
  18   6    -0.01   0.02  -0.09     0.00   0.02  -0.06     0.04  -0.01   0.04
  19   6     0.03   0.03  -0.19     0.01   0.03  -0.08     0.00   0.03   0.06
  20   6     0.02   0.01  -0.10     0.01   0.01  -0.05     0.00   0.03   0.04
  21   7     0.01  -0.02   0.19    -0.01  -0.02   0.07    -0.03  -0.03  -0.06
  22   6     0.05   0.01  -0.13     0.01  -0.00  -0.02    -0.04   0.04   0.01
  23   6     0.03  -0.04   0.07    -0.00  -0.02   0.06    -0.06   0.01  -0.05
  24   6    -0.04  -0.02  -0.08    -0.00  -0.01   0.16    -0.03  -0.01  -0.09
  25   6    -0.03   0.00  -0.19    -0.00   0.01  -0.01    -0.02   0.02   0.08
  26   6     0.00   0.01  -0.11     0.02   0.01  -0.13     0.02   0.02   0.15
  27   6     0.02   0.02  -0.01     0.04   0.05  -0.09     0.04   0.06   0.06
  28   6     0.00  -0.00  -0.19     0.00   0.07   0.08     0.00   0.03  -0.08
[...]
  35   7    -0.00   0.00  -0.00    -0.00  -0.00  -0.00     0.00  -0.00  -0.00
  36   6     0.00  -0.00  -0.00    -0.00   0.00   0.00    -0.00   0.00   0.00
  37   6    -0.01  -0.01  -0.01     0.01   0.03   0.03     0.03   0.05   0.05
  38   6    -0.03   0.01  -0.02     0.06  -0.02   0.04     0.09  -0.03   0.06
  39   6    -0.02   0.04   0.01     0.04  -0.09  -0.01     0.06  -0.13  -0.02
  40   6     0.01   0.02   0.02    -0.03  -0.04  -0.05    -0.04  -0.07  -0.07
  41   6     0.02  -0.01   0.01    -0.03   0.01  -0.02    -0.05   0.02  -0.04
  42   6     0.00   0.00   0.00     0.00   0.00   0.00    -0.00  -0.00  -0.00
  43   6    -0.01   0.02   0.02    -0.02   0.05   0.05     0.01  -0.03  -0.03
  44   6    -0.04  -0.00   0.02    -0.10  -0.01   0.06     0.05   0.00  -0.03
  45   6    -0.04  -0.05  -0.01    -0.09  -0.13  -0.02     0.05   0.06   0.01
  46   6     0.01  -0.03  -0.03     0.03  -0.08  -0.07    -0.01   0.04   0.03
  47   6     0.02   0.00  -0.01     0.05   0.01  -0.03    -0.03  -0.00   0.02
  48   6    -0.00  -0.00   0.00    -0.00  -0.00   0.00     0.00   0.00  -0.00
  49   6    -0.00   0.00  -0.00    -0.00   0.00  -0.00     0.00  -0.00   0.00
  50   7     0.00  -0.00   0.00     0.00   0.00  -0.00    -0.00   0.00  -0.00
  51   6    -0.00  -0.00  -0.00    -0.00  -0.00   0.00     0.00   0.00  -0.00
  52   6     0.00  -0.00   0.00     0.00  -0.00   0.00    -0.00   0.00  -0.00
  53   6     0.00   0.00   0.00     0.00   0.00   0.00    -0.00  -0.00  -0.01
  54   6     0.00   0.01  -0.00     0.00   0.01  -0.00    -0.00  -0.01   0.00
  55   6    -0.00   0.00  -0.01    -0.00   0.00  -0.00     0.00  -0.00   0.01
  56   6    -0.00  -0.00  -0.00    -0.00  -0.00  -0.00     0.00   0.00   0.00
  57   6    -0.00   0.00   0.00    -0.00  -0.00   0.00     0.00  -0.00  -0.00
  58   6    -0.00   0.00   0.00     0.00  -0.00  -0.00    -0.00   0.00   0.00
  59   1    -0.00   0.02   0.01     0.00  -0.00  -0.00    -0.00   0.01   0.00
  60   1    -0.04   0.02   0.02     0.01  -0.00  -0.00    -0.02   0.01   0.01
  61   1    -0.03   0.37  -0.03     0.00  -0.06   0.01    -0.01   0.16  -0.01
  62   1    -0.72   0.32  -0.05     0.12  -0.05   0.01    -0.30   0.13  -0.02
  63   1    -0.07   0.03  -0.01     0.01  -0.01   0.00    -0.04   0.02  -0.00
  64   1     0.02   0.01  -0.00    -0.00  -0.00   0.00     0.00   0.00  -0.00
  65   1    -0.00  -0.00  -0.00     0.00   0.00   0.00    -0.01  -0.01  -0.01
  66   1     0.00  -0.00  -0.00    -0.00   0.00   0.00     0.00  -0.01  -0.00
  67   1     0.00   0.00   0.00    -0.00  -0.00  -0.00     0.01   0.00   0.00
  68   1    -0.00   0.01   0.00     0.00  -0.00  -0.00    -0.00   0.01   0.00
  69   1     0.00  -0.00   0.00    -0.00   0.00  -0.00     0.00  -0.01   0.00
  70   1     0.00   0.00  -0.00    -0.00  -0.00   0.00     0.01   0.01  -0.00
  71   1    -0.01  -0.02   0.01     0.00   0.00  -0.00    -0.02  -0.02   0.01
  72   1     0.01  -0.03   0.01    -0.00   0.00  -0.00    -0.01   0.01  -0.01
  73   1     0.03   0.05   0.05    -0.05  -0.09  -0.09    -0.09  -0.15  -0.16
  74   1     0.09  -0.03   0.06    -0.18   0.06  -0.13    -0.30   0.09  -0.21
  75   1     0.07  -0.14  -0.02    -0.14   0.29   0.04    -0.21   0.45   0.06
  76   1    -0.04  -0.07  -0.07     0.08   0.14   0.15     0.13   0.22   0.23
  77   1    -0.05   0.02  -0.04     0.11  -0.04   0.08     0.17  -0.06   0.12
  78   1     0.02  -0.06  -0.06     0.06  -0.17  -0.15    -0.04   0.10   0.09
  79   1     0.12   0.01  -0.07     0.33   0.02  -0.19    -0.17  -0.01   0.10
  80   1     0.12   0.16   0.03     0.32   0.42   0.07    -0.16  -0.21  -0.03
  81   1    -0.03   0.09   0.08    -0.09   0.25   0.22     0.05  -0.13  -0.11
  82   1    -0.07  -0.01   0.04    -0.18  -0.02   0.11     0.10   0.01  -0.06
  83   1     0.00   0.00  -0.00     0.01   0.01  -0.00    -0.01  -0.01   0.01
  84   1     0.00  -0.00   0.00     0.00  -0.00   0.00    -0.00   0.01  -0.00
  85   1    -0.00   0.00  -0.01    -0.00   0.00  -0.01     0.00  -0.01   0.01
  86   1    -0.01  -0.01  -0.01    -0.01  -0.01  -0.01     0.01   0.01   0.02
  87   1    -0.01  -0.03   0.00    -0.01  -0.02   0.00     0.01   0.04  -0.00
  88   1     0.00  -0.01   0.02     0.00  -0.01   0.01    -0.00   0.01  -0.02
  89   1     0.01   0.01   0.01     0.00   0.00   0.00    -0.01  -0.00  -0.01
  90   1    -0.00  -0.00  -0.00     0.00  -0.00  -0.00    -0.00   0.00   0.00
  91   1     0.01  -0.00  -0.00    -0.00   0.00   0.00     0.00  -0.00  -0.00
                    262                    263                    264
                        a                      a                      a 
 Frequencies --  3102.2230              3105.0606              3116.1597
 Red. masses --     1.9244                 1.8201                 1.8532
 Frc consts  --     0.0000                 0.0000                 0.0000
 IR Inten    --   131.7789                61.8946                23.8299
 Raman Activ --     0.0000                 0.0000                 0.0000
 Depolar     --     0.0000                 0.0000                 0.0000
 Atom AN      X      Y      Z        X      Y      Z        X      Y      Z
   1   7    -0.00  -0.00   0.00    -0.00  -0.00   0.00     0.00   0.00   0.00
   2   6     0.00   0.00   0.00     0.00   0.00  -0.00    -0.00  -0.00   0.00
   3   6    -0.00  -0.00  -0.00    -0.00   0.00   0.00     0.00   0.00  -0.00
   4   6     0.00   0.00   0.00     0.00   0.00   0.00    -0.00   0.00   0.00
   5   6    -0.00  -0.00   0.00    -0.00  -0.00  -0.00    -0.00   0.00   0.00
   6   6     0.00   0.00   0.00    -0.00  -0.00  -0.00    -0.00  -0.00   0.00
   7   6    -0.00  -0.00   0.00     0.01   0.00   0.00     0.00   0.00   0.00
   8   6     0.00  -0.00   0.00    -0.00   0.02  -0.00    -0.00   0.00  -0.00
   9   6     0.00  -0.00   0.00    -0.02   0.01  -0.00    -0.01   0.00  -0.00
  10   6     0.00   0.00   0.00    -0.00   0.00  -0.00    -0.00  -0.00  -0.00
  11   6    -0.00  -0.00   0.00     0.00  -0.01   0.00     0.00   0.00  -0.00
  12   6     0.00  -0.00   0.00     0.22  -0.09   0.02    -0.00   0.00  -0.00
  13   6     0.00   0.00  -0.00    -0.00  -0.01   0.00     0.00  -0.00   0.00
  14   6    -0.00  -0.00   0.00    -0.11  -0.07   0.01    -0.00  -0.00   0.00
  15   6    -0.00  -0.00   0.00    -0.00  -0.00   0.00    -0.00  -0.00   0.00
  16   6     0.00  -0.00  -0.00    -0.00  -0.00  -0.00    -0.00   0.00  -0.00
  17   6    -0.00  -0.00  -0.00    -0.00  -0.00  -0.00    -0.00  -0.00  -0.00
  18   6     0.00  -0.00  -0.00    -0.00  -0.00  -0.00    -0.00   0.00   0.00
  19   6    -0.00   0.00   0.00     0.00   0.00   0.00     0.00  -0.00  -0.00
  20   6     0.00  -0.00  -0.00    -0.00   0.00  -0.00    -0.00   0.00  -0.00
  21   7    -0.00   0.00   0.00     0.00  -0.00   0.00     0.00  -0.00   0.00
  22   6     0.00  -0.00   0.00    -0.00  -0.00  -0.00    -0.00   0.00   0.00
  23   6    -0.00   0.00  -0.00     0.00  -0.01  -0.01     0.00  -0.00  -0.00
  24   6    -0.00   0.00  -0.00     0.00   0.00  -0.00    -0.00   0.00  -0.00
  25   6     0.01   0.00  -0.00     0.00  -0.00  -0.00     0.00   0.00  -0.00
  26   6    -0.00   0.00  -0.00     0.00   0.00  -0.00    -0.00   0.00  -0.00
  27   6     0.00   0.00  -0.00    -0.00  -0.00   0.00     0.00  -0.00   0.00
  28   6    -0.00  -0.00   0.00     0.00  -0.00   0.00     0.00   0.00  -0.00
  29   7     0.00  -0.00   0.00     0.00   0.00  -0.00     0.00  -0.00   0.00
  30   6    -0.00   0.00  -0.00     0.00  -0.00   0.00     0.00   0.00  -0.00
  31   6     0.00   0.00  -0.00    -0.00   0.00   0.00     0.01   0.00  -0.00
  32   6    -0.00  -0.00   0.00    -0.00  -0.00   0.00     0.16   0.19  -0.09
  33   6    -0.00   0.00  -0.00     0.00  -0.00   0.00    -0.03   0.06  -0.02
  34   6    -0.00  -0.00   0.00    -0.00   0.00  -0.00    -0.00  -0.00   0.00
  35   7    -0.00  -0.00  -0.00     0.00  -0.00  -0.00     0.00   0.00   0.00
  36   6     0.00  -0.00  -0.00     0.00  -0.00  -0.00    -0.00   0.00  -0.00
  37   6    -0.00  -0.00  -0.00    -0.00  -0.00  -0.00    -0.00  -0.00  -0.00
  38   6    -0.00   0.00  -0.00    -0.00   0.00  -0.00    -0.00   0.00  -0.00
  39   6    -0.00   0.01   0.00    -0.00   0.00   0.00    -0.00   0.00   0.00
  40   6     0.00   0.00   0.00     0.00   0.00   0.00     0.00   0.00   0.00
  41   6     0.00  -0.00   0.00     0.00  -0.00   0.00     0.00  -0.00   0.00
  42   6     0.00   0.00   0.00     0.00   0.00   0.00    -0.00  -0.00  -0.00
  43   6    -0.00   0.00   0.00    -0.00   0.00   0.00     0.00   0.00   0.00
  44   6    -0.01  -0.00   0.00    -0.00  -0.00   0.00    -0.00  -0.00   0.00
  45   6    -0.01  -0.01  -0.00    -0.00  -0.00  -0.00    -0.00  -0.00  -0.00
  46   6     0.00  -0.01  -0.01     0.00  -0.00  -0.00     0.00  -0.00  -0.00
  47   6     0.01   0.00  -0.00     0.00   0.00  -0.00    -0.00  -0.00   0.00
  48   6     0.00  -0.00   0.00    -0.00  -0.00   0.00     0.00   0.00  -0.00
  49   6    -0.00   0.00  -0.00    -0.00   0.00  -0.00    -0.01   0.01  -0.00
  50   7    -0.00  -0.00   0.00    -0.00   0.00  -0.00    -0.00   0.00  -0.00
  51   6     0.00   0.01  -0.00    -0.00  -0.00   0.00    -0.00  -0.00   0.00
  52   6    -0.01   0.04  -0.06     0.00  -0.00   0.00     0.00  -0.00   0.00
  53   6    -0.07  -0.06  -0.12     0.00   0.00   0.00    -0.00  -0.00  -0.00
  54   6    -0.07  -0.18   0.01     0.00   0.00  -0.00    -0.00  -0.00   0.00
  55   6     0.01  -0.06   0.10    -0.00   0.00  -0.00     0.00  -0.00   0.00
  56   6     0.03   0.02   0.04     0.00   0.00   0.00    -0.00   0.00  -0.00
  57   6    -0.00  -0.00  -0.00    -0.00  -0.02  -0.01     0.00   0.00  -0.00
  58   6     0.00   0.00  -0.00     0.00  -0.00  -0.00    -0.00  -0.00  -0.00
  59   1    -0.00  -0.00  -0.00     0.00  -0.00  -0.00    -0.00  -0.00  -0.00
  60   1     0.00  -0.00  -0.00     0.00  -0.00  -0.00     0.00  -0.00  -0.00
  61   1    -0.00   0.00  -0.00     0.01  -0.07   0.01     0.00  -0.01   0.00
  62   1    -0.01   0.00  -0.00     0.06  -0.03   0.00     0.03  -0.01   0.00
  63   1    -0.01   0.00  -0.00    -0.77   0.35  -0.07     0.00  -0.00   0.00
  64   1     0.00   0.00  -0.00     0.37   0.24  -0.03     0.01   0.01  -0.00
  65   1     0.00   0.00   0.00     0.00   0.00   0.00     0.00   0.00   0.00
  66   1    -0.00   0.00   0.00    -0.00   0.00   0.00     0.00  -0.00  -0.00
  67   1    -0.00  -0.00  -0.00     0.00   0.00   0.00     0.00   0.00   0.00
  68   1     0.00  -0.00  -0.00    -0.01   0.05   0.02    -0.00   0.00   0.00
  69   1     0.00  -0.00   0.00     0.00  -0.02   0.00     0.00  -0.00   0.00
  70   1    -0.02  -0.01   0.00    -0.00  -0.00   0.00    -0.01  -0.01   0.00
  71   1     0.00   0.00  -0.00     0.00   0.00  -0.00    -0.56  -0.68   0.31
  72   1     0.00  -0.00   0.00    -0.00   0.00  -0.00     0.08  -0.18   0.07
  73   1     0.00   0.01   0.01     0.00   0.00   0.00     0.00   0.00   0.00
  74   1     0.01  -0.00   0.01     0.00  -0.00   0.00     0.00  -0.00   0.00
  75   1     0.01  -0.02  -0.00     0.00  -0.00  -0.00     0.00  -0.00  -0.00
  76   1    -0.01  -0.01  -0.01    -0.00  -0.00  -0.00    -0.00  -0.00  -0.00
  77   1    -0.01   0.00  -0.01    -0.00   0.00  -0.00    -0.01   0.00  -0.00
  78   1     0.00  -0.01  -0.01     0.00  -0.00  -0.00    -0.00   0.00   0.00
  79   1     0.02   0.00  -0.01     0.00   0.00  -0.00     0.00   0.00  -0.00
  80   1     0.02   0.03   0.01     0.00   0.00   0.00     0.00   0.00   0.00
  81   1    -0.01   0.02   0.02    -0.00   0.00   0.00    -0.00   0.00   0.00
  82   1    -0.02  -0.00   0.01    -0.00  -0.00   0.00     0.00   0.00  -0.00
  83   1     0.00   0.00  -0.00     0.00   0.00  -0.00    -0.01  -0.01   0.00
  84   1     0.01  -0.01   0.01     0.00  -0.00   0.00     0.02  -0.04   0.02
  85   1     0.02  -0.12   0.19    -0.00   0.00  -0.00    -0.00   0.00  -0.00
  86   1     0.22   0.20   0.39    -0.00  -0.00  -0.00     0.00   0.00   0.00
  87   1     0.23   0.61  -0.04    -0.00  -0.01   0.00     0.00   0.00  -0.00
  88   1    -0.05   0.21  -0.34     0.00  -0.00   0.00    -0.00   0.00  -0.00
  89   1    -0.08  -0.07  -0.14    -0.00  -0.00  -0.00     0.00   0.00   0.00
  90   1     0.00   0.00   0.00    -0.00   0.07   0.04     0.00  -0.00  -0.00
  91   1    -0.00   0.00   0.00    -0.01   0.00   0.01     0.00   0.00  -0.00
                    265                    266                    267
                        a                      a                      a 
 Frequencies --  3118.2694              3121.8106              3127.2804
 Red. masses --     1.7835                 1.8286                 1.8344
 Frc consts  --     0.0000                 0.0000                 0.0000
 IR Inten    --   135.1415                40.9712                43.8654
 Raman Activ --     0.0000                 0.0000                 0.0000
 Depolar     --     0.0000                 0.0000                 0.0000
 Atom AN      X      Y      Z        X      Y      Z        X      Y      Z
   1   7    -0.00  -0.00  -0.00    -0.00  -0.00  -0.00     0.00   0.00  -0.00
   2   6     0.00   0.00  -0.00     0.00   0.00  -0.00    -0.00  -0.00  -0.00
   3   6    -0.00   0.00   0.00    -0.00  -0.00   0.00     0.00   0.00   0.00
   4   6     0.00   0.00   0.00     0.00   0.00   0.00    -0.00   0.00   0.00
   5   6    -0.00   0.00   0.00    -0.00   0.00   0.00     0.00  -0.00  -0.00
   6   6    -0.00  -0.00  -0.00     0.00   0.00  -0.00     0.00   0.00  -0.00
   7   6     0.00   0.00   0.00     0.00   0.00   0.00    -0.00  -0.00   0.00
   8   6    -0.00   0.01  -0.00    -0.00   0.00  -0.00     0.00  -0.00   0.00
   9   6    -0.00   0.00  -0.00    -0.00   0.00  -0.00     0.00  -0.00   0.00
  10   6    -0.00   0.00  -0.00     0.00   0.00  -0.00     0.00   0.00   0.00
  11   6     0.00  -0.00   0.00    -0.00  -0.00   0.00    -0.00  -0.00   0.00
  12   6     0.11  -0.05   0.01     0.01  -0.00   0.00    -0.00   0.00  -0.00
  13   6     0.00   0.01  -0.00     0.00   0.00   0.00    -0.00   0.00  -0.00
  14   6     0.20   0.12  -0.02     0.01   0.01  -0.00    -0.00  -0.00   0.00
  15   6     0.01   0.00  -0.00     0.00   0.00  -0.00    -0.00   0.00  -0.00
  16   6    -0.00   0.00   0.00    -0.00  -0.00  -0.00     0.00  -0.00  -0.00
  17   6    -0.00  -0.00  -0.00    -0.00  -0.00  -0.00     0.00   0.00   0.00
  18   6     0.00  -0.00  -0.00     0.00  -0.00  -0.00     0.00   0.00   0.00
  19   6    -0.00  -0.00  -0.00     0.00   0.00   0.00    -0.00   0.00   0.00
  20   6     0.00  -0.00   0.00     0.00  -0.00   0.00     0.00  -0.00   0.00
  21   7    -0.00   0.00  -0.00    -0.00   0.00  -0.00    -0.00   0.00  -0.00
  22   6     0.00   0.00   0.00     0.00   0.00   0.00    -0.00  -0.00  -0.00
  23   6    -0.00   0.02   0.01    -0.00   0.00   0.00    -0.00  -0.00  -0.00
  24   6    -0.00  -0.00   0.00     0.00  -0.06   0.00     0.00  -0.00   0.00
  25   6     0.02   0.01  -0.00    -0.22  -0.15   0.01    -0.00  -0.00   0.00
  26   6    -0.00  -0.00   0.00    -0.01   0.00   0.00     0.00  -0.00   0.00
  27   6    -0.00   0.00  -0.00    -0.00  -0.00   0.00    -0.00   0.00  -0.00
  28   6    -0.00  -0.00   0.00    -0.00  -0.00   0.00    -0.00  -0.00  -0.00
  29   7     0.00   0.00  -0.00    -0.00  -0.00   0.00     0.00   0.00  -0.00
  30   6    -0.00   0.00   0.00    -0.00   0.00  -0.00    -0.00   0.00   0.00
  31   6     0.00   0.00  -0.00     0.00  -0.00  -0.00    -0.01   0.00  -0.00
  32   6     0.00   0.00  -0.00     0.00   0.00  -0.00    -0.01  -0.01   0.00
  33   6    -0.00   0.00  -0.00    -0.00   0.00  -0.00     0.00  -0.00   0.00
  34   6    -0.00  -0.00   0.00    -0.00   0.00  -0.00     0.00  -0.00   0.00
  35   7     0.00   0.00  -0.00     0.00  -0.00  -0.00    -0.00   0.00   0.00
  36   6     0.00  -0.00  -0.00     0.00  -0.00  -0.00     0.00  -0.00  -0.00
  37   6    -0.00  -0.00  -0.00    -0.00  -0.00  -0.00     0.00   0.00   0.00
  38   6    -0.00   0.00  -0.00    -0.00   0.00  -0.00     0.00  -0.00   0.00
  39   6    -0.00   0.00   0.00    -0.00   0.00   0.00     0.00  -0.00  -0.00
  40   6     0.00   0.00   0.00     0.00   0.00   0.00    -0.00  -0.00  -0.00
  41   6     0.00  -0.00   0.00     0.00  -0.00   0.00     0.00  -0.00   0.00
  42   6     0.00   0.00   0.00     0.00   0.00   0.00     0.00   0.00  -0.00
  43   6    -0.00   0.00   0.00    -0.00   0.00   0.00    -0.00   0.00   0.00
  44   6    -0.00  -0.00   0.00    -0.00  -0.00   0.00     0.00   0.00  -0.00
  45   6    -0.00  -0.00  -0.00    -0.00  -0.00  -0.00     0.00   0.00   0.00
  46   6     0.00  -0.00  -0.00     0.00  -0.00  -0.00    -0.00   0.00   0.00
  47   6     0.00   0.00  -0.00     0.00  -0.00  -0.00    -0.00  -0.00   0.00
  48   6     0.00   0.00  -0.00    -0.00  -0.00   0.00     0.03   0.04  -0.02
  49   6    -0.00   0.00  -0.00     0.00  -0.00   0.00    -0.10   0.22  -0.11
  50   7     0.00  -0.00   0.00     0.00  -0.00   0.00     0.00  -0.00   0.00
  51   6     0.00  -0.00   0.00    -0.00   0.00  -0.00    -0.00  -0.00   0.00
  52   6     0.00  -0.00   0.00    -0.00   0.00  -0.00     0.00  -0.00   0.01
  53   6     0.00   0.00   0.00    -0.00  -0.00  -0.00     0.00   0.00   0.00
  54   6     0.00   0.00   0.00    -0.00  -0.00  -0.00     0.00   0.00  -0.00
  55   6     0.00  -0.00   0.00    -0.00  -0.00   0.00     0.00  -0.00   0.00
  56   6    -0.00  -0.00  -0.00     0.00   0.00   0.01    -0.00   0.00   0.00
  57   6    -0.00  -0.01  -0.00    -0.00  -0.00  -0.00    -0.00  -0.00  -0.00
  58   6     0.00  -0.00  -0.00     0.00  -0.00  -0.00     0.00  -0.00  -0.00
  59   1     0.00  -0.00  -0.00    -0.00  -0.00  -0.00    -0.00  -0.00  -0.00
  60   1     0.01  -0.00  -0.00     0.00  -0.00  -0.00    -0.00   0.00   0.00
  61   1     0.00  -0.02   0.00     0.00  -0.01   0.00    -0.00   0.00  -0.00
  62   1     0.01  -0.00   0.00     0.01  -0.00   0.00    -0.00   0.00  -0.00
  63   1    -0.40   0.18  -0.04    -0.03   0.01  -0.00     0.00  -0.00   0.00
  64   1    -0.71  -0.46   0.06    -0.05  -0.03   0.00     0.00   0.00  -0.00
  65   1     0.00   0.00   0.00     0.01   0.01   0.00    -0.00  -0.00  -0.00
  66   1    -0.00   0.00   0.00    -0.00   0.00   0.00     0.00  -0.00  -0.00
  67   1    -0.01  -0.00  -0.00    -0.00  -0.00  -0.00     0.00   0.00   0.00
  68   1     0.01  -0.07  -0.03     0.00  -0.01  -0.00    -0.00   0.00   0.00
  69   1     0.00   0.02  -0.00    -0.01   0.17  -0.01    -0.00   0.00  -0.00
  70   1    -0.06  -0.04   0.00     0.78   0.53  -0.02     0.02   0.01  -0.00
  71   1    -0.01  -0.01   0.00    -0.01  -0.01   0.01     0.03   0.03  -0.02
  72   1     0.00  -0.00   0.00     0.00  -0.00   0.00    -0.00   0.01  -0.00
  73   1     0.00   0.00   0.00     0.00   0.00   0.00    -0.00  -0.00  -0.00
  74   1     0.00  -0.00   0.00     0.00  -0.00   0.00    -0.00   0.00  -0.00
  75   1     0.00  -0.00  -0.00     0.00  -0.00  -0.00    -0.00   0.00   0.00
  76   1    -0.00  -0.00  -0.00    -0.00  -0.00  -0.00     0.00   0.00   0.00
  77   1    -0.00   0.00  -0.00    -0.00   0.00  -0.00    -0.00   0.00  -0.00
  78   1     0.00  -0.00  -0.00     0.00  -0.00  -0.00     0.00  -0.00  -0.00
  79   1     0.00   0.00  -0.00     0.00   0.00  -0.00    -0.00  -0.00   0.00
  80   1     0.00   0.00   0.00     0.00   0.00   0.00    -0.00  -0.00  -0.00
  81   1    -0.00   0.00   0.00    -0.00   0.00   0.00     0.00  -0.00  -0.00
  82   1    -0.00  -0.00   0.00    -0.00  -0.00   0.00     0.00   0.00  -0.00
  83   1    -0.00  -0.00   0.00     0.00   0.00  -0.00    -0.08  -0.11   0.05
  84   1     0.00  -0.01   0.00    -0.01   0.02  -0.01     0.37  -0.79   0.37
  85   1    -0.00   0.00  -0.00     0.00  -0.01   0.01    -0.00   0.02  -0.03
  86   1    -0.00  -0.00  -0.00     0.00   0.00   0.01    -0.01  -0.01  -0.01
  87   1    -0.00  -0.00   0.00     0.00   0.01  -0.00    -0.00  -0.00   0.00
  88   1    -0.00   0.00  -0.00    -0.00   0.00  -0.01    -0.00   0.00  -0.00
  89   1     0.00   0.00   0.00    -0.01  -0.01  -0.02    -0.00  -0.00  -0.00
  90   1    -0.00   0.02   0.01    -0.00   0.00   0.00    -0.00   0.00   0.00
  91   1    -0.00   0.00   0.00    -0.00   0.00   0.00    -0.00   0.00   0.00
