$hessian                                                                        
        0.8560715000   0.5765971692   0.0015531494  -0.8166224545  -0.5373203653
       -0.0009717215  -0.0484030667  -0.0448777244  -0.0011268154   0.0169037839
       -0.0014237592  -0.0060163033  -0.0055822107  -0.0080126221  -0.0014254637
        0.0096453127   0.0062109062   0.0001068336  -0.0069213481  -0.0045154004
       -0.0000273642   0.0048427722   0.0004012243  -0.0005623161  -0.0017400700
       -0.0034302981   0.0001127602   0.0030940062   0.0031528816  -0.0000917837
       -0.0024464240  -0.0008856100   0.0000617801   0.0011650381   0.0041048936
        0.0003070022   0.0041985331   0.0006107944  -0.0001844915  -0.0024966689
        0.0036448954   0.0004342806   0.0064404788  -0.0028749178   0.0000503830
       -0.0060241084   0.0029502287   0.0001027410   0.0022996518  -0.0030663875
       -0.0004713398  -0.0033932908   0.0000562340  -0.0006833667   0.0047230838
       -0.0022077413   0.0000165701  -0.0061278924   0.0028293542   0.0000384506
        0.0039060947  -0.0018007894  -0.0000278606  -0.0023670377   0.0025868143
        0.0007053638   0.0038744187   0.0002571084   0.0003774114  -0.0045376601
       -0.0001098318  -0.0003850805   0.0025597136  -0.0037568030  -0.0000023105
       -0.0061650727   0.0034207775   0.0000876957   0.0056483354  -0.0027447282
        0.0004638411  -0.0055160568   0.0004121182  -0.0000868012   0.0054270359
        0.0024956249  -0.0008285395  -0.0088707151   0.0002774159  -0.0003033557
        0.0070225082  -0.0003518860  -0.0001665098  -0.0024470153   0.0022155244
       -0.0005351964   0.0019173311   0.0004667481  -0.0003475657   0.0005811149
       -0.0001356242   0.0000113978  -0.0023283257   0.0002666069  -0.0000810262
        0.0001816340  -0.0007226901   0.0002676339   0.0001118228   0.0002142106
        0.0001646277   0.0001702089  -0.0001536381   0.0000535897   0.0000145808
        0.0000031768   0.0000012022   0.0000064360  -0.0003243989  -0.0001667702
       -0.0002407905   0.0001238742  -0.0000617844   0.0003749656   0.0006834637
       -0.0002153233   0.0000126000  -0.0002522971  -0.0001377692   0.0002441034
        0.0001302339  -0.0000199605  -0.0000120739   0.0000012134   0.0000248155
        0.0000586120   0.0003404170   0.0001397166  -0.0003004937  -0.0001136436
        0.0000488357   0.0015120418  -0.0005572141   0.0003356360  -0.0027857445
       -0.0017388855   0.0006379721   0.0001436915  -0.0049998102   0.0009246725
        0.0008155023   0.0020689004  -0.0002496813  -0.0004680573  -0.0005426862
        0.0000370850   0.0000059134   0.0004390939   0.0000265065  -0.0000578712
       -0.0000268374   0.0000244146   0.0001600293   0.0003263898  -0.0000168583
       -0.0000318010  -0.0007068992   0.0000447581  -0.0098096050  -0.0027706535
        0.0001100887   0.0024356436   0.0152408796   0.0076735832   0.0000446809
        0.0001512816  -0.0000159277  -0.0002104811  -0.0003151744  -0.0001790659
       -0.0000814055   0.0000353092  -0.0000880479   0.0000663782  -0.0001096122
        0.0001537339   0.0000017153  -0.0003421748   0.0000573551   0.0000578329
       -0.0000701452  -0.0000007979  -0.0000921058  -0.0001017156  -0.0000831009
        0.0000311099  -0.0000405572  -0.0001375243   0.0000780957  -0.0000066488
        0.0001548969  -0.0000891603  -0.0000091010   0.0001478727  -0.0000151574
       -0.0001306326  -0.0000727378  -0.0000934987   0.0000070296   0.0000430342
       -0.0000537661  -0.0000246889   0.0000406687  -0.0000085695   0.0001536377
       -0.0000013485  -0.0000338706  -0.0001358148   0.0000497935  -0.0000666099
        0.0000215018  -0.0000248108  -0.0000354297   0.0001336410   0.0000219979
        0.0000326911   0.0000626701   0.0001210870   0.0001026033  -0.0000883565
       -0.0001169155   0.0001699319   0.0001089198  -0.0001712519  -0.0001212458
       -0.0000268821   0.0000344480  -0.0000365448  -0.0001287457  -0.0000102295
        0.0000279316  -0.0001201296  -0.0000485463   0.0001366980   0.0000345604
        0.0001332878   0.0000406393  -0.0001561929   0.0000275920   0.0000636258
       -0.0000429929   0.0000379283  -0.0000084519   0.0000889214   0.0000091156
        0.0000825473  -0.0000851015  -0.0001368346  -0.0000364993  -0.0000776399
        0.0000024537  -0.0000324129  -0.0000869168   0.0000840317  -0.0000894888
        0.0000493849  -0.0000480322  -0.0007122523  -0.0002922897   0.0001230395
        0.0000078255  -0.0005603752   0.0001413958
        0.5765971692   0.4119881860   0.0009557797  -0.5374777155  -0.4028297009
       -0.0022702310  -0.0448538796  -0.0134791191   0.0014458319   0.0095742346
       -0.0030701554  -0.0057538717  -0.0045456154  -0.0054534110   0.0004345876
        0.0063091258   0.0044727658   0.0002561659  -0.0047463625  -0.0029484693
       -0.0002314373   0.0032305306   0.0002166745  -0.0003873538  -0.0011770047
       -0.0022905201   0.0000887946   0.0020240633   0.0020982377  -0.0000644225
       -0.0016277456  -0.0005588326   0.0000497146   0.0008100184   0.0027934067
        0.0001999239   0.0028413250   0.0003545032  -0.0001261594  -0.0017273819
        0.0025892613   0.0002944535   0.0044036591  -0.0020264681   0.0000340158
       -0.0041428433   0.0020296708   0.0000701331   0.0015755035  -0.0021434081
       -0.0003368980  -0.0023636703   0.0000181961  -0.0004856699   0.0032337947
       -0.0015138985   0.0000109559  -0.0041486843   0.0019286821   0.0000255498
        0.0026518128  -0.0012403205  -0.0000186988  -0.0016134477   0.0018168791
        0.0005136542   0.0026803710   0.0001998226   0.0002764492  -0.0031103074
       -0.0000912675  -0.0002662750   0.0017454142  -0.0025196720  -0.0000044629
       -0.0042334758   0.0023698805   0.0000600441   0.0037350932  -0.0019615185
        0.0003226880  -0.0037388263   0.0003011022  -0.0000557975   0.0037148532
        0.0017635020  -0.0005734428  -0.0059674911   0.0000546861  -0.0001850047
        0.0047901465  -0.0002399557  -0.0001129698  -0.0016351287   0.0014762355
       -0.0003543838   0.0012685326   0.0002854890  -0.0002458259   0.0005802737
       -0.0001072168   0.0000102937  -0.0016139319   0.0001896667  -0.0000565776
        0.0000690252  -0.0003825034   0.0001980669   0.0001081410   0.0001411244
        0.0001068855   0.0001125816  -0.0000831277   0.0000457637   0.0000112127
        0.0000020099  -0.0000011646  -0.0000122745  -0.0002061540  -0.0001190516
       -0.0001769972   0.0000554325  -0.0000401041   0.0001746459   0.0003611059
       -0.0001645387   0.0000426270  -0.0001731568  -0.0000888625   0.0001595852
        0.0000672041  -0.0000236307  -0.0000091646   0.0000021626   0.0000185629
        0.0000207360   0.0002180365   0.0000974288  -0.0002119592  -0.0000446071
        0.0000299044   0.0010103430  -0.0003424719   0.0002382849  -0.0018621876
       -0.0011585779   0.0004266045   0.0001785728  -0.0033174731   0.0006099480
        0.0005703151   0.0014623221  -0.0001693258  -0.0003092644  -0.0003669527
        0.0000403951   0.0000025717   0.0003017543   0.0000166622  -0.0000403951
       -0.0000202047   0.0000174127   0.0001095447   0.0002251082  -0.0000092370
       -0.0000269904  -0.0004744122   0.0000127992  -0.0063500741  -0.0012448515
        0.0014468133   0.0043141994   0.0114167349   0.0035825315  -0.0004761143
        0.0001592189  -0.0000863840  -0.0004185398  -0.0004316437  -0.0000325564
       -0.0000762698   0.0000213366  -0.0000589650   0.0000355673  -0.0000760648
        0.0001017974   0.0000277375  -0.0002257373   0.0000434157   0.0000529957
       -0.0000536327   0.0000009930  -0.0000575356  -0.0000658351  -0.0000554179
        0.0000184871  -0.0000191869  -0.0000928419   0.0000346639   0.0000001491
        0.0000964427  -0.0000443729  -0.0000152949   0.0000940478  -0.0000037564
       -0.0000908697  -0.0000493947  -0.0000670210  -0.0000035695   0.0000304963
       -0.0000366718  -0.0000182495   0.0000297019  -0.0000085349   0.0001116326
        0.0000028578  -0.0000262052  -0.0000939645   0.0000400608  -0.0000463684
        0.0000125107  -0.0000147360  -0.0000259375   0.0000896987   0.0000148651
        0.0000224701   0.0000418676   0.0000816541   0.0000710307  -0.0000587097
       -0.0000858997   0.0001140099   0.0000758506  -0.0001214804  -0.0000832604
       -0.0000180122   0.0000217595  -0.0000225374  -0.0000879560  -0.0000060469
        0.0000197456  -0.0000814272  -0.0000304730   0.0000928968   0.0000189918
        0.0000971946   0.0000262375  -0.0001124123   0.0000149359   0.0000434503
       -0.0000307291   0.0000242225  -0.0000067313   0.0000606183   0.0000032242
        0.0000543351  -0.0000624507  -0.0000969574  -0.0000273916  -0.0000576855
        0.0000017278  -0.0000216070  -0.0000637576   0.0000608669  -0.0000599616
        0.0000334219  -0.0000304872  -0.0001806145  -0.0000084387   0.0001829354
        0.0001486004   0.0001389146   0.0000267397
        0.0015531494   0.0009557797   0.0165060018  -0.0005813331  -0.0020055362
       -0.0328866730  -0.0013973926   0.0012786753   0.0155057662  -0.0001809271
       -0.0019332747   0.0006412182  -0.0009872452   0.0005192206  -0.0008223553
        0.0000530173   0.0003101083   0.0001846665  -0.0000562737  -0.0002381302
        0.0002599305   0.0001890438   0.0000363390  -0.0000033227  -0.0000425885
       -0.0001527459  -0.0000170366   0.0000916636   0.0001138361   0.0000122302
       -0.0000432293  -0.0000366279  -0.0000079442  -0.0000180835   0.0000987542
        0.0000309722   0.0000836746   0.0000599497  -0.0000026088  -0.0000201426
       -0.0000013979   0.0000109121   0.0000603247   0.0000306603   0.0000029095
       -0.0000179711   0.0000172229  -0.0000008646   0.0000010369   0.0000065056
        0.0000084493   0.0000140665   0.0000120314   0.0000055980  -0.0000212493
        0.0000092818   0.0000027136   0.0000243796  -0.0000097736  -0.0000100519
       -0.0000162344   0.0000079604   0.0000094304  -0.0000074340  -0.0000145140
       -0.0000050110  -0.0000011808  -0.0000113222  -0.0000010586  -0.0000795708
       -0.0000105389  -0.0000032516   0.0000454675  -0.0000702592  -0.0000022321
       -0.0001319374   0.0000486042   0.0000045418   0.0001923962  -0.0000024665
        0.0000002442  -0.0001602120   0.0000193641  -0.0000108639   0.0002475521
        0.0001281356  -0.0000294524  -0.0003635863   0.0000332038  -0.0000000720
        0.0002784510  -0.0000191680  -0.0000138641  -0.0000968917   0.0001396273
       -0.0000481448   0.0000743340   0.0000447524  -0.0000392540   0.0000725537
       -0.0000214853   0.0000066722  -0.0001260992   0.0000155436  -0.0000020030
       -0.0000146720   0.0000244074   0.0000186324  -0.0000040934   0.0000032065
       -0.0000108123  -0.0000030012   0.0000000578  -0.0000004254  -0.0000036101
        0.0000075896   0.0000016013   0.0000019049   0.0000029204   0.0000008922
        0.0000006344   0.0000105246   0.0000087399  -0.0000202495  -0.0000204859
       -0.0000217755  -0.0000061891  -0.0000036921   0.0000146438   0.0000000240
        0.0000015698   0.0000002315  -0.0000051805  -0.0000067227   0.0000013475
        0.0000035217  -0.0000027640  -0.0000031184  -0.0000008875  -0.0000140947
       -0.0000078499   0.0000429138  -0.0000411481   0.0000387520  -0.0001210760
       -0.0001245442   0.0000577698   0.0000417929  -0.0002120667   0.0000449338
       -0.0000029004  -0.0000084817  -0.0000035274  -0.0000179625  -0.0000092586
       -0.0000142954  -0.0000050217  -0.0000025399   0.0000001531  -0.0000016642
       -0.0000008121   0.0000014491   0.0000040009   0.0000030627   0.0000011420
        0.0000060873  -0.0000140629   0.0000145236  -0.0004903276   0.0011281245
       -0.0007242278   0.0019916925  -0.0001298843   0.0008123279  -0.0001431164
       -0.0001621601   0.0003410893  -0.0002229702  -0.0000375919  -0.0000797061
        0.0000060528   0.0000077525  -0.0000060429  -0.0000055435   0.0000075539
        0.0000013121  -0.0000019014  -0.0000084765  -0.0000031108  -0.0000007895
        0.0000008064  -0.0000077448  -0.0000011105  -0.0000016903  -0.0000021744
        0.0000003881  -0.0000030480  -0.0000001393   0.0000048469  -0.0000009423
       -0.0000032073  -0.0000029438  -0.0000002015  -0.0000047020  -0.0000011930
       -0.0000036681  -0.0000019100  -0.0000042563  -0.0000047896  -0.0000026106
       -0.0000055037  -0.0000081620   0.0000094815   0.0000060746  -0.0000104768
        0.0000057334   0.0000004060   0.0000002010   0.0000018983   0.0000039523
       -0.0000019857   0.0000031801   0.0000020919  -0.0000026487  -0.0000012485
       -0.0000006198  -0.0000021713  -0.0000004503  -0.0000018385   0.0000023556
       -0.0000031942  -0.0000002558  -0.0000001416  -0.0000039961   0.0000023897
        0.0000003926  -0.0000022611   0.0000023531   0.0000044296   0.0000004733
       -0.0000006906   0.0000042595   0.0000027449  -0.0000025798  -0.0000039736
        0.0000041363   0.0000076236   0.0000067311  -0.0000057849  -0.0000040991
        0.0000094915  -0.0000098930   0.0000018682   0.0000005416   0.0000024403
        0.0000032107   0.0000031087  -0.0000044844   0.0000009846   0.0000034118
        0.0000040850  -0.0000010037   0.0000010527  -0.0000008831  -0.0000019274
       -0.0000009737   0.0000000176   0.0001083696   0.0001770960  -0.0000922189
        0.0002244653   0.0000746956   0.0003418708
       -0.8166224545  -0.5374777155  -0.0005813331   1.0637287322   0.6630126113
       -0.0059499769  -0.1857303106  -0.0882666030   0.0024937426  -0.0634414896
       -0.0126060012   0.0152474440   0.0060279276   0.0158255305   0.0067826375
       -0.0162658612  -0.0102412105  -0.0000999543   0.0112713366   0.0078790009
       -0.0002684863  -0.0077923247  -0.0006067722   0.0009754937   0.0027866545
        0.0055686584  -0.0001917397  -0.0049936323  -0.0051205208   0.0001685724
        0.0039527607   0.0015199986  -0.0000856725  -0.0018054841  -0.0068115905
       -0.0005741018  -0.0061559585  -0.0010410020   0.0002804750   0.0036177617
       -0.0053155447  -0.0006493369  -0.0096123170   0.0041257927  -0.0000744302
        0.0089623995  -0.0044005006  -0.0001498398  -0.0034378281   0.0045837183
        0.0007007085   0.0051076701  -0.0000821284   0.0010221521  -0.0071036237
        0.0033195992  -0.0000249321   0.0091765330  -0.0042443981  -0.0000608087
       -0.0058701237   0.0027127139   0.0000448834   0.0035403699  -0.0039138682
       -0.0010617422  -0.0057967028  -0.0003837431  -0.0005633333   0.0068243219
        0.0002012683   0.0005682554  -0.0038030198   0.0055170301   0.0000149360
        0.0090149838  -0.0049814666  -0.0001422978  -0.0080672754   0.0038895581
       -0.0006848731   0.0087241673  -0.0003050925   0.0001201047  -0.0085203458
       -0.0039311186   0.0012733150   0.0138402905  -0.0003610755   0.0004346810
       -0.0108868622   0.0005541718   0.0002594886   0.0037991736  -0.0034594653
        0.0008324085  -0.0029723205  -0.0007236853   0.0005466453  -0.0009198265
        0.0002250815  -0.0000242923   0.0036163311  -0.0004019198   0.0001270088
       -0.0002872182   0.0011264337  -0.0004241823  -0.0001549011  -0.0003358203
       -0.0002329988  -0.0002567603   0.0002322122  -0.0000769412  -0.0000182276
       -0.0000148950  -0.0000009684  -0.0000151401   0.0004824785   0.0002500325
        0.0003546538  -0.0002040127   0.0000813943  -0.0005901938  -0.0010678541
        0.0003453478  -0.0000063659   0.0003917162   0.0001960065  -0.0003696604
       -0.0001991437   0.0000273210   0.0000267797   0.0000055212  -0.0000380818
       -0.0000945989  -0.0005058304  -0.0002098313   0.0004544618   0.0001861398
       -0.0000611092  -0.0023470993   0.0008631821  -0.0005259410   0.0043273079
        0.0027143963  -0.0009907863  -0.0005994051   0.0075893424  -0.0013995308
       -0.0012182980  -0.0031106127   0.0003749629   0.0007011026   0.0008211922
       -0.0000502394  -0.0000093630  -0.0006570211  -0.0000461987   0.0000816459
        0.0000346482  -0.0000332704  -0.0002443787  -0.0004946678   0.0000299219
        0.0000493416   0.0010695261  -0.0000668555   0.0191204352   0.0029372517
       -0.0003923061  -0.0143187210  -0.0400660724  -0.0161760916   0.0008178019
       -0.0003393402  -0.0010425066  -0.0008347636  -0.0001960533   0.0003378922
        0.0001810843  -0.0000646213   0.0001459821  -0.0000783163   0.0001691100
       -0.0002619461  -0.0000103785   0.0005283996  -0.0000968681  -0.0001094787
        0.0001207983  -0.0000004509   0.0001474484   0.0001567084   0.0001248215
       -0.0000438727   0.0000721137   0.0002069130  -0.0001174379   0.0000126224
       -0.0002257325   0.0001260397   0.0000151226  -0.0002159971   0.0000219424
        0.0002064102   0.0001069203   0.0001498174  -0.0000013671  -0.0000588869
        0.0000797525   0.0000375068  -0.0000686294   0.0000183440  -0.0002225184
        0.0000077874   0.0000507427   0.0002021395  -0.0000761558   0.0001007572
       -0.0000306548   0.0000377367   0.0000546869  -0.0001941501  -0.0000312206
       -0.0000476117  -0.0000930488  -0.0001763277  -0.0001515008   0.0001331354
        0.0001762223  -0.0002449001  -0.0001618545   0.0002507556   0.0001799016
        0.0000408057  -0.0000512308   0.0000529698   0.0001906911   0.0000148189
       -0.0000419382   0.0001783511   0.0000734373  -0.0002030615  -0.0000498631
       -0.0001977451  -0.0000534307   0.0002300174  -0.0000481832  -0.0000932134
        0.0000681505  -0.0000539596   0.0000167090  -0.0001333132  -0.0000141442
       -0.0001138449   0.0001289973   0.0002033432   0.0000561189   0.0001174857
       -0.0000041799   0.0000484550   0.0001314308  -0.0001285090   0.0001257846
       -0.0000730558   0.0000631853   0.0007448572   0.0002175821  -0.0000866175
        0.0003914851   0.0025448403  -0.0001959802
       -0.5373203653  -0.4028297009  -0.0020055362   0.6630126113   0.5517572606
        0.0133608066  -0.0881054204  -0.1172507217  -0.0041603757  -0.0211245541
        0.0062360136   0.0111869108   0.0082738169   0.0116851766  -0.0022079397
       -0.0105793751  -0.0078213231  -0.0005112416   0.0080448941   0.0049085718
        0.0008154197  -0.0050711939  -0.0002460868   0.0007164190   0.0018763134
        0.0037286777  -0.0001889234  -0.0034564035  -0.0034661912   0.0001128275
        0.0027744694   0.0010039252  -0.0000965487  -0.0014318092  -0.0048177161
       -0.0003573446  -0.0042362151  -0.0006838062   0.0002046204   0.0024687673
       -0.0037004670  -0.0004360367  -0.0065505862   0.0028654740  -0.0000518555
        0.0060888854  -0.0029905916  -0.0000995492  -0.0023226969   0.0031122541
        0.0004762590   0.0034487055  -0.0000540578   0.0006929820  -0.0047720433
        0.0022290511  -0.0000173017   0.0061626145  -0.0028626655  -0.0000391531
       -0.0039352182   0.0018382319   0.0000307710   0.0023761080  -0.0026494830
       -0.0007299049  -0.0039221742  -0.0002842320  -0.0003830554   0.0046388412
        0.0001327859   0.0003930424  -0.0025967197   0.0037907491   0.0000092621
        0.0061901357  -0.0034477429  -0.0000962429  -0.0055778239   0.0026721593
       -0.0004793416   0.0060111356  -0.0002201299   0.0000839224  -0.0058964899
       -0.0027571553   0.0008858739   0.0095827223  -0.0002082539   0.0002918880
       -0.0075528189   0.0003865388   0.0001809712   0.0026391083  -0.0024003096
        0.0005761723  -0.0020656784  -0.0004996505   0.0003814848  -0.0006439327
        0.0001580939  -0.0000186538   0.0025124193  -0.0002863873   0.0000878809
       -0.0001995306   0.0007840498  -0.0002957909  -0.0001080778  -0.0002354303
       -0.0001608106  -0.0001796671   0.0001606870  -0.0000550210  -0.0000104356
       -0.0000090743  -0.0000017177  -0.0000094913   0.0003343778   0.0001755966
        0.0002499776  -0.0001418689   0.0000548697  -0.0004043272  -0.0007332942
        0.0002428047  -0.0000048402   0.0002736393   0.0001349405  -0.0002555906
       -0.0001357515   0.0000201309   0.0000187256   0.0000055574  -0.0000243318
       -0.0000653696  -0.0003485895  -0.0001443362   0.0003158855   0.0001286847
       -0.0000404732  -0.0016340019   0.0006017490  -0.0003670434   0.0030089104
        0.0018880045  -0.0006862662  -0.0003868565   0.0052394784  -0.0009616779
       -0.0008379290  -0.0021452061   0.0002593745   0.0004853644   0.0005669309
       -0.0000335841  -0.0000090277  -0.0004537048  -0.0000295259   0.0000571336
        0.0000259111  -0.0000208948  -0.0001694812  -0.0003414846   0.0000213470
        0.0000326955   0.0007393927  -0.0000474337   0.0107884792  -0.0014747215
       -0.0071173725  -0.0317888673  -0.0426164182  -0.0104527245   0.0022811360
       -0.0004047162   0.0005160020   0.0007360956   0.0006721688  -0.0000852307
        0.0001013320  -0.0000335026   0.0000896348  -0.0000372961   0.0001198377
       -0.0001720764  -0.0000130051   0.0003878195  -0.0000843017  -0.0000721328
        0.0001026548  -0.0000094398   0.0001004568   0.0001096358   0.0000892672
       -0.0000285152   0.0000482565   0.0001426987  -0.0000670761   0.0000070098
       -0.0001447836   0.0000722312   0.0000219585  -0.0001473884   0.0000185881
        0.0001386648   0.0000740159   0.0001046653  -0.0000043060  -0.0000450338
        0.0000545615   0.0000256146  -0.0000476159   0.0000155787  -0.0001533309
        0.0000057233   0.0000349311   0.0001400092  -0.0000535890   0.0000703781
       -0.0000218457   0.0000252163   0.0000379574  -0.0001343837  -0.0000233046
       -0.0000328749  -0.0000645035  -0.0001244082  -0.0001045196   0.0000935037
        0.0001216012  -0.0001679943  -0.0001111832   0.0001726043   0.0001238446
        0.0000286433  -0.0000349536   0.0000370597   0.0001304640   0.0000114855
       -0.0000292517   0.0001224611   0.0000510332  -0.0001401845  -0.0000351457
       -0.0001374586  -0.0000359303   0.0001580778  -0.0000321900  -0.0000651007
        0.0000448433  -0.0000359777   0.0000117757  -0.0000921291  -0.0000099209
       -0.0000787390   0.0000882464   0.0001409661   0.0000373250   0.0000804736
       -0.0000011673   0.0000333877   0.0000904381  -0.0000861325   0.0000869367
       -0.0000490547   0.0000444090  -0.0007228770  -0.0007886029  -0.0003875366
       -0.0001964514   0.0001407127   0.0010992834
       -0.0009717215  -0.0022702310  -0.0328866730  -0.0059499769   0.0133608066
        0.0834495025   0.0023878662  -0.0043196735  -0.0523719698   0.0112097045
        0.0082019357  -0.0006336880   0.0048080057  -0.0034446780   0.0039957125
        0.0005533356  -0.0004584690  -0.0006428956  -0.0004870884   0.0004149744
       -0.0012626690  -0.0001768573  -0.0001381937   0.0000075178  -0.0000051453
        0.0000052967   0.0000644782   0.0001224352   0.0000691546  -0.0000129184
       -0.0001324855   0.0000405327   0.0000498512   0.0001617517   0.0003107366
        0.0000409043   0.0000767031   0.0000063447  -0.0000135384  -0.0000337254
        0.0000495781   0.0000003093   0.0000327141  -0.0000441651   0.0000045506
       -0.0000286755   0.0000132918  -0.0000014339   0.0000076225  -0.0000037693
        0.0000005400   0.0000019365   0.0000091161  -0.0000010415  -0.0000095441
       -0.0000018582  -0.0000020974   0.0000057794  -0.0000006975   0.0000011216
       -0.0000047355   0.0000022297  -0.0000092948  -0.0000032177  -0.0000065770
       -0.0000045086   0.0000009008   0.0000045685   0.0000008383  -0.0000167545
        0.0000014711  -0.0000135181   0.0000185412  -0.0000419801  -0.0000057600
       -0.0000620215   0.0000505217   0.0000015898   0.0001420662   0.0000347868
        0.0000106092  -0.0001758990   0.0000032646  -0.0000103018   0.0002743286
        0.0001580758  -0.0000433594  -0.0004084232   0.0000042192   0.0000122324
        0.0003232969  -0.0000236267  -0.0000168752  -0.0001172420   0.0001604111
       -0.0000535509   0.0000934723   0.0000561732  -0.0000434009   0.0000559845
       -0.0000190315   0.0000072158  -0.0001302868   0.0000141640  -0.0000074633
       -0.0000124540   0.0000174260   0.0000220079  -0.0000094979   0.0000041208
       -0.0000138354  -0.0000031760  -0.0000014959  -0.0000023726  -0.0000045151
        0.0000092080   0.0000024778   0.0000058038   0.0000032578   0.0000053118
        0.0000069974   0.0000141882   0.0000123640  -0.0000137996  -0.0000110808
       -0.0000212438  -0.0000135062  -0.0000025020   0.0000138318  -0.0000008484
        0.0000047842  -0.0000003762  -0.0000060850  -0.0000079013  -0.0000033830
        0.0000062898  -0.0000004413  -0.0000075867   0.0000011762  -0.0000180656
       -0.0000128793   0.0000600154  -0.0000577795   0.0000395765  -0.0001461883
       -0.0001428493   0.0000611538   0.0000632308  -0.0002062137   0.0000328575
       -0.0000030401  -0.0000106248   0.0000002418  -0.0000171596  -0.0000088908
       -0.0000156703  -0.0000040622  -0.0000011673  -0.0000036048  -0.0000023299
       -0.0000013383  -0.0000041402   0.0000033736   0.0000006310  -0.0000009966
        0.0000088739  -0.0000137924   0.0000164012   0.0011461716  -0.0057310534
        0.0040723324  -0.0117418430  -0.0072924709  -0.0005147840  -0.0000144583
        0.0012494413  -0.0018212323   0.0008427800   0.0002488013   0.0001863815
       -0.0000454274  -0.0000024486  -0.0000179197  -0.0000221497  -0.0000027230
       -0.0000010060   0.0000302093   0.0000398294  -0.0000104278   0.0000031475
        0.0000118969   0.0000023026  -0.0000029892  -0.0000037938  -0.0000038407
        0.0000003073  -0.0000053448  -0.0000023468  -0.0000039804   0.0000037366
        0.0000037360   0.0000042082   0.0000026908   0.0000016279  -0.0000004855
       -0.0000026346  -0.0000018344  -0.0000045122  -0.0000044926   0.0000054120
       -0.0000056235  -0.0000079023   0.0000131584   0.0000045702  -0.0000094021
        0.0000065930   0.0000000195   0.0000005028   0.0000007231   0.0000033310
       -0.0000013505   0.0000035841   0.0000019122  -0.0000034969   0.0000015633
       -0.0000012178  -0.0000053577   0.0000012952  -0.0000033704   0.0000014858
       -0.0000011726   0.0000001879  -0.0000021561  -0.0000049495   0.0000033688
       -0.0000000192  -0.0000054062   0.0000026524   0.0000049575  -0.0000035617
       -0.0000004358   0.0000050884  -0.0000010649  -0.0000016283  -0.0000023431
        0.0000019983   0.0000082781   0.0000072135  -0.0000055413  -0.0000044453
        0.0000106721  -0.0000099194   0.0000007524   0.0000023900  -0.0000006981
        0.0000021202   0.0000030755  -0.0000082437   0.0000006367   0.0000032345
       -0.0000006348  -0.0000010908   0.0000018969  -0.0000056215  -0.0000029301
       -0.0000031498  -0.0000027061  -0.0005224209  -0.0007001947   0.0001750256
       -0.0011573878   0.0004152449  -0.0017829729
       -0.0484030667  -0.0448538796  -0.0013973926  -0.1857303106  -0.0881054204
        0.0023878662   0.5798059713   0.0820684572  -0.1232847609  -0.2024870862
        0.0791095092   0.0970884913  -0.0668992563  -0.0400888424   0.0059150449
        0.0059248532   0.0291027695   0.0110017388  -0.0113488864  -0.0079085963
       -0.0004911510   0.0068067640   0.0004325814  -0.0012209460  -0.0024479400
       -0.0049892903   0.0002844991   0.0046823298   0.0046286446  -0.0001511563
       -0.0037945414  -0.0014143577   0.0001135352   0.0020346719   0.0069879162
        0.0006411489   0.0046111912   0.0010099746  -0.0002450107  -0.0026663564
        0.0039609468   0.0005126600   0.0073612589  -0.0030067473   0.0000647946
       -0.0067966541   0.0033472195   0.0001255039   0.0026099714  -0.0034842720
       -0.0005552926  -0.0038578331   0.0000368821  -0.0008252922   0.0053305539
       -0.0024811518   0.0000298520  -0.0069066662   0.0031759832   0.0000389297
        0.0043673038  -0.0020201999  -0.0000326402  -0.0027069735   0.0029628379
        0.0008594659   0.0044110904   0.0003312361   0.0004386693  -0.0052957202
       -0.0001857645  -0.0004421482   0.0029485507  -0.0042123853  -0.0000241482
       -0.0067668412   0.0037748932   0.0001086106   0.0058879017  -0.0027605911
        0.0005461200  -0.0076610207  -0.0002648698  -0.0000872725   0.0073093929
        0.0032305998  -0.0010762940  -0.0112822459  -0.0001090149  -0.0002957286
        0.0088976246  -0.0004803966  -0.0001894313  -0.0031227028   0.0028841049
       -0.0006993020   0.0024994383   0.0006934016  -0.0004241730   0.0004459759
       -0.0001119824  -0.0000125293  -0.0027872606   0.0003249831  -0.0000954152
        0.0002514929  -0.0009639294   0.0003076250   0.0000846460   0.0002295425
        0.0002033661   0.0001934618  -0.0002367326   0.0000336637   0.0000236800
        0.0000100283   0.0000085793   0.0000447620  -0.0004378650  -0.0001862133
       -0.0002387136   0.0001710085  -0.0000668325   0.0005078219   0.0009103044
       -0.0002346246  -0.0000356565  -0.0002730732  -0.0001696718   0.0002994379
        0.0002070942   0.0000106081  -0.0000100984  -0.0000074153   0.0000282138
        0.0001164496   0.0004449088   0.0001586843  -0.0003251669  -0.0001807708
        0.0000587643   0.0019840231  -0.0008502490   0.0004120329  -0.0035949626
       -0.0022533776   0.0008359616   0.0006585566  -0.0057633603   0.0010848334
        0.0009655497   0.0023805565  -0.0002905347  -0.0005305548  -0.0006112072
        0.0000548206   0.0000002995   0.0005318600   0.0000340083  -0.0000705878
       -0.0000122376   0.0000383171   0.0001762265   0.0003765070  -0.0000116241
       -0.0000391197  -0.0008013757   0.0000378947   0.0040440088  -0.0201383692
       -0.0135461380  -0.0710261958  -0.0066662151   0.0054074171  -0.0014311173
        0.0021767461   0.0013138683  -0.0027834665  -0.0044911143   0.0015686520
       -0.0000113378  -0.0001379786  -0.0000819277   0.0001223099  -0.0001632118
        0.0002414159   0.0000034510  -0.0005361116   0.0000176853   0.0000419236
       -0.0001188779  -0.0000075670  -0.0000833381  -0.0001291627  -0.0001108613
        0.0000343402  -0.0000080985  -0.0001555504   0.0000582212  -0.0000192044
        0.0001671630  -0.0000907645  -0.0000698149   0.0001935344  -0.0000233720