91
 energy: -144.986138126178 gnorm: 0.000101690138 xtb: 6.7.1 (edcfbbe)
N           -9.85705367275403       -6.70655525828825       -0.23008400213298
C           -8.87904134756076       -6.10590445246277       -0.18618966819639
C           -7.67833109946147       -5.36762271138958       -0.13211392938434
C           -7.59799726483957       -4.21873406600828        0.65859806471642
C           -6.42283423222134       -3.49878134265329        0.70301400292140
C           -5.30452564022210       -3.90452679941428       -0.02802223562780
C           -4.05451721193825       -3.13370830759427        0.01911656072396
C           -2.81818484102881       -3.79334668822723        0.08570938633781
C           -1.65672926927134       -3.06718204660203        0.11010994344186
C           -1.68857962546683       -1.66816075018405        0.06410188312793
C           -2.92059595485974       -0.97517688583581        0.01635459798828
C           -4.08680014808559       -1.75007719742876       -0.01020503042187
C           -2.94139245883725        0.47872538963731        0.01228376723736
C           -4.14393443465325        1.19257116348000        0.05306579786296
C           -4.19194452912190        2.57495245133044        0.10050857276040
C           -5.48147420494689        3.27612788633391        0.14402310250815
C           -5.65926875944913        4.38575050844100        0.97264939612992
C           -6.86769258313458        5.04784259475341        1.02013192967524
C           -7.93027327019991        4.61089121522022        0.22529882214506
C           -9.16749209487352        5.28728860054961        0.26642652955120
N          -10.17378861658967        5.83982670183642        0.30021787658490
C           -7.76391081209206        3.50364137048013       -0.61011323154536
C           -6.55175566116163        2.84733011140088       -0.64372321639801
C           -2.98879023293870        3.29147207072439        0.12218292611473
C           -1.79050630025857        2.62854499573938        0.06799858705004
C           -1.73185877660356        1.22821939987800       -0.00367205696238
C           -0.51595572683944        0.49304529406124       -0.05276593059247
C           -0.49334394512161       -0.89936650476881        0.03598596929787
N            0.78892772875992       -1.34974752025981        0.05472781720876
C            1.54714464639167       -0.28329809094262       -0.03781353766884
C            2.99807451970136       -0.33700911830183       -0.05932334599060
C            3.77781177947723        0.51633506441553       -0.84048367723652
C            5.15258985082709        0.42889547968306       -0.81790023814126
C            5.79644432625748       -0.51405470475931       -0.01264838833705
N            7.18668735740732       -0.57991926789905        0.02857831957945
C            7.95201469530508        0.59075079847998       -0.07348090231021
C            9.15652032533520        0.58785222205972       -0.77621248702598
C            9.91488287503994        1.73997423774023       -0.86229422264724
C            9.48364218495900        2.91116862509899       -0.26039392816902
C            8.28470750585847        2.92064938963754        0.43429982685115
C            7.52442996884112        1.77124349781494        0.53426932471994
C            7.83100567357713       -1.81760760684778        0.17837368276971
C            8.96638373560955       -1.92999087931209        0.97981945108998
C            9.60288755464312       -3.14895228525957        1.11678550691552
C            9.11585910543009       -4.27186912079833        0.46728253218329
C            7.98589357620421       -4.16561927376420       -0.32771150584730
C            7.34762058106406       -2.94919288164380       -0.47772337178742
C            5.01439452335248       -1.39116651283284        0.74514892856590
C            3.64086558805418       -1.30609826067550        0.71445145021919
N            0.80554010512808        0.87548254568787       -0.11010417323153
C            1.34486569460643        2.17661031809912       -0.21373087133692
C            2.12630123143865        2.68099619049453        0.81883300249218
C            2.68623947094269        3.94095588342363        0.70049808801747
C            2.46783987621960        4.69700378425251       -0.43942546551075
C            1.68630409523859        4.19314798568657       -1.46726153768915
C            1.12596164555201        2.93301426243284       -1.36140562013462
C           -5.39569726976843       -5.05736850249779       -0.81045106358680
C           -6.56630146576598       -5.78355665036727       -0.86849138186084
H           -8.45850986944863       -3.90481466872880        1.23168648194961
H           -6.36071931455150       -2.62158445824858        1.32966514369441
H           -2.78881950936760       -4.87152603054386        0.13646481532791
H           -0.69167579929025       -3.54812449408427        0.15680062700585
H           -5.05129132423258       -1.27461823766998       -0.08706960013882
H           -5.07957489142002        0.65873920980094        0.08473903548733
H           -4.84646047685303        4.71754287265474        1.60102183874977
H           -7.00285039200675        5.90178591433333        1.66798435905620
H           -8.58676079591196        3.17275574564579       -1.22711117480836
H           -6.42281841533525        2.00338091143934       -1.30485059773582
H           -3.00441770109502        4.37031349693526        0.15997480234572
H           -0.87385222660594        3.19512060348324        0.09334232197292
H            3.31083005335878        1.23579594466789       -1.49522995936442
H            5.74181512125189        1.09036483457155       -1.43552176073050
H            9.49138871027474       -0.32180368028863       -1.25312454914664
H           10.84560343845109        1.72415669501203       -1.41056449334197
H           10.07778548034763        3.80979892766771       -0.33176288574902
H            7.94319848879255        3.82768205958402        0.91159764738795
H            6.59605778438922        1.77836989958903        1.08670166430101
H            9.34292450562705       -1.05744686881857        1.49356626158812
H           10.48071462370190       -3.22342914148405        1.74205506169767
H            9.61376108699129       -5.22326230574142        0.57943156946530
H            7.60252144077574       -5.03452182622237       -0.84252302512152
H            6.47209571878060       -2.86650992926028       -1.10534902209658
H            5.49583745533127       -2.13236789671700        1.36555460513270
H            3.03841908790638       -1.97960568583735        1.30442995148299
H            2.29127632901826        2.08205839624953        1.70242563396643
H            3.29342503944399        4.33165888538967        1.50298282383101
H            2.90664240695458        5.67910588266587       -0.52864209148422
H            1.51538065164951        4.77932768086976       -2.35764070741177
H            0.51876186386218        2.52789905823600       -2.15834636309831
H           -4.54392215335611       -5.37331364685218       -1.39393345298253
H           -6.63409743326902       -6.67086517021925       -1.48111263372448
