$hessian                                                                        
        0.6518852077   0.0621613177  -0.0194003159  -0.3312225861  -0.0108695069
        0.0468858613  -0.0358248732  -0.0493690948  -0.0683491689  -0.0463740297
        0.0110064505   0.0258792075   0.0583668505   0.0219402399   0.0220139080
       -0.1549953246   0.0260628478   0.0607356559  -0.0052121383  -0.0033041354
       -0.0027075229   0.0010857243   0.0008798251   0.0013431587  -0.0003256310
       -0.0013908401  -0.0021498175   0.0021252350   0.0009267253   0.0013498159
       -0.0024118563   0.0005935001   0.0012513743   0.0005511412  -0.0015910491
       -0.0025207865  -0.0010644753   0.0014499026   0.0026686096   0.0029142973
       -0.0006376309  -0.0018471964   0.0003507368   0.0002440259   0.0001132046
        0.0005480968   0.0005095756   0.0000153897  -0.0007503708   0.0004694306
       -0.0000700912   0.0014114064  -0.0001222125   0.0000757939  -0.0002992318
        0.0002200045  -0.0000082676   0.0006575035   0.0005891812  -0.0000604686
       -0.0005808110   0.0006722370   0.0000035769   0.0000012771  -0.0015664181
       -0.0000123106   0.0009712432   0.0005640261  -0.0000751965  -0.0010295153
        0.0005923995   0.0000527370   0.0002946846   0.0001481733   0.0000022758
       -0.0001969057   0.0001237275   0.0000187631  -0.0000486062   0.0001534000
       -0.0000710278   0.0000923477   0.0000178934  -0.0000241434  -0.0003216015
        0.0000034149  -0.0000018790   0.0002380151   0.0002370482  -0.0002996838
        0.0001445086  -0.0001519774   0.0002381455   0.0004166349   0.0001251365
       -0.0001213917  -0.0004088476   0.0000929022  -0.0001954220  -0.0001111954
       -0.0002238727   0.0003139087  -0.0004710235   0.0002713737  -0.0004708790
        0.0005882451   0.0000257024  -0.0000051766  -0.0004052513  -0.0003670099
        0.0004723494  -0.0001545444   0.0002080471  -0.0003143554  -0.0003713964
       -0.0001848737   0.0001939716   0.0004318567  -0.0000311291   0.0001305542
        0.0000904956   0.0001597173  -0.0002363785   0.0002792745  -0.0001821645
        0.0003024602  -0.0000283181  -0.0001480562   0.0000590610  -0.0001045191
       -0.0000574543   0.0000405630  -0.0001903890  -0.0002173784  -0.0000347318
       -0.0000023420  -0.0000956515  -0.0000130434   0.0009564547   0.0011942906
        0.0000941957  -0.0014194560  -0.0020277430  -0.0000323146  -0.0003611384
       -0.0006151495  -0.0000000111   0.0003200543  -0.0002231227  -0.0002515992
       -0.1045426992  -0.0671930452  -0.0877532027  -0.0178938409  -0.0004248142
        0.0026697706  -0.0002422243  -0.0021479941  -0.0017167675  -0.0174129513
        0.0116393720   0.0217943923  -0.0000606508   0.0000101470   0.0000410813
       -0.0001006131   0.0000901611  -0.0000222831   0.0001092899   0.0000367839
        0.0000294177   0.0000016613   0.0000202969  -0.0000513372  -0.0000397648
        0.0000837946  -0.0000908038  -0.0000280451   0.0000237708  -0.0000169238
        0.0001302935   0.0001563038   0.0000209100   0.0000119012   0.0001052066
        0.0000386309  -0.0000270859  -0.0000310304  -0.0000212184   0.0000532862
        0.0000293377   0.0000313926  -0.0000021401  -0.0000169311   0.0000175719
        0.0000185664   0.0000023228  -0.0000166253  -0.0000189294  -0.0000284016
        0.0000198222   0.0000178809  -0.0000134143   0.0000075117   0.0000208947
        0.0000098108  -0.0000056926  -0.0000176435   0.0000198512  -0.0000173439
        0.0000189334  -0.0000249850   0.0000223159  -0.0000042145   0.0000212387
       -0.0000145899   0.0000593277  -0.0000355991  -0.0000226412  -0.0000850219
       -0.0001246281  -0.0000210288  -0.0000115188  -0.0001087384  -0.0000062461
       -0.0000211655  -0.0000965970   0.0000295225   0.0000393181   0.0000745222
       -0.0000540686  -0.0000077574  -0.0003427876   0.0001270715
        0.0621613177   0.2845025818   0.2525126334  -0.0532973027  -0.0631277030
       -0.0151507224  -0.0179729498   0.0009322550   0.0025240764   0.0120140927
       -0.0017910565   0.0014306147  -0.0084696616  -0.0211461671  -0.0275877716
        0.0677227268  -0.0997277252  -0.1003922755  -0.0017190478   0.0041161666
       -0.0025735910  -0.0002009815  -0.0005113695  -0.0029251250  -0.0001397653
        0.0003729153   0.0006572251  -0.0004048554  -0.0004862159  -0.0003890206
        0.0004947836  -0.0000201113  -0.0001211108  -0.0001273436   0.0001230305
        0.0003238737  -0.0003927987   0.0003366063   0.0006710403  -0.0016654978
       -0.0022094552  -0.0027770428   0.0003079912  -0.0000552980  -0.0000828498
       -0.0000161594   0.0000183477  -0.0000274848   0.0001027026  -0.0000710565
       -0.0000088252  -0.0001235304   0.0000479886  -0.0000123299   0.0000153921
       -0.0004652145   0.0000007229   0.0000253798  -0.0001510983   0.0000072952
       -0.0000120462  -0.0002111023  -0.0000100540   0.0000596032   0.0004232315
        0.0000166325  -0.0003247447  -0.0000503813   0.0000142245   0.0002951232
       -0.0001403411  -0.0000131248  -0.0000769684  -0.0000280117   0.0000053641
        0.0000689443  -0.0000428466  -0.0000038337   0.0000088004  -0.0000195489
        0.0000218376   0.0000304384  -0.0000056395   0.0000074521   0.0000900943
       -0.0000023396  -0.0000003726  -0.0000963811  -0.0000869378   0.0001075045
       -0.0000219235   0.0000380290  -0.0000556806  -0.0000871019  -0.0000406732
        0.0000471026   0.0000848355  -0.0000429376   0.0000588581   0.0000085623
        0.0000531204  -0.0000821350   0.0001525642  -0.0000886689   0.0001505681
       -0.0001937376  -0.0000078863   0.0000025442   0.0001324621   0.0001196759
       -0.0001524391   0.0000189733  -0.0000553967   0.0000787265   0.0000723773
        0.0000635144  -0.0000593118  -0.0000922860   0.0000186079  -0.0000489149
       -0.0000072692  -0.0000339945   0.0000539947  -0.0001084352   0.0000639955
       -0.0001075319   0.0000203780   0.0000238760  -0.0000182690   0.0000392816
        0.0000290083  -0.0000100229  -0.0001046912  -0.0000224373  -0.0000051735
        0.0001336610  -0.0000018790   0.0000008749  -0.0007206591  -0.0003727609
        0.0000048851   0.0007008109   0.0009818772  -0.0000055054   0.0000990957
        0.0001125132  -0.0000024820  -0.0000539130  -0.0000372304   0.0000637137
       -0.0670913806  -0.1074316248  -0.1011866310   0.0120350573   0.0012310664
       -0.0012743682  -0.0026121137   0.0035241067  -0.0052214643  -0.0005818512
        0.0013212416   0.0016324359   0.0000166823   0.0000068640  -0.0000422915
        0.0000287312  -0.0000312509  -0.0000216320  -0.0000328685   0.0000154332
       -0.0000448300   0.0000068428   0.0000001560   0.0000274912  -0.0000088739
        0.0000237897   0.0000187971  -0.0000170521  -0.0000106610   0.0000115474
       -0.0000556272  -0.0000129366   0.0000074824   0.0000011505  -0.0000223268
       -0.0000077975   0.0000008341   0.0000016285   0.0000053431  -0.0000113398
       -0.0000163098  -0.0000090631  -0.0000087201   0.0000058864  -0.0000079707
       -0.0000169543   0.0000076318  -0.0000124004   0.0000156091   0.0000207612
       -0.0000234544   0.0000104910   0.0000046209  -0.0000020024   0.0000100015
       -0.0000013496  -0.0000002244   0.0000180285  -0.0000153103   0.0000205978
       -0.0000134655  -0.0000004719   0.0000091930  -0.0000065882  -0.0000093129
        0.0000067589  -0.0000133301   0.0000182821   0.0000070469   0.0000288306
        0.0000367858   0.0000089066   0.0000071134   0.0000178817   0.0000037020
       -0.0000037746   0.0000127625  -0.0000020918  -0.0000627407  -0.0000330536
        0.0000071751  -0.0000730325   0.0000118529  -0.0000490198
       -0.0194003159   0.2525126334   0.5010342704  -0.0195015529  -0.0240678580
       -0.0797156107  -0.0196758368   0.0089715930   0.0203016125   0.0272875890
        0.0015605796  -0.0072920547  -0.0254278165  -0.0334057446  -0.0482387642
        0.1256759266  -0.0924679155  -0.2084640584   0.0001178654  -0.0020363384
        0.0025703856  -0.0006973682  -0.0034594673  -0.0035319446  -0.0001732983
        0.0009670603   0.0014833859  -0.0012773745  -0.0006534941  -0.0011815507
        0.0015190983  -0.0002327912  -0.0005683441  -0.0003535184   0.0007677248
        0.0011185499   0.0001282039  -0.0000136450  -0.0001406693  -0.0035262713
       -0.0029528792  -0.0036978770   0.0002610367  -0.0001092635  -0.0000221048
       -0.0002389371  -0.0001405157  -0.0000242545   0.0002333525  -0.0001428320
       -0.0000260685  -0.0004537285   0.0000387597  -0.0000353975   0.0000671698
        0.0000221173  -0.0000004750  -0.0002523168  -0.0002065123   0.0000142774
        0.0001982248  -0.0002459579  -0.0000155447   0.0000282366   0.0005554557
        0.0000239034  -0.0003181247  -0.0002970066   0.0000302848   0.0003029222
       -0.0001598271  -0.0000227563  -0.0000314071  -0.0000479824   0.0000093187
        0.0000486479  -0.0000167382   0.0000022668   0.0000773583  -0.0000319437
        0.0000474771  -0.0000447448  -0.0000252529   0.0000149699   0.0001847633
       -0.0000140150   0.0000038441  -0.0001578033  -0.0001482396   0.0001778483
       -0.0000723764   0.0000675922  -0.0001039345  -0.0002071363  -0.0000712323
        0.0000746924   0.0001997253  -0.0000661105   0.0000987825   0.0000517794
        0.0001118128  -0.0001641770   0.0002704441  -0.0001612915   0.0002735333
       -0.0003302073  -0.0000058284   0.0000032844   0.0002337485   0.0002169835
       -0.0002772129   0.0000729840  -0.0001125932   0.0001626881   0.0001747687
        0.0001145763  -0.0001006447  -0.0002138183   0.0000228412  -0.0000831353
       -0.0000389861  -0.0000666030   0.0001031344  -0.0001857578   0.0001144354
       -0.0001832565   0.0000685399   0.0000496597  -0.0000384581   0.0000182075
       -0.0000415296  -0.0000376557   0.0001020949   0.0001055887  -0.0000003394
       -0.0000461727   0.0000878674   0.0000036060  -0.0002033591  -0.0004371265
       -0.0000045517   0.0004319735   0.0005722427  -0.0000036770   0.0001835735
        0.0002612836   0.0000312966  -0.0002346783   0.0000509937   0.0001488778
       -0.0878457252  -0.1010689645  -0.1693257915   0.0228544980   0.0015411693
       -0.0022660761  -0.0021899493  -0.0054275576  -0.0006193030   0.0024578685
       -0.0003874451  -0.0015060737   0.0000356307  -0.0000378274  -0.0000370461
        0.0000699023  -0.0000854419  -0.0000151337  -0.0000726565  -0.0000480975
       -0.0000266727   0.0000391108   0.0000085615   0.0000495026  -0.0000024943
        0.0000029587   0.0000328223  -0.0000212952  -0.0000425074   0.0000249135
       -0.0000704317  -0.0000303666   0.0000097326  -0.0000077838  -0.0000429955
       -0.0000184839   0.0000066669   0.0000041012   0.0000122131  -0.0000273949
       -0.0000336254  -0.0000206746  -0.0000062310   0.0000150331  -0.0000165946
       -0.0000271125   0.0000087740  -0.0000096557   0.0000255873   0.0000347487
       -0.0000349946   0.0000063915   0.0000099468  -0.0000052488   0.0000049801
       -0.0000053099   0.0000012471   0.0000294646  -0.0000261118   0.0000315092
       -0.0000233370   0.0000065443   0.0000059401  -0.0000049572  -0.0000196779
        0.0000137189  -0.0000320646   0.0000377132   0.0000153341   0.0000534878
        0.0000922826   0.0000185109   0.0000082607   0.0000334934   0.0000058612
        0.0000011556   0.0000273557  -0.0000074317  -0.0000863976  -0.0000234417
        0.0000096667  -0.0000505012   0.0001234218  -0.0000795640
       -0.3312225861  -0.0532973027  -0.0195015529   0.6562666080   0.0471736376
       -0.0476759165  -0.1463288187  -0.0435875738  -0.0446104386   0.0556723699
       -0.0088453556  -0.0256960728  -0.0451635671  -0.0188354359  -0.0209012998
       -0.0391556925   0.0401264148   0.0707600826   0.0038945556   0.0006641391
        0.0000435805  -0.0005854454  -0.0015980461  -0.0022497518   0.0001112788
        0.0014239729   0.0022127631  -0.0021311207  -0.0009082126  -0.0014249484
        0.0022832160  -0.0005089481  -0.0011401783  -0.0007989624   0.0015233230
        0.0023688780   0.0017603940  -0.0009382139  -0.0016551224  -0.0045708025
        0.0024818322   0.0063909369  -0.0005620146  -0.0005008184  -0.0005532577
       -0.0005183420  -0.0003678560  -0.0000938770   0.0008193731  -0.0004897292
        0.0000454042  -0.0016325002   0.0000217241  -0.0000689041   0.0004358577
       -0.0001929189   0.0000280596  -0.0008259807  -0.0007009021   0.0000731239
        0.0006988470  -0.0008002598  -0.0000093566   0.0001218440   0.0018939010
        0.0000265077  -0.0012837524  -0.0008378718   0.0000840869   0.0012251620
       -0.0006133851  -0.0000641226  -0.0003534629  -0.0001794217   0.0000042466
        0.0002228857  -0.0001349394  -0.0000175715   0.0000492571  -0.0001701208
        0.0000821082  -0.0001256875  -0.0000277881   0.0000296364   0.0003432970
       -0.0000149478   0.0000060192  -0.0002284026  -0.0002360230   0.0002951561
       -0.0001628761   0.0001502112  -0.0002355978  -0.0004280939  -0.0001240089
        0.0001214697   0.0004208902  -0.0000948073   0.0002032937   0.0001233850
        0.0002309084  -0.0003218632   0.0004626268  -0.0002691637   0.0004672771
       -0.0005666375  -0.0000155483   0.0000123845   0.0003990502   0.0003649939
       -0.0004720976   0.0001687160  -0.0002136287   0.0003209087   0.0003815575
        0.0001906322  -0.0002009909  -0.0004445983   0.0000272609  -0.0001312196
       -0.0001053819  -0.0001556600   0.0002322334  -0.0002723127   0.0001835787
       -0.0002995399   0.0000207023   0.0001629947  -0.0000677557   0.0001174967
        0.0000613891  -0.0000494922   0.0002062397   0.0002882288   0.0000281964
        0.0000001029   0.0001448000   0.0000104984  -0.0011085422  -0.0014381192
       -0.0001072215   0.0017139574   0.0023422878   0.0000189482   0.0008022272
        0.0007961972  -0.0001138124  -0.0006337987   0.0001865735   0.0000716265
       -0.0163402427  -0.0030101222  -0.0013304894  -0.1149742337   0.0535156261
        0.1028903328  -0.0173079645  -0.0158180899  -0.0205545446  -0.0005888596
        0.0010881673   0.0028461930   0.0000527956  -0.0000242514  -0.0000618175
        0.0001138510  -0.0001216185   0.0000190783  -0.0001349931  -0.0000330448
       -0.0000062280  -0.0000035840  -0.0000085953   0.0000642580  -0.0000167065
       -0.0001249247   0.0000981562   0.0000333262  -0.0000228790   0.0000087242
       -0.0001484326  -0.0001844255  -0.0000253830  -0.0000200138  -0.0001154892
       -0.0000497256   0.0000319011   0.0000268276   0.0000263330  -0.0000642044
       -0.0000348059  -0.0000370315   0.0000063532   0.0000172825  -0.0000166011
       -0.0000248192   0.0000013741   0.0000153621   0.0000262716   0.0000388159
       -0.0000294350  -0.0000214760   0.0000174948  -0.0000095118  -0.0000255511
       -0.0000119429   0.0000076354   0.0000245898  -0.0000278751   0.0000264794
       -0.0000245094   0.0000224764  -0.0000222360   0.0000079462  -0.0000223726
        0.0000134089  -0.0000717616   0.0000425793   0.0000250563   0.0000958391
        0.0001524728   0.0000189177   0.0000094474   0.0001313599   0.0000101787
        0.0000261652   0.0001126155  -0.0000308249  -0.0000526981  -0.0001262551
        0.0000451184  -0.0001209545   0.0001776058  -0.0002168687
       -0.0108695069  -0.0631277030  -0.0240678580   0.0471736376   0.2771132572
        0.2459437612  -0.0849549196  -0.1224231327  -0.1051370372   0.0208100709
       -0.0200368567  -0.0330861072  -0.0202558549  -0.0090930596  -0.0031060486
        0.0093374789   0.0137281392   0.0167175469   0.0027044263  -0.0010518819
       -0.0021015949  -0.0002643819  -0.0001947102  -0.0001965121   0.0000834194
        0.0005255963   0.0009206909  -0.0010743447  -0.0003456061  -0.0005557587
        0.0011364999  -0.0005180382  -0.0006423131  -0.0001729802   0.0007515167
        0.0013348230   0.0009676046  -0.0006162478  -0.0031658423  -0.0004356358
        0.0045319578  -0.0004330777   0.0000293565   0.0002079620  -0.0004233420
       -0.0002127960  -0.0003920606  -0.0000510072   0.0005657091  -0.0002814680
        0.0000660988  -0.0008196609   0.0001378179  -0.0000712687   0.0003750327
       -0.0002852980   0.0000060685  -0.0004224276  -0.0003997134   0.0000347552
        0.0003870630  -0.0004260771  -0.0000065707  -0.0002500910   0.0007736166
        0.0000197771  -0.0003582490   0.0000856905   0.0000406624   0.0006321014
       -0.0005422580  -0.0000330995  -0.0002387483  -0.0000764757   0.0000029249
        0.0001532874  -0.0000926434  -0.0000108761  -0.0000032092  -0.0000688671
        0.0000350485  -0.0000224686  -0.0000117765   0.0000166911   0.0001103454
       -0.0000148009  -0.0000020273  -0.0000735235  -0.0000742009   0.0000897953
       -0.0000538494   0.0000373765  -0.0000573918  -0.0001179338  -0.0000388419
        0.0000420035   0.0001215188  -0.0000424611   0.0000656735   0.0000353628
        0.0000699742  -0.0001026491   0.0001426228  -0.0000888275   0.0001521503
       -0.0001618218   0.0000079905   0.0000039342   0.0001195505   0.0001175037
       -0.0001532130   0.0000497001  -0.0000703937   0.0000989991   0.0001056225
        0.0000723910  -0.0000672844  -0.0001244724   0.0000077541  -0.0000453436
       -0.0000341708  -0.0000352869   0.0000536434  -0.0000824816   0.0000557198
       -0.0000862966   0.0000044999   0.0000625197  -0.0000279899   0.0000911955
        0.0000704165  -0.0000193070   0.0000903408   0.0000786958   0.0000101847
        0.0000264005  -0.0000172510  -0.0000008707  -0.0006871146  -0.0005342844
       -0.0000513797   0.0007879367   0.0013230138   0.0000046386   0.0001808265
        0.0003981539  -0.0000007165  -0.0001394240   0.0000852492   0.0003018715
       -0.0159929213  -0.0022890410  -0.0004899371   0.0539365839  -0.0792392314
       -0.0835303796  -0.0032919173  -0.0020573681  -0.0030795291   0.0011634742
        0.0041218181  -0.0050421786  -0.0000118368  -0.0000074841  -0.0000015893
        0.0000475782  -0.0000384220  -0.0000161620  -0.0000655877  -0.0000101331
       -0.0000309956   0.0000012768   0.0000047889   0.0000136251  -0.0000119628
        0.0000164451   0.0000256984   0.0000405479   0.0000183758   0.0000194315
       -0.0000910888  -0.0000652662  -0.0000108471  -0.0000010863  -0.0000408571
       -0.0000182179   0.0000078533   0.0000070056   0.0000142369  -0.0000277381
       -0.0000216331  -0.0000159162  -0.0000047463   0.0000069942  -0.0000048915
       -0.0000230829   0.0000095328  -0.0000068650   0.0000211369   0.0000307066
       -0.0000300210   0.0000000203   0.0000093894  -0.0000046214  -0.0000014872
       -0.0000048534   0.0000021303   0.0000224470  -0.0000231676   0.0000267305
       -0.0000195698   0.0000028568   0.0000015939  -0.0000017980  -0.0000104004
        0.0000048188  -0.0000322417   0.0000246992   0.0000103506   0.0000463689
        0.0000633864   0.0000072458  -0.0000019030   0.0000392563   0.0000088712
        0.0000028972   0.0000371924  -0.0000113412  -0.0000257163  -0.0000524162
        0.0000380889  -0.0000770443   0.0001257357  -0.0001382881
        0.0468858613  -0.0151507224  -0.0797156107  -0.0476759165   0.2459437612
        0.5066548911  -0.1093126851  -0.1139447030  -0.1966283011   0.0202280803
       -0.0273726300  -0.0483061135  -0.0228084748  -0.0031514914  -0.0050924565
        0.0229881174   0.0103395685   0.0131325557   0.0031919627  -0.0015989172
       -0.0032497702  -0.0002165620   0.0000713846   0.0001270916   0.0000951609
        0.0006075454   0.0009060155  -0.0011938036  -0.0003529673  -0.0005409127
        0.0012095453  -0.0003490907  -0.0009227686  -0.0001182217   0.0009699236
        0.0013952002   0.0011281042  -0.0026550110  -0.0032300027   0.0021751505
       -0.0011120367   0.0030077787  -0.0001135488  -0.0002736459   0.0002886507
       -0.0003372215  -0.0003527770   0.0000414820   0.0005016386  -0.0003704210
        0.0000524790  -0.0009779410   0.0000238511  -0.0000459440   0.0004886623
       -0.0004648493   0.0000210664  -0.0004896807  -0.0005024044   0.0000433918
        0.0004619217  -0.0005493382  -0.0000091710  -0.0003521027   0.0009414006
        0.0000278550  -0.0004234055   0.0002189868   0.0000506803   0.0008026955
       -0.0007201262  -0.0000418964  -0.0003255338  -0.0000936414   0.0000056670
        0.0002078492  -0.0001226136  -0.0000140722  -0.0000157539  -0.0000713482
        0.0000410385   0.0000047547  -0.0000124817   0.0000202260   0.0001309950
       -0.0000210755   0.0000001177  -0.0000928315  -0.0000919758   0.0001122177
       -0.0000532688   0.0000333895  -0.0000506766  -0.0001156090  -0.0000417831
        0.0000477150   0.0001196343  -0.0000494549   0.0000685674   0.0000314215
        0.0000657560  -0.0000998641   0.0001598458  -0.0000981877   0.0001683993
       -0.0001831740   0.0000120907   0.0000020537   0.0001341281   0.0001308173
       -0.0001695248   0.0000453331  -0.0000720828   0.0000969818   0.0001001365
        0.0000799177  -0.0000718368  -0.0001222012   0.0000113166  -0.0000555246
       -0.0000300851  -0.0000308441   0.0000476500  -0.0001084073   0.0000713943
       -0.0001113203   0.0000020120   0.0000635301  -0.0000323395   0.0001264082
        0.0001073190  -0.0000189336   0.0000818400   0.0000738824   0.0000054267
        0.0000699175  -0.0000412019  -0.0000046529  -0.0010066947  -0.0006239618
       -0.0000551418   0.0010450147   0.0017491720  -0.0000031357   0.0003729096
        0.0005257903  -0.0000646372  -0.0001731478   0.0002335108   0.0001453163
       -0.0211675359  -0.0031255697  -0.0003187638   0.1027405917  -0.0837266873
       -0.1867651163  -0.0011377034  -0.0001744795   0.0003135837   0.0032600183
       -0.0049134836  -0.0010755964  -0.0000266760   0.0000046813   0.0000031986
        0.0000576436  -0.0000899963   0.0000038411  -0.0000741132  -0.0000369743
       -0.0000331020   0.0000005248  -0.0000280571   0.0000232186  -0.0000177485
       -0.0000120451   0.0000253331   0.0000356722   0.0000090481   0.0000034413
       -0.0001143636  -0.0000769279  -0.0000115532   0.0000032299  -0.0000445851
       -0.0000215036   0.0000058759   0.0000047890   0.0000164742  -0.0000299629
       -0.0000284188  -0.0000188712  -0.0000088593   0.0000082269  -0.0000051684
       -0.0000308763   0.0000146442  -0.0000135647   0.0000276240   0.0000401526
       -0.0000409269   0.0000058072   0.0000118067  -0.0000056621   0.0000040111
       -0.0000052931   0.0000021399   0.0000310139  -0.0000311572   0.0000376302
       -0.0000261666  -0.0000013265   0.0000091012  -0.0000066743  -0.0000118998
        0.0000052124  -0.0000371362   0.0000308466   0.0000118165   0.0000535617
        0.0000708748   0.0000073718   0.0000001713   0.0000400719   0.0000120050
        0.0000004935   0.0000351110  -0.0000091115   0.0000041593  -0.0000758241
        0.0000312083  -0.0000954121   0.0001299485  -0.0001625433
       -0.0358248732  -0.0179729498  -0.0196758368  -0.1463288187  -0.0849549196
       -0.1093126851   0.6597548344   0.0655671768  -0.0262486405  -0.1587301045
        0.0595913085   0.1200367430  -0.0283293552   0.0110228021   0.0223816807
        0.0029463298  -0.0008987470  -0.0026678919  -0.0079034199  -0.0019537134
       -0.0003854733   0.0011228643   0.0009068865   0.0011683454   0.0001170544
       -0.0001646308  -0.0002715008   0.0002149323   0.0001544503   0.0002064840
       -0.0004905787  -0.0000793141  -0.0000641756   0.0003358565  -0.0006719463
       -0.0011067595  -0.0022061719  -0.0012793946  -0.0018051920   0.0141120094
       -0.0035264501  -0.0076507208  -0.0002397847  -0.0010990330  -0.0015423287
        0.0005200590   0.0000135486  -0.0001241786  -0.0001135688   0.0000274513
        0.0001995142  -0.0008945650  -0.0003985340   0.0000457367  -0.0000054491
        0.0004930420  -0.0000134168  -0.0004014334  -0.0001944466   0.0000442515
        0.0003460151  -0.0001596566   0.0000127189   0.0005774015   0.0008053368
       -0.0000241970  -0.0008136650  -0.0010747159   0.0000210538   0.0003154082
        0.0001865344  -0.0000086784  -0.0000789692  -0.0000813576  -0.0000071889
        0.0000150353   0.0000261638   0.0000037250  -0.0000115689  -0.0000515411
        0.0000109811  -0.0000381707  -0.0000024247   0.0000021904   0.0001419678
        0.0000089054   0.0000020947  -0.0000897936  -0.0001061173   0.0001226600
       -0.0000474651   0.0000629858  -0.0001023855  -0.0001399043  -0.0000432946
        0.0000404601   0.0001239755  -0.0000164725   0.0000577956   0.0000406886
        0.0000672318  -0.0000901067   0.0001552643  -0.0000750701   0.0001356384
       -0.0001879231  -0.0000146327   0.0000036576   0.0001383479   0.0001083190
       -0.0001353291   0.0000521681  -0.0000565506   0.0000912199   0.0001179312
        0.0000444033  -0.0000553772  -0.0001448939   0.0000155431  -0.0000413968
       -0.0000347143  -0.0000687652   0.0001025162  -0.0001095273   0.0000861001
       -0.0001245889  -0.0000427517   0.0000402384  -0.0000098298   0.0000034718
       -0.0000323697  -0.0000160037   0.0001905292   0.0002802463   0.0000251568
       -0.0001070023   0.0001791035   0.0000239806   0.0000420460  -0.0006321236
       -0.0000467810   0.0004886666   0.0002247602   0.0000501775   0.0007603515
        0.0004166484  -0.0000714990  -0.0009842980  -0.0002367313  -0.0009993180
       -0.0057320552  -0.0015950013   0.0004325786   0.0063099845   0.0076004186
        0.0101821865  -0.3002008774  -0.0306960892   0.0175965172   0.0008398332
        0.0000661986  -0.0000483485   0.0000540914  -0.0000185351  -0.0000403015
        0.0000015772  -0.0000002025   0.0000107183   0.0000400722  -0.0000296542
       -0.0000347591   0.0000547815  -0.0000060980  -0.0000168028   0.0000577434
        0.0000358424  -0.0000173583   0.0000683365   0.0000343874  -0.0000282277
       -0.0000194793  -0.0001099036  -0.0000156363  -0.0000016108  -0.0000499676
       -0.0000161877   0.0000062087  -0.0000015725  -0.0000028114  -0.0000025150
       -0.0000037887  -0.0000078761   0.0000122172   0.0000015388  -0.0000005225
        0.0000044180  -0.0000072027   0.0000067469  -0.0000004247  -0.0000058720
        0.0000080855  -0.0000021540   0.0000008927  -0.0000006815  -0.0000024319
        0.0000006102   0.0000016848  -0.0000009613   0.0000072959  -0.0000072771
        0.0000031863   0.0000077293  -0.0000062377   0.0000112584  -0.0000002350
       -0.0000006146  -0.0000053898   0.0000048495   0.0000081322   0.0000004185
        0.0000442968   0.0000099238   0.0000380242   0.0000637369  -0.0000085608
        0.0000036455   0.0000710107  -0.0000164077   0.0000607384  -0.0000263901
       -0.0000663268   0.0000669261   0.0001284214  -0.0001089371
       -0.0493690948   0.0009322550   0.0089715930  -0.0435875738  -0.1224231327
       -0.1139447030   0.0655671768   0.2718882674   0.2441787456   0.0236833997
       -0.0907765662  -0.0773923953   0.0383182571   0.0078205049   0.0074657371
        0.0026197517  -0.0184777112  -0.0240070851  -0.0058447772   0.0066420160
        0.0013438827  -0.0002054633  -0.0002942282  -0.0002932847  -0.0001067270
       -0.0009842631  -0.0011277064   0.0016377084   0.0004866116   0.0008180663
       -0.0017880875   0.0003887409   0.0010030860   0.0011218473  -0.0018976195
       -0.0027898953  -0.0044764244   0.0017414318   0.0012185141   0.0073631548
       -0.0140545013  -0.0279708556   0.0007631451  -0.0009602866  -0.0004760778
        0.0007145016   0.0009568902   0.0001043366  -0.0006985316   0.0005108145
       -0.0001663868   0.0012490262  -0.0001965652   0.0000680637  -0.0005003738
        0.0001762971  -0.0000140329   0.0006683686   0.0005056924  -0.0000475523
       -0.0005819240   0.0005592184   0.0000063635   0.0004087994  -0.0010092913
       -0.0000160401   0.0004165690  -0.0001113680  -0.0000535277  -0.0008459675
        0.0007555958   0.0000407350   0.0003411575   0.0001119672  -0.0000024605
       -0.0001993044   0.0001252209   0.0000147439   0.0000257301   0.0001004828
       -0.0000283678   0.0000687412   0.0000130946  -0.0000179282  -0.0001122401
        0.0000191429  -0.0000028042   0.0000501902   0.0000586778  -0.0000545605
        0.0000730468  -0.0000437694   0.0000697582   0.0001442898   0.0000379144
       -0.0000350086  -0.0001483458   0.0000404435  -0.0000627869  -0.0000561721
       -0.0000887075   0.0001267635  -0.0001303903   0.0000849547  -0.0001455002
        0.0001248707  -0.0000121963  -0.0000049831  -0.0001106795  -0.0001141897
        0.0001489341  -0.0000728693   0.0000864888  -0.0001247646  -0.0001310956
       -0.0000769840   0.0000643178   0.0001479944  -0.0000029426   0.0000423552
        0.0000493563   0.0000457217  -0.0000671819   0.0000632025  -0.0000499687
        0.0000563623   0.0000131523  -0.0000857676   0.0000201338  -0.0001191194
       -0.0001005906   0.0000198687  -0.0001897422  -0.0001406473  -0.0000104384
        0.0000201785   0.0000085447  -0.0000026253   0.0006535975   0.0006201640
        0.0000475392  -0.0008397985  -0.0014093499   0.0000123806  -0.0002648176
       -0.0004578624   0.0000603686   0.0003013636  -0.0008085207  -0.0002384982
       -0.0013931395   0.0051692847  -0.0027232533  -0.0050494835  -0.0071739866
       -0.0107329260  -0.0302594976  -0.0385080608  -0.0029332494   0.0001244493
       -0.0004217587  -0.0001245006   0.0000455092  -0.0000275089   0.0000054969
       -0.0000327744   0.0001107206  -0.0000292002   0.0001176189   0.0000442786
       -0.0001107238   0.0001174543   0.0000772818   0.0000411731  -0.0000109062
        0.0002256380  -0.0001060263  -0.0000620812   0.0000168629  -0.0000479247
        0.0001025001   0.0001049299   0.0000090529  -0.0000001692   0.0000592047
        0.0000215924  -0.0000115634  -0.0000145175  -0.0000146982   0.0000298177
        0.0000223856   0.0000174540  -0.0000008674  -0.0000090123   0.0000040230
        0.0000214864  -0.0000044362   0.0000006558  -0.0000190304  -0.0000262184
        0.0000239338   0.0000028279  -0.0000077111   0.0000034659   0.0000045014