$hessian                                                                        
        0.6443131551   0.0372041084  -0.0760595934  -0.2358108058  -0.1274126644
       -0.0659862555  -0.0645407203   0.0068648712   0.0188679801  -0.0038812163
       -0.0202616968  -0.0170975360   0.0132962212   0.0231789129   0.0157682119
       -0.0935984567   0.0386396086   0.0408993313  -0.0051437201   0.0028508946
        0.0047852741  -0.0002601133  -0.0012654688  -0.0008967096  -0.0004874304
        0.0006349580   0.0003911960   0.0005745318  -0.0000352708  -0.0000965067
       -0.0004173928  -0.0000360375  -0.0001103427   0.0003465031   0.0003407952
        0.0000830110  -0.0039034360   0.0013233208   0.0017856960   0.0009377812
        0.0004346551  -0.0000862035  -0.0004024984  -0.0004651845   0.0000325006
        0.0003574762   0.0001451221   0.0000635019  -0.0001935206  -0.0000107903
        0.0000234217   0.0000727512   0.0000288044   0.0001226574   0.0000751870
        0.0001053311  -0.0001194266   0.0000096828  -0.0002039068  -0.0000193316
        0.0000906797   0.0002993381   0.0000134129  -0.0001398125  -0.0001893536
        0.0000133014   0.0001904326   0.0002030495   0.0000696083  -0.0001483066
       -0.0000620212   0.0000206027   0.0000538029  -0.0000263872   0.0000211482
       -0.0000270765  -0.0000040391  -0.0000023277   0.0000270057  -0.0000009362
        0.0000113269  -0.0000131495  -0.0000375290   0.0000294570  -0.0000203845
        0.0000482782  -0.0000408873   0.0000261574  -0.0000401451   0.0000341714
        0.0000001619   0.0000402904  -0.0000450356   0.0000167838  -0.0000484919
        0.0000410827  -0.0000393944   0.0000163141  -0.0000267828   0.0000052288
        0.0000334905  -0.0000079524  -0.0000106241  -0.0000134721   0.0000090072
        0.0000067539   0.0000159842  -0.0000385727  -0.0001242234  -0.0001346412
       -0.0000023504  -0.0000841990  -0.0000449170   0.0000853802  -0.2487952180
        0.0563975285   0.0887795604   0.0012340790  -0.0003253579   0.0003839433
       -0.0039381786   0.0006470759   0.0031233039   0.0004785884  -0.0190914245
       -0.0148820339  -0.0000562116   0.0000700641   0.0001649069  -0.0000095234
       -0.0000153093  -0.0000069282   0.0000275672  -0.0000315742   0.0000146186
        0.0000088401   0.0000303913  -0.0000044465  -0.0000830306   0.0001547465
       -0.0000440072  -0.0000061394   0.0000204539  -0.0000525030   0.0000014345
        0.0000125074   0.0000387374   0.0000036306   0.0000244360  -0.0000340398
        0.0000054107   0.0000011510   0.0000064929  -0.0000041743   0.0000071190
       -0.0000015560  -0.0000051914   0.0000035764  -0.0000004209  -0.0000049935
       -0.0000003324  -0.0000012087  -0.0000073812  -0.0000007098   0.0000015558
       -0.0000042933  -0.0000104883  -0.0000047720   0.0000023748  -0.0000062164
       -0.0000001563  -0.0000014052  -0.0000028112  -0.0000165130
        0.0372041084   0.4465696308   0.2566841964  -0.0656630268  -0.1354509220
       -0.0591244564  -0.0375589440   0.0304272886   0.0316999738  -0.0153138361
       -0.0342385872  -0.0199710934   0.0662557615  -0.0141377073  -0.0258290554
       -0.0214066529  -0.2226892764  -0.1330933846  -0.0025515728   0.0112784461
        0.0035734994  -0.0003877815  -0.0036579747  -0.0027509134  -0.0022903210
        0.0011566900   0.0016645912   0.0018227838   0.0008323918   0.0001850347
       -0.0000821005  -0.0010684441  -0.0005362415   0.0033860779   0.0016093564
        0.0006571349  -0.0023591082  -0.0017046197  -0.0005228230   0.0005259342
       -0.0004451329  -0.0001484320   0.0001496286   0.0002117246  -0.0001457820
        0.0000522217  -0.0004685160  -0.0000588375  -0.0001903443   0.0002768839
        0.0001770163  -0.0004388693  -0.0005660370   0.0005943472   0.0002576483
        0.0007811979  -0.0004374775   0.0001997743  -0.0011279881  -0.0001238874
       -0.0000321373   0.0014790760   0.0000872890  -0.0002683522  -0.0007771875
        0.0000239453   0.0007710686   0.0008863751   0.0001925738  -0.0005591142
       -0.0003130565   0.0000956416   0.0002243416  -0.0000960440   0.0000936629
       -0.0001265471  -0.0000417980  -0.0000174683   0.0001038992  -0.0000266503
        0.0000508954  -0.0000364169  -0.0001612281   0.0001111051  -0.0000641208
        0.0001843438  -0.0001631511   0.0001045830  -0.0001697751   0.0001395557
       -0.0000053965   0.0001523123  -0.0001708727   0.0000882936  -0.0001775578
        0.0001741323  -0.0001483385   0.0000807638  -0.0000968589   0.0000194972
        0.0001492336  -0.0000231839  -0.0000755799  -0.0000606904   0.0000428606
        0.0000330204   0.0000799772  -0.0001802223  -0.0002846655  -0.0007760637
        0.0000472783   0.0001419622   0.0009247798  -0.0000784336   0.0562998886
       -0.0553415074  -0.0293638034  -0.0181633418  -0.0139929518  -0.0077992535
        0.0012643682   0.0037761886  -0.0036853824  -0.0009599951  -0.0134849298
       -0.0116274812  -0.0001110043   0.0000392140  -0.0000364796  -0.0000145459
       -0.0000744627  -0.0000048487   0.0000269298  -0.0000275319  -0.0000648400
        0.0000867117  -0.0000514702  -0.0001427976   0.0001218589   0.0000426063
        0.0001679540   0.0000626662  -0.0000486992  -0.0002320896  -0.0000714361
        0.0001623140   0.0001253343   0.0000334834   0.0001197476  -0.0001259848
        0.0000286524   0.0000019650   0.0000127762  -0.0000098766   0.0000151252
       -0.0000251858  -0.0000250315   0.0000047466  -0.0000081336  -0.0000225472
       -0.0000146798   0.0000020694  -0.0000356712   0.0000037443   0.0000187272
       -0.0000152621  -0.0000301418  -0.0000009227   0.0000115942  -0.0000190229
        0.0000215060  -0.0000048197  -0.0000054692  -0.0000533230
       -0.0760595934   0.2566841964   0.3328309124  -0.0155702966  -0.0456783598
       -0.0828081713  -0.0169427011   0.0220636574   0.0228384797  -0.0120769350
       -0.0184481108  -0.0184774707   0.0494535589  -0.0172864420  -0.0220868409
       -0.0065389008  -0.1465679734  -0.1582952353   0.0005421322   0.0031776071
        0.0091040666  -0.0002233587  -0.0026813633  -0.0019321457  -0.0018537994
        0.0012290907   0.0006657569   0.0013602784   0.0006486608   0.0002166053
       -0.0000847459  -0.0005376500  -0.0008389801   0.0026490740   0.0011113481
        0.0005314136  -0.0012632597  -0.0013999817  -0.0007911216   0.0001855996
       -0.0003178188  -0.0002335040   0.0001188575   0.0001832378  -0.0000038069
        0.0000046235  -0.0003636642  -0.0000324032  -0.0001557473   0.0002030062
        0.0001417561  -0.0003158706  -0.0004234760   0.0004397795   0.0001860990
        0.0005811881  -0.0003259690   0.0001350229  -0.0008156011  -0.0000895611
       -0.0000036690   0.0010585099   0.0000702938  -0.0001998429  -0.0005652909
        0.0000185129   0.0005604699   0.0006414688   0.0001488519  -0.0004089369
       -0.0002263710   0.0000726659   0.0001657324  -0.0000728432   0.0000629330
       -0.0000917091  -0.0000209695  -0.0000037195   0.0000782156  -0.0000250494
        0.0000333775  -0.0000283143  -0.0001085305   0.0000880420  -0.0000443294
        0.0001404162  -0.0001174724   0.0000751952  -0.0001187800   0.0001011878
       -0.0000050007   0.0001099092  -0.0001250943   0.0000645890  -0.0001287549
        0.0001257003  -0.0001059706   0.0000591813  -0.0000785244   0.0000107200
        0.0001073960  -0.0000203365  -0.0000582360  -0.0000472016   0.0000261498
        0.0000238999   0.0000610208  -0.0001330719  -0.0001933397  -0.0005554319
        0.0000279033   0.0001018268   0.0007203076  -0.0000718298   0.0886902883
       -0.0292868839  -0.0746530230  -0.0149939927  -0.0120220646  -0.0057503951
        0.0033878148  -0.0039985403   0.0044070734  -0.0006631856  -0.0068851202
       -0.0050628016  -0.0000316790  -0.0001495939   0.0001396921  -0.0000121180
       -0.0000475142  -0.0000203276   0.0000338676  -0.0000915899   0.0000413211
        0.0000801535  -0.0000677224  -0.0000736086   0.0000493332   0.0000213929
        0.0000987195   0.0000479594  -0.0000435595  -0.0001808359  -0.0000495617
        0.0001191546   0.0000949140   0.0000245726   0.0000858798  -0.0000869735
        0.0000198391   0.0000062536   0.0000112990  -0.0000090232   0.0000235372
       -0.0000082554  -0.0000174785   0.0000093998  -0.0000027089  -0.0000202787
       -0.0000035478   0.0000017973  -0.0000227034  -0.0000049511   0.0000059088
       -0.0000093380  -0.0000296204  -0.0000080149   0.0000075847  -0.0000212874
        0.0000082921  -0.0000033919  -0.0000041604  -0.0000412031
       -0.2358108058  -0.0656630268  -0.0155702966   0.6294610973   0.0444775070
       -0.0686312471  -0.2891187191   0.0126220378   0.0598128061   0.0044440181
        0.0674817418   0.0540716285  -0.0551799434  -0.0035306080   0.0072350835
        0.0333469788  -0.0562380040  -0.0517189751   0.0007753205  -0.0054957600
       -0.0043410875  -0.0001092611   0.0026164315   0.0020516486   0.0017325105
       -0.0012174301  -0.0010931275  -0.0016207338  -0.0007311723  -0.0002835405
        0.0001400069   0.0010057105   0.0008678238  -0.0017565170  -0.0005695530
        0.0002276359   0.0097279195  -0.0018468598  -0.0030813129  -0.0024021885
       -0.0009883854   0.0001982283   0.0008151105   0.0004836746   0.0004797945
       -0.0007224402  -0.0000061485  -0.0000449178   0.0004314714  -0.0002907025
       -0.0001461748  -0.0000033330   0.0001565914  -0.0003371885  -0.0001668187
       -0.0004135054   0.0003317271  -0.0000671306   0.0007140962   0.0000638767
       -0.0001056370  -0.0008991330  -0.0000483960   0.0002522558   0.0005417605
       -0.0000292285  -0.0004836196  -0.0005866852  -0.0001725207   0.0003486589
        0.0001934268  -0.0000707613  -0.0001539669   0.0000663790  -0.0000571977
        0.0000899948   0.0000268655   0.0000076840  -0.0000695141   0.0000244766
       -0.0000355608   0.0000252950   0.0001042062  -0.0000797727   0.0000439312
       -0.0001293109   0.0001110439  -0.0000724861   0.0001098224  -0.0000919808
        0.0000066840  -0.0001015510   0.0001161361  -0.0000639479   0.0001189245
       -0.0001184961   0.0001056948  -0.0000573976   0.0000696991  -0.0000056743
       -0.0000972157   0.0000185643   0.0000681073   0.0000369552  -0.0000282809
       -0.0000305343  -0.0000643197   0.0001289721   0.0002593171   0.0004836491
        0.0000021511   0.0004020043  -0.0001404298  -0.0001746615  -0.0249030736
       -0.0137302965  -0.0057495926  -0.0457434194   0.0181606066   0.0162017402
       -0.0250689833   0.0034004539   0.0078394145   0.0014999851  -0.0001629560
        0.0016526497   0.0001609664   0.0001777845  -0.0000216391   0.0000401645
        0.0000683941   0.0000129074   0.0000115928   0.0000662058  -0.0000025202
       -0.0000588679   0.0000587656   0.0001304173  -0.0004458823  -0.0001036387
        0.0001352611  -0.0000294423  -0.0000113435   0.0001422024   0.0000132906
       -0.0000747781  -0.0000955390  -0.0000252287  -0.0000688939   0.0000951622
       -0.0000247432  -0.0000029045  -0.0000145644   0.0000035173  -0.0000161323
        0.0000105667   0.0000137216  -0.0000078045   0.0000037560   0.0000139181
        0.0000068644  -0.0000035983   0.0000196983  -0.0000011945  -0.0000092289
        0.0000045899   0.0000245818   0.0000050170  -0.0000134051   0.0000156170
       -0.0000113892  -0.0000015041   0.0000036111   0.0000391987
       -0.1274126644  -0.1354509220  -0.0456783598   0.0444775070   0.4475536048
        0.2639869651   0.0720063547  -0.0849144827  -0.0492875142   0.0253469036
       -0.0061252913  -0.0096788558  -0.0112069682   0.0003919789   0.0065893180
       -0.0105590972  -0.0347854194  -0.0266177919   0.0013285076  -0.0025305572
       -0.0020460514   0.0001696425   0.0009803954   0.0007697801   0.0007606588
       -0.0002119259  -0.0002890761  -0.0004816259  -0.0002688456  -0.0000444935
       -0.0002510630  -0.0000132666   0.0001873703  -0.0006913809  -0.0016192025
       -0.0014646377  -0.0003140793  -0.0002979053  -0.0049394025  -0.0001503118
       -0.0005143704  -0.0004925264  -0.0000355881   0.0002420098   0.0003696575
        0.0000637099  -0.0004098783   0.0000312063  -0.0002468061   0.0003909170
        0.0000229998  -0.0003982384  -0.0004339649   0.0002017246  -0.0001379502
        0.0000954727  -0.0000937319  -0.0000352902  -0.0001013597  -0.0000027500
       -0.0001515200   0.0000867293   0.0000318850   0.0001760787  -0.0000418646
        0.0000149563   0.0002425805   0.0000217863   0.0000628945  -0.0001610299
       -0.0000642027   0.0000130387   0.0001002672  -0.0000371352   0.0000512657
       -0.0000359595  -0.0000053615  -0.0000004574   0.0000254661   0.0000020171
        0.0000294362  -0.0000018304  -0.0000297326   0.0000275934  -0.0000049461
        0.0000443455  -0.0000330127   0.0000114201  -0.0000419551   0.0000339234
       -0.0000131064   0.0000314442  -0.0000398514   0.0000291756  -0.0000374853
        0.0000296190  -0.0000295554   0.0000147116  -0.0000331404   0.0000036017
        0.0000275742  -0.0000245268  -0.0000245603  -0.0000193878   0.0000051971
        0.0000289648   0.0000743352  -0.0000588828   0.0000458036   0.0000661469
       -0.0000136965   0.0001514698   0.0005571346  -0.0000665755   0.0047208805
        0.0033823030   0.0013531224   0.0172982186  -0.1888715142  -0.1311853531
       -0.0143121674   0.0031920220   0.0049364264  -0.0003864433  -0.0005190459
       -0.0065576941   0.0000485563   0.0001030113   0.0000446954  -0.0000067530
        0.0000035542   0.0000079843  -0.0000004729  -0.0000232349  -0.0000181039
       -0.0000351731   0.0000083441   0.0000276671   0.0000780779   0.0000928228
       -0.0000783188   0.0000134600  -0.0000432643  -0.0000851358  -0.0000132937
        0.0000327535   0.0000364815  -0.0000044433   0.0000162761  -0.0000213407
        0.0000092267   0.0000081185   0.0000123859  -0.0000005114   0.0000152982
       -0.0000009266  -0.0000110651   0.0000119464   0.0000036176  -0.0000083901
       -0.0000042154   0.0000028494  -0.0000158104   0.0000010977  -0.0000024057
       -0.0000080894  -0.0000143117  -0.0000085910   0.0000052356  -0.0000152122
       -0.0000024828   0.0000044170  -0.0000028359  -0.0000183738
       -0.0659862555  -0.0591244564  -0.0828081713  -0.0686312471   0.2639869651
        0.3457627509   0.1088059867  -0.0368652110  -0.0957785202   0.0196821459
       -0.0188919415  -0.0201219353   0.0014719289   0.0052004823  -0.0014586867
       -0.0153491707  -0.0169718338  -0.0089684126   0.0008258176  -0.0006580370
       -0.0009051172   0.0001363782   0.0003299821   0.0001014467   0.0002240224
        0.0000695000   0.0000178376  -0.0000205069   0.0000203234  -0.0000802837
       -0.0002396334  -0.0002025367  -0.0001891812   0.0001657456  -0.0015212447
       -0.0005398376  -0.0019718588  -0.0046963664   0.0019736175   0.0008853749
       -0.0000204225   0.0003960674   0.0001721426  -0.0002405689  -0.0000336086
        0.0000989908  -0.0000204976  -0.0000990399  -0.0000012422   0.0001182407
        0.0000001130   0.0000292908  -0.0000194834   0.0001051092   0.0001773131
        0.0001915363  -0.0000848917   0.0000133777  -0.0003066952  -0.0000398611
        0.0000954579   0.0004193392   0.0000201348  -0.0001546150  -0.0002618719
       -0.0000077174   0.0002341889   0.0002630613   0.0000157291  -0.0001736258
       -0.0000909559   0.0000352921   0.0000833157  -0.0000383141   0.0000252770
       -0.0000423813  -0.0000121577  -0.0000059556   0.0000351823  -0.0000291411
        0.0000035884  -0.0000108963  -0.0000500617   0.0000328623  -0.0000149466
        0.0000603716  -0.0000544431   0.0000300531  -0.0000507012   0.0000409623
       -0.0000055621   0.0000473094  -0.0000530433   0.0000317848  -0.0000507914
        0.0000624652  -0.0000459042   0.0000343788  -0.0000303602  -0.0000009714
        0.0000544056  -0.0000030966  -0.0000309931  -0.0000174713   0.0000155030
        0.0000161937   0.0000439700  -0.0000634282  -0.0001911290  -0.0002406484
        0.0000273999  -0.0002730567   0.0002838262  -0.0000212712   0.0091240031
        0.0051761256   0.0025757846   0.0165702264  -0.1310887887  -0.1457231078
       -0.0068874006   0.0016513486   0.0031520167   0.0011693931  -0.0066687583
        0.0026579078   0.0000069118   0.0000513563   0.0000388330  -0.0000081654
       -0.0000127440   0.0000107356  -0.0000040808  -0.0000285971  -0.0000193649
       -0.0000176269  -0.0000095083  -0.0000036519   0.0000004059   0.0001144050
        0.0000818434   0.0000000000   0.0000211977  -0.0000280070  -0.0000161466
        0.0000351245   0.0000144918   0.0000120068   0.0000292964  -0.0000286327
        0.0000102812  -0.0000042889  -0.0000038838  -0.0000021622   0.0000057992
       -0.0000134427  -0.0000071709  -0.0000023861  -0.0000093442  -0.0000111496
       -0.0000023971   0.0000012459  -0.0000091987  -0.0000029585   0.0000046190
       -0.0000040284  -0.0000079230   0.0000055093   0.0000043884  -0.0000031600
        0.0000126060  -0.0000011821   0.0000045744  -0.0000154517
       -0.0645407203  -0.0375589440  -0.0169427011  -0.2891187191   0.0720063547
        0.1088059867   0.6530843892   0.0674530131  -0.0495615339  -0.0815412023
       -0.0266776826  -0.0149652586   0.0281680744  -0.0122675021  -0.0151034362
       -0.0161114520   0.0233370197   0.0213897247  -0.0029057667  -0.0028341471
       -0.0002306044   0.0006585211  -0.0017540377  -0.0014216795  -0.0008361962
        0.0004213348   0.0002988116   0.0004633088   0.0006977723   0.0003953586
        0.0004689636   0.0002949951   0.0001899964  -0.0047621123   0.0007663820
        0.0018966092  -0.0084359274   0.0241214397   0.0211763845   0.0028804740
        0.0020847436   0.0005381252  -0.0018634974  -0.0002373563  -0.0000150866
        0.0008022328   0.0002205161   0.0003634680  -0.0004077582  -0.0000913611
        0.0001631041   0.0001041918   0.0000559373   0.0003539154   0.0001425718
        0.0004360249  -0.0003500246   0.0000930243  -0.0007254069  -0.0000907577
        0.0001310609   0.0009337892   0.0000591561  -0.0002913523  -0.0005965308
        0.0000275389   0.0005928587   0.0006491624   0.0001864718  -0.0004478947
       -0.0002367583   0.0000585758   0.0001934214  -0.0000829609   0.0000828191
       -0.0001053410  -0.0000342922  -0.0000120044   0.0000900895  -0.0000344218
        0.0000428123  -0.0000263185  -0.0001257347   0.0000930183  -0.0000448132
        0.0001518714  -0.0001325724   0.0000821067  -0.0001314671   0.0001088549
       -0.0000073187   0.0001201639  -0.0001375386   0.0000780577  -0.0001439334
        0.0001418483  -0.0001150170   0.0000668200  -0.0000825593   0.0000132953
        0.0001207138  -0.0000296199  -0.0000662568  -0.0000550041   0.0000253998
        0.0000348649   0.0000930766  -0.0001449432  -0.0003136481  -0.0004961060
        0.0000034384  -0.0002239721  -0.0003686711   0.0001108837  -0.0034223533
       -0.0032919338  -0.0006489081  -0.0046671160   0.0021437975   0.0033907164
       -0.2075094964  -0.1089844553  -0.0608287068   0.0001068895   0.0006898420
        0.0001742637   0.0000085522  -0.0000211042   0.0000456663   0.0000385458
       -0.0000859504  -0.0000449347   0.0000420255   0.0000916844   0.0000532348
        0.0000992864  -0.0000519877  -0.0000696082  -0.0005846047  -0.0002243297
        0.0008428723   0.0000127753   0.0000329598  -0.0002034036   0.0000023205
        0.0000695682   0.0001108553   0.0000222345   0.0000773885  -0.0000981808
        0.0000241088   0.0000053942   0.0000144399  -0.0000065295   0.0000208891
       -0.0000170867  -0.0000222359   0.0000089460  -0.0000064505  -0.0000236908
       -0.0000099067   0.0000050797  -0.0000302474  -0.0000007195   0.0000111687
       -0.0000138056  -0.0000302948  -0.0000023864   0.0000100931  -0.0000212605
        0.0000186649  -0.0000029745   0.0000026603  -0.0000392776
        0.0068648712   0.0304272886   0.0220636574   0.0126220378  -0.0849144827
       -0.0368652110   0.0674530131   0.4343920405   0.2595777376   0.0154329191
       -0.2062140875  -0.1379598446  -0.0416658987  -0.0265249429  -0.0130350282
        0.0181954081  -0.0189057538  -0.0167665907  -0.0026836083  -0.0009451665
       -0.0039639627  -0.0001076906   0.0001580257  -0.0001356087   0.0003080783
       -0.0007389974  -0.0002038814  -0.0005557350  -0.0002727694  -0.0001470389
       -0.0002584326   0.0005238252  -0.0002195695   0.0009952387   0.0007716395
       -0.0007232939   0.0169346854  -0.0128024006  -0.0131950619  -0.0024696907
       -0.0019005659   0.0004686423   0.0005935654   0.0010808621  -0.0002126131
       -0.0008456435  -0.0005821134  -0.0000181666   0.0001290535  -0.0000725585
        0.0001159102  -0.0005730745  -0.0003937141   0.0002303888   0.0000122268
        0.0004960923  -0.0001305403   0.0001841203  -0.0004824680  -0.0000629735
       -0.0003130075   0.0005675155   0.0000455791   0.0001501306  -0.0001960067
       -0.0000038417   0.0001917207   0.0003278819   0.0000298946  -0.0001159321
       -0.0001200459   0.0000140208   0.0000606865  -0.0000161283   0.0000337709
       -0.0000339058  -0.0000252687  -0.0000047907   0.0000271898  -0.0000035956
        0.0000124519  -0.0000036588  -0.0000413535   0.0000215264  -0.0000093281
        0.0000404202  -0.0000404908   0.0000256170  -0.0000422429   0.0000332096
       -0.0000025726   0.0000328285  -0.0000389180   0.0000259922  -0.0000385873
        0.0000461057  -0.0000303805   0.0000201735  -0.0000222359   0.0000046767
        0.0000344832  -0.0000014846  -0.0000280418  -0.0000218718   0.0000045195
        0.0000076712   0.0000231707  -0.0000545291   0.0000358645  -0.0004095533
        0.0000298760   0.0003543787   0.0009826554  -0.0001205002  -0.0033411280
        0.0014278666  -0.0036210881   0.0206635467  -0.0066761193  -0.0102390624
       -0.1088064941  -0.1092139295  -0.0455842579   0.0005574742  -0.0001015142
        0.0002094414   0.0001373418   0.0001763844  -0.0000240457   0.0000306518
        0.0000094112   0.0000479458  -0.0000065340  -0.0000606561   0.0000809466
       -0.0001482500   0.0000651760   0.0001149399   0.0000205509   0.0000674837
        0.0003308035   0.0000132499  -0.0000792066  -0.0001183675  -0.0000353689
        0.0001138257   0.0000344674   0.0000214745   0.0000527550  -0.0000307140
        0.0000094500   0.0000064588  -0.0000011872  -0.0000005659   0.0000006688
       -0.0000115000  -0.0000045370   0.0000007481  -0.0000040974  -0.0000040233
       -0.0000045187  -0.0000002163  -0.0000104676   0.0000067049   0.0000072137
       -0.0000040638  -0.0000035801   0.0000011017   0.0000019337  -0.0000033222
        0.0000116436  -0.0000067857   0.0000011355  -0.0000050819
        0.0188679801   0.0316999738   0.0228384797   0.0598128061  -0.0492875142
       -0.0957785202  -0.0495615339   0.2595777376   0.3376265497   0.0200136597
       -0.1317803089  -0.1582740775  -0.0388302884  -0.0185346734  -0.0072704515
        0.0177141382  -0.0178537582  -0.0205834067  -0.0004152648  -0.0039599734
        0.0019392668  -0.0001065419   0.0001880043   0.0006343103   0.0003448037
       -0.0003474321  -0.0006250275  -0.0005630704  -0.0002840599  -0.0002856123
       -0.0000966826  -0.0004572985   0.0009506820   0.0019816288  -0.0011018415
        0.0011053697   0.0143161375  -0.0128560891  -0.0161834685  -0.0028783130
       -0.0007303351  -0.0003905866   0.0008953534   0.0016343270  -0.0005328669
       -0.0006665860  -0.0011427084  -0.0002418593   0.0002631260   0.0001882160
        0.0001315024  -0.0005887048  -0.0003900332   0.0001054973  -0.0000699146
        0.0001749112  -0.0000149967   0.0001233078  -0.0000878066  -0.0000232688
       -0.0003658132   0.0000728169   0.0000372263   0.0002937237   0.0000841114
       -0.0000091713  -0.0000576157   0.0000205877  -0.0000267717   0.0000585551
       -0.0000176709   0.0000033576  -0.0000209199   0.0000091729  -0.0000052703
        0.0000126600   0.0000062474   0.0000120640  -0.0000075568   0.0000024280
       -0.0000044888   0.0000022331   0.0000191834  -0.0000033664   0.0000081891
       -0.0000160951   0.0000203255  -0.0000071645   0.0000171493  -0.0000094522
       -0.0000030258  -0.0000206663   0.0000191461  -0.0000045690   0.0000186265
       -0.0000128563   0.0000180027  -0.0000111427   0.0000049060  -0.0000046337
       -0.0000150999   0.0000028792  -0.0000019442  -0.0000035239  -0.0000078266
       -0.0000007685  -0.0000028591  -0.0000010126   0.0002372745  -0.0001028684
        0.0000266002   0.0007996315   0.0003651870   0.0000025224  -0.0007933573
       -0.0036178277   0.0038978155   0.0179304130  -0.0061814460  -0.0088818742
       -0.0602137790  -0.0450914800  -0.0598707912   0.0004051921  -0.0001104719
       -0.0000017123   0.0001229425   0.0000945515   0.0000372874   0.0000057323
        0.0000667125  -0.0000044394  -0.0000563711   0.0000895713  -0.0001506423
       -0.0001372052   0.0000384202   0.0001423938   0.0011506803  -0.0002866150
       -0.0003314396   0.0000893050  -0.0001343646  -0.0000296023  -0.0000292792
        0.0000481690  -0.0000128675   0.0000043395   0.0000143970   0.0000118695
       -0.0000042174   0.0000054607   0.0000004063  -0.0000020167   0.0000053944
        0.0000127748   0.0000031692   0.0000006494   0.0000074812   0.0000003630
        0.0000039163   0.0000018103   0.0000076581  -0.0000069695  -0.0000028581
        0.0000049632  -0.0000045155  -0.0000042093   0.0000002792  -0.0000084679
       -0.0000025003  -0.0000011110  -0.0000000053   0.0000047710
       -0.0038812163  -0.0153138361  -0.0120769350   0.0044440181   0.0253469036
        0.0196821459  -0.0815412023   0.0154329191   0.0200136597   0.5483782201
        0.0377694493  -0.0614457275  -0.1960765555  -0.0994342757  -0.0448770327
       -0.0532789062   0.0032955208   0.0141290637   0.0048710678  -0.0251416513
       -0.0201390430   0.0001784672   0.0068604706   0.0059451615   0.0029376530
       -0.0024144433  -0.0020348453  -0.0022874529   0.0003632873   0.0005691510
       -0.0011686364  -0.0028282925  -0.0011076734   0.0023865737   0.0177395812
        0.0156224620  -0.1805766780   0.0537146985   0.0675738876  -0.0375610732
       -0.0024027049   0.0086558987   0.0043562169   0.0068406946   0.0011031643
       -0.0033208932  -0.0019200334  -0.0001978457   0.0011042988   0.0005261064
       -0.0001050446  -0.0034105907  -0.0016357856  -0.0006635214  -0.0007719699
       -0.0001101852   0.0002487389   0.0003558845   0.0005648550   0.0000541915
       -0.0013858500  -0.0008848274  -0.0000233609   0.0013019361   0.0011950899
       -0.0000644894  -0.0009167927  -0.0010255949  -0.0002244796   0.0007763958
        0.0002886140  -0.0000984789  -0.0003560653   0.0001518240  -0.0001370213
        0.0001919615   0.0000616666   0.0000201483  -0.0001558960   0.0001058399
       -0.0000825210   0.0000519141   0.0002218948  -0.0001660123   0.0000867244
       -0.0002748417   0.0002395775  -0.0001443099   0.0002276082  -0.0001922967
        0.0000253618  -0.0002184948   0.0002502521  -0.0001457599   0.0002576582
       -0.0002524259   0.0002224167  -0.0001311905   0.0001555269  -0.0000077576
       -0.0002015654   0.0000573544   0.0001283310   0.0000848363  -0.0000477748
       -0.0000742242  -0.0002012358   0.0002361796   0.0012338574   0.0006170532
        0.0000249111   0.0008715109   0.0020643624   0.0005121946   0.0007176863
       -0.0005146523  -0.0004331225  -0.0043796451   0.0008734925   0.0032765821
        0.0002145726  -0.0197186835  -0.0162847700  -0.0031488505   0.0006908474
        0.0026830822  -0.0004103253  -0.0002508227  -0.0002609976  -0.0001356479
        0.0000869267  -0.0000784484  -0.0000019786  -0.0002002927  -0.0002706447
       -0.0002919339   0.0002476384   0.0002843946   0.0005570956  -0.0004658681
       -0.0000526800   0.0001923843  -0.0004389954   0.0000079229  -0.0002017311
        0.0001243495  -0.0001244997  -0.0000286888  -0.0000473944   0.0001017307
       -0.0000481682  -0.0000017415  -0.0000379583  -0.0000038523  -0.0000367794
        0.0000269861   0.0000354202  -0.0000283683   0.0000089227   0.0000387360
        0.0000114595  -0.0000327893   0.0000521326  -0.0000032067  -0.0000129888
        0.0000210438   0.0000518713   0.0000054831  -0.0000245774   0.0000318354
       -0.0000291383   0.0000053479  -0.0000035912   0.0000657931
       -0.0202616968  -0.0342385872  -0.0184481108   0.0674817418  -0.0061252913
       -0.0188919415  -0.0266776826  -0.2062140875  -0.1317803089   0.0377694493
        0.5123705265   0.2979648386  -0.0652326352  -0.1335531249  -0.0425310567
       -0.0277714477   0.0267613207   0.0280885101  -0.0102166360  -0.0307388334
       -0.0239756519   0.0025785794  -0.0001166009  -0.0027396331   0.0011141748
       -0.0007748779  -0.0009150035  -0.0002494972  -0.0012450821  -0.0012114848
       -0.0025177404  -0.0019012889  -0.0025556743   0.0139452579  -0.0282898194
       -0.0262307080   0.0343087330  -0.0947063584  -0.0445998510   0.0033068800
        0.0109227685   0.0079740582  -0.0038583282  -0.0037302108  -0.0012545993
        0.0024187005   0.0011470145  -0.0004767321  -0.0005799770  -0.0001282003
        0.0001073574   0.0008777398   0.0015602021  -0.0008518577   0.0004784037
       -0.0004435873  -0.0002291318  -0.0002711064  -0.0001094521   0.0000170919
        0.0008278677   0.0002800622   0.0000127712  -0.0007443127  -0.0005288392
        0.0000380634   0.0004316792   0.0003993918   0.0001437625  -0.0003837730
       -0.0001004837   0.0000469133   0.0001537020  -0.0000675574   0.0000633776
       -0.0000839703  -0.0000176035  -0.0000095954   0.0000675101  -0.0000418417
        0.0000375689  -0.0000258376  -0.0000974094   0.0000735634  -0.0000460769
        0.0001239545  -0.0001072303   0.0000649882  -0.0000998898   0.0000882017
       -0.0000160029   0.0001012101  -0.0001139070   0.0000641228  -0.0001148050
        0.0001086753  -0.0001046569   0.0000555683  -0.0000705472   0.0000017900
        0.0000886138  -0.0000305077  -0.0000595946  -0.0000299486   0.0000275572