128
 energy: -204.743887711256 gnorm: 0.000108674217 xtb: 6.7.1 (edcfbbe)
N           -7.64123299763734        5.86012179321778        2.12344696262228
C           -7.01788921981596        4.94280052770170        1.83025720904535
C           -6.23609257933345        3.81786490047002        1.48870500331707
C           -5.14847325133383        3.48901445158457        2.27264071277822
C           -4.39645428157942        2.35099011404436        1.98705083299937
C           -4.70322375054321        1.56604010571414        0.89636492672753
N           -4.02422142073512        0.35526501443801        0.69651008418410
C           -4.64100965694906       -0.88519234086465        0.72484858285010
C           -6.08686732038961       -1.01219958255093        0.87024875130573
C           -6.73187006365132       -0.32586867884301        1.89690674222065
C           -8.10510567823825       -0.32943578836859        2.00665302971920
C           -8.89161935072928       -1.01617233411862        1.08050375030974
C          -10.31485533852647       -1.00928802237344        1.14601055121565
C          -11.06188978000549       -1.68812004244676        0.24507779657780
C          -10.45216489768555       -2.43625151461757       -0.80433422432740
C          -11.20387788824300       -3.14306204363855       -1.74445955806085
C          -10.58329657545775       -3.85935632154251       -2.75151213944802
C           -9.20416657478038       -3.88698611545541       -2.84702694674022
C           -8.41248456737032       -3.19392167734335       -1.92973964314457
C           -6.98909885962458       -3.19892138245076       -1.99620496359072
C           -6.23840039665655       -2.51545625225532       -1.10153901846536
C           -6.84037387041301       -1.76499654369619       -0.04933409671738
C           -8.25395400829539       -1.74893019781384        0.04923346905660
C           -9.03794048086442       -2.45917072144796       -0.89293782034043
N           -3.78161123510628       -1.85963206820736        0.61230690243806
C           -2.55520719726038       -1.27605759955780        0.51458760192372
C           -1.29047786023043       -1.91545963935980        0.41360957814865
C           -1.17221373403376       -3.30989611595567        0.40915258795832
C            0.06121762846211       -3.90391994076545        0.35158929667749
C            1.21771984004042       -3.11351021619667        0.29451676969025
C            2.54896446554376       -3.73264527995860        0.24335104728343
C            2.85475721987335       -4.83900490875203        1.03340773199200
C            4.11551015228574       -5.40024494884278        1.01102571221381
C            5.10047633833657       -4.87553087004681        0.17855088084988
N            6.38446216129239       -5.43434674749635        0.15606393547179
C            6.68475207966925       -6.77388215817950        0.00818574451233
C            5.83679607262599       -7.85294582144614       -0.19650324531964
C            6.40705617940908       -9.10304169368014       -0.34146247943672
C            7.78770836735730       -9.28331293566441       -0.29427308367083
C            8.63766432892063       -8.21037171636090       -0.11572201381089
C            8.08825710824793       -6.94375592651611        0.03257860501664
C            8.65473120663185       -5.63618716029376        0.20993691450260
C            9.95649885573651       -5.16664834935094        0.32538924061419
C           10.15771795603713       -3.81430537567420        0.51554064531330
C            9.08019852967393       -2.93608740516322        0.60703834395655
C            7.77632652121769       -3.37921930307965        0.49543431069998
C            7.56843671988136       -4.73391971352147        0.27843860824343
C            4.79839222957371       -3.78335989789545       -0.63051043116709
C            3.54099674103478       -3.21742377391032       -0.58941774501724
C            1.09860061537950       -1.73500687558543        0.29153694760839
C           -0.14345511150982       -1.09204644759495        0.34371676411501
C           -0.28043838862994        0.35404805573363        0.30289613199463
C            0.83063950949012        1.18949117445728        0.15156806202273
C            0.72611787421171        2.56568438522302        0.06064616724466
C            1.93162670041601        3.39094132373851       -0.08465928402396
C            2.05887331037680        4.59603183014486        0.60355149982029
C            3.20595991488184        5.35599804675442        0.49791654943998
C            4.25216842714788        4.93429504554683       -0.31845117019006
N            5.42260725374435        5.69500159615817       -0.42336875114273
C            5.49034778663499        7.04990592748165       -0.68198476348473
C            4.46970442396031        7.95197060639788       -0.94600027953669
C            4.81869769455284        9.26400465920764       -1.20271935762396
C            6.14960214341217        9.67555811680928       -1.20769513198949
C            7.17087182126361        8.77754639158422       -0.97064037323509
C            6.84517638792364        7.45315617913026       -0.70992443463000
C            7.62682487279928        6.27717424304827       -0.44825534949302
C            8.99071897163435        6.04322078479441       -0.33250878548549
C            9.42034667872518        4.76349556082017       -0.04396396690612
C            8.50826605964128        3.72759204833716        0.14453415640570
C            7.14675014867947        3.93568491724213        0.03474887485618
C            6.70988114580769        5.21437439313587       -0.28053626479220
C            4.12523259681541        3.74255183260986       -1.02761089374828
C            2.98244605615216        2.98013859231889       -0.90338737705638
C           -0.54586426902545        3.14895263892449        0.10080100079310
C           -1.65968364771251        2.36489239077224        0.25403324558210
C           -1.55820500837395        0.97182604911602        0.38378959403092
C           -2.67632570308103        0.11159677035006        0.55634959424926
C           -5.77002435434716        1.91494805577262        0.02420877622854
C           -6.06409040304256        1.18344435114156       -1.14557073527647
C           -7.15118972497753        1.50109721782676       -1.91021538201767
C           -7.98044279876838        2.57440974144927       -1.55439146237786
C           -7.68782734216137        3.33996391982092       -0.45987182660578
C           -6.57494214471307        3.03652124641759        0.34935710780887
H           -4.89838745494228        4.09697109052521        3.12933394712004
H           -3.57756846505946        2.06989504186321        2.63323070105234
H           -6.14394380029398        0.20884824012164        2.62930784377940
H           -8.58309800051975        0.20964252510630        2.81173196554804
H          -10.78316371397210       -0.44445488566423        1.93957547435992
H          -12.14111122133381       -1.67833397514122        0.30272489349323
H          -12.28222123878980       -3.12528510530400       -1.67698807282757
H          -11.18122938537593       -4.40195108855028       -3.46934412523370
H           -8.72589243953449       -4.44925870555653       -3.63621831501031
H           -6.51884482993543       -3.76779594086277       -2.78583259977401
H           -5.16100561368054       -2.54376623967898       -1.15330507527903
H           -2.07842715819605       -3.89357023025870        0.45830578035330
H            0.14953985516104       -4.98001863552575        0.33338727628528
H            2.10470376003193       -5.24202479312326        1.69786490884000
H            4.35150606674532       -6.23578583431183        1.65303220305296
H            4.76670360691061       -7.72154809122942       -0.25326512326772
H            5.76790710801788       -9.95949203049555       -0.49859663178294
H            8.19421179461485      -10.27718312529449       -0.40889667059602
H            9.70840443223722       -8.34716227651053       -0.09546677338151
H           10.79048773792141       -5.85006843252535        0.27133016361974
H           11.16221459474520       -3.42807868803422        0.60493374077067
H            9.26798256811926       -1.88536612073623        0.77281902496896
H            6.94791410982616       -2.69294972653226        0.58713568004299
H            5.55099134439156       -3.39321879119270       -1.29950804175984
H            3.31376593497864       -2.38088580706130       -1.23402973358253
H            2.00846729826155       -1.15654239252496        0.27528629452981
H            1.81903953509759        0.76121920103915        0.11689127699447
H            1.26264877352619        4.92345151810864        1.25587478003506
H            3.30764842105512        6.27038712618667        1.06311561433175
H            3.43635536837580        7.63966844490402       -0.96323433959933
H            4.04197337215122        9.98602453074472       -1.40782241913075
H            6.38090330855107       10.71079231017214       -1.40986877095927
H            8.20334654404996        9.09236314213384       -0.99090315422385
H            9.69619456109339        6.85009364947865       -0.46180953424803
H           10.47679215670755        4.55949947419203        0.04770329741707
H            8.87319116868670        2.74003045779823        0.38579782714002
H            6.44789369710804        3.12994391401530        0.20205840359144
H            4.92162489202687        3.42840476727762       -1.68568672082763
H            2.88937157293064        2.06671723437038       -1.47237566995412
H           -0.65016336000448        4.21742394887113       -0.01580015562014
H           -2.63451066476732        2.82775872698851        0.25315642742654
H           -5.41687280217647        0.37135507276555       -1.43993846458511
H           -7.37447922717939        0.92553440064950       -2.79571186750088
H           -8.84259713716021        2.80384199944743       -2.16192586370506
H           -8.30400738807530        4.18727496374172       -0.19623484798344
