$hessian                                                                        
        0.2217606917  -0.4627270660  -0.0542674253  -0.2249896043   0.4343381463
        0.0513874314   0.0029110139   0.0310333880   0.0004259189  -0.0004495467
       -0.0043836689   0.0058145125  -0.0031499030   0.0027693699  -0.0000954478
        0.0010812499  -0.0008295391  -0.0013192096   0.0009711883  -0.0005863693
        0.0002854875   0.0013560533   0.0006844666   0.0000710666  -0.0016298924
       -0.0007209386   0.0002345218   0.0008480248  -0.0003665640   0.0002258753
       -0.0012763818  -0.0006827892   0.0001383615   0.0018801878   0.0008362814
       -0.0001354681  -0.0019880320  -0.0009228963   0.0002491825   0.0002940389
        0.0016802004  -0.0008219780   0.0000133675  -0.0013654792   0.0006553393
        0.0003921688   0.0006877661  -0.0002495685  -0.0001829197  -0.0000472738
       -0.0000541331   0.0007809502   0.0007310524  -0.0003441661  -0.0015392447
       -0.0008108909   0.0001059904   0.0017836081   0.0012018248  -0.0003266886
       -0.0002979190  -0.0019222206   0.0010726785   0.0004000236   0.0018446905
       -0.0008514788  -0.0001411864   0.0000324249  -0.0000324105  -0.0000001765
       -0.0000304874   0.0000163525   0.0001746609  -0.0000249773   0.0002005712
       -0.0001629004  -0.0008831991  -0.0001825642  -0.0002335490   0.0001597384
       -0.0000243293  -0.0000297319  -0.0000340437  -0.0000098915   0.0000564998
       -0.0000718316   0.0000091349   0.0000001593  -0.0001299196  -0.0000133274
       -0.0000963547   0.0000586821  -0.0000029656  -0.0000306205  -0.0000651443
        0.0000407776  -0.0001051302  -0.0000534612   0.0000208151   0.0001664616
       -0.0000915244  -0.0000056089  -0.0000948346   0.0000570666   0.0000033879
        0.0000088155  -0.0000152338   0.0000091507  -0.0000453167   0.0000192479
        0.0000037073  -0.0000072262  -0.0000425203  -0.0000189977  -0.0000495195
       -0.0000673709  -0.0000106888   0.0000755388   0.0000746997   0.0000096820
       -0.0000216966  -0.0000969349  -0.0000057025   0.0000149313   0.0000634217
        0.0000036869   0.0000127572  -0.0000770896  -0.0000081399   0.0000536933
        0.0000731495   0.0000133908   0.0000290313   0.0000632699   0.0000150966
       -0.0000276312   0.0000124601  -0.0000058572   0.0000123355   0.0000063175
       -0.0000131058   0.0000161708   0.0000520151  -0.0000152392   0.0000548796
        0.0000560856  -0.0000329128  -0.0002240750   0.0003908086  -0.0000029417
        0.0001485091  -0.0003533884  -0.0000091374  -0.0000901496   0.0004170899
        0.0000125826  -0.0001285476  -0.0003235416   0.0000037431  -0.0000907524
        0.0002609464   0.0000135431  -0.0001080638  -0.0000718237  -0.0000104287
       -0.0000618268   0.0000858130  -0.0000502118  -0.0001169137   0.0000776205
       -0.0000233470   0.0002072053   0.0001178665   0.0000038913  -0.0001336205
       -0.0000939766  -0.0000050903   0.0000045108  -0.0000050819   0.0000147988
       -0.0000392410  -0.0000019936   0.0000100356   0.0000325310  -0.0000657487
       -0.0000198774   0.0000601350  -0.0000745064  -0.0000164827   0.0000068856
        0.0000994111   0.0000195140   0.0000177284  -0.0000654968  -0.0000064652
        0.0000124955   0.0000985728   0.0000090522   0.0000959036  -0.0000787564
       -0.0000160401  -0.0000607808   0.0000966053   0.0000247301  -0.0000163365
        0.0000553331   0.0000363828  -0.0000543899  -0.0000219490  -0.0000086535
        0.0000042994   0.0000451407  -0.0000094570   0.0000318930  -0.0000494077
        0.0000137850   0.0000878804  -0.0000653374   0.0000232208   0.0001931446
        0.0000798432   0.0000281702  -0.0001998291  -0.0001726917   0.0000003504
        0.0002255654   0.0000575892  -0.0000116016  -0.0012847349   0.0007235037
       -0.0000652080  -0.0005392050   0.0004393541  -0.0007861807  -0.0001335573
       -0.0000588431   0.0004770202  -0.0001761917   0.0008724943  -0.0002215267
        0.0007337346  -0.0007558215  -0.0008191859  -0.0000163658  -0.0009161696
        0.0017786653   0.0034859557  -0.0006224930  -0.0031174691   0.0004638848
        0.0002620538  -0.0000343905  -0.0002389973   0.0002328768   0.0000417964
       -0.0000534823  -0.0000383010   0.0001059523   0.0000436624   0.0000189985
        0.0000780837  -0.0000051059   0.0000153557   0.0000247969  -0.0000615094
        0.0000336365  -0.0000196517  -0.0000866483  -0.0000016600  -0.0000094293
       -0.0000220481  -0.0000207655   0.0000092909   0.0000507770  -0.0000789146
        0.0000298280   0.0000721799  -0.0000369572   0.0000316159   0.0000770587
       -0.0000246631   0.0000007132   0.0000201853   0.0000078561  -0.0000090084
       -0.0000046402   0.0000116647  -0.0000017120   0.0000217630   0.0000061908
       -0.0000114944  -0.0000096065   0.0000176539  -0.0000082919   0.0000152757
       -0.0000065934  -0.0000016704   0.0000241390   0.0000303093   0.0000058799
       -0.0000120698   0.0000386562   0.0000039618  -0.0000277421   0.0000118460
       -0.0000013304  -0.0000257942   0.0000235325   0.0000023633  -0.0000355638
       -0.0000052663  -0.0000028161  -0.0000080826  -0.0000232002  -0.0000037955
        0.0000092823  -0.0000032786   0.0000007135  -0.0000144764   0.0000013554
        0.0000002588   0.0000078068  -0.0000191243   0.0000001357  -0.0000012757
        0.0000080226  -0.0000011530   0.0000033461  -0.0000025222  -0.0000086707
        0.0000439348  -0.0000122800   0.0000103086  -0.0000126001  -0.0000190950
        0.0000075042   0.0000097407   0.0000091016  -0.0000012499  -0.0000081371
        0.0000296109   0.0000088926  -0.0000380703   0.0000119219   0.0000087626
       -0.0000309975  -0.0000172532  -0.0000002719  -0.0000369604  -0.0000085764
        0.0000036292  -0.0000198186  -0.0000419741  -0.0000088557   0.0000293792
       -0.0000343723  -0.0000157464   0.0000195463   0.0000162019  -0.0000001984
       -0.0000172470   0.0000030516  -0.0000000414   0.0000090788   0.0000217422
        0.0000010173   0.0000119787  -0.0000355217  -0.0000112457   0.0000435077
       -0.0001211161  -0.0000867360  -0.0000223256  -0.0000855153  -0.0000913972
        0.0000347404  -0.0000038337  -0.0000412239  -0.0000138966  -0.0000064573
       -0.0000472576  -0.0006771518   0.0002283056   0.0006071382
       -0.4627270660   1.0614597064   0.1226035026   0.4337788956  -1.0127138631
       -0.1146704350   0.0289875638  -0.0559713916  -0.0052087436   0.0016303876
        0.0137301921  -0.0097101903   0.0046236305  -0.0064376551  -0.0024661262
       -0.0023204951   0.0016068347   0.0023894029  -0.0013025049   0.0016634600
       -0.0002097399  -0.0030184860  -0.0017052474  -0.0001022190   0.0036567001
        0.0016126389  -0.0005528891  -0.0017088572   0.0007132636  -0.0004365806
        0.0027308371   0.0017539439  -0.0005530516  -0.0040700826  -0.0019294363
        0.0003778990   0.0043256651   0.0022290814  -0.0006999271  -0.0007603283
       -0.0037341866   0.0018065261   0.0000090248   0.0030320674  -0.0014506534
       -0.0010796723  -0.0015803547   0.0005540013   0.0003834759   0.0000137167
        0.0001612168  -0.0016764848  -0.0017585957   0.0008301578   0.0034164789
        0.0018091184  -0.0002398785  -0.0038659809  -0.0026411130   0.0007209613
        0.0006544592   0.0043197563  -0.0023994962  -0.0008606193  -0.0041092113
        0.0018793887   0.0003486544  -0.0000720544   0.0000752308   0.0000283981
        0.0000775693  -0.0000403475  -0.0002990287   0.0005569259  -0.0004470911
        0.0003309502   0.0017147222   0.0003806230   0.0004102904  -0.0002703235
        0.0000481667   0.0000584935   0.0001147307   0.0000245711  -0.0001161981
        0.0001447384  -0.0000152706   0.0000227645   0.0002681554   0.0000249391
        0.0001849419  -0.0001103682   0.0000050772   0.0000632064   0.0001504688
       -0.0000889629   0.0002219519   0.0001140088  -0.0000459782  -0.0003434159
        0.0001886796   0.0000089158   0.0002452020  -0.0001380990  -0.0000048747
       -0.0000259473   0.0000794276  -0.0000135171   0.0001050813  -0.0000340913
       -0.0000049575  -0.0000022502   0.0000974291   0.0000397539   0.0001202674
        0.0001322338   0.0000234768  -0.0001566783  -0.0001473931  -0.0000176332
        0.0000559636   0.0001994286   0.0000152106  -0.0000415694  -0.0001489331
       -0.0000110403  -0.0000285056   0.0001608636   0.0000163071  -0.0000999338
       -0.0001577883  -0.0000272605  -0.0000860273  -0.0001273181  -0.0000335926
        0.0000668909  -0.0000443300   0.0000101864  -0.0000763545  -0.0000338318
        0.0000225322  -0.0000434282  -0.0001117207   0.0000397023  -0.0001152389
       -0.0001312761   0.0000805962   0.0004190642  -0.0007864632   0.0000075627
       -0.0002768374   0.0007360990   0.0000203691   0.0002148873  -0.0008324022
       -0.0000216186   0.0001595060   0.0007336453  -0.0000093035   0.0002349585
       -0.0005341901  -0.0000140531   0.0001763611   0.0001436394   0.0000175312
        0.0001763173  -0.0002773001   0.0001884293   0.0002564059  -0.0001728982
        0.0000508973  -0.0004639332  -0.0002630458  -0.0000133786   0.0003045892
        0.0002899929   0.0000191063   0.0000040230   0.0000132754  -0.0000447437
        0.0000969895   0.0000147983  -0.0000219647  -0.0001043761   0.0001365238
        0.0000463247  -0.0001171633   0.0002032202   0.0000455265   0.0000195639
       -0.0002540654  -0.0000577634  -0.0000911715   0.0001644126   0.0000288843
        0.0000076967  -0.0002305188  -0.0000312007  -0.0002184931   0.0001880207
        0.0000392624   0.0001439312  -0.0002062589  -0.0000573913   0.0000388100
       -0.0001650037  -0.0000941402   0.0001904749   0.0000649093   0.0000056464
       -0.0000379883  -0.0001765729   0.0000160127  -0.0001008199   0.0001226504
       -0.0000245033  -0.0002158895   0.0001747432  -0.0000660185  -0.0004008972
       -0.0003144503  -0.0000855629   0.0005521037   0.0003003255  -0.0000099603
       -0.0006366421  -0.0002361217   0.0000284530   0.0027095424  -0.0015434487
        0.0001849703   0.0001870119  -0.0019103950  -0.0005695594   0.0003108783
       -0.0002794382  -0.0008426980   0.0003821806  -0.0017084342   0.0006368496
       -0.0017785949   0.0019477670   0.0017585841   0.0010771281   0.0015226681
       -0.0026201657  -0.0053881558  -0.0020582034   0.0101469882  -0.0002286441
        0.0002449248   0.0002244163   0.0001302891  -0.0002119209  -0.0002407203
       -0.0000056342   0.0001024956  -0.0002106401  -0.0000027431  -0.0000637594
       -0.0000493126   0.0000848052  -0.0000777570   0.0000139285   0.0001788503
       -0.0000712544   0.0000557010   0.0002400390   0.0000101962   0.0000267664
        0.0000597898   0.0000658077  -0.0000274743  -0.0001275733   0.0001890842
       -0.0000753945  -0.0001652837   0.0000650131  -0.0000669829  -0.0001741858
        0.0000246150   0.0000081302  -0.0000546796  -0.0000335797   0.0000184288
        0.0000131734  -0.0000340104   0.0000016564  -0.0000479127  -0.0000174422
        0.0000244890   0.0000220474  -0.0000409150   0.0000190892  -0.0000323219
        0.0000104047   0.0000037995  -0.0000487249  -0.0000652773  -0.0000114731
        0.0000256734  -0.0000829133  -0.0000076315   0.0000613076  -0.0000292459
        0.0000033011   0.0000580605  -0.0000502700  -0.0000043226   0.0000793956
        0.0000105260   0.0000065827   0.0000236776   0.0000506079   0.0000092118
       -0.0000183072   0.0000074323  -0.0000005571   0.0000383044  -0.0000054344
       -0.0000038117  -0.0000122490   0.0000392645  -0.0000038665   0.0000362333
       -0.0000208242   0.0000030867   0.0000101359   0.0000227282   0.0000159160
       -0.0001056989   0.0000357968  -0.0000605754   0.0000519148   0.0000595751
       -0.0000300202  -0.0000139095  -0.0000210876   0.0000029657   0.0000184743
       -0.0000610066  -0.0000181125   0.0000800896  -0.0000243129  -0.0000178404
        0.0000704137   0.0000380479   0.0000009347   0.0000729437   0.0000208272
       -0.0000066400   0.0000433525   0.0000951169   0.0000208080  -0.0000675210
        0.0001039291   0.0000458271  -0.0000593934  -0.0000491927   0.0000055088
        0.0000413703  -0.0000024530  -0.0000095145  -0.0000199415  -0.0000501994
       -0.0000109069   0.0000731545   0.0001579772   0.0000418859  -0.0002055029
        0.0001650316   0.0001841515  -0.0000582415   0.0001339711  -0.0000081317
       -0.0001134181   0.0001195095   0.0000966370  -0.0000391419   0.0000583896
       -0.0000295976   0.0006210493   0.0005395249  -0.0012849574
       -0.0542674253   0.1226035026   0.0311142096   0.0515785351  -0.1152544516
       -0.0468099344   0.0012431378  -0.0075130990   0.0168107392   0.0022451954
       -0.0004186482  -0.0016880976  -0.0003195288  -0.0017065152   0.0000621674
       -0.0003784778   0.0000228658   0.0004231089  -0.0000055761   0.0002951337
        0.0001602880  -0.0002951784  -0.0002130297   0.0000123024   0.0003680026
        0.0001505580  -0.0000632243  -0.0000985295   0.0000397944  -0.0000128571
        0.0002649398   0.0002004430  -0.0000714137  -0.0004171949  -0.0002234108
        0.0000489602   0.0004480974   0.0002617374  -0.0000758955  -0.0000844042
       -0.0004015082   0.0001986611  -0.0000077568   0.0003185517  -0.0001514024
       -0.0001189630  -0.0001740433   0.0000606423   0.0000469312  -0.0000019155
        0.0000274156  -0.0001789171  -0.0001725482   0.0000876828   0.0003679619
        0.0001893175  -0.0000099154  -0.0004112583  -0.0002519318   0.0000538376
        0.0000425133   0.0004736555  -0.0002599662  -0.0000677770  -0.0004332400
        0.0001872500   0.0000462336  -0.0000117562   0.0000119026   0.0000107703
        0.0000089242  -0.0000010422  -0.0000402302   0.0001887892  -0.0000345957
       -0.0000025873   0.0001399089   0.0000260019   0.0000495365  -0.0000338822
        0.0000058086  -0.0000017277   0.0000382570   0.0000059833  -0.0000169046
        0.0000173985   0.0000005342   0.0000010696   0.0000222011   0.0000020239
        0.0000340333  -0.0000212328   0.0000009076   0.0000069998   0.0000263029
       -0.0000129297   0.0000358282   0.0000155389  -0.0000026445  -0.0000586398
        0.0000323076  -0.0000006656   0.0000385436  -0.0000198458   0.0000010341
       -0.0000015560  -0.0000000542  -0.0000085062   0.0000138679  -0.0000067745
       -0.0000011348   0.0000008880   0.0000153990   0.0000056195   0.0000170689
        0.0000199060   0.0000030583  -0.0000227612  -0.0000273307  -0.0000045164
        0.0000053843   0.0000375140   0.0000019606  -0.0000107672  -0.0000213999
       -0.0000032903   0.0000018437   0.0000256945   0.0000028783  -0.0000128953
       -0.0000233991  -0.0000042603  -0.0000135582  -0.0000186185  -0.0000049291
        0.0000110064  -0.0000065411   0.0000021866  -0.0000033699  -0.0000008609
        0.0000046311  -0.0000072398  -0.0000148286   0.0000030381  -0.0000203137
       -0.0000147924   0.0000105526   0.0000410193  -0.0000760785   0.0000055149
       -0.0000440514   0.0000778670   0.0000034800   0.0000206620  -0.0000808453
        0.0000035425   0.0000011364   0.0000694763   0.0000000836   0.0000275292
       -0.0000637080  -0.0000016130   0.0000395039   0.0000259453   0.0000060230
        0.0000062127  -0.0000346705   0.0000225571   0.0000465750  -0.0000195226
        0.0000070348  -0.0000770350  -0.0000431307  -0.0000048057   0.0000437689
        0.0000430443   0.0000119978   0.0000155978  -0.0000021217  -0.0000149965
        0.0000146950   0.0000012486  -0.0000006382  -0.0000158847   0.0000199759
        0.0000083518  -0.0000160220   0.0000298201   0.0000081291   0.0000109436
       -0.0000398058  -0.0000085442  -0.0000215859   0.0000225133   0.0000066804
       -0.0000033545  -0.0000394016  -0.0000036845  -0.0000328814   0.0000295978
        0.0000091707   0.0000212367  -0.0000307675  -0.0000058394   0.0000108554
       -0.0000245108  -0.0000098336   0.0000292494   0.0000091926   0.0000064613
       -0.0000049334  -0.0000187381   0.0000037245  -0.0000137901   0.0000186470
        0.0000026189  -0.0000401790   0.0000278045  -0.0000071386  -0.0000471420
       -0.0000396186   0.0000076250   0.0000760038  -0.0000113906   0.0000129054
       -0.0000897860  -0.0000426597   0.0000067647   0.0002744632  -0.0001504969
       -0.0000053015  -0.0009808660  -0.0000489825   0.0004222861  -0.0000429639
        0.0002203229  -0.0001411505   0.0001287067  -0.0002311790   0.0000210501
       -0.0000685885  -0.0001019334   0.0001480237   0.0003341461   0.0010058603
       -0.0005225524  -0.0002596625   0.0027698834  -0.0001004891   0.0001720567
       -0.0003025066   0.0003560805   0.0000537052  -0.0002963503  -0.0000451237
       -0.0000259044   0.0000427901  -0.0000342806   0.0000242338   0.0000032596
       -0.0000027574   0.0000208722  -0.0000135299   0.0000035756   0.0000240735
       -0.0000117109   0.0000080183   0.0000335793   0.0000009903   0.0000046424
        0.0000069607   0.0000079713  -0.0000030425  -0.0000169119   0.0000204157
       -0.0000086946  -0.0000191435  -0.0000058114  -0.0000030040  -0.0000104455
       -0.0000050231   0.0000069696  -0.0000051772  -0.0000122843   0.0000009211
        0.0000045407  -0.0000055409  -0.0000010365  -0.0000061082  -0.0000048613
        0.0000024827   0.0000038827  -0.0000069378   0.0000011696  -0.0000032042
        0.0000016202  -0.0000009305  -0.0000070272  -0.0000086959  -0.0000037400
        0.0000034244  -0.0000108344  -0.0000035029   0.0000080019  -0.0000034301
       -0.0000018792   0.0000072107  -0.0000066638  -0.0000028186   0.0000104328
        0.0000010635  -0.0000009716   0.0000036614   0.0000072625  -0.0000000077
       -0.0000021424   0.0000006652  -0.0000016359   0.0000042539  -0.0000007882
       -0.0000004406  -0.0000010273   0.0000044221   0.0000000834   0.0000089129
       -0.0000032477  -0.0000003740   0.0000036465   0.0000062293   0.0000005976
       -0.0000137654   0.0000049837  -0.0000088763   0.0000031648   0.0000036464
       -0.0000022365  -0.0000011081  -0.0000011508  -0.0000002426   0.0000021279
       -0.0000075928  -0.0000028686   0.0000101423  -0.0000025307  -0.0000026059
        0.0000088828   0.0000052534   0.0000003190   0.0000091737   0.0000027493
       -0.0000003029   0.0000057619   0.0000130644   0.0000038486  -0.0000102859
        0.0000163998   0.0000069384  -0.0000093249  -0.0000072428  -0.0000019011
        0.0000084758  -0.0000024488  -0.0000011229   0.0000009801  -0.0000120255
       -0.0000004397   0.0000167152   0.0000293788  -0.0000067324  -0.0000358728
        0.0000264240  -0.0000049034  -0.0000976607   0.0000019743   0.0000724198
        0.0000112935  -0.0000584503   0.0000134998  -0.0000471979  -0.0000451370
        0.0000507786   0.0004437108  -0.0007954489  -0.0003974760
       -0.2249896043   0.4337788956   0.0515785351   0.3203282913  -0.5374569934
       -0.0744022573  -0.0871460187   0.0745737357   0.0151712588   0.0020020002
        0.0124619732  -0.0115063053   0.0098971711  -0.0043942971   0.0018267537
       -0.0018782358   0.0015234651   0.0027712976  -0.0021297358   0.0002388841
       -0.0010772083  -0.0020824284  -0.0011548308  -0.0002469510   0.0026684269
        0.0011709786  -0.0003871236  -0.0013810603   0.0005575061  -0.0003565260
        0.0019687742   0.0012776926  -0.0003193287  -0.0029632984  -0.0013430438
        0.0002736654   0.0031263957   0.0014883905  -0.0004906441  -0.0004956178
       -0.0027262372   0.0013589288   0.0000122921   0.0022180756  -0.0010882847
       -0.0006867562  -0.0010901172   0.0004492822   0.0002736753   0.0000514528
        0.0000799543  -0.0012069915  -0.0012503750   0.0006012450   0.0024952603
        0.0012663394  -0.0002312436  -0.0028324727  -0.0019226319   0.0005918173
        0.0005013373   0.0030230414  -0.0016710982  -0.0006599329  -0.0029472426
        0.0014483359   0.0002297986  -0.0000662358   0.0000603113  -0.0000091449
        0.0000367619  -0.0000260399  -0.0002351756   0.0000269655  -0.0003294630
        0.0002085482   0.0013751537   0.0003285369   0.0002661663  -0.0001529263
        0.0000354329   0.0000370409   0.0000635227   0.0000119984  -0.0000973182
        0.0000926210  -0.0000195289  -0.0000061730   0.0002781213   0.0000221316
        0.0001836762  -0.0001100872   0.0000021281   0.0000328681   0.0001180265
       -0.0000633297   0.0001480423   0.0000816019  -0.0000289614  -0.0002024168
        0.0001155401   0.0000081376   0.0001664051  -0.0001023840  -0.0000059370
       -0.0000030668   0.0000887980  -0.0000235905   0.0000663778  -0.0000270164
       -0.0000068296   0.0000019590   0.0000704851   0.0000262347   0.0000756696
        0.0001046397   0.0000163363  -0.0001142201  -0.0000929069  -0.0000177469
        0.0000382869   0.0001337033   0.0000092241  -0.0000378333  -0.0000975307
       -0.0000086163   0.0000054365   0.0001144812   0.0000157853  -0.0000765720
       -0.0001045004  -0.0000215670  -0.0000585062  -0.0000946719  -0.0000222400
        0.0000509026  -0.0000167172   0.0000080030  -0.0000740185  -0.0000267821
        0.0000271799  -0.0000093942  -0.0000971168   0.0000181995  -0.0001112064
       -0.0000860345   0.0000513778   0.0002724831  -0.0005583465   0.0000035468
       -0.0002548549   0.0005251872   0.0000180650   0.0001290435  -0.0006195993
       -0.0000291557   0.0001788927   0.0004936885  -0.0000058815   0.0001494709
       -0.0004192456  -0.0000232227   0.0001935269   0.0001263832   0.0000159069
        0.0000958792  -0.0001529614   0.0000874038   0.0001680099  -0.0001225229
        0.0000317277  -0.0002516112  -0.0001453603  -0.0000099046   0.0002037009
        0.0001737369   0.0000092980  -0.0000630120   0.0000272518  -0.0000398246
        0.0000632615   0.0000035865  -0.0000151877  -0.0000768340   0.0000900327
        0.0000288487  -0.0000746034   0.0001249609   0.0000321953   0.0000170380
       -0.0001469816  -0.0000378633  -0.0000569228   0.0001098537   0.0000190722
       -0.0000022409  -0.0001511955  -0.0000197449  -0.0001500477   0.0001044823
        0.0000331144   0.0000869990  -0.0001472216  -0.0000388378   0.0000129608
       -0.0001083520  -0.0000599573   0.0001042222   0.0000355430   0.0000090270
       -0.0000040618  -0.0001564341   0.0000342575  -0.0000342668   0.0001020245
       -0.0000096108  -0.0001360068   0.0000959252  -0.0000288023  -0.0002736401
       -0.0001437220  -0.0000526967   0.0003363558   0.0002129763  -0.0000030606
       -0.0003973270  -0.0001376073   0.0000030910   0.0018293242  -0.0009658112
        0.0001835762   0.0013993853   0.0001198493   0.0054829587  -0.0000683876
        0.0009219088  -0.0007956990   0.0002136470  -0.0015361579   0.0003095031
       -0.0014052057   0.0015362125   0.0012359352  -0.0005198117   0.0020474448
       -0.0032170259  -0.0158129208   0.0193404332   0.0125350981  -0.0021462326
       -0.0017937463  -0.0005770849   0.0004316246  -0.0003832916  -0.0000170374
        0.0000322134   0.0000646674  -0.0001992224  -0.0000542423  -0.0000176267
       -0.0001062460   0.0000167945  -0.0000202181  -0.0000326914   0.0000924671
       -0.0000462196   0.0000255154   0.0001239437   0.0000013594   0.0000093113
        0.0000320160   0.0000237163  -0.0000151801  -0.0000710437   0.0001086313
       -0.0000412835  -0.0001017685   0.0000523178  -0.0000512729  -0.0001184590
        0.0000361897   0.0000015027  -0.0000286088  -0.0000048392   0.0000130874
        0.0000070148  -0.0000138097   0.0000006068  -0.0000323054  -0.0000100837
        0.0000124035   0.0000142728  -0.0000258654   0.0000077807  -0.0000191533
        0.0000093978   0.0000016718  -0.0000335019  -0.0000436653  -0.0000100215
        0.0000190054  -0.0000548247  -0.0000068566   0.0000416073  -0.0000169380
        0.0000014256   0.0000377064  -0.0000335480  -0.0000037381   0.0000525640
        0.0000083023   0.0000044408   0.0000126381   0.0000356238   0.0000060300
       -0.0000134864   0.0000040299  -0.0000017256   0.0000227368  -0.0000018687
        0.0000009835  -0.0000106632   0.0000296206   0.0000006241   0.0000041204
       -0.0000140839   0.0000007540  -0.0000150378   0.0000101697   0.0000136565
       -0.0000677027   0.0000194143  -0.0000204694   0.0000246018   0.0000327392
       -0.0000117856  -0.0000127727  -0.0000122012   0.0000038147   0.0000104655
       -0.0000396172  -0.0000109003   0.0000508434  -0.0000158592  -0.0000104428
        0.0000443351   0.0000253084   0.0000024534   0.0000490860   0.0000129336
       -0.0000032657   0.0000278184   0.0000621975   0.0000152040  -0.0000469920
        0.0000602518   0.0000287191  -0.0000367850  -0.0000301524   0.0000026787
        0.0000223725  -0.0000033467  -0.0000067770  -0.0000159009  -0.0000322134
       -0.0000104371   0.0000040359   0.0000616320   0.0000213320  -0.0000369957
        0.0001649678   0.0001683559   0.0000768419   0.0002778978   0.0004157769
       -0.0000485579   0.0000170456   0.0000592764   0.0001597912   0.0000298302
        0.0000344987   0.0003292435  -0.0001843606   0.0001571141
        0.4343381463  -1.0127138631  -0.1152544516  -0.5374569934   1.3018825070
        0.1331283703   0.0788893501  -0.2214220382  -0.0227975590   0.0078645131
       -0.0612660758   0.0230759325  -0.0092573055   0.0101207054   0.0099628408
        0.0043951774  -0.0028349908  -0.0043704487   0.0012658635  -0.0023371648
        0.0001782614   0.0048244466   0.0027133053   0.0003218764  -0.0059203143
       -0.0025671776   0.0010005542   0.0027611137  -0.0010577232   0.0006892339
       -0.0043621754  -0.0031163603   0.0009699572   0.0065177763   0.0030969887
       -0.0006993301  -0.0069851433  -0.0036442467   0.0012990989   0.0013561257
        0.0061667341  -0.0030461401  -0.0000894565  -0.0049667842   0.0024288062
        0.0018601241   0.0025148223  -0.0010117348  -0.0006194443   0.0000291057
       -0.0002514724   0.0026231975   0.0029639359  -0.0014351333  -0.0056414601
       -0.0028517208   0.0005107907   0.0062455703   0.0041843290  -0.0012767151
       -0.0010176285  -0.0068889539   0.0037925068   0.0013406815   0.0066010694
       -0.0032068753  -0.0005876001   0.0001566797  -0.0001376563  -0.0000163000
       -0.0000993653   0.0000659958   0.0005757987  -0.0010964964   0.0007926928
       -0.0005391708  -0.0026539405  -0.0006579952  -0.0004748055   0.0003330186
       -0.0000643267  -0.0000865150  -0.0002686718  -0.0000376235   0.0002596608
       -0.0001830540   0.0000386229   0.0000137614  -0.0005735823  -0.0000458004
       -0.0004401704   0.0002607002  -0.0000044183  -0.0000666374  -0.0002780621
        0.0001395041  -0.0003216857  -0.0001857213   0.0000547626   0.0005128546
       -0.0002898584  -0.0000174411  -0.0004047494   0.0002379419   0.0000107010
       -0.0000009669  -0.0001675930   0.0000668644  -0.0001413637   0.0000739187
        0.0000165709  -0.0000101883  -0.0001642007  -0.0000601050  -0.0001788669
       -0.0002412150  -0.0000401726   0.0002596814   0.0002461701   0.0000451181
       -0.0000858778  -0.0003140711  -0.0000266477   0.0000976735   0.0002299196
        0.0000231826  -0.0000312803  -0.0002789849  -0.0000402392   0.0001662136
        0.0002486414   0.0000499407   0.0001289728   0.0002124340   0.0000493947
       -0.0001188631   0.0000261479  -0.0000205523   0.0001486429   0.0000580145
       -0.0000720127   0.0000218768   0.0002211760  -0.0000323106   0.0002620215
        0.0001917860  -0.0001171176  -0.0005565137   0.0011092891  -0.0000139015
        0.0005935723  -0.0011188111  -0.0000420626  -0.0002578210   0.0012479647
        0.0000712617  -0.0002791798  -0.0010309934   0.0000217048  -0.0003512863
        0.0009024860   0.0000419857  -0.0004371981  -0.0003102308  -0.0000328188
       -0.0002367865   0.0004043626  -0.0002467951  -0.0003921536   0.0002708316
       -0.0000604379   0.0006382935   0.0003671580   0.0000246235  -0.0004579121
       -0.0004441208  -0.0000280704   0.0000681745  -0.0000502798   0.0001202177
       -0.0001466286  -0.0000057338   0.0000349421   0.0001708943  -0.0002134369
       -0.0000684212   0.0001738723  -0.0003103222  -0.0000819832  -0.0000879640
        0.0003786974   0.0001039668   0.0001884302  -0.0002545513  -0.0000553088
       -0.0000306479   0.0003546302   0.0000558470   0.0003646454  -0.0002825060
       -0.0000901180  -0.0002202746   0.0003460570   0.0000972377  -0.0000551330
        0.0002420395   0.0001376029  -0.0002484788  -0.0000963756  -0.0000179598
        0.0000171641   0.0003719313  -0.0000868826   0.0001013048  -0.0002506952
        0.0000138561   0.0003124865  -0.0002324331   0.0000625386   0.0006763150
        0.0004034048   0.0001308285  -0.0009050192  -0.0002211654  -0.0000171877
        0.0010226310   0.0004017249  -0.0000520554  -0.0039102558   0.0024081101
       -0.0004530648   0.0020923614   0.0044991803  -0.0012530739  -0.0003562678
       -0.0005672278   0.0015455253  -0.0008991472   0.0034835477  -0.0011977081
        0.0033523413  -0.0038955885  -0.0032475105  -0.0039270868  -0.0025512207
        0.0071447517   0.0221776340  -0.0134748922  -0.0269533400   0.0001040047
        0.0004810031  -0.0016953550   0.0003051315  -0.0007651013   0.0003171798
        0.0000634706  -0.0001453077   0.0004038146   0.0000172427   0.0000830315
        0.0001142441  -0.0001099220   0.0001161114   0.0000021316  -0.0002660616
        0.0001122326  -0.0000739638  -0.0003446930  -0.0000051423  -0.0000275143
       -0.0000810008  -0.0000788469   0.0000468032   0.0001858506  -0.0002604992
        0.0001060290   0.0002327416  -0.0000656987   0.0001032563   0.0002434956
       -0.0000130873  -0.0000385837   0.0000696520   0.0000536580  -0.0000257817
       -0.0000315514   0.0000427430   0.0000040319   0.0000684504   0.0000279042
       -0.0000231299  -0.0000346507   0.0000598978  -0.0000146093   0.0000352947
       -0.0000193460  -0.0000049881   0.0000732642   0.0000961585   0.0000216611
       -0.0000432301   0.0001201174   0.0000143768  -0.0000922737   0.0000359874
       -0.0000040610  -0.0000829604   0.0000733663   0.0000081151  -0.0001162783