$hessian                                                                        
        0.2277766982  -0.4758914040  -0.0076576108  -0.2325070725   0.4490644242
        0.0063887403   0.0040521907   0.0275243210   0.0012695547  -0.0007784351
       -0.0010162114  -0.0045908065  -0.0019893715   0.0012188188   0.0007243005
        0.0008693729  -0.0019717820   0.0002894504  -0.0000602255   0.0014912838
       -0.0003120301  -0.0003683446  -0.0010300412  -0.0002131657  -0.0000742540
        0.0000243425   0.0000123469   0.0000244361  -0.0000775909  -0.0000200978
        0.0000983246  -0.0000247855  -0.0000249438  -0.0000862701   0.0000070216
        0.0000127628  -0.0000035866  -0.0000218973   0.0000098203   0.0000130153
        0.0000644278   0.0000774752   0.0000234107   0.0000163470  -0.0000615458
       -0.0002252528   0.0007171914   0.0001388695   0.0000900037   0.0000264346
       -0.0000430774   0.0000468852   0.0000020099  -0.0000377013  -0.0000562653
       -0.0000052198  -0.0000135328  -0.0000121372  -0.0000091981   0.0000062592
        0.0000090883   0.0000166090  -0.0000017541   0.0000344188   0.0000255545
        0.0000115774  -0.0000082272   0.0000331052   0.0000031525   0.0000020804
       -0.0000442692  -0.0000269511   0.0000079373   0.0000109257   0.0000031225
        0.0000120783   0.0000126365   0.0000064825  -0.0000571245   0.0000372988
        0.0000005818   0.0000354417  -0.0000291972   0.0000516390  -0.0000516677
        0.0000130844   0.0000052438   0.0005863658  -0.0002049901   0.0002020983
       -0.0012832749   0.0010293591   0.0011904588   0.0035550215  -0.0017108555
        0.0027277263   0.0003348405   0.0002851946  -0.0000266326  -0.0002184035
        0.0003458830   0.0000426878  -0.0000086654  -0.0000072941  -0.0000084892
        0.0000164396   0.0000119698   0.0000025614   0.0000298714   0.0000090448
       -0.0000329402  -0.0000861772  -0.0000158210   0.0000656398   0.0000031169
       -0.0000137259  -0.0000002589   0.0000055862   0.0000203648  -0.0000008337
       -0.0000040475   0.0000123790  -0.0000062577  -0.0000029367  -0.0000054012
        0.0000002173  -0.0000191097   0.0000156248  -0.0000028431  -0.0000165404
        0.0000025196  -0.0000020045   0.0000308591  -0.0000025951  -0.0000054352
        0.0000293769  -0.0000214201  -0.0000356373  -0.0000907027   0.0000944092
        0.0000225976   0.0003212322  -0.0000288859  -0.0001408169
       -0.4758914040   1.0934917647   0.0168700533   0.4489490135  -1.0494611660
       -0.0161882908   0.0274526456  -0.0458347103  -0.0006366229   0.0023275647
        0.0057250123   0.0078090656   0.0016787195  -0.0033358653   0.0009653698
       -0.0020022279   0.0044957608   0.0000848355   0.0009372145  -0.0030070765
        0.0001692835   0.0007534341   0.0024027403   0.0004276943   0.0000561391
       -0.0000522303  -0.0000360338  -0.0000449423   0.0001651945   0.0000455330
       -0.0001972601   0.0000332421   0.0000358333   0.0001612315   0.0000189649
       -0.0000298156   0.0001769720   0.0000007329  -0.0000063573  -0.0001191394
       -0.0001767530  -0.0001068914  -0.0000180178  -0.0000834639   0.0001508995
        0.0005576898  -0.0014610987  -0.0002688306  -0.0000717770  -0.0000793463
        0.0001051150  -0.0001562476   0.0000216717   0.0000873760   0.0001360311
       -0.0000054944   0.0000311566   0.0000277895   0.0000287733  -0.0000103912
        0.0000027781  -0.0000093732   0.0000027592  -0.0000638826  -0.0000462165
       -0.0000241299   0.0000327329  -0.0000486952  -0.0000134842  -0.0000023044
        0.0001150510   0.0000562007  -0.0000216133   0.0000203385  -0.0000057813
       -0.0000136501   0.0000179529  -0.0000173593   0.0000842772  -0.0001503126
        0.0000220409  -0.0000260226   0.0001075600  -0.0001099854   0.0000614247
       -0.0000631510  -0.0000046034  -0.0013068697   0.0003270093  -0.0004784858
        0.0006544818  -0.0041211950  -0.0002543083  -0.0048837162   0.0017912587
       -0.0085380600  -0.0000049290   0.0001333409  -0.0001559373   0.0002077456
       -0.0005204243  -0.0000325246   0.0000243008  -0.0000047238   0.0000063950
       -0.0000329086  -0.0000327714  -0.0000075979   0.0000009802   0.0000456366
        0.0000251637   0.0000703556   0.0000590132  -0.0001665214  -0.0000297701
        0.0000401128  -0.0000019419   0.0000111345  -0.0000272871   0.0000007346
        0.0000219212  -0.0000108308   0.0000110455   0.0000233252   0.0000191491
        0.0000005255   0.0000453062  -0.0000115806   0.0000071022   0.0000529577
        0.0000103373   0.0000010528   0.0000177138   0.0000380905  -0.0000040462
       -0.0001460298  -0.0000953126   0.0000899593   0.0002234111  -0.0005881983
        0.0000313381   0.0002834210   0.0001185689   0.0000614676
       -0.0076576108   0.0168700533   0.0164540701   0.0064309292  -0.0162892857
       -0.0344246562   0.0012849993  -0.0005743241   0.0177184801  -0.0018845727
        0.0018569647  -0.0005887048   0.0007054681   0.0009650116   0.0004153588
        0.0002288888   0.0001899087   0.0004403460  -0.0001743491  -0.0001364784
        0.0001300453   0.0000276326   0.0000224010  -0.0000125247   0.0000151698
        0.0000142538   0.0000075337   0.0000049789   0.0000076060   0.0000186224
       -0.0000004975   0.0000016404   0.0000078519  -0.0000162438   0.0000036796
        0.0000002531   0.0000145097   0.0000008032   0.0000121341   0.0000269437
        0.0000053227  -0.0000029458  -0.0000222862  -0.0000242515  -0.0000117227
        0.0000096102  -0.0000474402   0.0000052764  -0.0000172020  -0.0000012683
       -0.0000097736  -0.0000007332  -0.0000082569  -0.0000253867   0.0000077395
        0.0000121053   0.0000154863  -0.0000028183   0.0000033147   0.0000025058
       -0.0000006031   0.0000148607   0.0000214761  -0.0000048256  -0.0000100220
       -0.0000065585   0.0000026006   0.0000109774   0.0000182037   0.0000006534
       -0.0000096038  -0.0000061365   0.0000001454  -0.0000186819  -0.0000278431
       -0.0000043912   0.0000114914   0.0000249937   0.0000104440  -0.0000027163
       -0.0000011020  -0.0000043878   0.0000038826   0.0000163212   0.0000067749
       -0.0000048612  -0.0000035200  -0.0000233605   0.0000403515  -0.0000106967
        0.0012223437  -0.0002669635   0.0003650064  -0.0000588708  -0.0025385490
       -0.0009452323  -0.0002304711   0.0002521942   0.0002349523  -0.0000846926
        0.0002900735  -0.0000049744  -0.0000019723   0.0000054565  -0.0000020713
       -0.0000016336   0.0000056620  -0.0000005999  -0.0000290714  -0.0000145759
       -0.0000180662   0.0000231344  -0.0000184357  -0.0000209643  -0.0000011413
       -0.0000021482  -0.0000040987  -0.0000002485  -0.0000014692  -0.0000043704
        0.0000012657  -0.0000028650  -0.0000035518  -0.0000004195   0.0000046984
        0.0000005273   0.0000014060  -0.0000031530  -0.0000010446   0.0000011600
        0.0000011363  -0.0000022630  -0.0000079598   0.0000016701  -0.0000109570
       -0.0000067953   0.0000082634  -0.0000290057   0.0001510527  -0.0002692489
        0.0000087646   0.0000593071  -0.0003591843   0.0002605615
       -0.2325070725   0.4489490135   0.0064309292   0.3298709819  -0.5543580536
        0.0019387145  -0.0893233953   0.0778624026  -0.0010238028   0.0017952533
        0.0068089773   0.0099763224   0.0077728582  -0.0013432217  -0.0024569218
       -0.0014931097   0.0036392679  -0.0009256541  -0.0007871043  -0.0032464207
        0.0010817657   0.0007488459   0.0017525060   0.0004129567   0.0001122162
       -0.0000546247  -0.0000291606  -0.0000527472   0.0001306537   0.0000367122
       -0.0001329897   0.0000439627   0.0000422505   0.0001620163   0.0000137995
       -0.0000155195   0.0000381594   0.0000078851  -0.0000017690  -0.0000097137
       -0.0000798521  -0.0000958862  -0.0000255578  -0.0000587876   0.0000898010
        0.0004773943  -0.0014023282  -0.0002744102  -0.0002322104  -0.0000657466
        0.0000573009  -0.0000957900   0.0000134621   0.0000681009   0.0001011165
        0.0000244823   0.0000230474   0.0000184341   0.0000279594  -0.0000045397
       -0.0000166568  -0.0000127013   0.0000027001  -0.0000739102  -0.0000454940
       -0.0000169225   0.0000217438  -0.0000549446  -0.0000076442  -0.0000110061
        0.0000764534   0.0000484740  -0.0000220875  -0.0000103502  -0.0000000749
       -0.0000296741   0.0000141801  -0.0000147993   0.0000858958  -0.0000741275
        0.0000007042  -0.0000947255   0.0001009710  -0.0000789066   0.0001319672
       -0.0000080164  -0.0000111700  -0.0010713091   0.0004806658  -0.0003546879
        0.0038290206   0.0003655377  -0.0068515718  -0.0161591846   0.0228381823
       -0.0094899912  -0.0017108832  -0.0018360776   0.0003600576   0.0003569136
       -0.0004893520  -0.0001420601   0.0000216348   0.0000019111   0.0000084976
       -0.0000262036  -0.0000274057  -0.0000107864  -0.0000429348  -0.0000059732
        0.0000223538   0.0000705601   0.0000490854  -0.0001003069  -0.0000404920
        0.0000146847   0.0000000730   0.0000031918  -0.0000333458   0.0000038259
        0.0000156163  -0.0000193866   0.0000099256   0.0000162660   0.0000104442
        0.0000008779   0.0000389129  -0.0000253956   0.0000051378   0.0000448093
       -0.0000052176  -0.0000000402  -0.0000319542  -0.0000051640   0.0000046972
       -0.0000212362  -0.0000019501   0.0000409098  -0.0001491675   0.0006196171
       -0.0000573751  -0.0015726927  -0.0005821678   0.0012978648
        0.4490644242  -1.0494611660  -0.0162892857  -0.5543580536   1.3366377632
        0.0232808736   0.0779861257  -0.2296527379  -0.0030985564   0.0064514477
       -0.0422405478  -0.0224869977  -0.0030706552   0.0049805920  -0.0069235511
        0.0036040433  -0.0079888495  -0.0003338530  -0.0022447132   0.0054746512
       -0.0000401752  -0.0013048996  -0.0041598762  -0.0007605138  -0.0000564614
        0.0001255457   0.0000760469   0.0000637076  -0.0002851026  -0.0000727643
        0.0003240410  -0.0000680419  -0.0000746918  -0.0003790851  -0.0000503885
        0.0000318871  -0.0001803326   0.0000086085   0.0000242299   0.0001119102
        0.0002295655   0.0001257906   0.0000446833   0.0001019090  -0.0002938283
       -0.0010112841   0.0025101395   0.0004870159   0.0001557590   0.0002250743
       -0.0002162653   0.0002729570  -0.0000266796  -0.0001613959  -0.0002496954
       -0.0000225443  -0.0000616638  -0.0000232690  -0.0000622960   0.0000171065
        0.0000170011   0.0000100056  -0.0000093972   0.0001548056   0.0000908988
        0.0000421961  -0.0000518611   0.0000900855   0.0000183535  -0.0000023943
       -0.0001882423  -0.0001058667   0.0000699402  -0.0000185194   0.0000127429
        0.0000476954  -0.0000442908   0.0000364066  -0.0001403000   0.0002365849
       -0.0000264531   0.0000690534  -0.0001756647   0.0001797788  -0.0001730527
        0.0001113610   0.0000113898   0.0022368733  -0.0004556423   0.0008752759
        0.0020125542   0.0087324557   0.0030392748   0.0230937677  -0.0255076928
        0.0218006633  -0.0005507398   0.0004225915   0.0015652673   0.0001447836
       -0.0001835435   0.0000386159  -0.0000413352   0.0000288290   0.0000007416
        0.0000467131   0.0000694311   0.0000215275  -0.0000172124  -0.0000354887
       -0.0000033809  -0.0000547795  -0.0001016251   0.0002856322   0.0000537462
       -0.0000470831  -0.0000056089  -0.0000064745   0.0000663817  -0.0000106601
       -0.0000386530   0.0000328169  -0.0000288567  -0.0000525147  -0.0000285277
       -0.0000057680  -0.0000876233   0.0000330604  -0.0000131258  -0.0001016578
       -0.0000096552   0.0000003182  -0.0000155640  -0.0000533027   0.0000077606
        0.0002027217   0.0000718014  -0.0001206787  -0.0000253940   0.0002015349
       -0.0000971039  -0.0019907491   0.0003758216  -0.0007384530
        0.0063887403  -0.0161882908  -0.0344246562   0.0019387145   0.0232808736
        0.1006445997  -0.0011828814  -0.0031959257  -0.0583637131   0.0097714616
       -0.0217311902  -0.0007780362  -0.0031277079  -0.0054717680  -0.0020435180
       -0.0008295045  -0.0005283020  -0.0014140798   0.0007569807   0.0004340127
       -0.0004167146  -0.0001008266  -0.0000133930  -0.0000752230  -0.0000220901
        0.0000074755   0.0000056620   0.0000123152  -0.0000021775   0.0000091737
       -0.0000041733  -0.0000072406   0.0000072804   0.0000145791  -0.0000059911
        0.0000043918   0.0000087245  -0.0000019274  -0.0000047850  -0.0000073896
       -0.0000040289  -0.0000049551   0.0000266914   0.0000129409   0.0000318087
       -0.0000352782   0.0001672658   0.0000305871   0.0000776353  -0.0000088514
        0.0000038350  -0.0000044913  -0.0000191366  -0.0000161824   0.0000069110
        0.0000036759   0.0000173996  -0.0000045760  -0.0000001053   0.0000066832
        0.0000047425   0.0000173091   0.0000213246   0.0000023513  -0.0000043261
       -0.0000046535   0.0000021387   0.0000153506   0.0000175013   0.0000001244
       -0.0000117400  -0.0000141382   0.0000060499  -0.0000196871  -0.0000266288
       -0.0000055327   0.0000182534   0.0000098837  -0.0000187753   0.0000133779
       -0.0000279501   0.0000336560  -0.0000389202   0.0000267164  -0.0000118136
       -0.0000068791   0.0000001249   0.0000602708  -0.0001454984  -0.0000165119
       -0.0061426912   0.0016403292  -0.0018363026  -0.0090043552   0.0210193809
        0.0004753024   0.0013603955  -0.0006087387  -0.0009141981   0.0004341260
       -0.0012709816  -0.0000989721  -0.0000034849  -0.0000050624   0.0000004689
       -0.0000017413  -0.0000048418   0.0000053515   0.0000150424   0.0000200113
        0.0000118776  -0.0000531934   0.0000068723  -0.0000049434   0.0000000412
       -0.0000023546   0.0000060940  -0.0000003064   0.0000010605   0.0000058333
       -0.0000006828  -0.0000008713   0.0000039413  -0.0000010912   0.0000018200
        0.0000049673  -0.0000034985   0.0000006388   0.0000006502  -0.0000053022
        0.0000000160  -0.0000039410   0.0000063266   0.0000033072   0.0000064142
       -0.0000152414   0.0000105061  -0.0000183896  -0.0006491605   0.0011721519
       -0.0000549386   0.0003077708   0.0014515999  -0.0007944410
        0.0040521907   0.0274526456   0.0012849993  -0.0893233953   0.0779861257
       -0.0011828814   0.2909632633  -0.1623368337   0.1801785787  -0.0673075632
       -0.0012036268  -0.0350671162   0.0156965261  -0.0101252991   0.0165643502
       -0.0128710914  -0.0104674558  -0.0213323179  -0.0009690610   0.0019558527
        0.0003664005  -0.0004028220  -0.0014432051  -0.0003817521  -0.0000547532
        0.0000623862   0.0000447957   0.0000588446  -0.0000626084  -0.0000383832
        0.0000341993  -0.0000032231  -0.0000321641  -0.0000966817  -0.0000239005
       -0.0000221149   0.0000141445  -0.0000021178   0.0000012109   0.0000277358
        0.0000742014   0.0000459145   0.0000531724  -0.0000197447  -0.0000173254
       -0.0002426038   0.0007618770   0.0002282239   0.0000489854  -0.0000657876
       -0.0000990806   0.0000617117   0.0000193302  -0.0000563276  -0.0000782447
       -0.0000266213  -0.0000222879  -0.0000147073  -0.0000202321   0.0000102540
        0.0000061684   0.0000026308  -0.0000002912   0.0000503503   0.0000184268
        0.0000268537  -0.0000083926   0.0000290139   0.0000133156   0.0000511349
       -0.0000935660  -0.0000625959   0.0000174994  -0.0000201818   0.0000140256
        0.0000155937  -0.0000235001   0.0000255262  -0.0000362273   0.0000982247
       -0.0000036898  -0.0000287524  -0.0001478346   0.0001080451  -0.0000123988
        0.0000571860  -0.0000048322   0.0007610350  -0.0001776516   0.0004085740
       -0.0181487348   0.0461922979   0.0002708354  -0.1261679784   0.0298026771
       -0.1173430981  -0.0023373325  -0.0089222513  -0.0137302601   0.0045101740
        0.0047132939  -0.0024302765  -0.0000153670  -0.0000019020  -0.0000157492
        0.0000128798   0.0000212535   0.0000036246   0.0000167157  -0.0000011006
       -0.0000089602   0.0000426034   0.0002109144   0.0000548336   0.0000044755
       -0.0000138896  -0.0000017692  -0.0000077731   0.0000223179   0.0000001656
       -0.0000184105   0.0000112864  -0.0000059407  -0.0000231295  -0.0000077260
        0.0000039699  -0.0000351790   0.0000052693   0.0000070732  -0.0000361299
       -0.0000110673   0.0000034326  -0.0000371870  -0.0000400076   0.0000119140
       -0.0002951237   0.0001498561   0.0000461736   0.0046412340   0.0047575908
       -0.0023512994  -0.0025715976   0.0008566763  -0.0055125766
        0.0275243210  -0.0458347103  -0.0005743241   0.0778624026  -0.2296527379
       -0.0031959257  -0.1623368337   0.5769176066   0.0835816070  -0.0241222068
       -0.1483269982  -0.1268150181   0.0154426432  -0.0492469168  -0.0164614023
       -0.0104903976   0.0063925809  -0.0088284630   0.0010411401  -0.0046088539
        0.0006607337   0.0010204250   0.0029016199   0.0008691665   0.0001940196
       -0.0000692290  -0.0001013706  -0.0000612180   0.0002168588   0.0000482037
       -0.0001396267   0.0000533367   0.0000904438   0.0001880378   0.0000057973
       -0.0000344497  -0.0000157757   0.0000217089  -0.0000093752  -0.0000111093
       -0.0000520129  -0.0000597777  -0.0001678635  -0.0000941165   0.0000132096
        0.0006146389  -0.0017027984  -0.0004533793  -0.0002033980   0.0000600465
        0.0001672352  -0.0001541110  -0.0000107047   0.0001522077   0.0001550433
        0.0000424789   0.0000482545   0.0000225584   0.0000418984  -0.0000190639
       -0.0000166466  -0.0000026193   0.0000066233  -0.0000941113  -0.0000453634
       -0.0000388381   0.0000056074  -0.0000614375  -0.0000174723  -0.0000251172
        0.0001601252   0.0000815977  -0.0000643298   0.0000216135  -0.0000086753
       -0.0000665227   0.0000185993  -0.0000321952  -0.0000018033  -0.0000989168
        0.0000189976   0.0000578709   0.0000360739  -0.0000781888  -0.0000174947
       -0.0001338917  -0.0000031181  -0.0015249298   0.0005508458  -0.0008945251
        0.0206542659  -0.0179079388   0.0222333739   0.0527868867  -0.0917579836
        0.0597186924   0.0007330133   0.0049543768   0.0049582328   0.0048097461
       -0.0037794278  -0.0011014892   0.0000427257   0.0000401160   0.0000346267
       -0.0000264119  -0.0000486861  -0.0000188073  -0.0000774884   0.0000120119
        0.0000198404   0.0000702068  -0.0002477366   0.0000252828  -0.0000374075
        0.0000328609  -0.0000032097   0.0000150914  -0.0000459422  -0.0000000003
        0.0000330027  -0.0000242283   0.0000178519   0.0000446836   0.0000100128
        0.0000043920   0.0000601873  -0.0000148501   0.0000144224   0.0000500875
        0.0000220364   0.0000056578   0.0000573861   0.0000571821   0.0000015099
        0.0002021768  -0.0001300288   0.0000779914   0.0046354133  -0.0038060519
       -0.0012772362  -0.0086687779   0.0051343938  -0.0128238497
        0.0012695547  -0.0006366229   0.0177184801  -0.0010238028  -0.0030985564
       -0.0583637131   0.1801785787   0.0835816070   0.5154930671  -0.0545538293
       -0.0849193218  -0.2171877403   0.0379086290  -0.0611398825   0.0183767647
       -0.0200233881  -0.0083301962  -0.0526192162  -0.0004315069  -0.0000324072
        0.0009141698   0.0000957138  -0.0000447148   0.0000286860  -0.0000365312
       -0.0000353588   0.0000202195   0.0001151736   0.0001227485   0.0000177083
       -0.0000903733   0.0000284957   0.0000401493   0.0000170577  -0.0000776421
       -0.0000772926  -0.0000002041   0.0000023935   0.0000107449   0.0000847958
        0.0000349654   0.0000570290  -0.0000909186  -0.0002974406   0.0000726907
        0.0000244082   0.0000379967   0.0000650799   0.0000086148  -0.0000828623
       -0.0000324127  -0.0000219172   0.0000301010  -0.0000023815   0.0000009010
       -0.0000155791   0.0000056788  -0.0000163297   0.0000058439  -0.0000022109
        0.0000111475   0.0000232540   0.0000087279   0.0000182877  -0.0000036289
        0.0000051166  -0.0000122164   0.0000163889   0.0000187069   0.0001067095
       -0.0000552767  -0.0000752938  -0.0000301206  -0.0000326866  -0.0000156391
       -0.0000337666  -0.0000017158   0.0000205788  -0.0000918382   0.0001389449
        0.0000118117  -0.0000414057  -0.0002726417   0.0001732796  -0.0001568344
       -0.0000262809  -0.0000132216   0.0001179436   0.0000630789  -0.0000032225
       -0.0196781531   0.0676394051   0.0207472527  -0.0985830669   0.0175518121
       -0.2117486894  -0.0056233270  -0.0130383503  -0.0198064263  -0.0024487198
       -0.0011783519   0.0027074052  -0.0000067409   0.0000228818   0.0000109465
       -0.0000029212  -0.0000032120   0.0000191933  -0.0000209121   0.0000117160
        0.0000240328  -0.0000344335   0.0001487151   0.0001784894   0.0000007220
        0.0000074290  -0.0000036771  -0.0000000340   0.0000045756  -0.0000036534
        0.0000000607   0.0000044848  -0.0000083741   0.0000023290   0.0000026871
       -0.0000015672  -0.0000142051   0.0000017077   0.0000070378  -0.0000287127
        0.0000079630  -0.0000168113  -0.0000195284  -0.0000106714   0.0000080872
       -0.0004995418   0.0001056744   0.0001978821  -0.0024997746  -0.0012722973
        0.0027500932  -0.0138455731   0.0050108282  -0.0197275666
       -0.0007784351   0.0023275647  -0.0018845727   0.0017952533   0.0064514477
        0.0097714616  -0.0673075632  -0.0241222068  -0.0545538293   0.3047929633
       -0.1722516366   0.2022837195  -0.1025460781   0.1236889555  -0.0022439928
       -0.0205504464   0.0188028597  -0.0198108809   0.0030502070   0.0030410606
       -0.0048426703  -0.0004484069   0.0007315618  -0.0003587270  -0.0001103306
       -0.0000574850  -0.0000152029   0.0000760187   0.0001107842   0.0000288910
       -0.0000931145   0.0000265282   0.0000294186   0.0000720271  -0.0000119075
       -0.0000552095  -0.0000140290  -0.0000217555  -0.0000107080   0.0000821798
       -0.0000530368  -0.0000071750  -0.0000058546  -0.0001132319   0.0003682285
       -0.0003804107   0.0003685615   0.0002664574   0.0005167728   0.0003379063
        0.0001757556  -0.0000892807  -0.0000400330   0.0000957601   0.0000535804
       -0.0000109984   0.0000244411  -0.0000241181  -0.0000003964  -0.0000149316
        0.0000031658   0.0000219522   0.0000008450  -0.0000109553  -0.0000287517
       -0.0000112907   0.0000110471   0.0000340106  -0.0000059783   0.0000257497
       -0.0000110259   0.0000184656   0.0000055922  -0.0000249427   0.0000018975
       -0.0000052309   0.0000058692  -0.0000050583   0.0000016340  -0.0000037491
        0.0000166018  -0.0000827654  -0.0000176171   0.0000516954   0.0001156597
       -0.0001048067  -0.0000133180   0.0000369912  -0.0004018493  -0.0005633201
       -0.0030682408   0.0060863098   0.0073737289   0.0004524756  -0.0129796763
       -0.0152370862  -0.1200572950   0.0482649214  -0.1163146201   0.0020127332
       -0.0028069126   0.0001777621  -0.0000054920  -0.0000208134  -0.0000131766
       -0.0000033492  -0.0000219993  -0.0000002291   0.0000115778  -0.0000032586
       -0.0000052610  -0.0000789318  -0.0000473316  -0.0001078097  -0.0000150775
       -0.0000033650   0.0000035834   0.0000052831  -0.0000076163   0.0000005356
        0.0000050324  -0.0000024009   0.0000063713   0.0000071084   0.0000027652
        0.0000014192   0.0000127857  -0.0000001786   0.0000035764   0.0000121111
       -0.0000014774  -0.0000068396  -0.0000106994  -0.0000024285   0.0000028866
       -0.0002012925   0.0001030991   0.0000011022  -0.0000032729  -0.0001808471
        0.0005096267   0.0027327212   0.0029475781  -0.0051323431
       -0.0010162114   0.0057250123   0.0018569647   0.0068089773  -0.0422405478
       -0.0217311902  -0.0012036268  -0.1483269982  -0.0849193218  -0.1722516366
        0.5783980228   0.0701384844   0.0880488629  -0.2929502602  -0.0414193205
        0.0453641639  -0.0162039580   0.0731151887   0.0028202942   0.0054281778
       -0.0012763927  -0.0010888431  -0.0020420105  -0.0008929463   0.0000937717
        0.0001002380   0.0000479980  -0.0000713293  -0.0002496413   0.0000249308
        0.0001591637  -0.0000199746  -0.0000810080  -0.0001410585   0.0000325697
        0.0001011005   0.0000858748   0.0000081142   0.0000284978  -0.0000786123
        0.0000795572  -0.0000013618   0.0000308312   0.0001046393  -0.0003452723
       -0.0005093295   0.0015956567   0.0003642903   0.0004193178  -0.0000580790
       -0.0001304905   0.0000271233  -0.0000365003  -0.0001461209  -0.0000760763
       -0.0000571235  -0.0000303152  -0.0000198955  -0.0000392394   0.0000206798
        0.0000096864  -0.0000101038   0.0000016579   0.0000501023   0.0000337502
        0.0000218546   0.0000191143   0.0000545115   0.0000070803  -0.0000301267
       -0.0000408431  -0.0000110295   0.0000678881   0.0000163838  -0.0000084849
        0.0000771801  -0.0000319681   0.0000434749   0.0000005649  -0.0000413567
       -0.0000541543   0.0001778688   0.0001087750  -0.0002451097  -0.0000283320
        0.0000495252   0.0000356872   0.0010599905  -0.0011397020   0.0008628666
        0.0057655515  -0.0470278514  -0.0242441596  -0.0343484781   0.0436720421
       -0.0296323380   0.0486683946  -0.0668660507   0.0610363391   0.0077151631
       -0.0190147759  -0.0027404569  -0.0000451528   0.0000057327  -0.0000007559
        0.0000052883   0.0000558646   0.0000010787   0.0000060661   0.0000228106
       -0.0000260098   0.0001461436   0.0000926606   0.0000375261   0.0000233059
       -0.0000170029   0.0000029573  -0.0000065576   0.0000270755   0.0000016874
       -0.0000220992   0.0000124475  -0.0000111608  -0.0000303136  -0.0000079677
       -0.0000026077  -0.0000248042   0.0000130863  -0.0000233812  -0.0000215686
       -0.0000084341   0.0000104588  -0.0000120880   0.0000038939  -0.0000195902
        0.0004205593   0.0000253933  -0.0001681420  -0.0000973625  -0.0002750278
       -0.0003728840   0.0030522541   0.0010394762   0.0007732012
       -0.0045908065   0.0078090656  -0.0005887048   0.0099763224  -0.0224869977
       -0.0007780362  -0.0350671162  -0.1268150181  -0.2171877403   0.2022837195
        0.0701384844   0.5429219880  -0.0310282436   0.0203458438  -0.0840652415
        0.0026186743   0.0234769566   0.0233986475  -0.0061479593   0.0008725765
       -0.0024076217  -0.0000287282  -0.0003970646  -0.0000835609  -0.0000634130
       -0.0000377106  -0.0000859927  -0.0000080886  -0.0000669399   0.0000216809
        0.0000639161  -0.0000282599  -0.0000529500   0.0000581510   0.0000342488
        0.0000647013  -0.0000585665  -0.0000241799   0.0000004000  -0.0000338136
       -0.0000106564  -0.0000273501   0.0002420773   0.0001376168  -0.0000978295
       -0.0000890176  -0.0000413725   0.0000513570  -0.0003762380   0.0002629376
        0.0001284397   0.0000403871   0.0000931739   0.0000050404  -0.0000364109
        0.0000065826  -0.0000035059  -0.0000176593   0.0000044590  -0.0000038852
        0.0000033750   0.0000049809   0.0000057542  -0.0000087223  -0.0000102943
       -0.0000069983   0.0000265687   0.0000065215   0.0000038870  -0.0000281406
       -0.0000201880   0.0000342245   0.0000273554  -0.0000177071  -0.0000173464
        0.0000470580   0.0000151097   0.0000146287   0.0000631542  -0.0000721245
       -0.0000209579  -0.0000926225   0.0001554268  -0.0000802340   0.0001349464
        0.0000133190   0.0000176858  -0.0001768899   0.0011329331  -0.0003009038
        0.0074414780  -0.0248413101  -0.0113260502  -0.0335730327   0.0106301722
       -0.0498433953  -0.1159797070   0.0606291767  -0.1966699401   0.0088645046
       -0.0212973887  -0.0011322585  -0.0000288808  -0.0000076287  -0.0000123045
       -0.0000121519   0.0000150499  -0.0000024662   0.0000213400   0.0000096087
       -0.0000060282  -0.0000540366   0.0002119195  -0.0001757436   0.0000010334
       -0.0000079793  -0.0000022503  -0.0000071295   0.0000026988  -0.0000050437
       -0.0000062091  -0.0000024733  -0.0000039460  -0.0000071998   0.0000006130
       -0.0000005408   0.0000001998  -0.0000002282  -0.0000051476   0.0000178188
       -0.0000133767   0.0000085782  -0.0000265749  -0.0000050493  -0.0000017334
        0.0000787763   0.0000374299  -0.0000394547   0.0005362694  -0.0002871026
        0.0002823898  -0.0049997665   0.0004441454  -0.0019242408
       -0.0019893715   0.0016787195   0.0007054681   0.0077728582  -0.0030706552
       -0.0031277079   0.0156965261   0.0154426432   0.0379086290  -0.1025460781
        0.0880488629  -0.0310282436   0.2904804398  -0.1612416634   0.1883753390
       -0.1266713583   0.0541586957  -0.0945692762  -0.0127124244   0.0215209605
       -0.0123904147  -0.0020581387  -0.0035222186  -0.0017724555  -0.0003958946
       -0.0003862391  -0.0000042405   0.0001330890   0.0000646445   0.0000119858
       -0.0001141510   0.0000207338   0.0000168062  -0.0000402517  -0.0000364387
       -0.0001380402   0.0000564506  -0.0000123191  -0.0000132094   0.0000320467
       -0.0001557435  -0.0000434703  -0.0002209208   0.0001127293   0.0006091368
       -0.0012053210   0.0015648981   0.0008815640   0.0004500297   0.0008056448
        0.0001616435  -0.0000149353   0.0001410845  -0.0000143928  -0.0001101063
       -0.0000662728  -0.0000295940  -0.0000519320  -0.0000373911  -0.0000025215
        0.0000248393   0.0000113282  -0.0000014873   0.0000709276   0.0000174563
        0.0000174975   0.0000596026   0.0001181660   0.0000032415  -0.0000034497
       -0.0001353430  -0.0000294190   0.0000883909   0.0000849202  -0.0000026086
        0.0001291443  -0.0001102360   0.0000357249  -0.0000381001  -0.0000429949
       -0.0000486929   0.0003969364   0.0000377670  -0.0001574052   0.0000851315
        0.0001044357  -0.0000544513   0.0018924631   0.0009692079  -0.0001056502
       -0.0008129246  -0.0350380969  -0.0330871801  -0.0219226181   0.0231440347
       -0.0129702829  -0.0068768892   0.0162160318  -0.0015887974  -0.0430968739
       -0.0210386308  -0.0342983971  -0.0000480392  -0.0000691368  -0.0000536304
        0.0000034924  -0.0000183551   0.0000034455   0.0000222811   0.0000015936
        0.0000085235  -0.0000818938  -0.0005298746   0.0000859083   0.0000011352