61
 energy: -75.923498510940 gnorm: 0.000043037398 xtb: 6.7.1 (edcfbbe)
C           -5.60371573443920       -1.84304896804007       -0.01538265805492
C           -4.17759910296294       -1.38062323314007       -0.02559993927550
C           -3.26126999880270       -1.88861892960319        0.88396066997909
C           -1.94004980261056       -1.47003494103804        0.89742457641275
C           -1.01313064632463       -2.08358777392688        1.90918080217449
C           -1.48964335658861       -0.49450133464378       -0.00999365445092
B            0.00428389992762       -0.00102363959315       -0.00055896567805
C            0.32122279605380        1.54004833481923       -0.00394266946341
C            1.25089718454962        2.09028310898278       -0.90390640188259
C            1.98012269464221        1.22993703406516       -1.89750496781427
C            1.51483316655183        3.45141165406989       -0.90127796238617
C            0.89123819917850        4.31247550579753       -0.01064822773058
C            1.17665411189377        5.78412990774181       -0.03279116102632
C           -0.02033135829402        3.77173768833111        0.88317351695092
C           -0.31509664698990        2.41658052246945        0.89210869914238
C           -1.32280816276908        1.91878377006731        1.89013235528040
C            1.17903126691934       -1.04741852479433        0.01317727901037
C            1.20182041120551       -2.12881780633700       -0.88507324812596
C            0.10650699097237       -2.32945439644591       -1.89463852622475
C            2.24826570494627       -3.03855895285266       -0.86813490190386
C            3.29420466507168       -2.92825441043261        0.03563031549844
C            4.40414817073370       -3.93579781167758        0.06146754663058
C            3.26985280180066       -1.86801558887074        0.92896640602693
C            2.24435874035184       -0.93461772934935        0.92369105600775
C            2.30690384970900        0.18985805050368        1.91910019518561
C           -2.42226134432063        0.02441721971260       -0.92432456192112
C           -2.03143491788259        1.06931299200031       -1.93166342841062
C           -3.73496601760953       -0.42448904701817       -0.92589807341828
H           -6.14755658136790       -1.35991306838113        0.79782663814390
H           -6.10038036655212       -1.59567730794858       -0.95093632189960
H           -5.65904554369840       -2.91921507352795        0.14030863662961
H           -3.58747712803902       -2.63549930141923        1.59602685744713
H           -1.57874251064873       -2.60746058995627        2.67740662024098
H           -0.39054717553815       -1.33260767910531        2.38784171557707
H           -0.34917608779199       -2.79973643837479        1.42654875615616
H            2.44266988413691        1.84404450531335       -2.66789460475405
H            2.76396103959966        0.66027978938738       -1.39971923533355
H            1.31270290032091        0.51795468130617       -2.37524364249224
H            2.22917025067653        3.85310368208368       -1.60816579549246
H            0.52378705372855        6.27885157022863       -0.75387434097685
H            0.99909070940874        6.22983463973286        0.94370621127993
H            2.20668346154916        5.97502583084545       -0.32748306292363
H           -0.51696547656721        4.42486908645909        1.58884636678998
H           -2.26880935405181        1.70290973918261        1.39491251924799
H           -0.98999411128502        1.00314190851847        2.37120678646792
H           -1.50353390248330        2.66895181829871        2.65772259559161
H           -0.78491085422777       -2.72618346742573       -1.41013866693853
H            0.41873109217149       -3.03470250717592       -2.66255061602806
H           -0.17128126831860       -1.39484831069026       -2.37400176926399
H            2.24815358705513       -3.85742750467903       -1.57572999629970
H            5.32824044052625       -3.48632190186390        0.41932407541165
H            4.14677803156926       -4.75679300231147        0.73278263431652
H            4.57321897586686       -4.35269411153080       -0.92925387718937
H            4.07585933245214       -1.76360780334131        1.64363347772056
H            3.03323708981524       -0.03010996753698        2.69930252424572
H            2.60647086026301        1.11373322828123        1.42561186504128
H            1.34087691941041        0.36639728459694        2.38396064194202
H           -1.07456689682071        0.84175593388081       -2.39332432792652
H           -1.93883496286602        2.04165709649775       -1.44910850133479
H           -2.78480573839001        1.14758591501857       -2.71331628983828
H           -4.43177294515794       -0.01525467650867       -1.64580763288300
