$hessian                                                                        
        0.4169498295  -0.0060095729  -0.0013139730  -0.2125349342  -0.0189304245
       -0.0032795518  -0.0296600913   0.0183184271   0.0007313267   0.0039903655
       -0.0034041852  -0.0001340374  -0.0016712004   0.0038924755   0.0001811881
       -0.0006406702  -0.0019653640  -0.0001158608   0.0010977057  -0.0001156008
        0.0000240849  -0.0020230440  -0.0002469429  -0.0000605502  -0.0000891930
        0.0005272946   0.0000409774  -0.0009999325   0.0002639945   0.0000384867
        0.0004556679  -0.0004730612  -0.0000112567  -0.0000509238  -0.0000908863
       -0.0000207037  -0.0001918996   0.0026583212   0.0001099333  -0.0001203035
        0.0000048183   0.0000094327   0.0000546765  -0.0001106283  -0.0000038224
        0.0000529297  -0.0000700402   0.0000000530  -0.0000376644   0.0000121778
        0.0000074251  -0.0000705601   0.0000151786  -0.0000005485   0.0000455570
       -0.0001060743  -0.0000588265   0.0008594769   0.0000840939   0.0000196798
       -0.0003110171   0.0002913350   0.0000146269   0.0000835065  -0.0000533692
       -0.0000062625  -0.0000436807   0.0000246971   0.0000291794  -0.0000093228
        0.0000088571   0.0000021347  -0.0000282231   0.0000424709  -0.0000271780
        0.0000599316  -0.0000597885   0.0000034967  -0.0571406076  -0.0264475920
       -0.0560514087  -0.0600611457  -0.0354825475   0.0559826917  -0.0572817265
        0.0674192341   0.0038913711  -0.0002048205   0.0001630911   0.0000192466
       -0.0001055255  -0.0000531021  -0.0000053460  -0.0004698616  -0.0001069731
       -0.0000069470  -0.0000328142  -0.0000376185  -0.0000004712   0.0000007187
        0.0000519146   0.0000013680   0.0000450822   0.0000311098  -0.0000004759
        0.0000367575  -0.0000140705   0.0000010616  -0.0000080733   0.0000036000
        0.0000109249   0.0000213099  -0.0000014211  -0.0000180805   0.0000233944
       -0.0000182965  -0.0000005916   0.0000080952  -0.0000195025   0.0000141794
        0.0000022308   0.0000039709  -0.0000169764
       -0.0060095729   0.5328782015   0.0024483521  -0.0363824290  -0.0766690677
       -0.0021034857   0.0355660222  -0.0001737256   0.0006265795   0.0022739409
        0.0000237342   0.0001657114   0.0009253142   0.0009671514  -0.0000027059
       -0.0003524178  -0.0001296185  -0.0000084694   0.0001799049  -0.0000896703
        0.0000317933   0.0017126154   0.0000934337  -0.0000255998   0.0001199717
       -0.0003510380  -0.0000007665  -0.0000398583  -0.0000483936  -0.0000084318
       -0.0002166032   0.0000795441   0.0000073698  -0.0002924397   0.0000650873
        0.0000124446   0.0013067763  -0.0045763057  -0.0004435861   0.0000307723
        0.0000424712   0.0000085109  -0.0000493361  -0.0000202792  -0.0000011382
        0.0000233256   0.0000040841   0.0000004645  -0.0000148359   0.0000353970
        0.0000020559  -0.0000140515  -0.0000423489  -0.0000029212  -0.0000162492
        0.0000830209  -0.0000005264  -0.0000479869  -0.0000853070  -0.0000034170
       -0.0000199877   0.0000097698   0.0000010067   0.0000040091  -0.0000009582
       -0.0000014621  -0.0000038360   0.0000020451   0.0000029543  -0.0000008027
        0.0000033594  -0.0000009363   0.0000016694   0.0000040401  -0.0000037698
        0.0000078420  -0.0000002338   0.0000004562  -0.0259396246  -0.0827857226
       -0.0796518890  -0.0347928267  -0.1035568385   0.0914289978   0.0606172579
       -0.2645025035  -0.0124550135   0.0014321076  -0.0014514891  -0.0000258544
        0.0001044419  -0.0000052803   0.0000010138  -0.0001228790   0.0002120065
        0.0000006036   0.0000115131  -0.0000038971  -0.0000005139  -0.0000039943
       -0.0000119649  -0.0000010151  -0.0000007664  -0.0000026216  -0.0000006405
        0.0000001086  -0.0000015287  -0.0000004454   0.0000007313  -0.0000008980
        0.0000024018  -0.0000009689   0.0000016733   0.0000020122   0.0000001530
        0.0000020141   0.0000011950   0.0000015084   0.0000016838   0.0000006317
        0.0000014809   0.0000009732  -0.0000019673
       -0.0013139730   0.0024483521   0.4911227471  -0.0043026396  -0.0019083623
       -0.0499690660   0.0017903906   0.0004621515  -0.0026681413   0.0002135623
        0.0000670350  -0.0022437431   0.0000265899   0.0000737159   0.0012232999
       -0.0000375437  -0.0000580124  -0.0000662386   0.0000326481   0.0000263887
       -0.0005643520   0.0000612321  -0.0000407155   0.0009493868   0.0000005775
        0.0000009032  -0.0003639818  -0.0000217964  -0.0000102494   0.0000913311
       -0.0000068278   0.0000060909  -0.0001367056  -0.0000367195  -0.0000168388
       -0.0000993719   0.0000036400  -0.0004318497   0.0032173395   0.0000066920
        0.0000080117  -0.0000786111  -0.0000002434   0.0000052842  -0.0000151964
        0.0000020461  -0.0000040936   0.0000022600  -0.0000034884  -0.0000007831
       -0.0000041823  -0.0000008944   0.0000021362  -0.0000004264   0.0000046102
        0.0000098477   0.0000408996   0.0000145528  -0.0000034961  -0.0000097721
       -0.0000005670  -0.0000030606   0.0000150450  -0.0000007492  -0.0000042709
       -0.0000019122   0.0000007532  -0.0000033395  -0.0000009449  -0.0000012625
        0.0000008489  -0.0000030059  -0.0000005831  -0.0000011118  -0.0000030657
       -0.0000162680  -0.0000078372   0.0000094187  -0.0546846698  -0.0804628204
       -0.2092031519   0.0546872251   0.0922252063  -0.1854895557   0.0034835255
       -0.0123603442  -0.0452211722   0.0000926760  -0.0000466780  -0.0007007203
        0.0000107361  -0.0000027465   0.0000175990  -0.0000144818   0.0000136675
        0.0001345683   0.0000002471  -0.0000024747   0.0000191693  -0.0000011421
       -0.0000006340   0.0000065614   0.0000002522  -0.0000002406   0.0000037422
       -0.0000010812  -0.0000011575   0.0000071391   0.0000047798   0.0000076409
       -0.0000035891   0.0000034576   0.0000026557  -0.0000032719   0.0000027003
        0.0000016139  -0.0000024955  -0.0000010138   0.0000043514  -0.0000029050
        0.0000030502   0.0000052149  -0.0000049279
       -0.2125349342  -0.0363824290  -0.0043026396   0.4606345779  -0.0746761506
        0.0007053718  -0.1180197989   0.0878213393   0.0042628841   0.0038839776
        0.0038587970   0.0000951014   0.0045325933  -0.0100004152  -0.0006929933
        0.0008448272   0.0027918685   0.0002209093  -0.0030985858  -0.0000382551
       -0.0000056978  -0.0042299730  -0.0028491679  -0.0002634275  -0.0017115276
        0.0005019828   0.0000129506   0.0028595341   0.0001449914  -0.0000351907
       -0.0015542069   0.0014281950  -0.0000094757   0.0011676412   0.0027875248
        0.0001850706  -0.0383392891   0.0349022357   0.0015428238   0.0007069826
        0.0003449613   0.0000197317  -0.0002670599   0.0001179379  -0.0000162917
        0.0000472055   0.0000699429   0.0000052937   0.0000216802   0.0001550887
        0.0000094274   0.0001228683  -0.0002660497  -0.0000140877  -0.0000834319
        0.0009379097   0.0001443287  -0.0020677470  -0.0008754821  -0.0000681496
        0.0006217643  -0.0005515383  -0.0000285160  -0.0001255395   0.0001392584
       -0.0000327181   0.0000958246  -0.0000449001  -0.0000594207   0.0000142499
       -0.0000186157   0.0000039801   0.0000751021  -0.0000900534   0.0000520550
       -0.0001056489   0.0000794390  -0.0000314338  -0.0337127048  -0.0072726924
       -0.0112452749  -0.0347322812  -0.0085241784   0.0093415785  -0.0219339294
        0.0063618121   0.0000730467  -0.0009313761   0.0006617197   0.0000696175
       -0.0003639951  -0.0000170567  -0.0000063429  -0.0018126840  -0.0013245908
       -0.0000356877   0.0000806011  -0.0001023234   0.0000043004  -0.0000025921
       -0.0000990940  -0.0000016113  -0.0000172665  -0.0000382140  -0.0000060674
       -0.0000133383   0.0000022702  -0.0000010968   0.0000113605  -0.0000024854
       -0.0000190204  -0.0000401417   0.0000125151   0.0000278509  -0.0000251063
        0.0000276643   0.0000089986  -0.0000063839   0.0000269863  -0.0000071869
        0.0000087520  -0.0000007480   0.0000970099
       -0.0189304245  -0.0766690677  -0.0019083623  -0.0746761506   0.3879928507
        0.0181586038   0.0595456234  -0.2469785804  -0.0115318936   0.0285860233
       -0.0679417003  -0.0041110363  -0.0206752622   0.0110155664  -0.0002810205
        0.0016045356  -0.0100511330  -0.0004545185   0.0098104184   0.0024162027
        0.0003535209  -0.0052159465  -0.0012636261  -0.0002882521   0.0011516193
        0.0015430968   0.0001113449  -0.0031989031   0.0000292729   0.0000371445
        0.0028090007  -0.0001933144   0.0001039164  -0.0037095091  -0.0031948652
       -0.0001580623   0.0200010739  -0.0012834450   0.0000668848  -0.0007109023
       -0.0005103277  -0.0000516428   0.0005367304  -0.0000637485   0.0000277978
       -0.0002354551  -0.0000350440  -0.0000104233   0.0000738172  -0.0003020111
       -0.0000242915  -0.0000113155   0.0004589414   0.0000305204   0.0000967435
       -0.0014188224  -0.0001406476   0.0021296300   0.0015946097   0.0000820645
       -0.0004273195   0.0003525936   0.0000042996   0.0000989796  -0.0001346818
        0.0000272629  -0.0000830788   0.0000151480   0.0000655684  -0.0000263960
        0.0000305520  -0.0000031687  -0.0000365199   0.0000433614  -0.0000358090
        0.0000571030  -0.0000541242   0.0000567943  -0.0149914790   0.0002217843
       -0.0001497737  -0.0183620621   0.0000797936  -0.0005648210   0.0337042550
       -0.0003905181   0.0003870446   0.0020787756   0.0023654300   0.0002824342
       -0.0002923266   0.0001602880   0.0000057303  -0.0004893495   0.0018326536
        0.0000456281  -0.0001392949   0.0002793834  -0.0000022801   0.0000105684
        0.0001037286   0.0000025581  -0.0000414320   0.0000067884   0.0000088045
       -0.0000298984   0.0000150790   0.0000007472  -0.0000115776   0.0000114126
        0.0000058024   0.0000322290  -0.0000120086  -0.0000280255   0.0000044757
       -0.0000250481  -0.0000134155  -0.0000163706  -0.0000171140  -0.0000091427
       -0.0000206282  -0.0000293565  -0.0000978858
       -0.0032795518  -0.0021034857  -0.0499690660   0.0007053718   0.0181586038
        0.0681710638   0.0025860402  -0.0110716435  -0.0416917706   0.0016129493
       -0.0046306861   0.0096861317  -0.0013330074  -0.0001501775   0.0113648185
        0.0001425273  -0.0004023627  -0.0026391664   0.0005751135   0.0002263068
       -0.0017948032  -0.0004211292  -0.0002180023   0.0023662882   0.0000486322
        0.0000769878  -0.0000832978  -0.0001291925   0.0000383218  -0.0002829985
        0.0001223747  -0.0000003442  -0.0001742895  -0.0001526711  -0.0001053842
       -0.0001301114   0.0006374506   0.0002506440   0.0019504507  -0.0000314238
       -0.0000196437   0.0001926310   0.0000225009  -0.0000209351   0.0000301256
       -0.0000106529   0.0000018986  -0.0000058552   0.0000056268  -0.0000018581
        0.0000028712   0.0000015153   0.0000102273  -0.0000068049   0.0000009670
       -0.0000543050  -0.0000473982   0.0001034980   0.0000555416   0.0001132541
       -0.0000304504   0.0000261922   0.0000027197   0.0000125070   0.0000046997
       -0.0000012014  -0.0000107804   0.0000077902   0.0000043464  -0.0000028659
       -0.0000011881   0.0000070175   0.0000047922  -0.0000023868  -0.0000010346
        0.0000171394   0.0000053770  -0.0000126665  -0.0295052341  -0.0012702133
        0.0017312157   0.0265277952   0.0008009776   0.0028498340   0.0017266963
        0.0000082673   0.0009202578   0.0001428807   0.0002978794  -0.0024001542
       -0.0000176551   0.0000115234  -0.0000374877  -0.0000428810   0.0000789398
       -0.0000611682  -0.0000059382   0.0000163713  -0.0000465711   0.0000025247
        0.0000050295  -0.0000072949  -0.0000025372  -0.0000008761  -0.0000025532
        0.0000000693   0.0000019357  -0.0000094564  -0.0000085703  -0.0000095462
        0.0000052755  -0.0000042682  -0.0000032647   0.0000008356  -0.0000032272
       -0.0000024968   0.0000024641  -0.0000003582  -0.0000054717   0.0000015885
       -0.0000065777  -0.0000092431   0.0000019606
       -0.0296600913   0.0355660222   0.0017903906  -0.1180197989   0.0595456234
        0.0025860402   0.5829218957   0.0581930153   0.0095331105  -0.1446615160
       -0.1076679904  -0.0078923374   0.0292431549  -0.0060218985   0.0001917252
       -0.0009899551   0.0139665442   0.0007505796  -0.0155385876  -0.0181683353
       -0.0013242764  -0.0313600570   0.0369130275   0.0017917262   0.0012827582
        0.0035913243   0.0001796977  -0.0084818929   0.0028700130   0.0002057151
        0.0124489966  -0.0051664823  -0.0000486441  -0.0364643139  -0.0275322054
       -0.0019996719  -0.2247009911  -0.0211302443  -0.0038286820  -0.0027132772
       -0.0024574075  -0.0001267488   0.0010453170   0.0009098566   0.0000800272
       -0.0011034311  -0.0002378091  -0.0000451319   0.0005144977  -0.0009578442
       -0.0000211139   0.0001637083   0.0012638060   0.0000780162   0.0002077257
       -0.0035079882  -0.0003841506   0.0063950475   0.0031700775   0.0001994374
       -0.0012068137   0.0012440317   0.0000188386   0.0003058455  -0.0003477071
        0.0000299973  -0.0001270878   0.0000878864   0.0000981433   0.0000063185
       -0.0000072846   0.0000034835  -0.0001278167   0.0001332278  -0.0001290808
        0.0002898324  -0.0002265121  -0.0000595264   0.0012613656   0.0005926253
        0.0008512847   0.0012447213   0.0007142445  -0.0007624176  -0.0075123455
        0.0004545956  -0.0000820062  -0.0156800001  -0.0281203957  -0.0019039412
       -0.0004068282  -0.0001558599  -0.0000261463   0.0012326738   0.0021054247
        0.0001968619  -0.0001456660   0.0002130184   0.0000049574   0.0000170622
        0.0001945952   0.0000046701   0.0000792446   0.0001131786   0.0000092722
        0.0000777840  -0.0000035304   0.0000080182  -0.0000308232   0.0000415618
        0.0000598845   0.0001140631  -0.0000328220  -0.0000592225   0.0000853381
       -0.0000728509  -0.0000006848   0.0000551916  -0.0001078784   0.0000718879
       -0.0000612492   0.0000393463  -0.0000499826
        0.0183184271  -0.0001737256   0.0004621515   0.0878213393  -0.2469785804
       -0.0110716435   0.0581930153   0.7238938584   0.0359283154  -0.1539014126
       -0.3409133595  -0.0203082430   0.0327073547  -0.0650628280  -0.0030033545
        0.0041243640   0.0097481659   0.0003846434  -0.0266722171  -0.0097711574
       -0.0008162783   0.0264535074   0.0176405866   0.0015515859   0.0024898864
       -0.0054533630  -0.0006047764   0.0006691368   0.0009043337  -0.0000115616
        0.0002685251  -0.0059494228  -0.0006606738  -0.0338133018  -0.0083156793
       -0.0009810820  -0.0054008832  -0.0653742846  -0.0007929373  -0.0012978655
       -0.0005329790  -0.0000763395  -0.0003052702   0.0008017066   0.0000051342
       -0.0004299003  -0.0001053718  -0.0000063627   0.0002544088  -0.0002087497
        0.0000185722   0.0002175308   0.0001625360   0.0000087022  -0.0004540913
       -0.0002308582   0.0000673478  -0.0003307077  -0.0006416241   0.0000243311
        0.0003124125  -0.0002000051   0.0000009891  -0.0000905209   0.0000471333
       -0.0000182771   0.0000832970  -0.0000124017  -0.0000337375   0.0000092583
       -0.0000146577  -0.0000013691   0.0000337652  -0.0000182123  -0.0000196178
        0.0000085088   0.0000666861  -0.0000619741  -0.0024739196   0.0015921867
       -0.0018817525  -0.0026688517   0.0015272252   0.0019484494   0.0012502803
       -0.0005706653  -0.0000832088  -0.0065150754  -0.0036871675  -0.0002169095
        0.0016350308  -0.0003340554  -0.0000090225  -0.0007502297  -0.0015397252
        0.0001098692   0.0001027912  -0.0002598492   0.0000092912  -0.0000310159
       -0.0000852984  -0.0000051371   0.0000844489   0.0000238932  -0.0000099447
        0.0000040720  -0.0000357191   0.0000020327   0.0000094078  -0.0000097181
        0.0000196873  -0.0000068364   0.0000091007   0.0000184200   0.0000233087
        0.0000085957   0.0000157750   0.0000370366  -0.0000029922   0.0000306675
        0.0000309856   0.0000564426   0.0000682380
        0.0007313267   0.0006265795  -0.0026681413   0.0042628841  -0.0115318936
       -0.0416917706   0.0095331105   0.0359283154   0.1349837474  -0.0106376317
       -0.0193732501  -0.0414594148   0.0024218068  -0.0035385617  -0.0080755692
        0.0001810404   0.0004853331   0.0051296134  -0.0017373340  -0.0006836764
       -0.0019308789   0.0010102698   0.0015555313  -0.0005405889   0.0001086342
       -0.0005436699   0.0051854269  -0.0001472856   0.0000799032   0.0001936198
        0.0001470594  -0.0006880259   0.0070018732  -0.0023202433  -0.0008074476
       -0.0015269645  -0.0026962872  -0.0009151205  -0.0531106609  -0.0001463258
       -0.0001453687   0.0009427436   0.0000060341   0.0001001045  -0.0000582527
       -0.0000607222  -0.0000064101  -0.0000940779   0.0000321991  -0.0000556088
        0.0000418795   0.0000325456   0.0000624050  -0.0000878607  -0.0000395382
       -0.0000972278  -0.0004408976   0.0000155676   0.0001503406  -0.0007585502
        0.0000843833  -0.0001058385  -0.0001079273  -0.0000447899  -0.0000390891
        0.0000157649   0.0000433994  -0.0000337973   0.0000104692   0.0000145296
        0.0000186517  -0.0000364060  -0.0000240378   0.0000296094   0.0000195080
        0.0000256627   0.0000135104   0.0000458065  -0.0013633924   0.0010115226
        0.0005494387   0.0010757653  -0.0008804595   0.0006730730  -0.0000293098
       -0.0000670378   0.0006110527  -0.0005944093  -0.0005816145  -0.0005878387
        0.0000435951  -0.0000279044   0.0001769516   0.0000267544   0.0000408959
       -0.0024290118   0.0000032855  -0.0000142713   0.0000609731  -0.0000039622
       -0.0000039800   0.0000274523   0.0000053177   0.0000022244   0.0000192792
       -0.0000030314   0.0000047822  -0.0000583587   0.0000117030   0.0000126832
       -0.0000084545   0.0000124154   0.0000031603  -0.0000014310   0.0000050744
       -0.0000015479  -0.0000061449   0.0000023715   0.0000088216   0.0000024369
        0.0000115649   0.0000074269  -0.0000119085
        0.0039903655   0.0022739409   0.0002135623   0.0038839776   0.0285860233
        0.0016129493  -0.1446615160  -0.1539014126  -0.0106376317   0.6370669956
        0.0908198865   0.0129563440  -0.1247024895   0.0969564133   0.0050062193
        0.0109634359  -0.0121764669  -0.0008403218  -0.0563256305   0.0208135461
        0.0001928533   0.0048345320   0.0049898966   0.0004355544  -0.0021981725
       -0.0016878574  -0.0001592637   0.0005082579   0.0012286257   0.0001020038
       -0.0003882290  -0.0017189949  -0.0000656705  -0.0053285500   0.0005362339
       -0.0001164719  -0.0250981710  -0.0309499706  -0.0021698007  -0.0003362924
        0.0000141499   0.0000003627  -0.0000109746   0.0000437778   0.0000080855
       -0.0000500682  -0.0000523257  -0.0000091364   0.0000238006  -0.0000615105
       -0.0000075827  -0.0000095588   0.0000710730   0.0000076351  -0.0000380597
       -0.0000252731  -0.0000150822   0.0000111403  -0.0001061487  -0.0000188852
       -0.0000096434   0.0000387400   0.0000053629   0.0000254677   0.0000040404
       -0.0000113252  -0.0000189260   0.0000096661  -0.0000098994  -0.0000030216
       -0.0000060985   0.0000076229  -0.0000018682  -0.0000070225   0.0000041097
       -0.0000010839  -0.0000208522  -0.0000298259   0.0003547263  -0.0004229980
       -0.0003435062   0.0003569398  -0.0004674381   0.0002997366  -0.0002737548
        0.0000436183  -0.0000012210  -0.3027826644  -0.0449435503  -0.0064715896
        0.0003791820  -0.0001409819  -0.0000043752  -0.0001031139   0.0002715139
        0.0000038408  -0.0000146683   0.0000243613  -0.0000026055  -0.0000066504
       -0.0000197331   0.0000008017  -0.0000171898  -0.0000173251   0.0000016975
        0.0000013215  -0.0000009796  -0.0000002206   0.0000038397  -0.0000018443
       -0.0000033377  -0.0000103879   0.0000011213   0.0000096798  -0.0000133134
        0.0000096299   0.0000043630  -0.0000020033   0.0000022615   0.0000001639
        0.0000020188  -0.0000097358   0.0000448046
       -0.0034041852   0.0000237342   0.0000670350   0.0038587970  -0.0679417003
       -0.0046306861  -0.1076679904  -0.3409133595  -0.0193732501   0.0908198865
        0.7029965396   0.0382456648   0.0524162753  -0.1501581225  -0.0047829061
        0.0110471323  -0.0866611869  -0.0061471971   0.0380957859   0.0181373281
        0.0009448358  -0.0026485884  -0.0252230661  -0.0015315245   0.0011918493
        0.0007963527   0.0000577618   0.0038089794  -0.0035144798  -0.0002714862
       -0.0078060985   0.0022044087  -0.0000415628   0.0090169124   0.0095790753
        0.0005258195  -0.0431837451  -0.0115270870  -0.0012379624   0.0012861519
        0.0018712109   0.0000833772  -0.0004450733  -0.0009912924  -0.0000512984
        0.0010351126   0.0001957435   0.0000396148  -0.0005142181   0.0008439788
        0.0000094463  -0.0003980246  -0.0009194835  -0.0000554665   0.0000961286
        0.0020407229   0.0002095261  -0.0034789554  -0.0014807243  -0.0000681380
        0.0006071836  -0.0006727795  -0.0000065702  -0.0001603655   0.0001601795
        0.0000238481   0.0000393187  -0.0000529546  -0.0000263791  -0.0000155454
        0.0000252062  -0.0000025170   0.0000568850  -0.0000454691   0.0000805319
       -0.0001522012   0.0001372630   0.0000865385   0.0005508793   0.0001598936
        0.0002224239   0.0006054441   0.0001834420  -0.0001917383  -0.0009636753
        0.0003476615  -0.0000077350  -0.0437179797  -0.0503840342  -0.0020028725
       -0.0002976675   0.0001429413   0.0000167931   0.0005809251   0.0006635852
       -0.0000027621  -0.0000060331   0.0000465951  -0.0000071027   0.0000009436
       -0.0000509760  -0.0000005262  -0.0000788509  -0.0000503078  -0.0000017767
       -0.0000691498   0.0000014257  -0.0000066616   0.0000207843  -0.0000079320
       -0.0000680973  -0.0000429017   0.0000148340   0.0000072576  -0.0000423992
        0.0000249413  -0.0000145146  -0.0000514802   0.0000550052  -0.0000589764
        0.0000097533  -0.0000571129  -0.0000307664
       -0.0001340374   0.0001657114  -0.0022437431   0.0000951014  -0.0041110363
        0.0096861317  -0.0078923374  -0.0203082430  -0.0414594148   0.0129563440
        0.0382456648   0.0895057138   0.0023198145  -0.0041805155  -0.0601441184
        0.0005806147  -0.0064333085   0.0172807754   0.0012802114   0.0006970504
        0.0120687643  -0.0000668567  -0.0014017097  -0.0014762175   0.0000300748
        0.0000081370   0.0007096489   0.0001935659  -0.0002308172   0.0001032639
       -0.0004435571   0.0000985644   0.0001583165   0.0004012989   0.0004238310
        0.0028363947  -0.0028730699  -0.0011339128   0.0009369440   0.0000751914
        0.0001136581  -0.0003157837  -0.0000212890  -0.0000391947   0.0000186740
        0.0000604615   0.0000019189   0.0000382751  -0.0000359364   0.0000372305
        0.0000045233  -0.0000264916  -0.0000397766   0.0000436492   0.0000150501
        0.0001166839  -0.0000231151  -0.0001805288  -0.0000677117  -0.0000855026
        0.0000269401  -0.0000328519  -0.0000396931  -0.0000001073   0.0000126903
        0.0000024902   0.0000028464  -0.0000025169   0.0000047712  -0.0000051212
        0.0000045553   0.0000038414   0.0000081915   0.0000014945   0.0000043247
        0.0000176140   0.0000149411  -0.0000143679   0.0004335956   0.0001034308
        0.0000189751  -0.0003526238  -0.0000957907  -0.0000181968  -0.0000649730
       -0.0000017244   0.0003857351  -0.0063885134  -0.0020054013  -0.0275138001
       -0.0000138155   0.0000153558  -0.0000827455   0.0000336549   0.0000503266
       -0.0003566226  -0.0000009769   0.0000023784  -0.0000281553  -0.0000016765
       -0.0000028238  -0.0000073601  -0.0000032896  -0.0000016854  -0.0000125589
       -0.0000031007  -0.0000016416  -0.0000010635  -0.0000070331  -0.0000114793
        0.0000022436  -0.0000079804  -0.0000016844   0.0000038223  -0.0000064346
       -0.0000008511   0.0000014532   0.0000005125  -0.0000040417  -0.0000002451
       -0.0000013334  -0.0000049045   0.0000039723
       -0.0016712004   0.0009253142   0.0000265899   0.0045325933  -0.0206752622
       -0.0013330074   0.0292431549   0.0327073547   0.0024218068  -0.1247024895
        0.0524162753   0.0023198145   0.4388191059   0.0931895023   0.0095569166
       -0.1282347941  -0.1725661325  -0.0113787977  -0.1609602414   0.0376151119
        0.0006162673  -0.0263979323  -0.0564738027  -0.0038840055   0.0060624524
        0.0051195922   0.0004410734  -0.0012595249  -0.0054866205  -0.0004177955
       -0.0058542118   0.0015262479   0.0000194693   0.0055866929   0.0049309197
        0.0003635284  -0.0140525676   0.0019009277   0.0001107096   0.0010825993
        0.0021342119   0.0001111413  -0.0002084735  -0.0017114337  -0.0000709430
        0.0015919438   0.0000659100   0.0000576910  -0.0008198138   0.0012986261
        0.0000395713  -0.0008813699  -0.0011472632  -0.0000695296   0.0005923236
        0.0022429797   0.0000296763  -0.0006592124  -0.0012714656   0.0000277420
       -0.0006439112   0.0004618371   0.0000402411   0.0000759708  -0.0000972046
        0.0000695545  -0.0001143795   0.0000309049   0.0000881402  -0.0000388220
        0.0000614387  -0.0000114266  -0.0000835732   0.0001781049  -0.0000656095
        0.0000847225   0.0000053237   0.0002087965  -0.0001146961   0.0004293240
        0.0002298036  -0.0001046962   0.0004421978  -0.0001812307  -0.0000494676
        0.0000533745  -0.0000028944  -0.0204410860   0.0204445837   0.0009684624
       -0.0009064739   0.0001518446   0.0000320004   0.0003296640   0.0009187995
        0.0000071556  -0.0001062680   0.0000793346  -0.0000041706   0.0000332842
        0.0001525794   0.0000044998   0.0000624063   0.0000857868  -0.0000012664
        0.0000618220  -0.0000222423  -0.0000011857   0.0000141693   0.0000357394
       -0.0000481680   0.0000883374   0.0000008975  -0.0000746635   0.0000888381
       -0.0000638587  -0.0000305754  -0.0000084216  -0.0000342204   0.0000079449
       -0.0000364536  -0.0000555383  -0.0002233272
        0.0038924755   0.0009671514   0.0000737159  -0.0100004152   0.0110155664
       -0.0001501775  -0.0060218985  -0.0650628280  -0.0035385617   0.0969564133
       -0.1501581225  -0.0041805155   0.0931895023   0.8849487247   0.0447811353
       -0.1841508492  -0.6073844698  -0.0356622419   0.0259560506  -0.0850195966
       -0.0020585660  -0.0246931797   0.0137284981   0.0007252361  -0.0028783675
       -0.0024866538  -0.0003329824  -0.0074649156   0.0020383276   0.0001952625
        0.0044258006  -0.0027442197  -0.0000165141  -0.0040316881  -0.0046943039
       -0.0003342330   0.0114364236   0.0009188915   0.0004456547  -0.0006232445
       -0.0007474358   0.0000172683   0.0004685150  -0.0001054555   0.0000301602
       -0.0002337741  -0.0001681618  -0.0000264856   0.0001202528  -0.0003112895
        0.0000053523  -0.0000635475   0.0005485127   0.0000373731   0.0003043914
       -0.0013531911  -0.0003778691   0.0060865715   0.0009883392   0.0000720771
       -0.0018642181   0.0018871859   0.0000784276   0.0004524876  -0.0003271283
       -0.0000097391  -0.0001790949   0.0001606763   0.0000479620   0.0000767625
       -0.0000763108  -0.0000133762  -0.0002285299   0.0002106843  -0.0001645302
        0.0003113811  -0.0003967971  -0.0000508478  -0.0001363954  -0.0004119647
       -0.0002431352  -0.0001288376  -0.0005071825   0.0002176775  -0.0001405230
        0.0001157974   0.0000054202  -0.0020232052   0.0044249018   0.0002237964
        0.0006425327  -0.0001405017   0.0000166244  -0.0000719049  -0.0000068251
        0.0000151610  -0.0000308642  -0.0000278238   0.0000014809   0.0000433853
        0.0001643653   0.0000046826   0.0001269773   0.0001236406   0.0000042769
        0.0002063621   0.0000063982   0.0000130851  -0.0000200073   0.0000290926
        0.0000872733   0.0001236610  -0.0000435562  -0.0000378077   0.0001110089
       -0.0000688989   0.0000144132   0.0001153116  -0.0001349810   0.0001273221
       -0.0000608063   0.0001009443  -0.0000432558
        0.0001811881  -0.0000027059   0.0012232999  -0.0006929933  -0.0002810205
        0.0113648185   0.0001917252  -0.0030033545  -0.0080755692   0.0050062193
       -0.0047829061  -0.0601441184   0.0095569166   0.0447811353   0.1694773161
       -0.0120706539  -0.0354877100  -0.0627131110  -0.0001666000  -0.0018808604
       -0.0444230479  -0.0017540100   0.0002554847  -0.0043699666  -0.0002051434
       -0.0001685791   0.0010326618  -0.0004701091  -0.0000348708   0.0017911438
        0.0001892867  -0.0001683075   0.0003650504  -0.0001601241  -0.0001871854
       -0.0003059373   0.0005032682   0.0003532635  -0.0043250665  -0.0000202489
       -0.0000090834  -0.0000225155   0.0000205978  -0.0000333942  -0.0000274542
        0.0000146825  -0.0000032780  -0.0000098144  -0.0000047383   0.0000025721
        0.0000102255  -0.0000138736   0.0000144824  -0.0000875816   0.0000318782
       -0.0000447353  -0.0001220756   0.0002836565   0.0000811679  -0.0001106678
       -0.0000539486   0.0000472603   0.0000319574  -0.0000027479  -0.0000280275
       -0.0000083912   0.0000110572  -0.0000090435  -0.0000054373   0.0000107135
       -0.0000008564  -0.0000183668  -0.0000219566   0.0000108808   0.0000012433
       -0.0000462937  -0.0000305281   0.0000789293   0.0001541875  -0.0006235808
       -0.0003407647  -0.0001632520   0.0006198775  -0.0002519096  -0.0000102472
        0.0000070035   0.0000107432  -0.0004011280   0.0005331569   0.0001569680
        0.0000326834  -0.0000062036  -0.0000146579   0.0000042012   0.0000233550
       -0.0001608644  -0.0000027433  -0.0000011748   0.0000141277   0.0000026679
        0.0000101691   0.0000063913   0.0000059464   0.0000067102   0.0000205772
        0.0000094989   0.0000016073   0.0000041012   0.0000182203   0.0000282348
       -0.0000129737   0.0000236428   0.0000050056  -0.0000096171   0.0000190279
       -0.0000014043  -0.0000046582  -0.0000074619   0.0000138018   0.0000025986