$hessian                                                                        
        0.4181964327   0.0134350926  -0.0004858023  -0.2179154374   0.0049299953
       -0.0016988762  -0.0199275785   0.0216977409   0.0003463812   0.0036960612
       -0.0040277843  -0.0000350313  -0.0008313568   0.0041874994   0.0000921508
       -0.0010045631  -0.0018107748  -0.0000624728   0.0010741885  -0.0003091076
        0.0000069226  -0.0017168659   0.0000510370  -0.0000241706   0.0000095092
        0.0004722349   0.0000224092  -0.0009262094   0.0004141324   0.0000420672
        0.0003334860  -0.0005146971   0.0000014968  -0.0001045243  -0.0000531119
       -0.0000119883   0.0003379492   0.0018205675   0.0000028786  -0.0001263541
        0.0000300199   0.0000103400   0.0000278783  -0.0001157977   0.0000004875
        0.0000489434  -0.0000756304   0.0000003770  -0.0000378372   0.0000209815
        0.0000051940  -0.0000615921   0.0000224573  -0.0000009131   0.0000158421
       -0.0001009217  -0.0000540833   0.0008344843  -0.0000758568  -0.0000010397
       -0.0002577452   0.0003411268   0.0000082205   0.0000719181  -0.0000663932
       -0.0000028943  -0.0000383541   0.0000354986   0.0000281147  -0.0000045652
        0.0000093942   0.0000018891  -0.0000224381   0.0000451606  -0.0000257893
        0.0000504732  -0.0000637151   0.0000028389  -0.0419247651   0.0295701699
        0.0007710580  -0.0681422698  -0.0322716415  -0.0692783820  -0.0712062276
       -0.0374838002   0.0703444370   0.0000275280  -0.0000734715   0.0000045863
       -0.0000945903  -0.0000379980  -0.0000026434  -0.0004895936   0.0000150001
        0.0000017581  -0.0000350674  -0.0000315437  -0.0000011804   0.0000101935
        0.0000504889  -0.0000006130   0.0000516132   0.0000225784  -0.0000017889
        0.0000347401  -0.0000207268   0.0000009554  -0.0000051298   0.0000052154
        0.0000110237   0.0000216188  -0.0000058571  -0.0000170435   0.0000204019
       -0.0000212600   0.0000007959   0.0000061891  -0.0000193333   0.0000150124
        0.0000036141   0.0000030310  -0.0000166823
        0.0134350926   0.5317382105   0.0011815247  -0.0125221520  -0.0714010476
       -0.0006787183   0.0389816248  -0.0099012972   0.0002386605   0.0016668908
        0.0003193813   0.0000838991   0.0012472602   0.0001548724  -0.0000146238
       -0.0002215930   0.0002027728   0.0000033862  -0.0000146583  -0.0000662646
        0.0000120438   0.0020061341  -0.0002001876  -0.0000098530   0.0000606918
       -0.0004556041  -0.0000056463   0.0001109192  -0.0001068089  -0.0000099868
       -0.0002557268   0.0002036714   0.0000020061  -0.0002714877   0.0001198318
        0.0000110121   0.0004643394  -0.0051336197  -0.0001916903   0.0000584486
        0.0000333121   0.0000019894  -0.0000606632   0.0000071391  -0.0000005925
        0.0000164888   0.0000158002   0.0000000526  -0.0000008420   0.0000353682
       -0.0000000858  -0.0000074395  -0.0000458061  -0.0000012966  -0.0000047931
        0.0001018882   0.0000074428  -0.0002000860  -0.0000648415   0.0000001086
        0.0000276349  -0.0000468126  -0.0000002678  -0.0000102456   0.0000098057
        0.0000003905   0.0000034396  -0.0000018263  -0.0000032659   0.0000023166
       -0.0000001762  -0.0000015975   0.0000050108  -0.0000046418   0.0000020089
       -0.0000019871   0.0000112952  -0.0000009631   0.0227554634  -0.2804131490
       -0.0057038142  -0.0317141690  -0.0779900076  -0.0729347799  -0.0368436410
       -0.0856389204   0.0780208629   0.0011793338  -0.0016830990  -0.0000114710
        0.0001216013  -0.0000182662   0.0000007810  -0.0000038018   0.0002336020
       -0.0000015590   0.0000172806  -0.0000008933  -0.0000001387  -0.0000080080
       -0.0000202120  -0.0000003873  -0.0000099014  -0.0000066293  -0.0000001588
       -0.0000060709   0.0000016925  -0.0000004340   0.0000021948  -0.0000012226
       -0.0000003073  -0.0000037321   0.0000025923   0.0000047379  -0.0000028347
        0.0000056062   0.0000010992   0.0000009731   0.0000045301  -0.0000018870
        0.0000006937  -0.0000000385   0.0000015189
       -0.0004858023   0.0011815247   0.4909984059  -0.0021448030  -0.0005125630
       -0.0498165357   0.0008252374   0.0001018950  -0.0027082282   0.0000905521
       -0.0000004895  -0.0022487672   0.0000227554   0.0000319674   0.0012216774
       -0.0000230997  -0.0000271384  -0.0000615402   0.0000107993   0.0000045422
       -0.0005651563   0.0000334988  -0.0000164976   0.0009517516  -0.0000050177
       -0.0000019569  -0.0003636486  -0.0000039583   0.0000003393   0.0000918255
       -0.0000105406   0.0000034652  -0.0001363903  -0.0000132265  -0.0000129111
       -0.0000982337  -0.0000379910  -0.0001895500   0.0032423124   0.0000045162
        0.0000033142  -0.0000787996  -0.0000008603  -0.0000002529  -0.0000151076
        0.0000012705  -0.0000011342   0.0000027104  -0.0000008261   0.0000001176
       -0.0000042237  -0.0000012545  -0.0000006304  -0.0000008560   0.0000041388
        0.0000071179   0.0000403373   0.0000023046  -0.0000059304  -0.0000061049
       -0.0000010792  -0.0000014745   0.0000144419  -0.0000025971  -0.0000038090
       -0.0000014945   0.0000002794  -0.0000027095  -0.0000029201  -0.0000002796
       -0.0000001862  -0.0000041327  -0.0000012296  -0.0000018050  -0.0000026950
       -0.0000170670  -0.0000037830   0.0000083965   0.0006008888  -0.0056256499
       -0.0446686991  -0.0680766715  -0.0739583345  -0.2029841911   0.0691799141
        0.0790303700  -0.1922674134   0.0000348188  -0.0000242624  -0.0007038534
        0.0000065801  -0.0000038564   0.0000176369  -0.0000063937   0.0000132736
        0.0001344918   0.0000000273  -0.0000003853   0.0000198025  -0.0000003895
       -0.0000000249   0.0000068048   0.0000000292   0.0000000313   0.0000034719
       -0.0000004634  -0.0000002366   0.0000067335   0.0000056790   0.0000067799
       -0.0000046667   0.0000033741   0.0000017644  -0.0000045176   0.0000026616
        0.0000011156  -0.0000038949   0.0000002731   0.0000039853  -0.0000039681
        0.0000039523   0.0000039681  -0.0000047618
       -0.2179154374  -0.0125221520  -0.0021448030   0.4339740252  -0.0822074530
        0.0018167763  -0.0972929163   0.0623696307   0.0010086082   0.0072243046
       -0.0089690630  -0.0002722774  -0.0004024682  -0.0081033968  -0.0002590983
        0.0012754378   0.0008732168   0.0000200425  -0.0013304480   0.0005933728
        0.0000027245  -0.0054779614  -0.0021287084  -0.0001189417  -0.0013456586
        0.0009928465   0.0000254844   0.0022917949  -0.0002280581  -0.0000569310
       -0.0008188785   0.0015301568  -0.0000243435   0.0008969373   0.0020902176
        0.0000756224  -0.0282130455   0.0395117400   0.0006862094   0.0005962980
        0.0001533537  -0.0000032342  -0.0001581118   0.0001295057  -0.0000104426
        0.0000219016   0.0000666454  -0.0000011564   0.0000367082   0.0000928701
       -0.0000026240   0.0001012248  -0.0002052295  -0.0000055499   0.0000467490
        0.0006825028   0.0000982864  -0.0017605394  -0.0003124552  -0.0000229950
        0.0004522743  -0.0005654381  -0.0000188790  -0.0000891776   0.0001304750
       -0.0000242550   0.0000733776  -0.0000507704  -0.0000502207   0.0000151900
       -0.0000178721   0.0000039557   0.0000518085  -0.0000918150   0.0000515482
       -0.0000786775   0.0000896232  -0.0000266331  -0.0146838453   0.0087805707
        0.0000479462  -0.0369240072  -0.0013489797  -0.0106114480  -0.0377463331
       -0.0017779382   0.0096686805  -0.0003772091   0.0011497219   0.0000476026
       -0.0003988288   0.0000750702  -0.0000015236  -0.0020113524  -0.0006720494
        0.0000198400   0.0000477309  -0.0000649612  -0.0000002283  -0.0000135072
       -0.0000785023   0.0000004394  -0.0000281148  -0.0000321856  -0.0000026514
       -0.0000149693   0.0000072647  -0.0000015525   0.0000122532  -0.0000028358
       -0.0000185397  -0.0000277449   0.0000152528   0.0000244182  -0.0000164587
        0.0000276845   0.0000077170  -0.0000006954   0.0000240454  -0.0000083373
        0.0000083706  -0.0000059031   0.0000807636
        0.0049299953  -0.0714010476  -0.0005125630  -0.0822074530   0.4155178384
        0.0077678259   0.0341179786  -0.2682535846  -0.0053136950   0.0157856788
       -0.0714740249  -0.0017590153  -0.0186687086   0.0158977819  -0.0002420789
       -0.0003435320  -0.0104815297  -0.0000636428   0.0104980214   0.0006631844
        0.0002074965  -0.0045378186  -0.0000519470  -0.0001218631   0.0016482516
        0.0011728726   0.0000257888  -0.0035959064   0.0006222524   0.0000555199
        0.0029004017  -0.0009345215   0.0000641280  -0.0044020392  -0.0029223968
       -0.0000487631   0.0245862116  -0.0113666638  -0.0000920398  -0.0008351094
       -0.0004149977  -0.0000126955   0.0005544638  -0.0001734543   0.0000190404
       -0.0002552777  -0.0000134755   0.0000012452   0.0000605153  -0.0003238694
       -0.0000008290   0.0000010734   0.0005035925   0.0000206185  -0.0001352924
       -0.0015549682  -0.0001231674   0.0026978660   0.0012942358   0.0000495976
       -0.0004521513   0.0005250613  -0.0000014767   0.0000854301  -0.0001726910
        0.0000327950  -0.0000995241   0.0000379313   0.0000730421  -0.0000347699
        0.0000359599  -0.0000079348  -0.0000427263   0.0000655100  -0.0000487019
        0.0000515122  -0.0000805939   0.0000622810   0.0361238921  -0.0075636536
        0.0002005801  -0.0096614874   0.0031098952   0.0018162915  -0.0110357564
        0.0033750220  -0.0020019032   0.0025280512   0.0017422176   0.0001123261
       -0.0002012489   0.0001986336   0.0000043750   0.0001648135   0.0020354758
       -0.0000149519  -0.0001029783   0.0003205295   0.0000057372   0.0000254026
        0.0001124467   0.0000032462  -0.0000407858   0.0000222725   0.0000098186
       -0.0000305398   0.0000199948   0.0000021712  -0.0000209309   0.0000135777
        0.0000080726   0.0000230053  -0.0000214481  -0.0000364233  -0.0000082894
       -0.0000330164  -0.0000187241  -0.0000301412  -0.0000206033  -0.0000102207
       -0.0000400971  -0.0000277988  -0.0001113080
       -0.0016988762  -0.0006787183  -0.0498165357   0.0018167763   0.0077678259
        0.0672610661   0.0002982283  -0.0049283774  -0.0411770059   0.0003418192
       -0.0021056351   0.0098854657  -0.0005778746   0.0000443099   0.0113816166
        0.0000288667  -0.0001829117  -0.0026163512   0.0002633752   0.0000397978
       -0.0018089497  -0.0001990317  -0.0000366628   0.0023819431   0.0000271609
        0.0000207634  -0.0000879183  -0.0000483591   0.0000298819  -0.0002849227
        0.0000440293  -0.0000194022  -0.0001772841  -0.0000496028  -0.0000165773
       -0.0001263301   0.0003202948   0.0000280385   0.0019281493  -0.0000109660
        0.0000012271   0.0001947511   0.0000028426  -0.0000182102   0.0000301111
       -0.0000027954   0.0000044704  -0.0000048289   0.0000065527   0.0000044338
        0.0000041182  -0.0000011694  -0.0000022416  -0.0000071323  -0.0000046558
       -0.0000190014  -0.0000434983   0.0000548960   0.0000083415   0.0001107971
       -0.0000183308   0.0000216460   0.0000034841   0.0000109303   0.0000069273
       -0.0000023117  -0.0000068578   0.0000087346   0.0000020563  -0.0000024256
       -0.0000020671   0.0000072684   0.0000040773  -0.0000034103  -0.0000001309
        0.0000166785   0.0000030835  -0.0000150151   0.0007384780  -0.0001168499
        0.0009052676  -0.0285405812   0.0036608758   0.0020384748   0.0271447177
       -0.0036519895   0.0025929109   0.0000783567   0.0001162660  -0.0024111116
       -0.0000047730   0.0000054578  -0.0000375680  -0.0000052726   0.0000251495
       -0.0000631528  -0.0000010495   0.0000066490  -0.0000457681   0.0000021631
        0.0000013093  -0.0000067479  -0.0000015588  -0.0000004290  -0.0000023122
        0.0000011279   0.0000010757  -0.0000091839  -0.0000098887  -0.0000080037
        0.0000055262  -0.0000056698  -0.0000019739   0.0000014630  -0.0000035371
       -0.0000013370   0.0000025264  -0.0000006192  -0.0000053446   0.0000019392
       -0.0000074766  -0.0000071220   0.0000051243
       -0.0199275785   0.0389816248   0.0008252374  -0.0972929163   0.0341179786
        0.0002982283   0.6062942645   0.0787671277   0.0063100755  -0.1935385452
       -0.1331315967  -0.0047925455   0.0309981872  -0.0224064144  -0.0001033183
        0.0023265588   0.0152804069   0.0003224140  -0.0227901773  -0.0159803016
       -0.0006231592  -0.0195081885   0.0432787341   0.0009075439   0.0020952445
        0.0023002962   0.0000552912  -0.0075957791   0.0043357853   0.0001945516
        0.0111256665  -0.0080581221   0.0000128833  -0.0458256287  -0.0212121352
       -0.0008149859  -0.2246577915   0.0057932463  -0.0016332859  -0.0032964036
       -0.0019936537  -0.0000133250   0.0011350386   0.0008436026   0.0000329607
       -0.0011956927  -0.0000520322  -0.0000209948   0.0003801454  -0.0010679167
        0.0000127993   0.0004159109   0.0012156146   0.0000322132  -0.0004577495
       -0.0034858165  -0.0002605975   0.0066633113   0.0019315544   0.0000459067
       -0.0009296350   0.0013735036  -0.0000105003   0.0002220383  -0.0003782927
        0.0000378527  -0.0000888814   0.0001132394   0.0000843202   0.0000109979
       -0.0000186370   0.0000019951  -0.0001020933   0.0001470760  -0.0001279575
        0.0002461637  -0.0002568011  -0.0000722812  -0.0070228998   0.0015298382
       -0.0000492480   0.0009493385   0.0007322365   0.0004997461   0.0009343355
        0.0007800211  -0.0004547694  -0.0210755776  -0.0251877792  -0.0008271090
       -0.0001633172  -0.0001859624  -0.0000182430   0.0013778680   0.0016096236
        0.0001034396  -0.0000998370   0.0001851235   0.0000006470   0.0000414596
        0.0001742347  -0.0000052778   0.0001108195   0.0000991152   0.0000006499
        0.0000776863  -0.0000220617   0.0000067774  -0.0000190355   0.0000445285
        0.0000602110   0.0001055528  -0.0000518160  -0.0000568411   0.0000766850
       -0.0000841147   0.0000015344   0.0000458139  -0.0001146273   0.0000762746
       -0.0000453590   0.0000535693  -0.0000391135
        0.0216977409  -0.0099012972   0.0001018950   0.0623696307  -0.2682535846
       -0.0049283774   0.0787671277   0.7023166795   0.0145109370  -0.1794223796
       -0.2931083343  -0.0080384303   0.0162402597  -0.0669782241  -0.0010562916
        0.0054296909   0.0064630610  -0.0000981129  -0.0245517016  -0.0025620674
       -0.0003259173   0.0328412376   0.0059070123   0.0005757440   0.0011999796
       -0.0062801067  -0.0002623519   0.0021356786   0.0000507820  -0.0000540303
       -0.0026129493  -0.0046442992  -0.0002149314  -0.0275039164   0.0009999913
       -0.0002884076   0.0215692621  -0.0654929461  -0.0000741098  -0.0009352947
        0.0000184712  -0.0000202961  -0.0003621391   0.0007075094  -0.0000134338
       -0.0002324053  -0.0000142625  -0.0000097705   0.0000858073  -0.0000813280
        0.0000031609   0.0002311983  -0.0000868849  -0.0000140619  -0.0004466625
        0.0004362860   0.0001220328  -0.0015664468  -0.0009231303  -0.0000260665
        0.0004469732  -0.0004914234   0.0000028730  -0.0001120670   0.0001234778
       -0.0000202323   0.0001058568  -0.0000424286  -0.0000464549   0.0000235533
       -0.0000121298   0.0000025347   0.0000550355  -0.0000538119   0.0000080977
       -0.0000095248   0.0001141662  -0.0000514444   0.0024154050  -0.0010966132
       -0.0000411476  -0.0024242354   0.0018804434  -0.0020202387  -0.0025138713
        0.0018521060   0.0020337631  -0.0035500818   0.0018128347   0.0000545156
        0.0016102126  -0.0005844784  -0.0000099927  -0.0012470410  -0.0016889975
        0.0000673075   0.0000794108  -0.0003177897  -0.0000077614  -0.0000458950
       -0.0001045329  -0.0000075762   0.0000793935  -0.0000109692  -0.0000123143
       -0.0000058147  -0.0000352822  -0.0000024891   0.0000251025  -0.0000168438
        0.0000103271  -0.0000048622   0.0000192660   0.0000332250   0.0000283951
        0.0000220021   0.0000216250   0.0000443038   0.0000141521   0.0000225458
        0.0000660332   0.0000435251   0.0000736566
        0.0003463812   0.0002386605  -0.0027082282   0.0010086082  -0.0053136950
       -0.0411770059   0.0063100755   0.0145109370   0.1331241026  -0.0058574392
       -0.0074152013  -0.0403774860   0.0007058747  -0.0016786857  -0.0079258094
        0.0001288614   0.0001903230   0.0050968966  -0.0007417599  -0.0001302663
       -0.0018796442   0.0004977769   0.0005183777  -0.0006337390   0.0000327849
       -0.0002338249   0.0052120160  -0.0000760252   0.0000534569   0.0001923753
        0.0000577980  -0.0002168289   0.0070297884  -0.0008942725  -0.0001798272
       -0.0014548497  -0.0011010137  -0.0001336031  -0.0530280073  -0.0000791044
       -0.0000589898   0.0009491979   0.0000160738   0.0000550152  -0.0000608234
       -0.0000380725   0.0000028179  -0.0000932587   0.0000116035  -0.0000391613
        0.0000420909   0.0000295620   0.0000346554  -0.0000908420  -0.0000453666
       -0.0000607904  -0.0004375635  -0.0000216460   0.0001183220  -0.0007627304
        0.0000624971  -0.0001233361  -0.0001070360  -0.0000488719  -0.0000301607
        0.0000182267   0.0000353016  -0.0000392435   0.0000109603   0.0000174569
        0.0000153168  -0.0000373474  -0.0000182161   0.0000323345   0.0000214423
        0.0000257053   0.0000107964   0.0000474496  -0.0000196583  -0.0000267404
        0.0006131717  -0.0011058823   0.0011781141   0.0005814684   0.0009895386
       -0.0010928502   0.0006344568  -0.0002788580  -0.0001907815  -0.0005573712
       -0.0000077210  -0.0000082028   0.0001773655   0.0000154950  -0.0000082231
       -0.0024351315   0.0000006822  -0.0000049860   0.0000596938  -0.0000023672
       -0.0000008319   0.0000272957   0.0000026288   0.0000007389   0.0000194138
       -0.0000027028   0.0000045997  -0.0000586384   0.0000137294   0.0000102570
       -0.0000101127   0.0000126053   0.0000008789  -0.0000016122   0.0000033942
       -0.0000018530  -0.0000063599   0.0000026474   0.0000097476   0.0000003603
        0.0000118959   0.0000027340  -0.0000141757
        0.0036960612   0.0016668908   0.0000905521   0.0072243046   0.0157856788
        0.0003418192  -0.1935385452  -0.1794223796  -0.0058574392   0.6692335137
        0.0974182192   0.0078929181  -0.1006896996   0.0886200279   0.0018041515
        0.0080158868  -0.0283576679  -0.0007641131  -0.0444959060   0.0314556352
        0.0001938293   0.0043802792  -0.0000494682   0.0000753138  -0.0021982770
       -0.0011833224  -0.0000686139   0.0012419589   0.0004281745   0.0000200255
       -0.0018978247  -0.0010269797  -0.0000103848  -0.0033217732   0.0027355948
       -0.0000251303  -0.0370131407  -0.0266888058  -0.0009614781  -0.0000529806
        0.0003422121   0.0000026610  -0.0001085026  -0.0001098289   0.0000009603
        0.0001184948  -0.0000377483   0.0000008087  -0.0000221131   0.0000886369
       -0.0000043969  -0.0000898948  -0.0000717891   0.0000041314   0.0000389574
        0.0003083648   0.0000076284  -0.0006353950  -0.0002512806  -0.0000079612
        0.0000735069  -0.0000821356   0.0000039857  -0.0000037613   0.0000321512
       -0.0000042556  -0.0000122857   0.0000062824  -0.0000177988  -0.0000062225
       -0.0000038716   0.0000052262  -0.0000003587  -0.0000116393   0.0000199766
       -0.0000271472   0.0000099295  -0.0000195418  -0.0004117284   0.0001733272
        0.0000007874   0.0003685207  -0.0004716134  -0.0002899074   0.0003705807
       -0.0004819757   0.0002766654  -0.3104726550  -0.0010310233  -0.0027234631
        0.0002991086  -0.0001683969  -0.0000026252   0.0000566956   0.0003749503
       -0.0000144252  -0.0000106129   0.0000368752   0.0000015443  -0.0000117300
       -0.0000271856   0.0000033378  -0.0000364105  -0.0000185205   0.0000028260
       -0.0000119248   0.0000026711  -0.0000003884   0.0000045883  -0.0000055989
       -0.0000154452  -0.0000199702   0.0000065961   0.0000101392  -0.0000209729
        0.0000169109   0.0000003080  -0.0000102942   0.0000114340  -0.0000117194
       -0.0000023303  -0.0000193314   0.0000394917
       -0.0040277843   0.0003193813  -0.0000004895  -0.0089690630  -0.0714740249
       -0.0021056351  -0.1331315967  -0.2931083343  -0.0074152013   0.0974182192
        0.6728498732   0.0154458144   0.0440514502  -0.1743344780  -0.0025616182
       -0.0051046529  -0.0840211989  -0.0025333264   0.0487837988   0.0063618174
        0.0003928301  -0.0077043315  -0.0248605852  -0.0007209995   0.0017035998
        0.0007967553   0.0000395399   0.0030003668  -0.0042514036  -0.0002008271
       -0.0071209982   0.0037026096  -0.0000274549   0.0112226504   0.0076099850
        0.0002161371  -0.0389471793   0.0002980666  -0.0002670982   0.0016422130
        0.0015955961   0.0000004317  -0.0005952755  -0.0008939872  -0.0000175942
        0.0010481390   0.0000260417   0.0000242204  -0.0003576742   0.0009158465
       -0.0000088675  -0.0005463335  -0.0008375660  -0.0000182060   0.0004372116
        0.0019760721   0.0001387777  -0.0036323700  -0.0008442145   0.0000116085
        0.0004780536  -0.0007595810   0.0000060216  -0.0001367960   0.0001842583
        0.0000242881   0.0000267582  -0.0000626945  -0.0000238830  -0.0000124128
        0.0000280821  -0.0000042136   0.0000457717  -0.0000517077   0.0000798348
       -0.0001240779   0.0001659298   0.0000873611  -0.0008554634   0.0004943221
        0.0000011344   0.0005324687   0.0001566022   0.0002685575   0.0005606221
        0.0001585336  -0.0002490784   0.0002256957  -0.0428855916  -0.0003852076
       -0.0003238878   0.0002249294   0.0000150342   0.0006849159   0.0005023751
       -0.0000386367   0.0000038533   0.0000447528  -0.0000003376  -0.0000068768
       -0.0000477013   0.0000025855  -0.0000830436  -0.0000313446   0.0000005477
       -0.0000694297   0.0000136977  -0.0000053458   0.0000138636  -0.0000130928
       -0.0000667342  -0.0000414870   0.0000205596   0.0000054274  -0.0000395858
        0.0000283073  -0.0000153762  -0.0000451458   0.0000596962  -0.0000587333
       -0.0000041861  -0.0000565850  -0.0000352881
       -0.0000350313   0.0000838991  -0.0022487672  -0.0002722774  -0.0017590153
        0.0098854657  -0.0047925455  -0.0080384303  -0.0403774860   0.0078929181
        0.0154458144   0.0874812653   0.0007252360  -0.0020742256  -0.0599603212
       -0.0002090525  -0.0027771163   0.0175840195   0.0006464460   0.0001828186
        0.0120149783  -0.0001280121  -0.0006042121  -0.0014035976   0.0000157507
        0.0000058607   0.0007081116   0.0000616557  -0.0001145415   0.0001147354
       -0.0001705600   0.0000751366   0.0001606030   0.0002026556   0.0001558705
        0.0028108500  -0.0012433049  -0.0002421538   0.0010222892   0.0000389455
        0.0000352236  -0.0003201078  -0.0000102990  -0.0000116694   0.0000197996
        0.0000244672  -0.0000044601   0.0000361388  -0.0000131634   0.0000152438
        0.0000037420  -0.0000149130  -0.0000109610   0.0000455280   0.0000144678
        0.0000427712  -0.0000321771  -0.0000778126  -0.0000101453  -0.0000816688
        0.0000035412  -0.0000128328  -0.0000388593   0.0000043901   0.0000068610
        0.0000029165   0.0000015855   0.0000000897   0.0000048088  -0.0000031307
        0.0000034139   0.0000043714   0.0000050690   0.0000032056   0.0000027828
        0.0000249180   0.0000076366  -0.0000196719  -0.0000270452   0.0000047064
        0.0003881017   0.0004236336   0.0000277651   0.0000115056  -0.0003869471
       -0.0000386222  -0.0000103454  -0.0026828016  -0.0003965160  -0.0273396990
       -0.0000066190   0.0000100225  -0.0000828550   0.0000134799   0.0000112500
       -0.0003566326  -0.0000006434   0.0000008231  -0.0000279896  -0.0000012553
       -0.0000009637  -0.0000078846  -0.0000009306  -0.0000000543  -0.0000131501
       -0.0000003806  -0.0000011081  -0.0000010190  -0.0000093263  -0.0000102074
        0.0000049481  -0.0000068383  -0.0000015476   0.0000039199  -0.0000051260
       -0.0000008586   0.0000024815   0.0000015826  -0.0000063358   0.0000026725
       -0.0000027265  -0.0000024355   0.0000061974
       -0.0008313568   0.0012472602   0.0000227554  -0.0004024682  -0.0186687086
       -0.0005778746   0.0309981872   0.0162402597   0.0007058747  -0.1006896996
        0.0440514502   0.0007252360   0.4823852486   0.1624034367   0.0071517494
       -0.2008517625  -0.2423580283  -0.0073818340  -0.1483598468   0.0483282520
        0.0002628380  -0.0386717364  -0.0476484622  -0.0016746920   0.0062086603
        0.0036775544   0.0001841779  -0.0033247005  -0.0045995166  -0.0001506694
       -0.0047928053   0.0018487325   0.0000299259   0.0054530009   0.0032279512
        0.0001164344  -0.0114116172   0.0040205385   0.0001663593   0.0012302150
        0.0017793126   0.0000288720  -0.0004027809  -0.0016219680  -0.0000100383
        0.0015252766  -0.0002253462   0.0000401231  -0.0005449554   0.0013274987
        0.0000125901  -0.0010480704  -0.0008543314  -0.0000155789   0.0009913345
        0.0018317521  -0.0001103501   0.0001792133  -0.0011276450   0.0000939295
       -0.0007974257   0.0009177874   0.0000378291   0.0001257496  -0.0001705896
        0.0000681142  -0.0001267808   0.0000803428   0.0000937002  -0.0000189257
        0.0000498226  -0.0000167507  -0.0000752550   0.0002255601  -0.0001008035
        0.0001213074  -0.0000807325   0.0001961677  -0.0000393255   0.0000639468
       -0.0000028919  -0.0000739973   0.0003691203   0.0001737431  -0.0000706061
        0.0003652644  -0.0001566452  -0.0167006803   0.0240798151   0.0004527816
       -0.0007542519   0.0002543099   0.0000314738   0.0004584626   0.0008346203
       -0.0000326220  -0.0000983424   0.0000845127  -0.0000061754   0.0000620509
        0.0001666310  -0.0000031405   0.0000980735   0.0000896700  -0.0000065046
        0.0000879295  -0.0000383456   0.0000003739   0.0000170006   0.0000383484
       -0.0000358116   0.0001050695  -0.0000246114  -0.0000836679   0.0000941142
       -0.0000920691  -0.0000300374   0.0000025541  -0.0000572242   0.0000277208
       -0.0000560575  -0.0000361717  -0.0002266821
        0.0041874994   0.0001548724   0.0000319674  -0.0081033968   0.0158977819
        0.0000443099  -0.0224064144  -0.0669782241  -0.0016786857   0.0886200279
       -0.1743344780  -0.0020742256   0.1624034367   0.8436717692   0.0184617167
       -0.2539698470  -0.5366447478  -0.0142726426   0.0366753435  -0.0977217296
       -0.0009544328  -0.0158155717   0.0260658071   0.0006152466  -0.0043706469
       -0.0026255791  -0.0001917718  -0.0065613169   0.0041004719   0.0003021003
        0.0047708040  -0.0038193096   0.0000193728  -0.0057668020  -0.0045744469
       -0.0001637260   0.0135456184  -0.0016883791   0.0001208100  -0.0010046038
       -0.0009409309   0.0000350950   0.0005187382   0.0000973478   0.0000265822
       -0.0005190359  -0.0000969390  -0.0000136843   0.0002163091  -0.0005634343
        0.0000201124   0.0002166984   0.0007094597   0.0000218639  -0.0000521764
       -0.0017393141  -0.0003293224   0.0062324090   0.0001500603  -0.0000002240
       -0.0014098823   0.0020526977   0.0000333528   0.0003717139  -0.0003735703
       -0.0000184784  -0.0001168962   0.0001843937   0.0000254853   0.0000639377
       -0.0001042820  -0.0000145608  -0.0001787980   0.0002186516  -0.0001559601
        0.0002187558  -0.0004420486  -0.0000806421  -0.0000740465   0.0000948540
        0.0000028424  -0.0002123435  -0.0004786301  -0.0002739305  -0.0002167627
       -0.0005211397   0.0002545349   0.0015578379   0.0006648811   0.0000010264
        0.0007466478  -0.0002975591  -0.0000012009  -0.0001528938  -0.0001395596
        0.0000100413  -0.0000234284  -0.0000411578   0.0000015574   0.0000564511
        0.0001294321  -0.0000013221   0.0001300392   0.0000849628  -0.0000003020
        0.0001916826  -0.0000227775   0.0000111044  -0.0000143349   0.0000294716
        0.0000912174   0.0000988140  -0.0000584812  -0.0000286488   0.0000858109
       -0.0000711384   0.0000146940   0.0000963724  -0.0001437655   0.0001205184
       -0.0000357496   0.0001147074  -0.0000117910
        0.0000921508  -0.0000146238   0.0012216774  -0.0002590983  -0.0002420789
        0.0113816166  -0.0001033183  -0.0010562916  -0.0079258094   0.0018041515
       -0.0025616182  -0.0599603212   0.0071517494   0.0184617167   0.1671647734
       -0.0076672630  -0.0141965742  -0.0608236720  -0.0001405326  -0.0008433040
       -0.0443408843  -0.0006984322   0.0003168896  -0.0043548639  -0.0001672123
       -0.0000952014   0.0010474077  -0.0001688974   0.0000617606   0.0017905405
        0.0000650223  -0.0000828698   0.0003653763  -0.0001011242  -0.0001018892
       -0.0002939755   0.0001991065   0.0001238749  -0.0043442163  -0.0000024178
        0.0000062796  -0.0000239852   0.0000015913  -0.0000323611  -0.0000276735
        0.0000031538  -0.0000006532  -0.0000094501   0.0000033170   0.0000104251
        0.0000102025  -0.0000034615  -0.0000069176  -0.0000882730   0.0000086323
       -0.0000094556  -0.0001096688   0.0000937322   0.0000286227  -0.0001115231
        0.0000185035  -0.0000178376   0.0000183762  -0.0000184352  -0.0000208698
       -0.0000038525   0.0000076235  -0.0000091896  -0.0000063251   0.0000124422
        0.0000009409  -0.0000237321  -0.0000087126  -0.0000039573   0.0000102045
       -0.0000655678  -0.0000008673   0.0000833110  -0.0000065536   0.0000032671
        0.0000093315   0.0000463706  -0.0006413119  -0.0003189474  -0.0000564524
        0.0006427867  -0.0002779910  -0.0001191607   0.0002338716   0.0001329641
        0.0000208630  -0.0000078105  -0.0000170286   0.0000048555   0.0000130658
       -0.0001628693  -0.0000010968   0.0000007600   0.0000138180   0.0000034048
        0.0000045435   0.0000062852   0.0000028393   0.0000016423   0.0000206321
        0.0000038809   0.0000011455   0.0000036943   0.0000222145   0.0000230155
       -0.0000160550   0.0000199650   0.0000021166  -0.0000080449   0.0000132756
       -0.0000016071  -0.0000038658  -0.0000088719   0.0000207932  -0.0000027239