41
 energy: -69.837044105718 gnorm: 0.000069859679 xtb: 6.7.1 (edcfbbe)
C           -5.63436244918983        1.81096977152037        0.01593906256693
O           -4.23452741598805        1.67855465387070        0.02958648079826
C           -3.69629844459776        0.42468517094302       -0.00161775969339
C           -4.47097921688963       -0.77015317587930       -0.03438904461961
C           -3.86442451589984       -2.04886823828858       -0.08166850450379
O           -4.45856200017031       -3.11250705252240       -0.11541178942168
O           -2.47898255618812       -2.10411454712574       -0.08997191323189
C           -1.71829895975273       -0.98202262154859       -0.04370780087647
C           -0.35795999108860       -1.16448497020027       -0.04706015051908
C            0.46973317677334       -0.01700849784366        0.00931507602759
C           -0.07677380566165        1.28535077976319        0.01950968420009
C           -1.44084053706996        1.47666800421835        0.01743427520411
C           -2.30581343135438        0.32184819168284       -0.00191991376167
C            1.04814825943847        2.18818334968661        0.02012766149086
C            1.16544919217020        3.56728856891367        0.04966452504500
C            2.43336918407270        4.12555777116329        0.07063562556525
C            3.57363123728738        3.32460559188956        0.08159026336630
C            3.48248704763129        1.94448685863749        0.05486851356716
C            2.21529968077404        1.38130002047948        0.00197097221633
N            1.83940156374076        0.05230609463338       -0.00455179808565
C            2.71326118844515       -1.03905739422489        0.00106722365028
C            3.76640191062527       -1.09649961538240       -0.91068952472317
C            4.62667598256721       -2.17747687709666       -0.90002038683181
C            4.44618047503216       -3.20681934422664        0.01058262839286
C            3.39782691007906       -3.15170836056242        0.91573603505397
C            2.53286819160084       -2.07455948937262        0.91701814787812
H           -5.82591226985230        2.88290429220571        0.03502046025804
H           -6.07165210571151        1.38230645918663       -0.89124992604943
H           -6.09247185907032        1.34716842774520        0.89518024674464
H           -5.54657616246883       -0.75620985756778       -0.02774049491085
H            0.04675787515451       -2.16059710432794       -0.10987995737498
H           -1.89024388923906        2.45321084599068        0.02101651599789
H            0.28491734634913        4.19056340223778        0.06167481078577
H            2.54392552411217        5.19919529828189        0.09104487989397
H            4.54713627781079        3.78939765278637        0.11707635858034
H            4.36936499512139        1.33011321989515        0.08692926609630
H            3.88401289221925       -0.30786163862993       -1.63850355368690
H            5.43676026190335       -2.22144758362635       -1.61235579972951
H            5.11957465724467       -4.05002124803987        0.01361688107038
H            3.25670149378148       -3.94952799155398        1.62898990463765
H            1.73045412387799       -2.01386821660375        1.63627581741218
