$hessian                                                                        
        0.6583948452   0.0206182067  -0.0493686609  -0.3372320926   0.0231481980
        0.0302249640  -0.0321980635  -0.0860090698  -0.0016348267  -0.0518382215
        0.0244940566   0.0061450415   0.0614359386   0.0332252146  -0.0031491121
       -0.1612610148   0.0686020370   0.0122168210  -0.0062430594  -0.0031158209
        0.0007856170   0.0009989912   0.0019223980   0.0000949485   0.0001100126
       -0.0031507703  -0.0001921161   0.0024170904   0.0020244656   0.0000269254
       -0.0028927824   0.0015189990   0.0002587422   0.0005806245  -0.0032438325
       -0.0002647634  -0.0013766997   0.0031722958  -0.0000104392   0.0059239140
        0.0003495771  -0.0008317100  -0.0018038290   0.0003856212  -0.0003096575
        0.0003941719   0.0006964000   0.0000350502  -0.0003620096   0.0000151061
       -0.0000602299   0.0004549301  -0.0000794557   0.0001948543  -0.0005395563
        0.0002674580  -0.0004813492   0.0008424403   0.0000479815   0.0001753269
       -0.0005658116  -0.0003749901   0.0004004862  -0.0001903459  -0.0002197870
       -0.0001446647   0.0008565129  -0.0007447918   0.0002422304  -0.0983519707
       -0.1062930371   0.0006500585  -0.0190010406   0.0014130058   0.0014651980
       -0.0001560448  -0.0025869028   0.0004664064  -0.0182331399   0.0240838089
        0.0030454326  -0.0000357239   0.0000163082  -0.0000180674   0.0000000437
        0.0000177913  -0.0000083031  -0.0000148610   0.0000082893  -0.0000037306
       -0.0000228287  -0.0000010116  -0.0000180430  -0.0000586024  -0.0000119102
       -0.0000240921   0.0000019516  -0.0000787440  -0.0000784850  -0.0000337691
       -0.0001170948   0.0001701477
        0.0206182067   0.6684559963   0.0252334479  -0.0550034026  -0.0932942257
        0.0021591841  -0.0281540908   0.0161564694   0.0034796835   0.0289199837
       -0.0022489081  -0.0025361960  -0.0227721556  -0.0665788209  -0.0013179842
        0.1449216114  -0.2580030204  -0.0222008995  -0.0005186960   0.0004783603
       -0.0003054764  -0.0007232261  -0.0058376224  -0.0002131269  -0.0004614002
        0.0020384014   0.0001041165  -0.0013320724  -0.0016219864  -0.0000550625
        0.0017194421  -0.0006231636  -0.0001267729  -0.0003272796   0.0014581761
        0.0001006807   0.0002481219  -0.0000598529   0.0002049677  -0.0048693250
       -0.0060516152   0.0003832902   0.0014896488  -0.0001636605   0.0000273604
       -0.0003241819  -0.0003292913  -0.0000949266   0.0002452390  -0.0000589123
        0.0000504134  -0.0002727906   0.0000328437  -0.0000767455   0.0002683822
       -0.0001581695   0.0003235307  -0.0004719673  -0.0000436790  -0.0001063709
        0.0002997041   0.0002303493  -0.0002264636   0.0002196413   0.0001613503
        0.0000026691  -0.0005431147   0.0002441162  -0.0000948389  -0.1063532644
       -0.2502825580  -0.0015318743   0.0252205771  -0.0001724653  -0.0024169283
       -0.0031775343  -0.0044449175  -0.0003205140   0.0010874789   0.0007380760
       -0.0004854860   0.0000130973  -0.0000345250   0.0000059933   0.0000147078
       -0.0000592010   0.0000147346  -0.0000008978  -0.0000199747   0.0000057997
        0.0000931986   0.0000677370   0.0000091449   0.0000023210   0.0000292427
       -0.0000637168  -0.0000316422   0.0000222123   0.0000525125  -0.0000443203
       -0.0000267613   0.0000158540
       -0.0493686609   0.0252334479   0.1165362959   0.0253068757  -0.0048753592
       -0.0485607583   0.0015356565   0.0087035308   0.0022417631   0.0056581301
       -0.0023142839  -0.0047778319  -0.0065783177  -0.0057181020  -0.0018812687
        0.0168244528  -0.0164587201  -0.0449311447   0.0010746796  -0.0001725397
        0.0058393005  -0.0000732630  -0.0003701550   0.0015149049  -0.0000201302
        0.0003961272   0.0000063838  -0.0003184483  -0.0002299931  -0.0002354270
        0.0003626566  -0.0001864558  -0.0000167053  -0.0000697104   0.0004001048
       -0.0000635629   0.0001855852  -0.0003914072  -0.0000969009  -0.0008244229
       -0.0001303576   0.0000154574   0.0002282828   0.0001267228   0.0000403264
       -0.0001060563  -0.0000823044   0.0000318578   0.0000558908  -0.0000047032
       -0.0000031596  -0.0000641759  -0.0000011078  -0.0000106589   0.0000627236
       -0.0000240208   0.0000529627  -0.0000706908  -0.0000091691  -0.0000137525
        0.0000116563   0.0000551968  -0.0000646759   0.0001356877   0.0000127807
        0.0000010978  -0.0001902890  -0.0000497481  -0.0000525589   0.0005610059
       -0.0014899684  -0.0325532032   0.0034156765  -0.0001470830  -0.0000937726
        0.0007380479  -0.0005011458   0.0071468933   0.0014766739  -0.0017990012
       -0.0001435824   0.0000029771  -0.0000048627   0.0000349391   0.0000024390
       -0.0000032592   0.0000071760   0.0000011649  -0.0000066251   0.0000476105
        0.0000059062   0.0000007017  -0.0000075521   0.0000056717  -0.0000098053
        0.0000000348  -0.0000033627   0.0000014433   0.0000113839   0.0000356874
        0.0000501219  -0.0000218720
       -0.3372320926  -0.0550034026   0.0253068757   0.6656486367  -0.0115922860
       -0.0547973408  -0.1396023120  -0.0568167986   0.0061488136   0.0592907116
       -0.0192841664  -0.0071132703  -0.0470532147  -0.0285428714   0.0018465362
       -0.0428749987   0.0794626444   0.0084987232   0.0048690952  -0.0002399110
       -0.0003221944  -0.0004343665  -0.0029793796  -0.0000970341  -0.0002921963
        0.0030533686   0.0001838942  -0.0022735914  -0.0020037635  -0.0000566993
        0.0026287256  -0.0012489964  -0.0002282718  -0.0007530683   0.0028450563
        0.0002216090   0.0017384736  -0.0016389625   0.0002454166  -0.0078346535
        0.0033070894   0.0018469613   0.0014546238  -0.0008352638   0.0001704519
       -0.0002329735  -0.0005690541  -0.0002523107   0.0002676581  -0.0000269235
        0.0000590994  -0.0004096289   0.0000547043  -0.0001562656   0.0005032878
       -0.0003015399   0.0005522662  -0.0007681699  -0.0000004356  -0.0001991694
        0.0004351037   0.0003618844  -0.0004210273   0.0005488027   0.0001495086
        0.0000253867  -0.0010456530   0.0004056527  -0.0003606075  -0.0155955083
       -0.0033085034   0.0011842135  -0.1230592220   0.1184242634   0.0167701512
       -0.0169894462  -0.0265906817   0.0002026534  -0.0008932425   0.0030036374
        0.0005922399   0.0000224361  -0.0000410049   0.0000173980  -0.0000017877
       -0.0000076779   0.0000080904   0.0000150084   0.0000065328   0.0000122217
        0.0000121588   0.0000153431   0.0000108626   0.0000211880  -0.0000332752
        0.0000751741  -0.0000054641   0.0000823579   0.0000651380  -0.0001043202
       -0.0001071454  -0.0000399856
        0.0231481980  -0.0932942257  -0.0048753592  -0.0115922860   0.6577793830
        0.0340350854  -0.1334176688  -0.2788032813  -0.0015365461   0.0349910265
       -0.0654093069  -0.0071220851  -0.0335836018  -0.0109760259   0.0021110695
        0.0221597411   0.0292265263  -0.0003665587   0.0053346384  -0.0044151875
       -0.0005149035  -0.0004920673  -0.0005314257   0.0000103837  -0.0001500859
        0.0019229457   0.0001184560  -0.0018199734  -0.0012478919  -0.0000087648
        0.0019385068  -0.0013133582  -0.0001935701  -0.0001743621   0.0023435662
        0.0001901622   0.0019871363  -0.0051789926  -0.0003398006  -0.0007099312
        0.0015983190   0.0000655430   0.0009925906  -0.0001149859   0.0002643736
       -0.0000110357  -0.0004806805  -0.0000122663   0.0002355960   0.0000263654
        0.0000192163  -0.0002767924   0.0000376184  -0.0001291878   0.0003362639
       -0.0000751627   0.0001443639  -0.0004257309  -0.0000315815  -0.0000742094
        0.0002575330   0.0001834901  -0.0001510639   0.0000945231   0.0000915044
        0.0000111025  -0.0004655456   0.0005788992  -0.0000915647  -0.0270668443
       -0.0037107983   0.0022831230   0.1187466915  -0.2213373534  -0.0228863868
       -0.0032967727  -0.0029318032   0.0001262382   0.0033804590  -0.0039052063
       -0.0009095374  -0.0000721062   0.0000269096   0.0000288680   0.0000051020
       -0.0000273493   0.0000044226   0.0000038197  -0.0000495031   0.0000071696
        0.0000167701  -0.0000048782   0.0000118509   0.0000182569   0.0000061214
       -0.0000538916   0.0000245897   0.0000764074   0.0000160267  -0.0001166384
       -0.0000590582  -0.0001817593
        0.0302249640   0.0021591841  -0.0485607583  -0.0547973408   0.0340350854
        0.1196285763   0.0014059890  -0.0088097008  -0.0436469640  -0.0033500373
       -0.0021450039  -0.0014314814   0.0017969357   0.0020484392  -0.0045857515
        0.0051933710  -0.0052259576   0.0010872752  -0.0001478975  -0.0000369477
       -0.0000204881   0.0000018836   0.0000562461  -0.0000708985  -0.0000155665
       -0.0000969164  -0.0000623520   0.0000761047   0.0000631881   0.0000167622
       -0.0000969287   0.0000725406  -0.0001980200   0.0000409951  -0.0001223769
       -0.0000578702  -0.0000715660  -0.0001464903   0.0011363098   0.0018549056
       -0.0006380968   0.0046610744  -0.0006160940   0.0005013486   0.0006281798
       -0.0001128767   0.0001827815   0.0000573442  -0.0001758417  -0.0000240290
       -0.0000029241   0.0001170112  -0.0000393709   0.0000893971  -0.0001281230
        0.0000577109  -0.0000744175   0.0002135368   0.0000174298   0.0000203524
       -0.0002058332  -0.0000618892   0.0000307147   0.0001429716  -0.0001227712
       -0.0000318064  -0.0000232419  -0.0004454218  -0.0001637045  -0.0000081862
        0.0001026389   0.0000179589   0.0162608512  -0.0231379860  -0.0360558991
        0.0016655539   0.0025844820   0.0004604212   0.0007797730  -0.0007879018
        0.0070576174  -0.0000056697   0.0000062997  -0.0000077062   0.0000018600
       -0.0000055679   0.0000373953  -0.0000037480  -0.0000049510   0.0000062896
       -0.0000036618  -0.0000117909   0.0000183784  -0.0000002057  -0.0000196863
        0.0000028363  -0.0000136400  -0.0000361583  -0.0000090234  -0.0000002477
        0.0000316397   0.0000231822
       -0.0321980635  -0.0281540908   0.0015356565  -0.1396023120  -0.1334176688
        0.0014059890   0.6617647280   0.0120488218  -0.0572134091  -0.1643166967
        0.1383526499   0.0210735999  -0.0336555233   0.0233679656   0.0038966324
        0.0025904588  -0.0004315939  -0.0005142959  -0.0069603899  -0.0023367751
        0.0008199632   0.0010334757   0.0013279553   0.0000068168  -0.0000216261
        0.0000388430  -0.0000167740  -0.0000721802   0.0000315354   0.0000112379
       -0.0000968014  -0.0002766537  -0.0000457105   0.0003561403  -0.0008733518
       -0.0001030782  -0.0020225128  -0.0023791453   0.0000879225   0.0126705426
       -0.0075898255  -0.0010415950   0.0000903716  -0.0012949267  -0.0002344970
        0.0004644331  -0.0002460707  -0.0002180815  -0.0002471125   0.0002072242
       -0.0000362584  -0.0000439765  -0.0001598555   0.0001837753   0.0000963105
        0.0000941356  -0.0000341079  -0.0001907378  -0.0000867635  -0.0000303885
       -0.0001492477   0.0002820376  -0.0002142398   0.0008763767  -0.0003453766
       -0.0000569501  -0.0015727316  -0.0019276072  -0.0001723870  -0.0057280706
       -0.0007258339   0.0012606684   0.0061354216   0.0138203392   0.0001341165
       -0.3002888242  -0.0093908275   0.0298092133   0.0009013043   0.0000513299
       -0.0000467306   0.0000514563  -0.0000363044  -0.0000042728   0.0000026151
       -0.0000157312   0.0000025380   0.0000335248  -0.0000455991  -0.0000034304
        0.0000257783  -0.0000445094  -0.0000171728   0.0000268825   0.0000406610
       -0.0000924556   0.0000414283   0.0000456931  -0.0000014048   0.0000055584
        0.0000693187  -0.0001308898
       -0.0860090698   0.0161564694   0.0087035308  -0.0568167986  -0.2788032813
       -0.0088097008   0.0120488218   0.6538760671   0.0343275063   0.0664678100
       -0.2383711752  -0.0191309995   0.0778266326   0.0187309495  -0.0053396691
        0.0055659205  -0.0563222471  -0.0034146462  -0.0099554199   0.0092196585
        0.0005377962  -0.0008416064  -0.0008806846   0.0000111624   0.0001638677
       -0.0030320090  -0.0002304826   0.0029612166   0.0020087737   0.0000210650
       -0.0032566285   0.0017972808   0.0002525658   0.0019375956  -0.0055227651
       -0.0004467135  -0.0071207033   0.0030307272   0.0005572844   0.0156230413
       -0.0504556972  -0.0051069321  -0.0001955900  -0.0012304564  -0.0006610793
        0.0005751156   0.0012513004  -0.0003145921  -0.0004909574  -0.0000319368
       -0.0001548090   0.0005472525  -0.0001794619   0.0003163688  -0.0005731411
        0.0002504920  -0.0003410451   0.0006249061  -0.0000050169   0.0001863458
       -0.0004556638  -0.0001877327   0.0002231771   0.0002489487  -0.0004047208
       -0.0003223390   0.0001531623  -0.0021932836   0.0001719269  -0.0003502887
        0.0011143361  -0.0002425238  -0.0096469209  -0.0262056125  -0.0011637865
       -0.0090197005  -0.0426582389   0.0004649126   0.0000768913  -0.0005861750
        0.0002499934   0.0001128883  -0.0000445644  -0.0000404667   0.0000230782
        0.0000539054   0.0000029823   0.0001022270  -0.0001015208  -0.0000449472
        0.0001961127   0.0001727506   0.0000095458  -0.0000265905   0.0000140846
       -0.0001237187  -0.0000519474  -0.0001316816  -0.0000706320  -0.0004444624
       -0.0003285335  -0.0000770802
       -0.0016348267   0.0034796835   0.0022417631   0.0061488136  -0.0015365461
       -0.0436469640  -0.0572134091   0.0343275063   0.1152296050   0.0179553541
       -0.0270869032  -0.0483454536   0.0068275287  -0.0013492160  -0.0029782136
       -0.0002936019  -0.0027738605  -0.0035592317   0.0002319460   0.0005071850
        0.0065654342  -0.0001897631  -0.0000168944  -0.0000495901   0.0000332333
       -0.0002900686  -0.0002116925   0.0002632105   0.0002099099  -0.0000903216
       -0.0002544400   0.0001903445  -0.0000297305   0.0000402759  -0.0002356433
       -0.0002901591  -0.0000202064   0.0004727761   0.0009834310  -0.0006040542
       -0.0020910938   0.0024722395   0.0000220370  -0.0002343957  -0.0004277472
        0.0000266884  -0.0000645993   0.0000585831  -0.0000018658  -0.0000351059
        0.0000895367  -0.0000441959   0.0000652861  -0.0000779242  -0.0000880959
       -0.0000586591   0.0001668331   0.0001090742   0.0000879403  -0.0001138615
       -0.0000943620  -0.0001248421   0.0001038719  -0.0000203815  -0.0001871165
       -0.0000278615  -0.0000883204   0.0000444946  -0.0003820706   0.0012899321
       -0.0002228992   0.0071874476  -0.0012192933  -0.0030322257  -0.0000505321
        0.0292503269   0.0006021805  -0.0351889721  -0.0000933494  -0.0000220047
       -0.0001587322   0.0000018191   0.0000012645  -0.0000404342   0.0000043898
        0.0000052505   0.0000401784   0.0000055567  -0.0000052133   0.0001201553
        0.0000330223   0.0000139897  -0.0000047904   0.0000131041  -0.0000910205
        0.0001000828  -0.0000011973  -0.0000103905   0.0000230864  -0.0003949495
       -0.0005391132   0.0002920348
       -0.0518382215   0.0289199837   0.0056581301   0.0592907116   0.0349910265
       -0.0033500373  -0.1643166967   0.0664678100   0.0179553541   0.6369576646
       -0.0278493813  -0.0453828478  -0.2777795241   0.0280782396   0.0149877755
       -0.0231515580  -0.0812910651  -0.0027143956  -0.0369779802   0.0058968527
        0.0035171587   0.0028836030   0.0042068237  -0.0000516047   0.0011375526
       -0.0009248195   0.0001864653  -0.0007078948  -0.0002975207  -0.0000346638
        0.0015318885  -0.0007800156   0.0001137809  -0.0034147325   0.0059606861
        0.0006498059   0.0125100385   0.0068062743  -0.0024030461  -0.1086104099
       -0.0649550593   0.0043073001  -0.0224590089  -0.0268213642   0.0010542729
       -0.0019627483   0.0002615712  -0.0008596694  -0.0009641357   0.0003287222
        0.0010174479   0.0004528432   0.0001035648   0.0000729538  -0.0000447241
       -0.0000769988  -0.0002562265   0.0003946576  -0.0000017114   0.0000325178
       -0.0000484777  -0.0002073974   0.0001551394  -0.0003608121   0.0010369408
        0.0006267457   0.0002741824  -0.0008262155   0.0009198053  -0.0004108002
        0.0004682027   0.0000543343  -0.0003689433  -0.0030369626   0.0002234841
       -0.0211309376   0.0252381599   0.0032672669  -0.0001233161  -0.0015932272
        0.0008086079  -0.0000444331  -0.0000010843   0.0000010222  -0.0001411902
        0.0001074663  -0.0000495268  -0.0001042736   0.0004175884   0.0000581685
       -0.0002497127  -0.0001355727  -0.0000054147   0.0000374438  -0.0001640633
       -0.0000059808  -0.0000776174   0.0000543435  -0.0000384359  -0.0001824370
       -0.0003817977  -0.0005156879
        0.0244940566  -0.0022489081  -0.0023142839  -0.0192841664  -0.0654093069
       -0.0021450039   0.1383526499  -0.2383711752  -0.0270869032  -0.0278493813
        0.6456574323   0.0329240205  -0.0611989973  -0.0547744906   0.0031433698
       -0.0283677716   0.0057341141   0.0026286803   0.0490317427  -0.0378275304
       -0.0042808235   0.0027788559   0.0158896290   0.0005946350   0.0008935533
       -0.0004109545   0.0001613572  -0.0033310043  -0.0007012324   0.0000855171
        0.0029113640  -0.0049795025  -0.0008144686   0.0011580848   0.0045923288
        0.0004061776   0.0046249767  -0.0500929785  -0.0034490357  -0.0688088665
       -0.2062208424  -0.0001555184  -0.0180136991  -0.0036702959   0.0024251113
        0.0038582686   0.0004778561  -0.0022822129  -0.0009895017   0.0003507315
       -0.0000809045   0.0002491619  -0.0000148302   0.0002469204   0.0002171969
       -0.0000564946  -0.0003611732   0.0006777827   0.0003872536   0.0000339652
       -0.0006074614  -0.0004261115  -0.0001000909   0.0005980071  -0.0005109655
        0.0002772198   0.0015826004  -0.0016597169  -0.0010701579   0.0006920545
        0.0003217740  -0.0001937374  -0.0025022437  -0.0038844410  -0.0003227067
        0.0024250507   0.0011565629   0.0010272263  -0.0027184130  -0.0043815968
       -0.0003169744  -0.0007617231   0.0004063862   0.0001150020  -0.0002659149
        0.0001636244   0.0000040465   0.0001955008   0.0000307304  -0.0000061102
       -0.0002128153  -0.0001097760   0.0001246093  -0.0000889408  -0.0001999431
        0.0006459934   0.0002811097   0.0003056214  -0.0000913184  -0.0000211169
        0.0004770483   0.0002275725
        0.0061450415  -0.0025361960  -0.0047778319  -0.0071132703  -0.0071220851
       -0.0014314814   0.0210735999  -0.0191309995  -0.0483454536  -0.0453828478
        0.0329240205   0.1202805465   0.0116495761  -0.0038660992  -0.0506675189
        0.0003704359   0.0080278769  -0.0015089057   0.0040830438  -0.0022453332
        0.0029851986  -0.0001179758   0.0012552525  -0.0002197831   0.0001863820
       -0.0004320697  -0.0000671136   0.0002111838   0.0003820226  -0.0000727289
       -0.0004425230  -0.0002771674   0.0011968512   0.0008068634  -0.0008752100
        0.0007896637   0.0000906649  -0.0034826879  -0.0039472223  -0.0028882567
       -0.0041288431  -0.0232066009   0.0077096105   0.0033239915  -0.0051096586
        0.0022483291  -0.0002990151   0.0004342721   0.0011939397   0.0002575484
       -0.0006081230  -0.0011212707   0.0001384080  -0.0001706122   0.0007569835
       -0.0002688037   0.0004645464  -0.0010841940  -0.0001641235  -0.0000445415
        0.0007126452   0.0004265468  -0.0005825820   0.0009949587   0.0008160345
       -0.0000897648  -0.0038514324   0.0004240391  -0.0004601617   0.0001242180
       -0.0000686509   0.0004039149   0.0006331979  -0.0004235332   0.0073070645
        0.0025186688  -0.0026887465   0.0002261963   0.0004815014  -0.0004463075
        0.0077757401  -0.0000241590  -0.0000053771   0.0001040532  -0.0000148379
        0.0000422171  -0.0001376432   0.0000438995  -0.0000122266  -0.0000668693
        0.0000172969   0.0001181768   0.0000452339   0.0000411234   0.0001643153
       -0.0001866429   0.0002373270   0.0000372051  -0.0000939957  -0.0002897236
        0.0001358199  -0.0002180461
        0.0614359386  -0.0227721556  -0.0065783177  -0.0470532147  -0.0335836018
        0.0017969357  -0.0336555233   0.0778266326   0.0068275287  -0.2777795241
       -0.0611989973   0.0116495761   0.6329672226   0.0473672521  -0.0315557298
       -0.1493320209  -0.0631627178   0.0055074179  -0.1566674836   0.0932174759
        0.0093722703   0.0165923467   0.0047244419  -0.0005904969  -0.0018382856
       -0.0054139162  -0.0003309943   0.0011197391   0.0020510638   0.0001644699
       -0.0011961907   0.0004447138   0.0000982766   0.0011348479   0.0010430439
        0.0000181265   0.0046349258  -0.0048641595  -0.0005305606  -0.0294022092
       -0.0105165657   0.0013253178   0.0009563978  -0.0011866578   0.0005071479
       -0.0009931923  -0.0000104156   0.0006645634   0.0000931044  -0.0000744990
        0.0001542541   0.0002446691  -0.0001029544  -0.0000655237  -0.0002680946
        0.0003805025  -0.0004161222   0.0003210775  -0.0002361408   0.0001435415
       -0.0000504065  -0.0000145728   0.0004038538  -0.0006436092   0.0001516041
       -0.0001278276   0.0005672913   0.0002790615   0.0004653994  -0.0009719809
        0.0032551503   0.0008492093  -0.0003159728  -0.0005654319   0.0002587322
       -0.0002637087   0.0014706186   0.0008397266  -0.0189319895  -0.0279072910
       -0.0001199848  -0.0002213334   0.0002678489   0.0000502250   0.0000620056
       -0.0003722535  -0.0000402070  -0.0001697518  -0.0001759486  -0.0000088113
       -0.0002207964  -0.0002112473   0.0000128425   0.0000143007  -0.0000330137
       -0.0002889777  -0.0000587701  -0.0000682256  -0.0000574685  -0.0001098088
       -0.0000086441  -0.0003983932
        0.0332252146  -0.0665788209  -0.0057181020  -0.0285428714  -0.0109760259
        0.0020484392   0.0233679656   0.0187309495  -0.0013492160   0.0280782396
       -0.0547744906  -0.0038660992   0.0473672521   0.6385323913   0.0181026026
       -0.1396518649  -0.2688345729   0.0007413209   0.0773052696  -0.1547075041
       -0.0085402562   0.0090155973  -0.0576900322  -0.0027392534  -0.0021446517
        0.0015203797   0.0001540164  -0.0008484222  -0.0058533530  -0.0005389709
        0.0030519496  -0.0000009834  -0.0001377254  -0.0011794761  -0.0006552971
       -0.0000818945  -0.0060084152   0.0139811408   0.0017427158  -0.0449198688
       -0.0396733358   0.0018898723   0.0023434358  -0.0059507950  -0.0003049790
       -0.0020484605  -0.0008881005  -0.0001550672   0.0003919384  -0.0000528707
        0.0004431726  -0.0005613609   0.0001715152  -0.0001597459   0.0006198886
       -0.0005791340   0.0008205361  -0.0010589499   0.0000297320  -0.0002853015
        0.0006593956   0.0003710766  -0.0006044345   0.0007638347   0.0007767564
        0.0003312689  -0.0014656188   0.0007583884  -0.0003137215   0.0026810931
       -0.0030457980  -0.0007096870  -0.0007260460   0.0001818258   0.0002153217
        0.0029135101  -0.0036718343  -0.0010190658  -0.0033142167  -0.0020226327
       -0.0005156830   0.0000718577  -0.0001664992  -0.0000284380  -0.0002568163
        0.0000132714   0.0000522387   0.0002376920   0.0003263018   0.0000337918
        0.0007117732   0.0007194007   0.0000941764  -0.0000069259  -0.0000322388
        0.0001235831  -0.0001325512   0.0000806400   0.0001792965   0.0000606089
       -0.0000394506   0.0000952880
       -0.0031491121  -0.0013179842  -0.0018812687   0.0018465362   0.0021110695
       -0.0045857515   0.0038966324  -0.0053396691  -0.0029782136   0.0149877755
        0.0031433698  -0.0506675189  -0.0315557298   0.0181026026   0.1207398275
        0.0014216366  -0.0053570334  -0.0460643467   0.0089608372  -0.0092264267
       -0.0318293811  -0.0003953283  -0.0028007625  -0.0040588694  -0.0000255221
       -0.0000016557   0.0003993406   0.0001168435  -0.0004353507   0.0014936047
        0.0000647280   0.0000515022  -0.0000718558  -0.0001325923  -0.0001797217
       -0.0000750845  -0.0005055325   0.0010029024  -0.0001555672   0.0006997911
       -0.0000210114   0.0019415252   0.0007207127  -0.0004521018   0.0011998418
       -0.0003414109  -0.0001239278   0.0000256331   0.0000893160  -0.0000526496
        0.0000414838  -0.0001836728   0.0000096619   0.0000324683   0.0001906193
       -0.0000705465   0.0000951567  -0.0002557524  -0.0000205265  -0.0000074564
        0.0001658934   0.0001095533  -0.0001954432   0.0002405786   0.0000571672
        0.0000274090  -0.0002889611   0.0001709372  -0.0000340490   0.0008547282
       -0.0007095115   0.0073173831   0.0000477645   0.0000271006   0.0006005846
        0.0010824822  -0.0008922195   0.0075866215   0.0013378636   0.0019584538
        0.0013491145   0.0000318731  -0.0000205576  -0.0000518203  -0.0000194493
        0.0000040190  -0.0000252284   0.0000167968   0.0000395895  -0.0001922123
        0.0000221359   0.0000412501   0.0000819571   0.0000071396   0.0000737534
       -0.0000054099  -0.0000134147   0.0000068839  -0.0000020036   0.0000637939
        0.0001118400  -0.0000504709
       -0.1612610148   0.1449216114   0.0168244528  -0.0428749987   0.0221597411
        0.0051933710   0.0025904588   0.0055659205  -0.0002936019  -0.0231515580
       -0.0283677716   0.0003704359  -0.1493320209  -0.1396518649   0.0014216366
        0.6737154976  -0.0099440085  -0.0450174222   0.0133040378   0.0205713308
        0.0002604301  -0.0030261925   0.0013139780   0.0001340740   0.0001879903
        0.0013902345   0.0000730087  -0.0004350751   0.0000524314   0.0000332200
        0.0002557901  -0.0001017808  -0.0000316051  -0.0000369909   0.0002934624
        0.0000190400   0.0010429078  -0.0006024629  -0.0002190129  -0.0060160946
        0.0023002205   0.0006596582  -0.0011607835  -0.0012976711   0.0000115773
       -0.0002979351   0.0000968477   0.0001083265  -0.0001036125   0.0000178791
        0.0000724973   0.0000671407  -0.0000197932   0.0000456999  -0.0001210118
        0.0000712769  -0.0001440237   0.0001948739  -0.0000501257   0.0000978157
       -0.0000784735  -0.0000677372   0.0000901597  -0.0001544030   0.0000869455
        0.0000194306   0.0002392629  -0.0000561185   0.0001168240   0.0065279046
       -0.0103634824  -0.0011879631  -0.0059786254  -0.0000939892   0.0013533240
        0.0008234817   0.0001132764  -0.0001799851  -0.3049671562  -0.0084607291
        0.0201871769   0.0000253930   0.0000727726  -0.0000068724   0.0000281237
        0.0000757560   0.0000202419  -0.0000078646   0.0000262779   0.0000063554
        0.0000556637   0.0000674389   0.0000096075  -0.0000320620   0.0000183022
       -0.0000904671  -0.0000231046  -0.0000358697  -0.0000092787   0.0000004510
       -0.0001022991   0.0000518682
        0.0686020370  -0.2580030204  -0.0164587201   0.0794626444   0.0292265263
       -0.0052259576  -0.0004315939  -0.0563222471  -0.0027738605  -0.0812910651
        0.0057341141   0.0080278769  -0.0631627178  -0.2688345729  -0.0053570334
       -0.0099440085   0.6630510293   0.0269127520  -0.0083103020  -0.0540967496
       -0.0015440075   0.0045101736   0.0026375357  -0.0002475410  -0.0004846688
       -0.0052693264  -0.0002627432   0.0027791968   0.0026209020   0.0000584091
       -0.0033993103   0.0014023032   0.0002694116   0.0005613447  -0.0030868254
       -0.0002256346   0.0010255726  -0.0002639114  -0.0003835833   0.0091348107
        0.0107811072  -0.0007262072  -0.0027478788   0.0004135920  -0.0002416292
        0.0007739358   0.0007274561   0.0000441670  -0.0004671723   0.0000884513
       -0.0001098543   0.0004834426  -0.0001113617   0.0002028217  -0.0005234122
        0.0003425530  -0.0006298240   0.0009086377   0.0000427565   0.0002373049
       -0.0006092294  -0.0003966316   0.0004126209  -0.0003211024  -0.0003436191
       -0.0001115466   0.0010071888  -0.0006875537   0.0002411362   0.0130998447
       -0.0260624866  -0.0024277029  -0.0004662049   0.0011172815  -0.0004625035
       -0.0000014827  -0.0004713428  -0.0001840805  -0.0095076183  -0.0439644249
        0.0010425919  -0.0003355251   0.0001507731   0.0000148967  -0.0000967056
       -0.0001154662  -0.0000372453  -0.0000478247   0.0000330739  -0.0000084532
       -0.0001665282  -0.0001631635  -0.0000226951  -0.0000480384  -0.0000361343
        0.0000009409   0.0000398927  -0.0000520680  -0.0001063315  -0.0000263327
       -0.0000885495   0.0000822249
        0.0122168210  -0.0222008995  -0.0449311447   0.0084987232  -0.0003665587
        0.0010872752  -0.0005142959  -0.0034146462  -0.0035592317  -0.0027143956
        0.0026286803  -0.0015089057   0.0055074179   0.0007413209  -0.0460643467
       -0.0450174222   0.0269127520   0.1118325913  -0.0011769843  -0.0032906495
        0.0045545671   0.0004273384  -0.0001817051   0.0003522081  -0.0000713007
       -0.0003128502  -0.0003243039   0.0001780684   0.0001125501  -0.0000088263
       -0.0001980841   0.0001112892  -0.0000450640   0.0000037816  -0.0002188983
       -0.0001956790  -0.0002610068   0.0002877971  -0.0000059181   0.0019863489
        0.0001181132   0.0046313468  -0.0006152915   0.0000619271   0.0010559554
       -0.0001162579   0.0000615037  -0.0000815050  -0.0001775368  -0.0000360595
        0.0000400520   0.0001765031  -0.0000265337   0.0000374648  -0.0001509925
        0.0000550972  -0.0000886048   0.0002151037   0.0000395602   0.0000069159
       -0.0001470657  -0.0000984398   0.0001167785  -0.0001052005  -0.0001614500
       -0.0000099968   0.0005160203  -0.0001244588   0.0000369453   0.0001085565
       -0.0004269009  -0.0000430877   0.0012914505  -0.0003979266   0.0072772036
       -0.0001088477  -0.0000184266  -0.0001563542   0.0202908054   0.0002199364
       -0.0341062123  -0.0000168975   0.0000040856  -0.0000524902  -0.0000024124
       -0.0000243729   0.0001338495  -0.0000016021  -0.0000066217   0.0000317901
       -0.0000125483  -0.0000277601  -0.0000780006  -0.0000138210  -0.0000227525
        0.0000202700  -0.0000250840  -0.0000037895   0.0000075652   0.0000301085
        0.0000070872   0.0000368932
       -0.0062430594  -0.0005186960   0.0010746796   0.0048690952   0.0053346384