 Entering Gaussian System
 *********************************************
 Gaussian 98:
 frequency output generated by the xtb code
 *********************************************
                         Standard orientation:
 --------------------------------------------------------------------
  Center     Atomic     Atomic              Coordinates (Angstroms)
  Number     Number      Type              X           Y           Z
 --------------------------------------------------------------------
    1          9             0        5.260265   -2.821754   -1.416375
    2          5             0        5.029818   -1.472743   -1.384822
    3          9             0        5.169979   -0.928345   -2.650127
    4          8             0        5.966567   -0.830323   -0.458630
    5          6             0        5.646273    0.246243    0.227115
    6          6             0        6.758342    0.940841    0.862037
    7          6             0        6.586523    1.925827    1.843529
    8          6             0        7.680336    2.551279    2.405805
    9          6             0        8.966693    2.212757    2.011531
   10          6             0        9.152206    1.232874    1.046882
   11          6             0        8.065121    0.602468    0.480853
   12          6             0        4.325600    0.660502    0.361005
   13          6             0        3.253722   -0.086824   -0.171848
   14          6             0        1.920963    0.241266    0.026866
   15          6             0        0.906223   -0.579498   -0.494684
   16          6             0       -0.492768   -0.362070   -0.328443
   17          6             0       -1.399784   -1.330748   -0.818657
   18          6             0       -2.752442   -1.179416   -0.676471
   19          6             0       -3.268496   -0.039805   -0.047066
   20          7             0       -4.665647    0.122652    0.103727
   21          6             0       -5.328752    1.151134   -0.547030
   22          6             0       -4.672408    2.026554   -1.411937
   23          6             0       -5.364896    3.044577   -2.039110
   24          6             0       -6.724807    3.207045   -1.825539
   25          6             0       -7.399995    2.330883   -0.993703
   26          6             0       -6.714792    1.305169   -0.362542
   27          8             0       -7.440588    0.456669    0.421888
   28          6             0       -6.778910   -0.564316    1.040056
   29          6             0       -7.527886   -1.420112    1.831645
   30          6             0       -6.910469   -2.457544    2.508423
   31          6             0       -5.538716   -2.627434    2.405188
   32          6             0       -4.783458   -1.780096    1.617162
   33          6             0       -5.390438   -0.745785    0.905043
   34          6             0       -2.392281    0.939053    0.429690
   35          6             0       -1.035794    0.780744    0.298298
   36          7             0        1.286034   -1.715405   -1.178051
   37          6             0        2.531785   -1.950626   -1.381983
   38          7             0        3.554960   -1.211733   -0.927024
   39          1             0        5.598474    2.192882    2.184003
   40          1             0        7.532490    3.307551    3.163215
   41          1             0        9.817361    2.707198    2.456382
   42          1             0       10.151161    0.963435    0.737141
   43          1             0        8.196086   -0.157741   -0.273022
   44          1             0        4.086945    1.562583    0.896610
   45          1             0        1.685913    1.100253    0.634026
   46          1             0       -0.986127   -2.192749   -1.317149
   47          1             0       -3.435260   -1.922029   -1.063539
   48          1             0       -3.617933    1.895463   -1.593842
   49          1             0       -4.837369    3.711531   -2.702594
   50          1             0       -7.262537    4.004390   -2.312888
   51          1             0       -8.460661    2.418632   -0.822382
   52          1             0       -8.589838   -1.250250    1.905648
   53          1             0       -7.498285   -3.121661    3.121490
   54          1             0       -5.049193   -3.422671    2.944871
   55          1             0       -3.715164   -1.909008    1.552483
   56          1             0       -2.796610    1.813368    0.920067
   57          1             0       -0.383659    1.547323    0.685226
   58          1             0        2.804705   -2.826001   -1.955200
 --------------------------------------------------------------------
     1 basis functions        1 primitive gaussians
     1 alpha electrons        1 beta electrons
 
 Harmonic frequencies (cm**-1), IR intensities (km*mol⁻¹),
 Raman scattering activities (A**4/amu), Raman depolarization ratios,
 reduced masses (AMU), force constants (mDyne/A) and normal coordinates:
                      1                      2                      3
                        a                      a                      a 
 Frequencies --     9.8332                14.6477                22.3441
 Red. masses --    11.7903                12.9265                10.6907
 Frc consts  --     0.0000                 0.0000                 0.0000
 IR Inten    --     0.5664                 2.2369                 0.4647
 Raman Activ --     0.0000                 0.0000                 0.0000
 Depolar     --     0.0000                 0.0000                 0.0000
 Atom AN      X      Y      Z        X      Y      Z        X      Y      Z
   1   9     0.00  -0.09   0.20    -0.04  -0.16   0.32    -0.01   0.09  -0.17
   2   5    -0.01  -0.06   0.08     0.02  -0.11   0.10    -0.01   0.06  -0.04
   3   9    -0.03  -0.19   0.05     0.14  -0.30   0.08    -0.05   0.19  -0.02
   4   8     0.01  -0.00   0.03    -0.01  -0.07   0.12    -0.02   0.01  -0.01
   5   6     0.01   0.02  -0.01    -0.01  -0.00   0.01     0.01   0.04  -0.04
   6   6     0.01   0.07  -0.08    -0.02   0.01   0.01     0.02   0.01  -0.03
   7   6     0.03   0.10  -0.10    -0.04   0.13  -0.11     0.05   0.26  -0.28
   8   6     0.03   0.15  -0.17    -0.04   0.13  -0.10     0.07   0.21  -0.26
   9   6     0.03   0.17  -0.22    -0.03   0.01   0.03     0.07  -0.10   0.01
  10   6     0.01   0.15  -0.19    -0.02  -0.11   0.16     0.05  -0.35   0.26
  11   6     0.01   0.09  -0.12    -0.01  -0.11   0.15     0.03  -0.29   0.24
  12   6     0.00  -0.00   0.02    -0.01   0.04  -0.08     0.01   0.05  -0.05
  13   6     0.00  -0.03   0.06    -0.00   0.04  -0.08     0.00   0.04  -0.02
  14   6     0.00  -0.04   0.07    -0.00   0.08  -0.14     0.00   0.03   0.01
  15   6     0.00  -0.05   0.09    -0.00   0.07  -0.13     0.00   0.01   0.05
  16   6     0.00  -0.05   0.09    -0.00   0.08  -0.15    -0.00   0.00   0.08
  17   6    -0.00  -0.02   0.04    -0.00   0.08  -0.15     0.00  -0.01   0.09
  18   6    -0.00  -0.01   0.02    -0.00   0.07  -0.12     0.00  -0.01   0.08
  19   6    -0.00  -0.02   0.04    -0.00   0.06  -0.10    -0.00  -0.01   0.08
  20   7    -0.00  -0.01   0.01     0.00   0.03  -0.05    -0.00  -0.00   0.05
  21   6     0.04   0.05   0.05    -0.05   0.04   0.02     0.01  -0.01   0.02
  22   6     0.08   0.09   0.12    -0.10   0.08   0.02     0.04  -0.00   0.05
  23   6     0.12   0.14   0.17    -0.15   0.09   0.09     0.05  -0.01   0.02
  24   6     0.12   0.16   0.14    -0.14   0.06   0.16     0.04  -0.03  -0.04
  25   6     0.08   0.12   0.06    -0.09   0.02   0.17     0.02  -0.04  -0.07
  26   6     0.04   0.06   0.01    -0.04   0.01   0.10     0.00  -0.03  -0.04
  27   8    -0.01   0.03  -0.08     0.01  -0.04   0.11    -0.03  -0.04  -0.08
  28   6    -0.05  -0.03  -0.11     0.06  -0.04   0.04    -0.04  -0.03  -0.04
  29   6    -0.09  -0.06  -0.19     0.11  -0.08   0.04    -0.06  -0.04  -0.08
  30   6    -0.14  -0.12  -0.24     0.16  -0.09  -0.02    -0.08  -0.03  -0.05
  31   6    -0.14  -0.13  -0.20     0.16  -0.06  -0.08    -0.07  -0.01   0.01
  32   6    -0.09  -0.10  -0.11     0.11  -0.02  -0.09    -0.05  -0.00   0.05
  33   6    -0.05  -0.04  -0.07     0.05  -0.01  -0.03    -0.03  -0.01   0.02
  34   6     0.00  -0.05   0.10    -0.00   0.07  -0.12    -0.00  -0.01   0.09
  35   6     0.00  -0.06   0.12    -0.00   0.08  -0.14    -0.00  -0.01   0.09
  36   7    -0.00  -0.07   0.12    -0.00   0.04  -0.09    -0.01   0.01   0.06
  37   6    -0.00  -0.06   0.11    -0.00  -0.00  -0.02    -0.01   0.02   0.03
  38   7    -0.00  -0.06   0.09    -0.00  -0.01  -0.00    -0.01   0.03  -0.01
  39   1     0.01   0.02  -0.02    -0.01   0.07  -0.06     0.01   0.15  -0.14
  40   1     0.01   0.05  -0.06    -0.02   0.07  -0.06     0.02   0.12  -0.13
  41   1     0.01   0.06  -0.08    -0.01   0.00   0.01     0.03  -0.04   0.01
  42   1     0.00   0.05  -0.07    -0.00  -0.06   0.08     0.01  -0.17   0.14
  43   1    -0.00   0.02  -0.03     0.00  -0.06   0.07     0.00  -0.14   0.12
  44   1     0.00   0.00  -0.00    -0.00   0.02  -0.04     0.00   0.02  -0.02
  45   1     0.00  -0.01   0.02    -0.00   0.03  -0.06     0.00   0.01   0.00
  46   1    -0.00  -0.00   0.01    -0.00   0.02  -0.05     0.00  -0.00   0.03
  47   1    -0.00   0.00  -0.01    -0.00   0.02  -0.03     0.00  -0.00   0.02
  48   1     0.02   0.02   0.04    -0.03   0.03  -0.01     0.01   0.00   0.03
  49   1     0.05   0.05   0.06    -0.06   0.03   0.03     0.02  -0.00   0.01
  50   1     0.04   0.06   0.05    -0.05   0.02   0.06     0.01  -0.01  -0.02
  51   1     0.02   0.04   0.01    -0.02  -0.00   0.06     0.00  -0.02  -0.03
  52   1    -0.03  -0.01  -0.06     0.03  -0.03   0.03    -0.02  -0.02  -0.04
  53   1    -0.05  -0.04  -0.09     0.06  -0.03  -0.00    -0.03  -0.01  -0.02
  54   1    -0.05  -0.05  -0.07     0.06  -0.02  -0.04    -0.02  -0.00   0.01
  55   1    -0.03  -0.03  -0.02     0.03   0.00  -0.04    -0.01   0.00   0.03
  56   1     0.00  -0.02   0.04     0.00   0.02  -0.03    -0.00  -0.00   0.03
  57   1     0.00  -0.03   0.05    -0.00   0.02  -0.04    -0.00  -0.00   0.03
  58   1    -0.00  -0.02   0.04    -0.00  -0.01   0.01    -0.01   0.00   0.01
                      4                      5                      6
                        a                      a                      a 
 Frequencies --    24.3491                38.3763                44.5038
 Red. masses --    11.6162                14.0044                11.3742
 Frc consts  --     0.0000                 0.0000                 0.0000
 IR Inten    --     0.9458                 4.6246                 0.8551
 Raman Activ --     0.0000                 0.0000                 0.0000
 Depolar     --     0.0000                 0.0000                 0.0000
 Atom AN      X      Y      Z        X      Y      Z        X      Y      Z
   1   9     0.11   0.04  -0.08     0.05   0.05  -0.31    -0.10   0.02   0.15
   2   5     0.04   0.02  -0.03    -0.01   0.02   0.05    -0.02   0.03   0.04
   3   9     0.05   0.08  -0.02    -0.11   0.38   0.21     0.05  -0.06   0.02
   4   8     0.01   0.04  -0.00    -0.02  -0.15   0.18    -0.01   0.03   0.03
   5   6    -0.03   0.03  -0.01    -0.00  -0.10   0.12     0.01  -0.01   0.10
   6   6    -0.07   0.05   0.02     0.01  -0.06   0.05     0.06  -0.02   0.04
   7   6    -0.12   0.11  -0.04     0.05   0.01  -0.01     0.14   0.02   0.01
   8   6    -0.16   0.13  -0.01     0.07   0.08  -0.12     0.19   0.01  -0.08
   9   6    -0.13   0.11   0.09     0.05   0.08  -0.18     0.16  -0.04  -0.14
  10   6    -0.08   0.05   0.16     0.02   0.01  -0.11     0.08  -0.08  -0.11
  11   6    -0.05   0.03   0.12     0.00  -0.06  -0.00     0.03  -0.07  -0.02
  12   6    -0.05  -0.01  -0.04    -0.00  -0.10   0.13     0.01  -0.04   0.20
  13   6    -0.02  -0.04  -0.05    -0.01  -0.10   0.14    -0.00   0.02   0.14
  14   6    -0.03  -0.08  -0.06    -0.01  -0.09   0.11    -0.00   0.01   0.16
  15   6     0.00  -0.11  -0.07    -0.00  -0.08   0.09    -0.01   0.10   0.03
  16   6    -0.00  -0.13  -0.07    -0.01  -0.02  -0.01    -0.02   0.07   0.03
  17   6    -0.00  -0.14  -0.06    -0.01  -0.01  -0.04     0.02   0.12  -0.12
  18   6    -0.00  -0.14  -0.06    -0.01   0.03  -0.10     0.01   0.07  -0.14
  19   6    -0.00  -0.14  -0.07    -0.01   0.04  -0.14    -0.03  -0.02  -0.01
  20   7     0.00  -0.11  -0.07    -0.01   0.03  -0.12    -0.04  -0.06  -0.03
  21   6     0.05  -0.04  -0.02    -0.05   0.03  -0.06    -0.03  -0.06  -0.04
  22   6     0.07  -0.12  -0.09    -0.10   0.04  -0.09    -0.04  -0.16  -0.14
  23   6     0.12  -0.05  -0.03    -0.14   0.05  -0.03    -0.03  -0.18  -0.18
  24   6     0.16   0.11   0.10    -0.13   0.04   0.05    -0.01  -0.10  -0.11
  25   6     0.14   0.19   0.17    -0.08   0.03   0.07    -0.00   0.01   0.01
  26   6     0.09   0.11   0.11    -0.04   0.02   0.02    -0.01   0.02   0.05
  27   8     0.08   0.23   0.21     0.01   0.01   0.06     0.01   0.15   0.21
  28   6     0.01   0.11   0.10     0.04   0.01   0.00    -0.02   0.05   0.09
  29   6    -0.02   0.19   0.16     0.09  -0.00   0.04    -0.02   0.08   0.12
  30   6    -0.08   0.11   0.09     0.13  -0.00  -0.00    -0.05  -0.01   0.01
  31   6    -0.10  -0.04  -0.03     0.13   0.01  -0.07    -0.07  -0.13  -0.13
  32   6    -0.08  -0.12  -0.09     0.08   0.02  -0.11    -0.07  -0.15  -0.15
  33   6    -0.02  -0.04  -0.02     0.04   0.02  -0.07    -0.04  -0.05  -0.03
  34   6    -0.00  -0.13  -0.08    -0.01   0.05  -0.14    -0.06  -0.06   0.12
  35   6    -0.00  -0.13  -0.08    -0.01   0.02  -0.09    -0.05  -0.02   0.15
  36   7     0.04  -0.11  -0.06    -0.00  -0.13   0.17    -0.02   0.21  -0.14
  37   6     0.05  -0.07  -0.05     0.00  -0.13   0.18    -0.02   0.20  -0.13
  38   7     0.02  -0.04  -0.05    -0.00  -0.13   0.17    -0.02   0.12  -0.00
  39   1    -0.04   0.04  -0.03     0.02   0.00   0.01     0.05   0.02   0.01
  40   1    -0.06   0.05  -0.02     0.03   0.04  -0.05     0.07   0.02  -0.03
  41   1    -0.05   0.04   0.03     0.02   0.04  -0.08     0.06  -0.01  -0.06
  42   1    -0.02   0.01   0.07     0.00   0.00  -0.04     0.02  -0.04  -0.04
  43   1    -0.00  -0.00   0.05    -0.01  -0.03   0.01    -0.01  -0.03   0.00
  44   1    -0.03  -0.00  -0.01     0.00  -0.02   0.03     0.01  -0.03   0.09
  45   1    -0.02  -0.03  -0.02    -0.00  -0.02   0.03    -0.00  -0.02   0.08
  46   1    -0.00  -0.04  -0.02    -0.00  -0.01  -0.00     0.01   0.05  -0.06
  47   1    -0.00  -0.04  -0.02    -0.00   0.01  -0.03     0.01   0.03  -0.07
  48   1     0.01  -0.07  -0.05    -0.03   0.01  -0.04    -0.02  -0.06  -0.05
  49   1     0.04  -0.03  -0.02    -0.05   0.02  -0.02    -0.01  -0.07  -0.08
  50   1     0.06   0.05   0.04    -0.04   0.01   0.03    -0.00  -0.03  -0.04
  51   1     0.05   0.09   0.08    -0.02   0.01   0.04     0.00   0.02   0.02
  52   1     0.00   0.09   0.08     0.03  -0.00   0.03     0.00   0.05   0.06
  53   1    -0.03   0.05   0.04     0.05  -0.00   0.01    -0.01   0.00   0.01
  54   1    -0.04  -0.03  -0.02     0.05   0.00  -0.03    -0.03  -0.06  -0.06
  55   1    -0.03  -0.07  -0.05     0.02   0.01  -0.05    -0.02  -0.07  -0.07
  56   1    -0.00  -0.04  -0.03    -0.00   0.02  -0.05    -0.03  -0.03   0.06
  57   1    -0.00  -0.04  -0.03    -0.00   0.00  -0.03    -0.02  -0.02   0.08
  58   1     0.02  -0.02  -0.01     0.00  -0.04   0.06    -0.01   0.08  -0.07
                      7                      8                      9
                        a                      a                      a 
 Frequencies --    48.0706                55.8922                68.5920
 Red. masses --    11.2539                14.1074                11.3018
 Frc consts  --     0.0000                 0.0000                 0.0000
 IR Inten    --     1.0156                14.6774                 2.2902
 Raman Activ --     0.0000                 0.0000                 0.0000
 Depolar     --     0.0000                 0.0000                 0.0000
 Atom AN      X      Y      Z        X      Y      Z        X      Y      Z
   1   9    -0.01   0.04   0.04    -0.11  -0.08  -0.16     0.04  -0.06  -0.12
   2   5    -0.03   0.02   0.00     0.02  -0.05   0.08    -0.01  -0.06  -0.03
   3   9    -0.14  -0.02  -0.03     0.30   0.22   0.26    -0.09  -0.01  -0.03
   4   8     0.01   0.08  -0.08    -0.06  -0.31   0.36     0.01  -0.07  -0.05
   5   6     0.03   0.11  -0.12    -0.01  -0.11   0.08     0.01  -0.04  -0.08
   6   6     0.04   0.05  -0.08    -0.01  -0.08   0.05    -0.03  -0.01  -0.04
   7   6     0.07  -0.04   0.01    -0.01  -0.08   0.05    -0.13  -0.02  -0.04
   8   6     0.08  -0.15   0.10    -0.01   0.00  -0.04    -0.19   0.03   0.01
   9   6     0.08  -0.18   0.11    -0.02   0.08  -0.12    -0.15   0.09   0.08
  10   6     0.05  -0.09   0.01    -0.02   0.06  -0.11    -0.06   0.09   0.09
  11   6     0.04   0.02  -0.08    -0.02  -0.02  -0.02    -0.00   0.04   0.04
  12   6     0.04   0.17  -0.17     0.02   0.06  -0.14     0.01  -0.02  -0.12
  13   6     0.02   0.13  -0.07     0.01   0.08  -0.14     0.01  -0.05  -0.06
  14   6     0.02   0.16  -0.09     0.01   0.15  -0.22     0.03  -0.03  -0.04
  15   6     0.01   0.06   0.07    -0.00   0.12  -0.15     0.01  -0.04   0.03
  16   6     0.01   0.06   0.04     0.00   0.08  -0.07     0.02   0.02   0.05
  17   6     0.04  -0.03   0.18     0.00   0.02   0.06    -0.03   0.15  -0.12
  18   6     0.03  -0.05   0.14     0.01  -0.02   0.14    -0.02   0.21  -0.10
  19   6    -0.01   0.01  -0.00     0.01  -0.01   0.11     0.05   0.13   0.10
  20   7    -0.01  -0.02  -0.01     0.01  -0.00   0.13     0.06   0.16   0.16
  21   6    -0.02  -0.03  -0.02     0.03  -0.02   0.06     0.03   0.09   0.08
  22   6    -0.05  -0.11  -0.13     0.05  -0.07   0.03     0.02   0.03   0.02
  23   6    -0.06  -0.11  -0.12     0.07  -0.08  -0.02    -0.03  -0.09  -0.14
  24   6    -0.03  -0.02  -0.00     0.07  -0.05  -0.04    -0.05  -0.16  -0.22
  25   6     0.00   0.06   0.10     0.05  -0.01  -0.01    -0.02  -0.08  -0.11
  26   6     0.00   0.05   0.08     0.03   0.00   0.03     0.02   0.05   0.05
  27   8     0.03   0.12   0.18     0.00   0.04   0.05     0.07   0.14   0.19
  28   6     0.00   0.02   0.04    -0.03  -0.00   0.02     0.06   0.07   0.09
  29   6    -0.01  -0.01  -0.01    -0.08  -0.03  -0.05     0.06  -0.01  -0.00
  30   6    -0.04  -0.10  -0.12    -0.12  -0.07  -0.07     0.06  -0.10  -0.13
  31   6    -0.05  -0.15  -0.17    -0.11  -0.07  -0.01     0.06  -0.10  -0.16
  32   6    -0.04  -0.11  -0.12    -0.07  -0.04   0.06     0.06  -0.01  -0.06
  33   6    -0.01  -0.04  -0.03    -0.03  -0.01   0.07     0.06   0.08   0.07
  34   6    -0.04   0.11  -0.15     0.01   0.05   0.01     0.09   0.00   0.26
  35   6    -0.03   0.14  -0.13     0.01   0.09  -0.08     0.08  -0.05   0.23
  36   7     0.00  -0.07   0.29    -0.01   0.09  -0.11    -0.03  -0.08   0.08
  37   6    -0.00  -0.08   0.26    -0.02   0.04  -0.06    -0.03  -0.11   0.07
  38   7    -0.00   0.03   0.09    -0.01   0.01  -0.05    -0.01  -0.12   0.02
  39   1     0.02  -0.01   0.00    -0.00  -0.05   0.03    -0.04  -0.02  -0.03
  40   1     0.03  -0.07   0.05    -0.00   0.00  -0.01    -0.08   0.01   0.00
  41   1     0.03  -0.08   0.05    -0.01   0.04  -0.06    -0.06   0.04   0.04
  42   1     0.01  -0.03   0.00    -0.01   0.04  -0.05    -0.01   0.04   0.04
  43   1     0.01   0.03  -0.04    -0.01  -0.01  -0.00     0.02   0.01   0.01
  44   1     0.02   0.07  -0.08     0.02   0.05  -0.09     0.00   0.01  -0.05
  45   1     0.01   0.07  -0.06     0.01   0.06  -0.08     0.02   0.01  -0.03
  46   1     0.02  -0.02   0.08     0.00   0.00   0.02    -0.02   0.06  -0.08
  47   1     0.02  -0.04   0.06     0.00  -0.02   0.06    -0.02   0.09  -0.06
  48   1    -0.02  -0.05  -0.06     0.01  -0.03   0.01     0.01   0.02   0.02
  49   1    -0.02  -0.05  -0.06     0.03  -0.03  -0.01    -0.01  -0.04  -0.06
  50   1    -0.01  -0.00   0.00     0.03  -0.02  -0.02    -0.02  -0.08  -0.10
  51   1     0.01   0.03   0.05     0.01   0.00  -0.01    -0.01  -0.03  -0.04
  52   1    -0.00   0.01   0.01    -0.02  -0.01  -0.03     0.02  -0.00   0.01
  53   1    -0.02  -0.04  -0.05    -0.04  -0.03  -0.04     0.02  -0.05  -0.06
  54   1    -0.02  -0.06  -0.07    -0.04  -0.03  -0.01     0.01  -0.05  -0.08
  55   1    -0.01  -0.04  -0.04    -0.02  -0.01   0.03     0.02  -0.00  -0.03
  56   1    -0.02   0.05  -0.08     0.00   0.02  -0.00     0.04  -0.02   0.12
  57   1    -0.02   0.06  -0.07     0.00   0.04  -0.05     0.04  -0.05   0.11
  58   1    -0.00  -0.05   0.12    -0.01   0.00  -0.01    -0.02  -0.04   0.03
                     10                     11                     12
                        a                      a                      a 
 Frequencies --    70.1385               105.3886               108.1329
 Red. masses --    10.7923                13.3901                12.3315
 Frc consts  --     0.0000                 0.0000                 0.0000
 IR Inten    --     1.2043                 3.8199                 3.5023
 Raman Activ --     0.0000                 0.0000                 0.0000
 Depolar     --     0.0000                 0.0000                 0.0000
 Atom AN      X      Y      Z        X      Y      Z        X      Y      Z
   1   9     0.04   0.00   0.00    -0.14  -0.04  -0.04     0.28   0.08   0.10
   2   5     0.01   0.01  -0.06     0.05   0.00  -0.07     0.11   0.04   0.05
   3   9    -0.01  -0.09  -0.12     0.45  -0.03  -0.05     0.21   0.07   0.08
   4   8     0.03   0.06  -0.13     0.01  -0.11   0.07     0.02   0.11   0.11
   5   6    -0.00  -0.07   0.07     0.03  -0.02  -0.04    -0.03   0.12   0.02
   6   6    -0.02  -0.04   0.06     0.02  -0.02  -0.03     0.00   0.14  -0.03
   7   6    -0.04   0.01   0.01    -0.02  -0.03  -0.02     0.10   0.11   0.00
   8   6    -0.05   0.09  -0.05    -0.05  -0.00   0.00     0.17  -0.05   0.04
   9   6    -0.05   0.11  -0.03    -0.04   0.03   0.02     0.14  -0.16   0.03
  10   6    -0.02   0.05   0.04     0.00   0.04   0.02     0.04  -0.09  -0.07
  11   6    -0.00  -0.03   0.08     0.03   0.01   0.00    -0.03   0.07  -0.10
  12   6    -0.02  -0.18   0.22     0.05   0.05  -0.13    -0.05   0.04  -0.01
  13   6    -0.00  -0.13   0.11     0.03   0.05  -0.10    -0.00  -0.04  -0.02
  14   6    -0.00  -0.15   0.14     0.03  -0.06   0.11    -0.03  -0.12  -0.06
  15   6     0.00  -0.05  -0.01     0.02  -0.10   0.21     0.00  -0.16  -0.09
  16   6     0.01  -0.01  -0.00     0.01  -0.14   0.28    -0.01  -0.15  -0.11
  17   6    -0.03  -0.10   0.23     0.01  -0.13   0.26    -0.09  -0.09  -0.07
  18   6    -0.01  -0.05   0.28     0.00  -0.05   0.10    -0.09  -0.01  -0.01
  19   6     0.03   0.08   0.08    -0.02   0.02  -0.05    -0.03   0.01   0.01
  20   7     0.04   0.12   0.13    -0.04   0.03  -0.13    -0.03   0.10   0.11
  21   6     0.01   0.06   0.06    -0.07   0.03  -0.08    -0.04   0.10   0.12
  22   6    -0.02  -0.01  -0.04    -0.12   0.06  -0.09    -0.06   0.17   0.17
  23   6    -0.05  -0.06  -0.10    -0.16   0.06  -0.05    -0.11   0.07   0.06
  24   6    -0.04  -0.04  -0.06    -0.15   0.05   0.01    -0.16  -0.10  -0.13
  25   6    -0.01   0.01   0.03    -0.10   0.03   0.03    -0.13  -0.11  -0.13
  26   6     0.02   0.06   0.07    -0.06   0.03  -0.02    -0.07   0.03   0.03
  27   8     0.04   0.10   0.13    -0.04   0.03   0.01    -0.07   0.08   0.09
  28   6     0.02   0.02   0.02    -0.00   0.03  -0.03    -0.05   0.07   0.07
  29   6    -0.01  -0.09  -0.12     0.04   0.04   0.02    -0.07   0.07   0.05
  30   6    -0.02  -0.14  -0.19     0.06   0.04  -0.01    -0.11   0.01  -0.02
  31   6    -0.00  -0.06  -0.08     0.05   0.03  -0.08    -0.12  -0.04  -0.07
  32   6     0.02   0.05   0.05     0.02   0.03  -0.11    -0.09  -0.02  -0.02
  33   6     0.03   0.07   0.07    -0.01   0.03  -0.09    -0.06   0.06   0.05
  34   6     0.06   0.18  -0.19    -0.01  -0.03   0.05     0.06  -0.04  -0.04
  35   6     0.05   0.13  -0.23    -0.00  -0.12   0.22     0.04  -0.11  -0.11
  36   7    -0.00   0.03  -0.16     0.02  -0.05   0.12     0.09  -0.15  -0.08
  37   6     0.00   0.06  -0.17     0.01   0.07  -0.10     0.10  -0.08  -0.03
  38   7     0.00  -0.00  -0.08     0.02   0.16  -0.26     0.07  -0.03  -0.02
  39   1    -0.01   0.01  -0.00    -0.01  -0.02  -0.01     0.04   0.06   0.00
  40   1    -0.02   0.04  -0.03    -0.02  -0.00   0.00     0.07  -0.02   0.03
  41   1    -0.02   0.05  -0.02    -0.02   0.01   0.01     0.06  -0.09   0.02
  42   1    -0.00   0.02   0.01     0.00   0.02   0.01     0.00  -0.05  -0.03
  43   1     0.01  -0.02   0.04     0.02   0.00   0.00    -0.03   0.03  -0.05
  44   1    -0.02  -0.09   0.11     0.02   0.02  -0.04    -0.03   0.01  -0.01
  45   1    -0.00  -0.08   0.09     0.02  -0.04   0.06    -0.02  -0.04  -0.02
  46   1    -0.02  -0.06   0.11     0.00  -0.05   0.10    -0.05  -0.04  -0.02
  47   1    -0.01  -0.03   0.13     0.00  -0.01   0.02    -0.04   0.00   0.00
  48   1    -0.01  -0.00  -0.02    -0.03   0.02  -0.04    -0.01   0.08   0.08
  49   1    -0.02  -0.03  -0.05    -0.06   0.02  -0.02    -0.03   0.03   0.03
  50   1    -0.02  -0.02  -0.03    -0.05   0.02   0.01    -0.06  -0.06  -0.08
  51   1    -0.00   0.00   0.01    -0.03   0.01   0.03    -0.04  -0.06  -0.06
  52   1    -0.00  -0.04  -0.05     0.01   0.01   0.02    -0.02   0.03   0.02
  53   1    -0.01  -0.07  -0.09     0.03   0.01   0.01    -0.03   0.00  -0.01
  54   1    -0.00  -0.02  -0.03     0.02   0.01  -0.03    -0.04  -0.03  -0.04
  55   1     0.01   0.03   0.04     0.00   0.01  -0.04    -0.03  -0.02  -0.01
  56   1     0.03   0.09  -0.10    -0.00   0.00  -0.00     0.04  -0.00  -0.01
  57   1     0.02   0.07  -0.13    -0.00  -0.04   0.08     0.02  -0.04  -0.04
  58   1     0.00   0.04  -0.08    -0.00   0.03  -0.05     0.05  -0.02  -0.00
                     13                     14                     15
                        a                      a                      a 
 Frequencies --   113.6764               121.3825               145.2464
 Red. masses --    10.6365                11.8480                12.2261
 Frc consts  --     0.0000                 0.0000                 0.0000
 IR Inten    --     0.4639                 0.2442                 7.1474
 Raman Activ --     0.0000                 0.0000                 0.0000
 Depolar     --     0.0000                 0.0000                 0.0000
 Atom AN      X      Y      Z        X      Y      Z        X      Y      Z
   1   9     0.01  -0.05  -0.09    -0.25   0.05   0.09    -0.06   0.12   0.06
   2   5     0.02  -0.04  -0.05    -0.12   0.05   0.03     0.00   0.11  -0.12
   3   9    -0.07  -0.07  -0.09    -0.05   0.04   0.04     0.17  -0.07  -0.22
   4   8     0.10  -0.05  -0.12    -0.19   0.04   0.09    -0.03   0.15  -0.13
   5   6     0.10  -0.10  -0.01    -0.16   0.06   0.03    -0.05  -0.03   0.13
   6   6     0.08  -0.10   0.04    -0.13   0.04   0.00    -0.03  -0.16   0.26
   7   6    -0.00  -0.08   0.01    -0.06   0.04   0.01     0.03  -0.13   0.23
   8   6    -0.07   0.05  -0.02    -0.00  -0.04  -0.01     0.07   0.04  -0.03
   9   6    -0.04   0.16  -0.00    -0.03  -0.11  -0.06     0.04   0.15  -0.23
  10   6     0.05   0.09   0.08    -0.12  -0.10  -0.09    -0.02  -0.03  -0.06
  11   6     0.11  -0.04   0.10    -0.17  -0.02  -0.06    -0.06  -0.19   0.20
  12   6     0.11  -0.08   0.02    -0.14   0.07   0.03    -0.04   0.02   0.07
  13   6     0.07  -0.01   0.01    -0.12   0.06   0.01    -0.02   0.13  -0.12
  14   6     0.08   0.06  -0.01    -0.12  -0.00   0.05    -0.03   0.08  -0.13
  15   6     0.05   0.10   0.01    -0.07  -0.04   0.03    -0.01  -0.04   0.00
  16   6     0.04   0.10  -0.00    -0.04  -0.05   0.04    -0.01  -0.02  -0.08
  17   6     0.06   0.04   0.08    -0.01  -0.11   0.10    -0.03   0.02  -0.13
  18   6     0.06  -0.01   0.07    -0.00  -0.07   0.07    -0.03   0.02  -0.11
  19   6    -0.01  -0.00   0.01     0.05  -0.01  -0.01    -0.01  -0.02  -0.02
  20   7    -0.02  -0.05  -0.03     0.09   0.01  -0.01    -0.00   0.01   0.04
  21   6    -0.02   0.01   0.05     0.12   0.05   0.03     0.01   0.01   0.04
  22   6    -0.00   0.15   0.19     0.17   0.11   0.13     0.02   0.00   0.04
  23   6    -0.02   0.12   0.16     0.17   0.07   0.07     0.02  -0.01   0.01
  24   6    -0.08  -0.07  -0.07     0.13  -0.07  -0.12     0.02  -0.03  -0.03
  25   6    -0.08  -0.16  -0.17     0.10  -0.10  -0.17     0.01  -0.01  -0.01
  26   6    -0.04  -0.07  -0.07     0.11  -0.02  -0.05     0.01   0.01   0.02
  27   8    -0.05  -0.04  -0.04     0.15   0.00   0.00     0.00   0.02   0.04
  28   6    -0.03   0.02   0.03     0.13   0.01   0.03    -0.01   0.01   0.02
  29   6    -0.03   0.19   0.23     0.18   0.06   0.12    -0.02  -0.03  -0.03
  30   6    -0.08   0.14   0.18     0.20   0.02   0.04    -0.02  -0.03  -0.03
  31   6    -0.13  -0.12  -0.11     0.17  -0.09  -0.13    -0.01   0.01   0.03
  32   6    -0.12  -0.23  -0.22     0.14  -0.10  -0.16    -0.00   0.03   0.06
  33   6    -0.06  -0.10  -0.09     0.11  -0.04  -0.05    -0.00   0.02   0.05
  34   6    -0.03   0.06  -0.08     0.03   0.03  -0.05     0.01  -0.03  -0.01
  35   6    -0.02   0.13  -0.09     0.01   0.01  -0.04    -0.00  -0.03  -0.06
  36   7     0.02   0.07   0.04    -0.08  -0.02  -0.00     0.04  -0.21   0.30
  37   6     0.00   0.01   0.04    -0.07   0.04  -0.03     0.04  -0.08   0.17
  38   7     0.04  -0.03   0.02    -0.12   0.10  -0.03     0.01   0.18  -0.19
  39   1    -0.01  -0.04   0.00    -0.01   0.03   0.01     0.02  -0.05   0.10
  40   1    -0.04   0.02  -0.02     0.02  -0.01   0.00     0.04   0.04  -0.03
  41   1    -0.02   0.08  -0.01     0.00  -0.05  -0.02     0.02   0.10  -0.14
  42   1     0.02   0.05   0.03    -0.04  -0.04  -0.04    -0.01  -0.00  -0.04
  43   1     0.05  -0.02   0.04    -0.07  -0.00  -0.02    -0.03  -0.08   0.08
  44   1     0.04  -0.03   0.02    -0.04   0.02   0.01    -0.01  -0.02   0.06
  45   1     0.03   0.02  -0.01    -0.04  -0.01   0.03    -0.02   0.03  -0.05
  46   1     0.03   0.00   0.04     0.00  -0.04   0.05    -0.01   0.01  -0.05
  47   1     0.03  -0.02   0.03    -0.01  -0.02   0.03    -0.01   0.02  -0.04
  48   1     0.01   0.08   0.09     0.06   0.05   0.07     0.01   0.00   0.02
  49   1     0.00   0.06   0.08     0.06   0.04   0.04     0.01  -0.01   0.00
  50   1    -0.03  -0.04  -0.04     0.03  -0.04  -0.06     0.00  -0.01  -0.02
  51   1    -0.03  -0.08  -0.08     0.02  -0.05  -0.08     0.00  -0.00  -0.01
  52   1     0.00   0.10   0.11     0.06   0.03   0.07    -0.01  -0.01  -0.02
  53   1    -0.02   0.08   0.10     0.06   0.01   0.03    -0.01  -0.02  -0.02
  54   1    -0.05  -0.06  -0.06     0.05  -0.04  -0.06    -0.00   0.00   0.01
  55   1    -0.04  -0.11  -0.11     0.04  -0.04  -0.07     0.00   0.01   0.02
  56   1    -0.01   0.02  -0.03     0.00   0.02  -0.03     0.01  -0.02   0.01
  57   1    -0.01   0.06  -0.05     0.01   0.01  -0.03     0.00  -0.01  -0.01
  58   1    -0.01  -0.00   0.01    -0.01   0.02  -0.01     0.02  -0.06   0.10
                     16                     17                     18
                        a                      a                      a 
 Frequencies --   159.8456               184.5373               217.3738
 Red. masses --    12.5957                12.9700                13.6381
 Frc consts  --     0.0000                 0.0000                 0.0000
 IR Inten    --     3.3592                 2.2634                 9.0061
 Raman Activ --     0.0000                 0.0000                 0.0000
 Depolar     --     0.0000                 0.0000                 0.0000
 Atom AN      X      Y      Z        X      Y      Z        X      Y      Z
   1   9     0.29   0.04   0.07     0.40   0.05   0.01     0.49   0.02  -0.02
   2   5     0.01  -0.01   0.05     0.07  -0.01  -0.04     0.08  -0.04  -0.02
   3   9    -0.33  -0.01   0.02     0.20  -0.02  -0.04     0.15  -0.05  -0.02
   4   8    -0.01   0.08  -0.02    -0.05   0.07   0.01    -0.01  -0.01   0.02
   5   6    -0.03   0.01   0.06    -0.09   0.02   0.04    -0.04  -0.02  -0.01
   6   6    -0.02  -0.09   0.15    -0.11   0.03   0.03    -0.07  -0.02  -0.01
   7   6     0.03  -0.08   0.16    -0.06   0.04   0.02    -0.09  -0.03  -0.02
   8   6     0.06   0.01  -0.01    -0.01  -0.02  -0.02    -0.08  -0.04  -0.04
   9   6     0.03   0.08  -0.15    -0.04  -0.09  -0.06    -0.09  -0.06  -0.06
  10   6    -0.01  -0.03  -0.04    -0.10  -0.08  -0.08    -0.09  -0.07  -0.06
  11   6    -0.04  -0.12   0.12    -0.15  -0.02  -0.04    -0.09  -0.05  -0.04
  12   6    -0.02   0.06  -0.07    -0.10  -0.07   0.04    -0.02  -0.03  -0.02
  13   6    -0.00   0.04  -0.10    -0.02  -0.10  -0.06     0.01  -0.05  -0.01
  14   6    -0.00   0.14  -0.29     0.01  -0.05  -0.03     0.04   0.04   0.09
  15   6     0.01   0.04  -0.14    -0.03   0.00  -0.00    -0.03   0.14   0.12
  16   6     0.01  -0.09   0.10    -0.00   0.13   0.04    -0.04   0.14   0.10
  17   6     0.01  -0.16   0.23    -0.03   0.16   0.06     0.07   0.06   0.04
  18   6     0.01  -0.11   0.17    -0.01   0.18   0.12     0.05  -0.07  -0.08
  19   6     0.00  -0.02   0.02     0.03   0.17   0.16    -0.07  -0.10  -0.13
  20   7    -0.00   0.03  -0.09     0.01   0.07   0.10    -0.08  -0.15  -0.18
  21   6    -0.02   0.03  -0.06    -0.02  -0.05  -0.05    -0.02  -0.03  -0.02
  22   6    -0.05   0.05  -0.06    -0.02  -0.14  -0.13     0.05   0.04   0.10
  23   6    -0.09   0.05  -0.04     0.02  -0.07  -0.06     0.10   0.07   0.11
  24   6    -0.08   0.04  -0.01     0.07   0.09   0.13     0.05  -0.06  -0.10
  25   6    -0.05   0.03   0.01     0.03   0.06   0.08     0.01  -0.05  -0.12
  26   6    -0.02   0.03  -0.02    -0.02  -0.06  -0.07    -0.00   0.03   0.03
  27   8     0.00   0.03  -0.00    -0.05  -0.19  -0.22     0.03   0.19   0.25
  28   6     0.02   0.02  -0.02    -0.01  -0.07  -0.07    -0.02   0.03   0.06
  29   6     0.05   0.02   0.00     0.02   0.05   0.09    -0.00  -0.09  -0.05
  30   6     0.07   0.02  -0.03     0.03   0.08   0.14     0.03  -0.09  -0.08
  31   6     0.07   0.03  -0.06    -0.01  -0.07  -0.06     0.06   0.06   0.08
  32   6     0.04   0.04  -0.07    -0.02  -0.13  -0.14     0.03   0.08   0.08
  33   6     0.01   0.03  -0.06    -0.01  -0.06  -0.05    -0.03  -0.02  -0.01
  34   6     0.01  -0.10   0.15     0.05   0.18   0.12    -0.19  -0.02  -0.08
  35   6     0.02  -0.15   0.21     0.05   0.15   0.05    -0.16   0.11   0.04
  36   7     0.01   0.09  -0.23    -0.06  -0.05   0.06    -0.07   0.15   0.10
  37   6     0.01   0.03  -0.10    -0.06  -0.08   0.01    -0.10   0.04   0.01
  38   7     0.01  -0.12   0.14    -0.00  -0.09  -0.11     0.00  -0.06  -0.04
  39   1     0.01  -0.03   0.07    -0.01   0.03   0.01    -0.03  -0.01  -0.01
  40   1     0.03   0.01  -0.01     0.02  -0.00  -0.00    -0.01  -0.01  -0.01
  41   1     0.01   0.06  -0.09    -0.00  -0.04  -0.02    -0.02  -0.02  -0.02
  42   1    -0.01  -0.01  -0.03    -0.04  -0.03  -0.03    -0.03  -0.02  -0.02
  43   1    -0.02  -0.05   0.05    -0.07  -0.00  -0.02    -0.04  -0.02  -0.01
  44   1    -0.01   0.03  -0.03    -0.05  -0.04   0.03    -0.01  -0.01  -0.01
  45   1    -0.00   0.08  -0.14     0.02  -0.01  -0.00     0.04   0.01   0.03
  46   1    -0.00  -0.06   0.09    -0.02   0.05   0.01     0.06   0.03   0.03
  47   1     0.00  -0.04   0.06    -0.01   0.06   0.03     0.04  -0.04  -0.03
  48   1    -0.01   0.02  -0.02    -0.01  -0.06  -0.06     0.02   0.02   0.05
  49   1    -0.03   0.02  -0.02     0.00  -0.04  -0.03     0.04   0.04   0.07
  50   1    -0.03   0.01   0.00     0.03   0.06   0.08     0.02  -0.03  -0.06
  51   1    -0.01   0.01   0.02     0.01   0.04   0.04    -0.00  -0.02  -0.06
  52   1     0.01   0.01   0.01     0.01   0.03   0.05    -0.00  -0.05  -0.02
  53   1     0.03   0.00  -0.00     0.02   0.06   0.08     0.01  -0.05  -0.05
  54   1     0.03   0.01  -0.02    -0.00  -0.03  -0.03     0.03   0.04   0.05
  55   1     0.01   0.01  -0.02    -0.01  -0.06  -0.06     0.01   0.05   0.03
  56   1     0.01  -0.03   0.05     0.02   0.06   0.03    -0.09  -0.02  -0.03
  57   1     0.00  -0.06   0.09     0.02   0.04   0.00    -0.07   0.05   0.03
  58   1     0.01   0.02  -0.04    -0.03  -0.04   0.01    -0.06   0.01  -0.01
                     19                     20                     21
                        a                      a                      a 
 Frequencies --   227.5404               232.8123               246.1945
 Red. masses --    10.9757                10.9694                10.5211
 Frc consts  --     0.0000                 0.0000                 0.0000
 IR Inten    --     0.2296                 0.3813                 0.8451
 Raman Activ --     0.0000                 0.0000                 0.0000
 Depolar     --     0.0000                 0.0000                 0.0000
 Atom AN      X      Y      Z        X      Y      Z        X      Y      Z
   1   9    -0.13  -0.05  -0.12     0.09   0.00   0.03    -0.05   0.00   0.00
   2   5    -0.00  -0.02  -0.04    -0.00  -0.01   0.01     0.01   0.01   0.00
   3   9     0.15  -0.03  -0.04    -0.03   0.02   0.03    -0.01   0.00  -0.00
   4   8     0.05   0.02  -0.07     0.04  -0.02   0.01    -0.00   0.01  -0.00
   5   6     0.02  -0.10   0.14     0.07   0.04  -0.07    -0.02  -0.01   0.01
   6   6     0.03   0.07  -0.02     0.12  -0.03   0.01    -0.05  -0.00  -0.01
   7   6     0.07   0.16  -0.09     0.12  -0.07   0.05    -0.06   0.00  -0.02
   8   6     0.07   0.07   0.02     0.09   0.01   0.04    -0.05  -0.01  -0.02
   9   6     0.09  -0.06   0.18     0.11   0.14   0.02    -0.06  -0.05  -0.03
  10   6     0.06   0.08   0.03     0.14   0.08   0.08    -0.06  -0.04  -0.04
  11   6     0.05   0.18  -0.08     0.17  -0.01   0.10    -0.07  -0.02  -0.04
  12   6    -0.03  -0.29   0.34     0.05   0.07  -0.19    -0.01   0.01   0.05
  13   6    -0.02  -0.05  -0.02    -0.02  -0.00  -0.04     0.01   0.02   0.03
  14   6    -0.02   0.16  -0.31    -0.04  -0.10   0.06     0.02   0.03   0.00
  15   6    -0.05   0.12  -0.19    -0.10  -0.08   0.06     0.05   0.01  -0.01
  16   6    -0.06   0.06  -0.06    -0.12  -0.07   0.01     0.06   0.01  -0.01
  17   6    -0.04  -0.04   0.09    -0.19  -0.01   0.00     0.07   0.01  -0.02
  18   6    -0.04  -0.08   0.12    -0.19   0.05  -0.01     0.07  -0.00  -0.00
  19   6    -0.06  -0.05   0.04    -0.15   0.05   0.01     0.06  -0.01  -0.00
  20   7    -0.07  -0.02  -0.06    -0.14   0.06   0.09     0.05  -0.01  -0.01
  21   6    -0.04  -0.01  -0.05    -0.13  -0.04  -0.02    -0.02  -0.18  -0.24
  22   6     0.00  -0.01  -0.01     0.03  -0.15   0.00    -0.07  -0.12  -0.21
  23   6     0.05   0.04   0.01     0.21  -0.01   0.05    -0.03   0.15   0.17
  24   6     0.04   0.03  -0.03     0.22   0.08   0.01    -0.04   0.12   0.18
  25   6    -0.00   0.03  -0.06     0.04   0.05  -0.14    -0.07  -0.18  -0.16
  26   6    -0.04   0.01  -0.03    -0.13  -0.03  -0.08    -0.02  -0.18  -0.22
  27   8    -0.04   0.06   0.04    -0.17  -0.04  -0.05     0.03   0.00  -0.00
  28   6    -0.03   0.03   0.02    -0.10   0.04   0.11     0.07   0.17   0.21
  29   6     0.04  -0.03   0.04     0.05  -0.03   0.18     0.01   0.18   0.16
  30   6     0.11  -0.04  -0.03     0.17  -0.11  -0.02    -0.10  -0.10  -0.17
  31   6     0.11   0.01  -0.05     0.16  -0.09  -0.13    -0.10  -0.12  -0.15
  32   6     0.05   0.07  -0.03     0.05   0.10  -0.01     0.01   0.12   0.21
  33   6    -0.04   0.03  -0.02    -0.09   0.09   0.10     0.07   0.17   0.22
  34   6    -0.08  -0.09   0.14    -0.11   0.05  -0.06     0.06  -0.01   0.01
  35   6    -0.08  -0.03   0.07    -0.12  -0.01  -0.07     0.07  -0.01   0.02
  36   7    -0.06  -0.06   0.09    -0.08  -0.02  -0.05     0.07   0.01   0.01
  37   6    -0.06  -0.10   0.09    -0.07   0.01  -0.06     0.06   0.01   0.02
  38   7    -0.03  -0.03  -0.07    -0.04  -0.03  -0.03     0.04   0.03   0.03
  39   1     0.02   0.08  -0.05     0.03  -0.04   0.02    -0.02   0.00  -0.00
  40   1     0.02   0.02   0.00     0.01   0.00   0.01    -0.01  -0.00  -0.01
  41   1     0.03  -0.07   0.10     0.02   0.07  -0.01    -0.02  -0.02  -0.01
  42   1     0.02   0.02   0.01     0.04   0.03   0.03    -0.02  -0.01  -0.01
  43   1     0.02   0.07  -0.04     0.07  -0.01   0.04    -0.03  -0.00  -0.01
  44   1    -0.02  -0.13   0.17     0.02   0.04  -0.08     0.00  -0.00   0.02
  45   1    -0.00   0.08  -0.14    -0.01  -0.04   0.03     0.00   0.01  -0.00
  46   1    -0.01  -0.02   0.04    -0.07  -0.01  -0.00     0.02   0.00  -0.01
  47   1    -0.01  -0.04   0.05    -0.06   0.02  -0.00     0.02  -0.00   0.00
  48   1     0.00  -0.01   0.01     0.01  -0.09   0.02    -0.02  -0.03  -0.08
  49   1     0.02   0.02   0.02     0.09  -0.00   0.04    -0.00   0.11   0.12
  50   1     0.02   0.01  -0.01     0.09   0.05   0.02     0.00   0.09   0.13
  51   1    -0.00   0.02  -0.03     0.01   0.05  -0.08    -0.02  -0.07  -0.05
  52   1     0.01  -0.02   0.03     0.01  -0.04   0.09     0.01   0.07   0.05
  53   1     0.04  -0.03  -0.02     0.07  -0.06  -0.02    -0.05  -0.08  -0.13
  54   1     0.05   0.00  -0.02     0.06  -0.05  -0.09    -0.05  -0.10  -0.12
  55   1     0.01   0.04  -0.01     0.02   0.06  -0.03     0.01   0.03   0.08
  56   1    -0.03  -0.04   0.06    -0.02   0.03  -0.03     0.02  -0.00   0.00
  57   1    -0.03  -0.01   0.04    -0.03   0.00  -0.04     0.02  -0.01   0.01
  58   1    -0.03  -0.06   0.07    -0.02   0.01  -0.03     0.02   0.00   0.01
                     22                     23                     24
                        a                      a                      a 
 Frequencies --   268.9651               278.9657               284.5387
 Red. masses --    12.0652                12.9556                14.3180
 Frc consts  --     0.0000                 0.0000                 0.0000
 IR Inten    --     4.8401                 5.0145                 1.0858
 Raman Activ --     0.0000                 0.0000                 0.0000
 Depolar     --     0.0000                 0.0000                 0.0000
 Atom AN      X      Y      Z        X      Y      Z        X      Y      Z
   1   9    -0.06  -0.07  -0.12    -0.09   0.09   0.30     0.14   0.13   0.44
   2   5    -0.07  -0.05  -0.03     0.01   0.08   0.04    -0.08   0.06   0.02
   3   9    -0.09  -0.09  -0.04     0.04   0.25   0.11    -0.03   0.33   0.14
   4   8    -0.11  -0.00   0.08     0.10   0.05  -0.11    -0.01  -0.01  -0.07
   5   6    -0.02   0.06   0.04     0.04  -0.02  -0.07     0.05  -0.06  -0.02
   6   6     0.01   0.10   0.11     0.04  -0.09  -0.10     0.13  -0.10  -0.10
   7   6     0.15   0.13   0.13    -0.07  -0.14  -0.09     0.05  -0.11  -0.12
   8   6     0.21   0.09   0.11    -0.14  -0.07  -0.07    -0.04  -0.04  -0.04
   9   6     0.20   0.09   0.07    -0.12  -0.02  -0.06     0.00   0.04   0.04
  10   6     0.08   0.09   0.05    -0.01  -0.05  -0.01     0.11   0.06   0.05
  11   6     0.02   0.11   0.12     0.05  -0.10  -0.06     0.19  -0.03  -0.03
  12   6    -0.06   0.01  -0.13     0.03  -0.03   0.04    -0.01  -0.16   0.02
  13   6    -0.02  -0.09  -0.13     0.00   0.02   0.04    -0.05  -0.04  -0.11
  14   6    -0.01  -0.11  -0.04    -0.01  -0.03  -0.01    -0.04   0.01  -0.09
  15   6    -0.04  -0.09   0.03     0.03  -0.04  -0.09    -0.08  -0.01   0.03
  16   6    -0.01   0.03   0.08     0.02  -0.02  -0.08    -0.06   0.02   0.04
  17   6     0.00   0.06   0.01    -0.05   0.01   0.01    -0.01  -0.01  -0.01
  18   6     0.02   0.09  -0.01    -0.03   0.08   0.11    -0.01  -0.03  -0.06
  19   6     0.05   0.09   0.01    -0.00   0.09   0.12     0.03  -0.03  -0.05
  20   7     0.05  -0.05  -0.06    -0.04   0.03   0.01     0.06  -0.03  -0.02
  21   6     0.03  -0.11  -0.14    -0.09  -0.10  -0.12     0.10   0.03  -0.00
  22   6    -0.01  -0.05  -0.11    -0.04  -0.12  -0.09     0.03   0.08  -0.02
  23   6    -0.01   0.10   0.13     0.07   0.08   0.13    -0.08   0.00  -0.04
  24   6    -0.03   0.01   0.07     0.05   0.06   0.05    -0.07  -0.03   0.01
  25   6    -0.03  -0.15  -0.10    -0.04  -0.08  -0.17     0.02  -0.03   0.08
  26   6     0.05  -0.07  -0.06    -0.08  -0.04  -0.06     0.11  -0.01   0.00
  27   8     0.16   0.16   0.25    -0.02   0.22   0.30     0.14  -0.08  -0.10
  28   6     0.07  -0.04  -0.04    -0.06  -0.06  -0.08     0.11   0.02   0.03
  29   6    -0.03  -0.05  -0.15    -0.03  -0.15  -0.14     0.02   0.09   0.01
  30   6    -0.09   0.04   0.02     0.06   0.03   0.08    -0.08   0.01  -0.04
  31   6    -0.07   0.07   0.14     0.07   0.11   0.12    -0.09  -0.05  -0.01
  32   6    -0.02  -0.10  -0.01    -0.03  -0.07  -0.16     0.02  -0.02   0.10
  33   6     0.06  -0.11  -0.08    -0.07  -0.09  -0.15     0.10   0.00   0.06
  34   6     0.03   0.12  -0.01     0.07   0.04   0.10    -0.04   0.01  -0.03
  35   6     0.04   0.07   0.04     0.06  -0.02  -0.03    -0.04   0.03   0.03
  36   7    -0.16  -0.10  -0.04     0.08  -0.06  -0.05    -0.21  -0.08   0.08
  37   6    -0.16  -0.09  -0.11     0.10  -0.02   0.04    -0.21  -0.03  -0.10
  38   7    -0.12  -0.12  -0.14     0.05   0.05   0.04    -0.18  -0.00  -0.22
  39   1     0.05   0.06   0.05    -0.03  -0.06  -0.03     0.00  -0.05  -0.05
  40   1     0.07   0.02   0.04    -0.05  -0.02  -0.02    -0.04  -0.02  -0.01
  41   1     0.07   0.02   0.01    -0.05   0.01  -0.01    -0.02   0.03   0.03
  42   1     0.01   0.01  -0.01     0.01  -0.00   0.02     0.04   0.04   0.03
  43   1     0.00   0.03   0.04     0.03  -0.03  -0.01     0.09  -0.01  -0.01
  44   1    -0.04   0.00  -0.04     0.02  -0.01   0.02    -0.01  -0.06   0.03
  45   1     0.01  -0.03  -0.01    -0.02  -0.02   0.00    -0.00   0.01  -0.03
  46   1     0.00   0.02  -0.00    -0.04  -0.01  -0.00     0.01   0.01  -0.00
  47   1    -0.00   0.04  -0.01    -0.02   0.03   0.04    -0.00  -0.01  -0.02
  48   1    -0.00  -0.01  -0.05    -0.01  -0.06  -0.03     0.01   0.05  -0.02
  49   1     0.00   0.08   0.09     0.04   0.06   0.09    -0.04  -0.00  -0.03
  50   1    -0.01   0.02   0.05     0.03   0.05   0.04    -0.04  -0.02   0.00
  51   1    -0.01  -0.07  -0.03    -0.02  -0.02  -0.07     0.01  -0.03   0.05
  52   1    -0.01   0.00  -0.07    -0.01  -0.06  -0.04     0.01   0.05  -0.01
  53   1    -0.03   0.03   0.02     0.03   0.04   0.06    -0.04  -0.00  -0.03
  54   1    -0.03   0.05   0.09     0.04   0.08   0.09    -0.05  -0.04  -0.02
  55   1    -0.01  -0.05   0.01    -0.01  -0.02  -0.06     0.01  -0.02   0.05
  56   1     0.01   0.04  -0.02     0.05   0.02   0.04    -0.03  -0.00  -0.01
  57   1     0.02   0.02   0.01     0.03  -0.01  -0.02    -0.01   0.00   0.02
  58   1    -0.05  -0.02  -0.05     0.05  -0.01   0.03    -0.07  -0.01  -0.04
                     25                     26                     27
                        a                      a                      a 
 Frequencies --   302.5534               317.8737               333.0605
 Red. masses --    11.2756                13.6434                13.2812
 Frc consts  --     0.0000                 0.0000                 0.0000
 IR Inten    --     4.5782                 8.2155                 0.9640
 Raman Activ --     0.0000                 0.0000                 0.0000
 Depolar     --     0.0000                 0.0000                 0.0000
 Atom AN      X      Y      Z        X      Y      Z        X      Y      Z
   1   9    -0.07   0.00  -0.03    -0.33  -0.07   0.17     0.07   0.07   0.16
   2   5    -0.02   0.01  -0.03     0.01  -0.00   0.01    -0.04   0.03  -0.03
   3   9     0.25   0.02   0.01     0.08   0.25   0.13    -0.34   0.03  -0.11
   4   8    -0.01   0.12  -0.10     0.17   0.18  -0.22    -0.14  -0.20   0.23
   5   6    -0.01   0.12  -0.14     0.03   0.05  -0.08    -0.01  -0.06   0.09
   6   6     0.02   0.04  -0.03    -0.10   0.10   0.08    -0.01  -0.02   0.05
   7   6     0.03  -0.07   0.07    -0.03   0.07   0.12     0.01   0.07  -0.02
   8   6     0.03  -0.03   0.04     0.05   0.01   0.05     0.02   0.03   0.01
   9   6     0.03   0.10  -0.07     0.01  -0.01  -0.08     0.02  -0.04   0.06
  10   6     0.03  -0.02   0.05    -0.07  -0.06  -0.04    -0.01   0.05  -0.03
  11   6     0.03  -0.05   0.08    -0.14  -0.00   0.06    -0.02   0.04  -0.01
  12   6    -0.02   0.07  -0.14     0.00  -0.09  -0.11     0.02   0.01  -0.05
  13   6    -0.04  -0.08   0.06     0.07  -0.17  -0.09     0.05   0.01  -0.11
  14   6    -0.03  -0.18   0.24     0.12  -0.09  -0.07     0.08  -0.13   0.12
  15   6    -0.07   0.11  -0.17     0.09  -0.05   0.00     0.11  -0.02  -0.04
  16   6    -0.06   0.16  -0.22     0.13   0.08   0.13     0.14   0.14  -0.13
  17   6    -0.02   0.04  -0.07     0.16   0.09   0.10     0.17   0.09  -0.06
  18   6     0.00  -0.19   0.22     0.14   0.06  -0.07     0.17  -0.09   0.13
  19   6    -0.00  -0.14   0.15     0.01   0.03  -0.11     0.05  -0.12   0.13
  20   7     0.01  -0.05  -0.06    -0.04  -0.09  -0.13    -0.01  -0.08  -0.07
  21   6     0.08   0.01  -0.07    -0.08  -0.02   0.06    -0.05  -0.04   0.00
  22   6     0.00   0.09  -0.06    -0.00  -0.01   0.13    -0.03  -0.00   0.06
  23   6    -0.09   0.05  -0.04     0.06  -0.07   0.01    -0.01  -0.03   0.00
  24   6    -0.09   0.02  -0.01     0.05  -0.05  -0.06    -0.01  -0.01  -0.03
  25   6     0.00  -0.00   0.04     0.01   0.07   0.04    -0.02   0.05   0.02
  26   6     0.08   0.01  -0.04    -0.08   0.02   0.06    -0.07   0.00   0.01
  27   8     0.09   0.03  -0.04    -0.16  -0.04  -0.03    -0.18   0.06  -0.00
  28   6     0.03   0.02  -0.02    -0.07   0.03   0.04    -0.13   0.04  -0.02
  29   6     0.03   0.05   0.01    -0.02   0.01   0.08    -0.02   0.00   0.06
  30   6     0.03   0.01  -0.05     0.00  -0.06  -0.03     0.08  -0.01  -0.04
  31   6     0.03   0.00  -0.04     0.01  -0.01  -0.03     0.08   0.05  -0.07
  32   6     0.04   0.04   0.01    -0.02   0.09   0.04    -0.02   0.14  -0.05
  33   6     0.01  -0.00  -0.03    -0.06   0.03   0.00    -0.12   0.05  -0.06
  34   6    -0.06  -0.13   0.21     0.00   0.05  -0.09     0.07  -0.12   0.14
  35   6    -0.07   0.05  -0.01     0.04   0.08   0.09     0.09   0.08  -0.08
  36   7    -0.10   0.09  -0.14    -0.01  -0.04  -0.11     0.04  -0.13   0.07
  37   6    -0.08  -0.17   0.23    -0.02  -0.15  -0.06     0.02  -0.05  -0.07
  38   7    -0.04  -0.10   0.06     0.02  -0.24   0.01    -0.03   0.14  -0.32
  39   1     0.01  -0.04   0.04    -0.00   0.03   0.05     0.00   0.04  -0.02
  40   1     0.01  -0.02   0.02     0.04   0.00   0.02     0.01   0.01  -0.00
  41   1     0.01   0.06  -0.05     0.02  -0.00  -0.05     0.01  -0.03   0.03
  42   1     0.01  -0.01   0.02    -0.03  -0.04  -0.03    -0.00   0.03  -0.03
  43   1     0.01  -0.03   0.04    -0.07  -0.01   0.02    -0.01   0.02  -0.01
  44   1    -0.01   0.03  -0.06    -0.02  -0.04  -0.02    -0.01   0.00  -0.02
  45   1    -0.01  -0.11   0.15     0.05  -0.01  -0.04     0.02  -0.09   0.10
  46   1     0.01   0.02  -0.03     0.06   0.03   0.04     0.06   0.03  -0.02
  47   1     0.01  -0.08   0.11     0.07   0.00  -0.04     0.07  -0.05   0.05
  48   1     0.00   0.05  -0.02     0.00  -0.02   0.06    -0.01   0.00   0.04
  49   1    -0.04   0.02  -0.02     0.03  -0.04  -0.01     0.01  -0.01   0.00
  50   1    -0.04  -0.00   0.00     0.02  -0.03  -0.05     0.00  -0.01  -0.02
  51   1     0.00  -0.02   0.04     0.00   0.04   0.00    -0.00   0.03   0.01
  52   1     0.01   0.02   0.02    -0.00  -0.00   0.04    -0.01  -0.02   0.05
  53   1     0.01  -0.00  -0.02     0.00  -0.04  -0.03     0.04  -0.02  -0.01
  54   1     0.01  -0.00  -0.02     0.01  -0.01  -0.02     0.04   0.02  -0.03
  55   1     0.01   0.02   0.02    -0.00   0.04   0.01    -0.00   0.08  -0.02
  56   1    -0.03  -0.06   0.10    -0.01   0.02  -0.04     0.02  -0.05   0.07
  57   1    -0.02   0.01  -0.00    -0.01   0.03   0.05     0.01   0.04  -0.03
  58   1    -0.03  -0.11   0.15    -0.02  -0.04  -0.03     0.02  -0.03   0.01
                     28                     29                     30
                        a                      a                      a 
 Frequencies --   363.8211               365.8877               372.2039
 Red. masses --     9.1015                12.0595                10.4487
 Frc consts  --     0.0000                 0.0000                 0.0000
 IR Inten    --     1.6084                19.8538                13.2637
 Raman Activ --     0.0000                 0.0000                 0.0000
 Depolar     --     0.0000                 0.0000                 0.0000
 Atom AN      X      Y      Z        X      Y      Z        X      Y      Z
   1   9    -0.01  -0.03   0.02     0.04   0.11  -0.08    -0.01  -0.06  -0.10
   2   5     0.03  -0.01   0.00    -0.11   0.05  -0.01    -0.02  -0.04   0.05
   3   9    -0.02   0.04   0.02     0.13  -0.12  -0.07     0.08  -0.04   0.11
   4   8     0.10  -0.01  -0.05    -0.35   0.07   0.11    -0.10   0.10  -0.01
   5   6     0.03  -0.03  -0.02    -0.11   0.13   0.03    -0.03   0.18  -0.13
   6   6    -0.03  -0.01   0.05     0.13  -0.06  -0.16     0.03   0.09  -0.15
   7   6    -0.04   0.31  -0.26     0.05  -0.07  -0.19     0.02  -0.08   0.01
   8   6     0.02  -0.27   0.28    -0.05  -0.14   0.07    -0.01  -0.07   0.06
   9   6    -0.01  -0.03   0.00    -0.02   0.09   0.01    -0.01   0.11  -0.09
  10   6    -0.04   0.28  -0.32     0.09   0.11  -0.01     0.03  -0.04   0.06
  11   6    -0.03  -0.27   0.30     0.18  -0.15   0.05     0.05  -0.07   0.04
  12   6     0.03  -0.03  -0.04    -0.12   0.11   0.17    -0.07   0.03   0.07
  13   6     0.01  -0.00  -0.01    -0.04   0.03   0.07    -0.02  -0.13   0.19
  14   6     0.01   0.02   0.02    -0.05  -0.03  -0.04    -0.01   0.08  -0.14
  15   6    -0.01   0.02   0.04     0.03  -0.03  -0.16     0.02  -0.09   0.13
  16   6    -0.03  -0.01  -0.01     0.08   0.01   0.05     0.02   0.05  -0.04
  17   6    -0.03  -0.01  -0.02     0.09   0.00   0.10     0.06  -0.02   0.06
  18   6    -0.04  -0.03  -0.00     0.10   0.11  -0.03     0.05   0.03  -0.10
  19   6    -0.02  -0.04   0.03     0.06   0.15  -0.13     0.04  -0.11   0.15
  20   7    -0.00   0.04   0.06     0.01  -0.09  -0.17     0.01  -0.04  -0.00
  21   6     0.03   0.02  -0.00    -0.10  -0.06   0.02     0.04  -0.04  -0.04
  22   6    -0.00   0.01  -0.04    -0.00  -0.05   0.13     0.01   0.02   0.01
  23   6    -0.02   0.03  -0.02     0.06  -0.08   0.05    -0.04  -0.01   0.00
  24   6    -0.01   0.03   0.01     0.05  -0.08  -0.03    -0.04  -0.02   0.01
  25   6     0.00  -0.01  -0.02    -0.01   0.03   0.05     0.01  -0.01   0.05
  26   6     0.02   0.01  -0.02    -0.09  -0.02   0.05     0.03  -0.03  -0.02
  27   8     0.04   0.01  -0.01    -0.11  -0.04   0.03    -0.04   0.05  -0.01
  28   6     0.00  -0.00   0.00     0.00   0.01  -0.00    -0.06   0.03  -0.01
  29   6     0.00  -0.02  -0.02     0.00   0.06   0.04    -0.02   0.01   0.00
  30   6     0.01   0.01   0.02    -0.04  -0.02  -0.06     0.04   0.02  -0.03
  31   6     0.01  -0.01   0.01    -0.04   0.02  -0.01     0.04   0.05  -0.04
  32   6     0.00  -0.03  -0.02    -0.01   0.06   0.05    -0.01   0.07  -0.05
  33   6     0.00   0.00   0.03     0.01  -0.01  -0.06    -0.07   0.03  -0.03
  34   6    -0.03  -0.03   0.01     0.10   0.11  -0.06     0.02  -0.15   0.24
  35   6    -0.03  -0.01  -0.04     0.11  -0.01   0.12     0.02   0.15  -0.26
  36   7     0.01   0.04   0.05    -0.02  -0.05  -0.18    -0.01  -0.17   0.25
  37   6     0.00   0.04  -0.01     0.01  -0.11   0.11    -0.03   0.17  -0.29
  38   7     0.02  -0.00  -0.00    -0.06   0.01   0.08    -0.03  -0.08   0.09
  39   1    -0.01   0.22  -0.18     0.00  -0.02  -0.09     0.00  -0.06   0.02
  40   1     0.02  -0.16   0.17    -0.05  -0.08   0.05    -0.01  -0.05   0.04
  41   1     0.00  -0.02   0.00    -0.02   0.05   0.00    -0.01   0.07  -0.06
  42   1    -0.02   0.18  -0.20     0.04   0.07   0.00     0.01  -0.03   0.05
  43   1    -0.01  -0.17   0.18     0.09  -0.08   0.06     0.02  -0.05   0.04
  44   1     0.01  -0.01  -0.00    -0.06   0.02   0.04    -0.04   0.01   0.01
  45   1     0.01   0.01   0.00    -0.05  -0.02  -0.01    -0.01   0.09  -0.14
  46   1    -0.01  -0.00  -0.01     0.02  -0.01   0.05     0.03  -0.02   0.04
  47   1    -0.01  -0.01  -0.00     0.03   0.03  -0.01     0.02   0.03  -0.08
  48   1    -0.00   0.00  -0.02     0.00  -0.02   0.06     0.01   0.03   0.02
  49   1    -0.01   0.01  -0.00     0.03  -0.03   0.01    -0.02   0.00   0.00
  50   1    -0.01   0.01   0.01     0.02  -0.03  -0.03    -0.02  -0.01   0.01
  51   1    -0.00  -0.01  -0.01    -0.00   0.04   0.01     0.01  -0.00   0.04
  52   1    -0.00  -0.01  -0.01     0.00   0.04   0.02    -0.01  -0.01   0.01
  53   1     0.00   0.01   0.01    -0.02  -0.02  -0.04     0.02  -0.00  -0.01
  54   1     0.00  -0.00   0.00    -0.01   0.01  -0.00     0.02   0.02  -0.02
  55   1    -0.00  -0.01  -0.01     0.00   0.03   0.03    -0.00   0.03  -0.02
  56   1    -0.01  -0.01   0.00     0.04   0.04  -0.02     0.00  -0.07   0.11
  57   1    -0.01   0.00  -0.02     0.03  -0.02   0.07    -0.00   0.09  -0.15
  58   1    -0.01   0.01  -0.01     0.04  -0.05   0.08    -0.01   0.14  -0.23
                     31                     32                     33
                        a                      a                      a 
 Frequencies --   378.6383               378.8617               398.4838
 Red. masses --    10.5971                10.2765                11.2172
 Frc consts  --     0.0000                 0.0000                 0.0000
 IR Inten    --     0.9429                 1.4113                61.2154
 Raman Activ --     0.0000                 0.0000                 0.0000
 Depolar     --     0.0000                 0.0000                 0.0000
 Atom AN      X      Y      Z        X      Y      Z        X      Y      Z
   1   9    -0.02   0.01   0.03    -0.03  -0.02  -0.03    -0.03   0.03   0.02
   2   5     0.07   0.02  -0.00     0.04   0.00   0.03    -0.03   0.02  -0.02
   3   9    -0.08   0.00  -0.04    -0.04  -0.03   0.02    -0.02   0.00  -0.05
   4   8     0.12  -0.07   0.02     0.04   0.00   0.03    -0.16   0.01   0.08
   5   6     0.03  -0.07   0.03     0.00   0.04  -0.03    -0.04   0.09  -0.00
   6   6    -0.02  -0.03   0.06     0.01   0.02  -0.03     0.02   0.03  -0.07
   7   6    -0.02   0.03   0.00    -0.01  -0.01  -0.01     0.01  -0.04  -0.01
   8   6     0.00   0.02  -0.02    -0.01  -0.03   0.01    -0.01  -0.02   0.02
   9   6    -0.00  -0.04   0.02    -0.02   0.01  -0.03    -0.01   0.04  -0.03
  10   6    -0.02   0.01  -0.03    -0.00  -0.01  -0.00     0.02  -0.02   0.04
  11   6    -0.03   0.02  -0.01     0.01  -0.03   0.01     0.04  -0.02  -0.01
  12   6     0.04   0.00  -0.04    -0.00   0.02   0.02    -0.04   0.02   0.06
  13   6    -0.01   0.06  -0.03     0.00  -0.03   0.08     0.04  -0.06   0.01
  14   6    -0.04  -0.08   0.02    -0.03  -0.01  -0.10     0.06  -0.04  -0.02
  15   6    -0.04  -0.04  -0.08    -0.01  -0.12   0.04     0.08   0.01  -0.06
  16   6    -0.06  -0.00  -0.01    -0.02   0.04  -0.06     0.10   0.07   0.03
  17   6    -0.11  -0.09   0.27    -0.08   0.22  -0.27     0.12   0.04   0.09
  18   6    -0.11   0.27  -0.16    -0.04  -0.05   0.35     0.09  -0.02  -0.08
  19   6    -0.05   0.15   0.03    -0.05   0.06   0.13    -0.04  -0.06  -0.09
  20   7    -0.10  -0.14  -0.23    -0.09  -0.13  -0.18    -0.05   0.08   0.11
  21   6    -0.02  -0.06  -0.18     0.01  -0.02  -0.14    -0.01   0.14  -0.01
  22   6     0.05   0.14   0.06     0.03   0.15   0.02    -0.11   0.13  -0.15
  23   6     0.01   0.05  -0.07     0.00   0.09  -0.08    -0.01   0.22  -0.18
  24   6    -0.01  -0.03  -0.12    -0.02   0.02  -0.13     0.00   0.28  -0.14
  25   6     0.05   0.12   0.09     0.06   0.11   0.04     0.04   0.15  -0.20
  26   6     0.01  -0.01  -0.07     0.03   0.02  -0.05    -0.03   0.13  -0.07
  27   8     0.13  -0.03   0.02     0.08   0.01   0.02     0.04  -0.02  -0.04
  28   6     0.07  -0.07   0.03    -0.01  -0.09  -0.01    -0.01  -0.03   0.15
  29   6     0.03   0.03   0.11     0.03   0.00   0.15     0.03  -0.26   0.03
  30   6    -0.07  -0.12  -0.02    -0.02  -0.15  -0.00     0.00  -0.18   0.23
  31   6    -0.05  -0.08   0.08    -0.01  -0.10   0.06    -0.01  -0.21   0.19
  32   6     0.02  -0.03   0.17    -0.01   0.01   0.14    -0.10  -0.22   0.05
  33   6     0.05  -0.13  -0.04    -0.03  -0.14  -0.08     0.00   0.01   0.21
  34   6    -0.04   0.00   0.30    -0.04   0.20  -0.15    -0.02  -0.11  -0.02
  35   6    -0.05   0.13  -0.20    -0.03  -0.07   0.19     0.00   0.04   0.02
  36   7     0.08  -0.03  -0.08     0.08  -0.17   0.12     0.03  -0.04  -0.03
  37   6     0.11  -0.01   0.05     0.09   0.10  -0.15     0.03  -0.07  -0.02
  38   7     0.07   0.07  -0.02     0.06   0.03   0.04     0.01  -0.03  -0.05
  39   1    -0.00   0.02  -0.00    -0.00  -0.01  -0.00     0.00  -0.03   0.01
  40   1     0.01   0.02  -0.01    -0.00  -0.02   0.01    -0.01  -0.02   0.02
  41   1     0.00  -0.03   0.02    -0.01   0.01  -0.01    -0.01   0.03  -0.02
  42   1    -0.01   0.01  -0.02     0.00  -0.00   0.00     0.01  -0.01   0.03
  43   1    -0.01   0.01  -0.01     0.00  -0.02   0.01     0.02  -0.02   0.01
  44   1     0.03   0.01  -0.02     0.00   0.01  -0.00    -0.04  -0.00   0.02
  45   1    -0.03  -0.06   0.05    -0.02   0.03  -0.08     0.01  -0.02  -0.00
  46   1    -0.05  -0.07   0.15    -0.05   0.10  -0.16     0.05   0.01   0.05
  47   1    -0.05   0.13  -0.10    -0.02  -0.05   0.18     0.06  -0.03  -0.04
  48   1     0.03   0.08   0.07     0.02   0.07   0.03    -0.03   0.03  -0.06
  49   1     0.00   0.02  -0.01     0.00   0.03  -0.02     0.02   0.05  -0.05
  50   1    -0.01  -0.02  -0.05    -0.02  -0.01  -0.05    -0.01   0.09  -0.02
  51   1     0.02   0.08   0.08     0.02   0.06   0.05     0.00   0.04  -0.08
  52   1     0.02   0.04   0.05     0.02   0.03   0.09    -0.00  -0.13  -0.03
  53   1    -0.04  -0.05  -0.04    -0.01  -0.05  -0.02    -0.01  -0.04   0.07
  54   1    -0.02  -0.02   0.03     0.00  -0.02   0.02     0.01  -0.06   0.04
  55   1     0.01  -0.00   0.08     0.00   0.03   0.09    -0.03  -0.11  -0.04
  56   1     0.01  -0.03   0.15     0.00   0.10  -0.10    -0.02  -0.04   0.01
  57   1    -0.00   0.07  -0.13    -0.00  -0.06   0.13    -0.03   0.03   0.02
  58   1     0.05  -0.02   0.05     0.04   0.08  -0.12     0.01  -0.03   0.01
                     34                     35                     36
                        a                      a                      a 
 Frequencies --   415.6846               428.2355               431.5159
 Red. masses --    11.1571                11.2637                10.6765
 Frc consts  --     0.0000                 0.0000                 0.0000
 IR Inten    --    10.4758                 5.5212                 6.9408
 Raman Activ --     0.0000                 0.0000                 0.0000
 Depolar     --     0.0000                 0.0000                 0.0000
 Atom AN      X      Y      Z        X      Y      Z        X      Y      Z
   1   9    -0.02   0.11   0.01     0.07  -0.19  -0.07    -0.07   0.08   0.03
   2   5    -0.08   0.06  -0.03     0.03  -0.12   0.06     0.08   0.07  -0.01
   3   9     0.15  -0.02  -0.06    -0.13   0.02   0.17    -0.06  -0.02  -0.11
   4   8    -0.09   0.10  -0.09     0.05  -0.02   0.01     0.03  -0.05   0.12
   5   6    -0.03  -0.09   0.16     0.01   0.08  -0.12    -0.00   0.02   0.01
   6   6     0.05  -0.22   0.17    -0.03   0.22  -0.20     0.02   0.02  -0.04
   7   6     0.01  -0.01  -0.07    -0.01   0.00   0.04    -0.00  -0.01  -0.01
   8   6    -0.02   0.08  -0.10     0.02  -0.09   0.11    -0.02  -0.02   0.01
   9   6    -0.00  -0.12   0.14     0.00   0.13  -0.14    -0.02   0.01  -0.02
  10   6     0.02   0.10  -0.08    -0.01  -0.10   0.09     0.01  -0.01   0.01
  11   6     0.05   0.01  -0.06    -0.03  -0.01   0.04     0.02  -0.02  -0.01
  12   6    -0.01   0.09  -0.06    -0.01  -0.11   0.15    -0.01   0.01   0.01
  13   6    -0.00   0.05  -0.05    -0.01   0.11  -0.14     0.02  -0.05   0.04
  14   6    -0.00   0.01  -0.02     0.00   0.04   0.04    -0.02  -0.12  -0.09
  15   6     0.01  -0.10   0.13     0.01   0.10  -0.07    -0.02  -0.09  -0.10
  16   6     0.04  -0.09   0.17     0.00  -0.10   0.08    -0.02   0.13   0.07
  17   6     0.04   0.03  -0.04    -0.02  -0.06   0.02    -0.02   0.11   0.12
  18   6     0.04   0.03  -0.07    -0.01   0.06  -0.06    -0.04   0.03  -0.05
  19   6     0.03  -0.10   0.19     0.02   0.03   0.01    -0.10  -0.02  -0.04
  20   7     0.01   0.00   0.03     0.01   0.05  -0.01    -0.05   0.00  -0.02
  21   6     0.17   0.00  -0.12     0.13   0.02  -0.11     0.16   0.24   0.23
  22   6     0.09   0.14  -0.09     0.12   0.11  -0.08     0.05  -0.11  -0.22
  23   6    -0.03   0.09  -0.08     0.01   0.05  -0.06     0.00   0.04   0.05
  24   6    -0.04  -0.03   0.01     0.01  -0.09   0.05     0.01  -0.02   0.15
  25   6     0.12  -0.08   0.08     0.12  -0.11   0.10    -0.00  -0.25  -0.12
  26   6     0.16  -0.09  -0.04     0.14  -0.12  -0.00     0.17   0.14   0.26
  27   8    -0.01   0.05   0.01    -0.01  -0.00   0.04     0.09  -0.05  -0.06
  28   6    -0.21  -0.05   0.05    -0.17  -0.07   0.06    -0.06  -0.11  -0.09
  29   6    -0.11  -0.12   0.13    -0.11  -0.11   0.12    -0.05   0.06   0.10
  30   6     0.03  -0.11   0.07    -0.02  -0.10   0.08    -0.01  -0.01  -0.04
  31   6     0.03   0.02  -0.03    -0.01   0.05  -0.04    -0.01   0.03  -0.07
  32   6    -0.12   0.12  -0.06    -0.12   0.12  -0.06     0.01   0.12   0.04
  33   6    -0.20   0.06  -0.04    -0.15   0.07  -0.06    -0.07  -0.06  -0.12
  34   6     0.03   0.02  -0.05     0.05   0.07  -0.09    -0.18   0.00   0.02
  35   6     0.03   0.04  -0.06     0.04  -0.08   0.04    -0.14   0.12   0.07
  36   7    -0.06   0.05  -0.16     0.01   0.10  -0.02     0.11  -0.14  -0.06
  37   6    -0.05  -0.05   0.04     0.01  -0.04   0.10     0.15  -0.02  -0.02
  38   7    -0.03  -0.13   0.20    -0.01   0.17  -0.23     0.10   0.01   0.02
  39   1    -0.00   0.03  -0.07     0.00  -0.04   0.06    -0.00  -0.02  -0.00
  40   1    -0.02   0.07  -0.08     0.01  -0.08   0.08    -0.00  -0.01   0.01
  41   1    -0.00  -0.06   0.08     0.00   0.07  -0.08    -0.01   0.01  -0.01
  42   1     0.01   0.08  -0.06    -0.00  -0.08   0.07     0.00  -0.01   0.01
  43   1     0.02   0.04  -0.06    -0.01  -0.05   0.06     0.01  -0.01   0.01
  44   1    -0.01   0.04  -0.04    -0.00  -0.07   0.12    -0.01   0.01  -0.02
  45   1    -0.01   0.03  -0.05     0.01  -0.04   0.09    -0.03  -0.04  -0.03
  46   1     0.01   0.04  -0.07    -0.02  -0.01  -0.01     0.01   0.03   0.05
  47   1     0.01   0.04  -0.07    -0.02   0.04  -0.04     0.01  -0.00  -0.03
  48   1     0.03   0.08  -0.02     0.04   0.06  -0.02    -0.02  -0.11  -0.19
  49   1    -0.04   0.05  -0.02    -0.03   0.04  -0.02    -0.03   0.00  -0.02
  50   1    -0.04  -0.02   0.03    -0.03  -0.03   0.03    -0.02  -0.02   0.03
  51   1     0.04  -0.03   0.07     0.04  -0.03   0.06    -0.03  -0.18  -0.14
  52   1    -0.03  -0.06   0.08    -0.03  -0.04   0.06    -0.00   0.06   0.08
  53   1     0.04  -0.05   0.03     0.03  -0.05   0.03     0.01  -0.01   0.00
  54   1     0.05   0.02  -0.02     0.04   0.03  -0.03     0.00   0.02  -0.01
  55   1    -0.03   0.07  -0.03    -0.03   0.06  -0.02     0.01   0.08   0.06
  56   1     0.01   0.03  -0.06     0.03   0.04  -0.05    -0.08  -0.01   0.01
  57   1     0.01   0.05  -0.09     0.02  -0.02  -0.00    -0.07   0.05   0.04
  58   1    -0.01  -0.00  -0.00    -0.00  -0.07   0.12     0.06   0.00  -0.01
                     37                     38                     39
                        a                      a                      a 
 Frequencies --   434.4137               449.1586               461.3032
 Red. masses --    10.6311                13.6214                11.3294
 Frc consts  --     0.0000                 0.0000                 0.0000
 IR Inten    --     8.6214                 9.3562                 1.1163
 Raman Activ --     0.0000                 0.0000                 0.0000
 Depolar     --     0.0000                 0.0000                 0.0000
 Atom AN      X      Y      Z        X      Y      Z        X      Y      Z
   1   9     0.07  -0.09  -0.04    -0.08   0.26   0.19    -0.07   0.08   0.06
   2   5    -0.08  -0.08   0.01    -0.00   0.16  -0.16     0.04   0.06  -0.05
   3   9     0.04   0.02   0.11     0.07   0.04  -0.38    -0.04   0.02  -0.16
   4   8    -0.05   0.06  -0.11    -0.05  -0.24   0.18    -0.05  -0.06   0.15
   5   6    -0.01  -0.01  -0.01     0.05  -0.03  -0.07    -0.01   0.02   0.04
   6   6    -0.01  -0.02   0.03    -0.04   0.11  -0.05     0.01   0.13  -0.13
   7   6     0.00   0.01   0.01    -0.01   0.04   0.05    -0.00   0.00  -0.01
   8   6     0.01   0.02  -0.01     0.03  -0.02   0.05    -0.01  -0.06   0.07
   9   6     0.01  -0.01   0.02     0.02   0.05  -0.05    -0.02   0.07  -0.09
  10   6    -0.00   0.01  -0.00    -0.02  -0.04   0.03     0.00  -0.06   0.05
  11   6    -0.01   0.01   0.00    -0.05   0.03   0.03     0.01  -0.01  -0.01
  12   6    -0.00  -0.01   0.01     0.06  -0.08  -0.09    -0.01  -0.06   0.10
  13   6    -0.00   0.06  -0.06     0.04  -0.26   0.23     0.06  -0.01  -0.12
  14   6     0.03   0.11   0.08     0.10   0.11  -0.01     0.07  -0.01  -0.08
  15   6     0.03   0.08   0.10     0.02   0.19  -0.03     0.02  -0.04   0.07
  16   6     0.04  -0.12  -0.03    -0.02  -0.06  -0.12     0.01  -0.09   0.29
  17   6     0.03  -0.12  -0.07    -0.05  -0.13   0.01    -0.02   0.08  -0.02
  18   6     0.05   0.01  -0.04    -0.04   0.02  -0.02    -0.04  -0.02  -0.08
  19   6     0.08  -0.00   0.06     0.02   0.10  -0.11    -0.07  -0.20   0.22
  20   7     0.05   0.00   0.04     0.02   0.10   0.02    -0.01   0.02   0.26
  21   6    -0.05   0.09   0.15     0.01   0.01  -0.07    -0.02  -0.14  -0.04
  22   6    -0.13  -0.06  -0.08     0.05   0.05  -0.01    -0.03  -0.00   0.12
  23   6    -0.00   0.07  -0.01     0.04   0.01  -0.04    -0.08  -0.09   0.02
  24   6     0.00   0.16  -0.05     0.04  -0.05   0.02    -0.08   0.06  -0.04
  25   6    -0.04   0.04  -0.18     0.05  -0.03   0.05    -0.06   0.11   0.01
  26   6    -0.06   0.15   0.10     0.01  -0.09  -0.02    -0.03  -0.02  -0.20
  27   8    -0.04   0.04   0.05    -0.01  -0.02   0.08     0.08   0.16   0.01
  28   6    -0.03  -0.19  -0.26    -0.05  -0.09  -0.03     0.02  -0.02  -0.19
  29   6     0.09   0.11   0.20    -0.03  -0.03   0.08     0.06   0.13  -0.05
  30   6    -0.02  -0.13  -0.04    -0.04  -0.06   0.04     0.08   0.11  -0.10
  31   6    -0.02  -0.13   0.03    -0.04   0.01  -0.03     0.07  -0.06  -0.03
  32   6    -0.00   0.07   0.24    -0.06   0.07   0.01     0.12  -0.02   0.09
  33   6    -0.02  -0.25  -0.25    -0.03   0.00  -0.08     0.00  -0.15  -0.01
  34   6     0.16  -0.04   0.04     0.08   0.01  -0.03    -0.12  -0.03  -0.10
  35   6     0.13  -0.08  -0.11     0.05  -0.13  -0.00    -0.10   0.05  -0.03
  36   7    -0.09   0.13   0.04    -0.03   0.14   0.14     0.07   0.09  -0.15
  37   6    -0.13   0.01   0.02    -0.09  -0.01  -0.01     0.07  -0.10   0.08
  38   7    -0.09  -0.00  -0.03    -0.00  -0.19   0.10     0.09  -0.07   0.00
  39   1     0.00   0.01   0.00     0.00  -0.00   0.04    -0.00  -0.03   0.02
  40   1     0.00   0.01  -0.01     0.02  -0.03   0.04    -0.00  -0.05   0.06
  41   1     0.00  -0.00   0.01     0.01   0.02  -0.03    -0.01   0.04  -0.04
  42   1    -0.00   0.01  -0.01    -0.01  -0.04   0.02     0.01  -0.05   0.06
  43   1    -0.00   0.01  -0.00    -0.03  -0.01   0.03     0.00  -0.03   0.03
  44   1    -0.00  -0.02   0.03     0.02   0.02  -0.09    -0.03  -0.03   0.04
  45   1     0.03   0.03   0.03     0.07   0.07  -0.04     0.03   0.01  -0.03
  46   1    -0.01  -0.03  -0.03    -0.04  -0.07   0.04     0.00   0.08  -0.10
  47   1    -0.01   0.02  -0.02    -0.03   0.01   0.03     0.00   0.02  -0.11
  48   1    -0.05  -0.07  -0.07     0.02   0.03   0.02     0.01   0.06   0.07
  49   1     0.02  -0.01  -0.01    -0.00   0.01  -0.01    -0.00  -0.02   0.02
  50   1     0.01   0.04  -0.03     0.00  -0.01   0.02     0.00   0.04   0.00
  51   1    -0.03  -0.02  -0.12     0.02   0.01   0.03    -0.00   0.05   0.07
  52   1     0.05   0.12   0.18    -0.00   0.02   0.05     0.03   0.06   0.04
  53   1    -0.02  -0.01   0.00     0.00  -0.02   0.03     0.01   0.06  -0.01
  54   1     0.00  -0.01   0.04     0.01   0.01  -0.01    -0.01  -0.02   0.01
  55   1     0.02   0.12   0.19    -0.01   0.04   0.03     0.04   0.04   0.07
  56   1     0.07  -0.00   0.01     0.05  -0.00   0.02    -0.05   0.03  -0.11
  57   1     0.06  -0.02  -0.07     0.04  -0.08   0.03    -0.05   0.08  -0.10
  58   1    -0.06  -0.01   0.01    -0.07   0.01  -0.05     0.01  -0.05   0.06
                     40                     41                     42
                        a                      a                      a 
 Frequencies --   473.0628               476.9182               498.4426
 Red. masses --    11.8414                13.6148                10.0501
 Frc consts  --     0.0000                 0.0000                 0.0000
 IR Inten    --     8.3475                 6.5202                 0.0646
 Raman Activ --     0.0000                 0.0000                 0.0000
 Depolar     --     0.0000                 0.0000                 0.0000
 Atom AN      X      Y      Z        X      Y      Z        X      Y      Z
   1   9     0.01   0.24  -0.01     0.02   0.32  -0.14     0.01  -0.03   0.01
   2   5    -0.02   0.11   0.02    -0.02   0.14   0.16     0.00  -0.01  -0.02
   3   9     0.04  -0.11  -0.07     0.02  -0.26   0.12     0.00   0.02  -0.02
   4   8     0.18  -0.13   0.06     0.37  -0.05   0.02    -0.01  -0.02  -0.01
   5   6     0.08  -0.09  -0.01     0.13  -0.09  -0.01    -0.01  -0.01  -0.02
   6   6    -0.03   0.14  -0.09     0.00   0.06  -0.01    -0.01  -0.00  -0.00
   7   6    -0.03   0.04   0.02    -0.05   0.03   0.02     0.01  -0.00  -0.00
   8   6     0.01  -0.05   0.06    -0.02  -0.03   0.01     0.01  -0.00  -0.00
   9   6    -0.00   0.05  -0.09    -0.04  -0.02  -0.06     0.01   0.01   0.01
  10   6    -0.01  -0.07   0.04     0.00  -0.05  -0.02    -0.00   0.01   0.01
  11   6    -0.03   0.02   0.01    -0.01  -0.00  -0.00    -0.01   0.01   0.01
  12   6     0.06  -0.12  -0.01     0.08  -0.09  -0.08    -0.01   0.00  -0.00
  13   6    -0.07   0.05  -0.01    -0.13   0.09   0.08    -0.01   0.00   0.02
  14   6    -0.07   0.07  -0.02    -0.18  -0.03  -0.01    -0.02   0.00  -0.01
  15   6    -0.02  -0.05   0.06    -0.06  -0.11  -0.09    -0.01  -0.00  -0.01
  16   6    -0.01  -0.15   0.11     0.02   0.12   0.01    -0.00   0.00   0.01
  17   6     0.02  -0.04  -0.11     0.10   0.05   0.07    -0.00   0.00   0.00
  18   6     0.07   0.07   0.05     0.08  -0.09  -0.07     0.00  -0.01  -0.00
  19   6     0.09  -0.03   0.26     0.06  -0.04  -0.14     0.00  -0.01   0.00
  20   7    -0.01  -0.27  -0.26     0.09   0.13   0.17     0.02  -0.00   0.00
  21   6     0.02   0.02   0.11    -0.02  -0.03  -0.02     0.04   0.14   0.19
  22   6    -0.08  -0.08  -0.07    -0.02   0.05   0.05     0.02   0.11   0.15
  23   6    -0.02   0.06   0.08    -0.01  -0.02  -0.07    -0.07  -0.20  -0.25
  24   6    -0.05   0.04  -0.07     0.02   0.05   0.01     0.06   0.20   0.25
  25   6    -0.02   0.02  -0.07     0.03   0.03  -0.00    -0.02  -0.10  -0.13
  26   6     0.04   0.18   0.17    -0.05  -0.10  -0.11    -0.04  -0.17  -0.22
  27   8    -0.08  -0.04  -0.17    -0.04   0.06   0.10    -0.01   0.01   0.00
  28   6     0.01   0.19   0.17    -0.04  -0.09  -0.12     0.05   0.17   0.22
  29   6     0.03  -0.02  -0.04     0.01  -0.01   0.04     0.03   0.10   0.13
  30   6     0.03  -0.03  -0.05    -0.01  -0.02   0.05    -0.04  -0.19  -0.25
  31   6     0.05   0.02   0.11    -0.02  -0.05  -0.04     0.05   0.20   0.26
  32   6    -0.02  -0.09  -0.07    -0.03   0.05   0.06    -0.03  -0.11  -0.14
  33   6    -0.01   0.04   0.09    -0.01  -0.01  -0.06    -0.04  -0.14  -0.19
  34   6     0.08   0.09   0.06     0.03  -0.06  -0.05    -0.00   0.01  -0.01
  35   6     0.06  -0.02  -0.08     0.06   0.10   0.09    -0.00   0.01   0.01
  36   7    -0.11   0.03  -0.10    -0.17  -0.20  -0.08     0.01  -0.01   0.00
  37   6    -0.08  -0.03   0.06    -0.09   0.01  -0.01     0.01   0.01   0.00
  38   7    -0.10   0.01   0.07    -0.18   0.13   0.04     0.01   0.01   0.01
  39   1    -0.00  -0.01   0.04    -0.01  -0.00   0.02     0.00   0.00   0.00
  40   1     0.02  -0.05   0.05     0.01  -0.02   0.02     0.00  -0.00  -0.00
  41   1     0.00   0.03  -0.04    -0.01  -0.00  -0.02     0.00   0.00   0.00
  42   1    -0.00  -0.06   0.04     0.00  -0.02   0.01    -0.00  -0.00  -0.00
  43   1    -0.02  -0.02   0.03    -0.02  -0.01   0.01     0.00   0.00   0.00
  44   1     0.05  -0.02  -0.01     0.07   0.00  -0.04     0.00   0.00  -0.00
  45   1    -0.03   0.03  -0.03    -0.11  -0.02  -0.02    -0.01  -0.00  -0.00
  46   1    -0.02   0.02  -0.11     0.07   0.01   0.06     0.00   0.00  -0.00
  47   1    -0.01   0.08  -0.04     0.05  -0.06  -0.01     0.00   0.00  -0.01
  48   1    -0.04  -0.07  -0.09     0.00   0.04   0.06     0.01   0.04   0.06
  49   1     0.01   0.00   0.02     0.01  -0.01  -0.02    -0.04  -0.12  -0.15
  50   1    -0.02  -0.02  -0.07     0.01   0.04   0.03     0.04   0.13   0.16
  51   1    -0.02  -0.05  -0.08     0.02   0.04   0.03    -0.00  -0.03  -0.03
  52   1    -0.01  -0.07  -0.06     0.01   0.02   0.05     0.01   0.03   0.03
  53   1    -0.01  -0.04  -0.06     0.00   0.02   0.04    -0.03  -0.12  -0.16
  54   1     0.01   0.00   0.03     0.00  -0.01  -0.01     0.03   0.12   0.15
  55   1    -0.02  -0.07  -0.09    -0.00   0.05   0.06    -0.01  -0.04  -0.06
  56   1     0.05   0.07  -0.05    -0.03  -0.05   0.01    -0.00   0.00  -0.00
  57   1     0.04   0.02  -0.12    -0.01   0.03   0.07    -0.00   0.00   0.00
  58   1    -0.02  -0.01   0.03     0.02   0.01   0.00     0.01   0.00  -0.00
                     43                     44                     45
                        a                      a                      a 
 Frequencies --   501.8771               521.3906               530.3608
 Red. masses --    13.1606                11.6609                10.8337
 Frc consts  --     0.0000                 0.0000                 0.0000
 IR Inten    --    14.6508                12.9833                 1.0774
 Raman Activ --     0.0000                 0.0000                 0.0000
 Depolar     --     0.0000                 0.0000                 0.0000
 Atom AN      X      Y      Z        X      Y      Z        X      Y      Z
   1   9     0.15  -0.23   0.15     0.02  -0.02   0.06    -0.01   0.02  -0.01
   2   5    -0.01  -0.12  -0.18    -0.04  -0.02  -0.07     0.02   0.01   0.02
   3   9     0.09   0.22  -0.15     0.04   0.06  -0.10    -0.01  -0.02   0.02
   4   8    -0.07  -0.26  -0.19    -0.04  -0.06  -0.04     0.01   0.02   0.02
   5   6    -0.10  -0.18  -0.21    -0.03  -0.16   0.14    -0.00   0.04  -0.03
   6   6    -0.18  -0.04  -0.05    -0.04   0.10  -0.13     0.01  -0.02   0.02
   7   6     0.08   0.00  -0.00     0.01   0.04  -0.04     0.00  -0.01   0.01
   8   6     0.14  -0.01  -0.01     0.02  -0.07   0.07    -0.00   0.01  -0.02
   9   6     0.19   0.10   0.08     0.03   0.10  -0.07    -0.00  -0.02   0.02
  10   6    -0.04   0.07   0.08    -0.01  -0.05   0.08     0.00   0.01  -0.02
  11   6    -0.11   0.12   0.11    -0.02   0.05  -0.02     0.01  -0.01   0.01
  12   6    -0.05  -0.01  -0.03    -0.01  -0.03   0.07    -0.01  -0.01  -0.02
  13   6    -0.20   0.08   0.21    -0.00   0.21  -0.25    -0.01  -0.06   0.04
  14   6    -0.25   0.04  -0.01    -0.02   0.01   0.02    -0.00   0.01  -0.00
  15   6    -0.08  -0.06  -0.12     0.02  -0.26   0.39    -0.01   0.07  -0.08
  16   6    -0.01   0.03   0.09     0.01   0.08  -0.09    -0.01  -0.08   0.03
  17   6     0.08   0.03   0.04    -0.01   0.09  -0.09     0.02  -0.07  -0.03
  18   6     0.08  -0.01  -0.06    -0.01  -0.09   0.12     0.05   0.08   0.02
  19   6     0.07  -0.05   0.02    -0.01   0.03  -0.10     0.02   0.03   0.10
  20   7     0.06  -0.03   0.04    -0.01   0.09  -0.14    -0.05  -0.24  -0.29
  21   6     0.01  -0.05   0.01    -0.09   0.12   0.00     0.04   0.10   0.17
  22   6    -0.04  -0.01   0.01    -0.00   0.07  -0.00     0.02   0.11   0.15
  23   6    -0.03   0.01   0.02     0.08   0.02  -0.13    -0.07  -0.18  -0.21
[...]
   2   5    -0.00   0.00   0.00    -0.00   0.00   0.00     0.00   0.00  -0.00
   3   9     0.00   0.00  -0.00     0.00  -0.00  -0.00    -0.00  -0.00   0.00
   4   8     0.00  -0.00  -0.00     0.00  -0.00  -0.00     0.00  -0.00  -0.00
   5   6    -0.00   0.00   0.00    -0.00   0.00   0.00     0.00   0.00   0.00
   6   6     0.00   0.00   0.00     0.00   0.00   0.00    -0.00  -0.00  -0.00
   7   6     0.00  -0.00  -0.00     0.00  -0.00  -0.00     0.00  -0.00  -0.00
   8   6     0.00  -0.00  -0.00     0.00  -0.00  -0.00    -0.00  -0.00  -0.00
   9   6    -0.00  -0.00  -0.00    -0.00  -0.00  -0.00     0.00   0.00   0.00
  10   6    -0.00   0.00   0.00    -0.00   0.00   0.00    -0.00   0.00   0.00
  11   6    -0.00   0.00   0.00    -0.00   0.00   0.00     0.00   0.00   0.00
  12   6     0.00  -0.00  -0.00     0.00  -0.00  -0.00     0.00  -0.01  -0.01
  13   6     0.00   0.00   0.00     0.00   0.00  -0.00     0.00   0.00   0.00
  14   6    -0.00   0.00   0.00    -0.00  -0.00  -0.00    -0.04   0.14   0.10
  15   6    -0.00   0.00   0.00     0.00   0.00   0.00    -0.00   0.00   0.00
  16   6     0.00  -0.00  -0.00     0.00  -0.00  -0.00     0.01   0.00   0.00
  17   6    -0.00   0.00   0.00     0.00  -0.00  -0.00    -0.01   0.01   0.01
  18   6    -0.00  -0.00  -0.00    -0.00  -0.00  -0.00     0.00   0.00   0.00
  19   6    -0.00  -0.00   0.00    -0.00   0.00   0.00    -0.00  -0.00  -0.00
  20   7     0.00  -0.00   0.00     0.00   0.00  -0.00     0.00   0.00  -0.00
  21   6     0.00  -0.00  -0.00     0.00  -0.00   0.00    -0.00   0.00  -0.00
  22   6     0.06  -0.01  -0.01     0.01  -0.00  -0.00     0.00  -0.00  -0.00
  23   6    -0.10  -0.13   0.13    -0.02  -0.02   0.02    -0.00  -0.00   0.00
  24   6    -0.07   0.10  -0.06    -0.01   0.02  -0.01     0.00  -0.00   0.00
  25   6     0.03  -0.00  -0.01     0.00  -0.00  -0.00    -0.00   0.00   0.00
  26   6     0.00  -0.00  -0.00     0.00   0.00  -0.00    -0.00   0.00   0.00
  27   8     0.00   0.00  -0.00     0.00  -0.00   0.00    -0.00  -0.00   0.00
  28   6    -0.00  -0.00   0.00     0.00  -0.00  -0.00     0.00   0.00  -0.00
  29   6    -0.01   0.00   0.00     0.03  -0.01  -0.00    -0.00  -0.00   0.00
  30   6     0.01   0.01  -0.01    -0.08  -0.09   0.08     0.00   0.00  -0.00
  31   6     0.02  -0.03   0.02    -0.09   0.15  -0.10    -0.00   0.00  -0.00
  32   6    -0.01   0.00   0.00     0.06  -0.01  -0.00    -0.00   0.00  -0.00
  33   6    -0.00   0.00  -0.00     0.00  -0.00  -0.00    -0.00  -0.00   0.00
  34   6    -0.00   0.00   0.00    -0.00   0.00   0.00    -0.02   0.04   0.02
  35   6    -0.00  -0.00  -0.00    -0.00  -0.00  -0.00     0.13   0.14   0.07
  36   7    -0.00  -0.00  -0.00    -0.00  -0.00  -0.00     0.00  -0.00  -0.00
  37   6     0.00  -0.00  -0.00     0.00  -0.00  -0.00     0.00  -0.00  -0.00
  38   7     0.00  -0.00  -0.00     0.00  -0.00  -0.00    -0.00  -0.00  -0.00
  39   1    -0.00   0.00   0.00    -0.00   0.00   0.00    -0.01   0.00   0.00
  40   1    -0.00   0.00   0.00    -0.00   0.00   0.00     0.00  -0.00  -0.00
  41   1     0.00   0.00   0.00     0.00   0.00   0.00    -0.00  -0.00  -0.00
  42   1     0.00  -0.00  -0.00     0.00  -0.00  -0.00     0.00  -0.00  -0.00
  43   1     0.00  -0.00  -0.00     0.00  -0.00  -0.00     0.00  -0.01  -0.01
  44   1    -0.00   0.00   0.00    -0.00   0.00   0.00    -0.01   0.04   0.03
  45   1     0.00  -0.01  -0.01    -0.00   0.00   0.00     0.14  -0.49  -0.34
  46   1     0.00  -0.00  -0.00    -0.00   0.00   0.00     0.02  -0.04  -0.03
  47   1     0.00   0.00   0.00     0.01   0.01   0.00    -0.01  -0.01  -0.00
  48   1    -0.24   0.03   0.04    -0.04   0.00   0.01    -0.00   0.00   0.00
  49   1     0.37   0.46  -0.46     0.06   0.08  -0.08    -0.00  -0.00   0.00
  50   1     0.26  -0.38   0.23     0.04  -0.07   0.04    -0.01   0.02  -0.01
  51   1    -0.13   0.01   0.02    -0.02   0.00   0.00     0.01  -0.00  -0.00
  52   1     0.03  -0.00  -0.00    -0.14   0.02   0.01     0.00  -0.00  -0.00
  53   1    -0.05  -0.05   0.05     0.29   0.33  -0.30    -0.00  -0.00   0.00
  54   1    -0.06   0.09  -0.06     0.34  -0.55   0.37     0.00  -0.01   0.00
  55   1     0.04  -0.00  -0.00    -0.23   0.03   0.01     0.00  -0.00   0.00
  56   1     0.00  -0.01  -0.00     0.00  -0.00  -0.00     0.05  -0.12  -0.07
  57   1     0.00   0.00   0.00     0.00   0.00   0.00    -0.44  -0.51  -0.26
  58   1    -0.00   0.00   0.00    -0.00   0.00   0.00    -0.00   0.00   0.00
                    160                    161                    162
                        a                      a                      a 
 Frequencies --  3107.8225              3108.0252              3109.7128
 Red. masses --     1.8191                 1.8214                 1.8461
 Frc consts  --     0.0000                 0.0000                 0.0000
 IR Inten    --    89.7517               321.1593                24.5267
 Raman Activ --     0.0000                 0.0000                 0.0000
 Depolar     --     0.0000                 0.0000                 0.0000
 Atom AN      X      Y      Z        X      Y      Z        X      Y      Z
   1   9    -0.00   0.00   0.00     0.00  -0.00  -0.00     0.00  -0.00   0.00
   2   5     0.00  -0.00  -0.00    -0.00   0.00   0.00    -0.00  -0.00   0.00
   3   9    -0.00   0.00   0.00     0.00  -0.00  -0.00     0.00   0.00  -0.00
   4   8    -0.00   0.00   0.00     0.00  -0.00  -0.00     0.00   0.00   0.00
   5   6     0.00  -0.00  -0.00    -0.00   0.00   0.00     0.00  -0.00  -0.00
   6   6    -0.00  -0.00  -0.00     0.00   0.00   0.00    -0.00  -0.00  -0.00
   7   6     0.00  -0.00  -0.00    -0.00   0.00   0.00    -0.00   0.00   0.00
   8   6     0.00  -0.00  -0.00    -0.00   0.00   0.00    -0.00   0.00   0.00
   9   6    -0.00  -0.00  -0.00     0.00   0.00   0.00     0.00  -0.00  -0.00
  10   6     0.00  -0.00  -0.00    -0.00   0.00   0.00    -0.00   0.00   0.00
  11   6     0.00  -0.00  -0.00    -0.00   0.00   0.00    -0.00   0.00   0.00
  12   6    -0.00   0.00   0.00     0.00  -0.00  -0.00    -0.00   0.00   0.00
  13   6    -0.00  -0.00  -0.00     0.00   0.00   0.00    -0.00  -0.00  -0.00
  14   6     0.00  -0.00  -0.00    -0.00   0.00   0.00     0.00  -0.00  -0.00
  15   6    -0.00  -0.00  -0.00     0.00   0.00   0.00     0.00   0.00   0.00
  16   6    -0.00  -0.00  -0.00    -0.00   0.00   0.00    -0.01   0.00   0.00
  17   6    -0.00   0.00   0.00    -0.00   0.01   0.00    -0.11   0.21   0.12
  18   6     0.00   0.00   0.00     0.00   0.00   0.00     0.03   0.04   0.02
  19   6    -0.00  -0.00   0.00     0.00  -0.00  -0.00     0.00  -0.00  -0.00
  20   7     0.00   0.00   0.00    -0.00   0.00   0.00    -0.00   0.00   0.00
  21   6     0.00  -0.00   0.00    -0.00   0.00   0.00     0.00  -0.00   0.00
  22   6     0.10  -0.01  -0.02    -0.03   0.00   0.01    -0.00   0.00  -0.00
  23   6    -0.05  -0.07   0.07     0.02   0.03  -0.03    -0.00  -0.00   0.00
  24   6     0.09  -0.13   0.08    -0.03   0.05  -0.03     0.00  -0.00   0.00
  25   6    -0.11   0.01   0.02     0.04  -0.00  -0.01    -0.00   0.00   0.00
  26   6    -0.00  -0.00   0.00     0.00   0.00  -0.00    -0.00  -0.00   0.00
  27   8     0.00   0.00  -0.00    -0.00   0.00   0.00     0.00  -0.00  -0.00
  28   6     0.00  -0.00   0.00     0.00  -0.00   0.00    -0.00   0.00  -0.00
  29   6     0.04  -0.01  -0.00     0.11  -0.02  -0.01    -0.00   0.00   0.00
  30   6    -0.03  -0.04   0.04    -0.09  -0.11   0.10     0.00   0.00  -0.00
  31   6     0.02  -0.03   0.02     0.05  -0.09   0.06    -0.00   0.01  -0.00
  32   6    -0.04   0.01   0.00    -0.09   0.01   0.00     0.00  -0.00   0.00
  33   6    -0.00  -0.00   0.00    -0.00  -0.00   0.00     0.00   0.00  -0.00
  34   6    -0.00   0.00   0.00     0.00  -0.00  -0.00     0.00  -0.00  -0.00
  35   6    -0.00  -0.00  -0.00     0.00   0.00   0.00    -0.01  -0.02  -0.01
  36   7     0.00   0.00   0.00    -0.00  -0.00  -0.00    -0.00  -0.00  -0.00
  37   6    -0.00   0.00   0.00     0.00  -0.00  -0.00     0.00  -0.00  -0.00
  38   7     0.00   0.00   0.00     0.00  -0.00  -0.00     0.00   0.00   0.00
  39   1    -0.00   0.00   0.00     0.00  -0.00  -0.00     0.00  -0.00  -0.00
  40   1    -0.00   0.00   0.00     0.00  -0.00  -0.00     0.00  -0.00  -0.00
  41   1     0.00   0.00   0.00    -0.00  -0.00  -0.00     0.00   0.00   0.00
  42   1    -0.00   0.00   0.00     0.00  -0.00  -0.00     0.00  -0.00  -0.00
  43   1    -0.00   0.01   0.01     0.00  -0.01  -0.01     0.00  -0.01  -0.01
  44   1     0.00  -0.00  -0.00    -0.00   0.01   0.01     0.00  -0.00  -0.00
  45   1    -0.00   0.01   0.01     0.00  -0.01  -0.01    -0.00   0.00   0.00
  46   1     0.00  -0.00  -0.00     0.01  -0.02  -0.01     0.36  -0.76  -0.44
  47   1    -0.00  -0.00  -0.00    -0.01  -0.01  -0.01    -0.10  -0.11  -0.06
  48   1    -0.36   0.04   0.06     0.13  -0.01  -0.02     0.00  -0.00   0.00
  49   1     0.18   0.23  -0.23    -0.07  -0.09   0.09     0.00   0.00  -0.00
  50   1    -0.30   0.45  -0.27     0.12  -0.17   0.11    -0.00   0.00  -0.00
  51   1     0.41  -0.04  -0.06    -0.14   0.01   0.02     0.01  -0.00  -0.00
  52   1    -0.16   0.03   0.01    -0.41   0.06   0.03     0.02  -0.00  -0.00
  53   1     0.12   0.13  -0.12     0.33   0.37  -0.34    -0.01  -0.01   0.01
  54   1    -0.07   0.11  -0.07    -0.18   0.30  -0.20     0.01  -0.02   0.01
  55   1     0.13  -0.02  -0.01     0.34  -0.04  -0.02    -0.00   0.00   0.00
  56   1     0.00  -0.01  -0.00    -0.00   0.00   0.00    -0.00   0.01   0.01
  57   1     0.01   0.01   0.00    -0.00  -0.00  -0.00     0.04   0.05   0.03
  58   1     0.00  -0.00  -0.00    -0.00   0.00   0.00    -0.01   0.01   0.01
                    163                    164                    165
                        a                      a                      a 
 Frequencies --  3111.1342              3115.8494              3116.4211
 Red. masses --     1.8559                 1.8579                 1.8565
 Frc consts  --     0.0000                 0.0000                 0.0000
 IR Inten    --    12.4441               180.2385               294.6101
 Raman Activ --     0.0000                 0.0000                 0.0000
 Depolar     --     0.0000                 0.0000                 0.0000
 Atom AN      X      Y      Z        X      Y      Z        X      Y      Z
   1   9     0.00   0.00   0.00     0.00  -0.00  -0.00     0.00  -0.00  -0.00
   2   5    -0.00  -0.00   0.00    -0.00   0.00   0.00    -0.00   0.00   0.00
   3   9     0.00   0.00   0.00     0.00  -0.00  -0.00     0.00  -0.00  -0.00
   4   8     0.00  -0.00  -0.00     0.00  -0.00  -0.00     0.00  -0.00  -0.00
   5   6    -0.00   0.00   0.00    -0.00   0.00   0.00    -0.00   0.00   0.00
   6   6     0.00   0.00   0.00    -0.00  -0.00  -0.00    -0.00  -0.00  -0.00
   7   6     0.00  -0.00  -0.00    -0.00   0.00   0.00    -0.00   0.00   0.00
   8   6     0.00  -0.00  -0.00    -0.00   0.00   0.00    -0.00   0.00   0.00
   9   6    -0.01  -0.01  -0.01     0.00   0.00   0.00     0.00   0.00   0.00
  10   6    -0.06   0.01   0.02     0.00  -0.00  -0.00     0.00  -0.00  -0.00
  11   6    -0.03   0.19   0.19     0.00  -0.00  -0.00     0.00  -0.00  -0.00
  12   6     0.00  -0.00  -0.00     0.00  -0.00  -0.00     0.00  -0.00  -0.00
  13   6     0.00  -0.00  -0.00     0.00  -0.00  -0.00     0.00   0.00  -0.00
  14   6     0.00  -0.00  -0.00    -0.00  -0.00  -0.00    -0.00   0.00   0.00
  15   6     0.00  -0.00   0.00     0.00   0.00   0.00     0.00   0.00   0.00
  16   6    -0.00  -0.00  -0.00    -0.00  -0.00  -0.00    -0.00   0.00   0.00
  17   6     0.00  -0.00  -0.00    -0.00   0.00   0.00    -0.00   0.00   0.00
  18   6    -0.00  -0.00  -0.00    -0.00  -0.00  -0.00    -0.00  -0.00  -0.00
  19   6    -0.00   0.00   0.00    -0.00  -0.00   0.00    -0.00   0.00  -0.00
  20   7     0.00  -0.00  -0.00     0.00  -0.00   0.00     0.00  -0.00  -0.00
  21   6     0.00  -0.00   0.00     0.00  -0.00   0.00     0.00  -0.00   0.00
  22   6     0.00  -0.00  -0.00     0.22  -0.03  -0.04     0.05  -0.01  -0.01
  23   6     0.00   0.00  -0.00     0.05   0.06  -0.06     0.01   0.02  -0.02
  24   6     0.00  -0.00   0.00     0.00  -0.01   0.00    -0.01   0.01  -0.01
  25   6    -0.00   0.00   0.00     0.12  -0.01  -0.02     0.00  -0.00  -0.00
  26   6    -0.00  -0.00   0.00     0.00   0.00  -0.00    -0.00   0.00  -0.00
  27   8     0.00   0.00   0.00     0.00  -0.00   0.00     0.00   0.00  -0.00
  28   6    -0.00   0.00  -0.00    -0.00   0.00  -0.00     0.00  -0.00   0.00
  29   6    -0.00   0.00   0.00    -0.04   0.01   0.00     0.13  -0.02  -0.01
  30   6     0.00   0.00  -0.00    -0.01  -0.01   0.01     0.01   0.01  -0.01
  31   6    -0.00  -0.00   0.00    -0.00   0.01  -0.00     0.04  -0.06   0.04
  32   6     0.00  -0.00  -0.00    -0.03   0.00   0.00     0.22  -0.03  -0.01
  33   6     0.00   0.00  -0.00    -0.00  -0.00   0.00     0.00   0.00  -0.00
  34   6    -0.00   0.00   0.00    -0.00   0.00   0.00    -0.00   0.00   0.00
  35   6    -0.00  -0.00  -0.00    -0.00  -0.00  -0.00     0.00   0.00   0.00
  36   7    -0.00   0.00   0.00    -0.00  -0.00  -0.00    -0.00  -0.00  -0.00
  37   6     0.00   0.00   0.00     0.00  -0.00  -0.00     0.00  -0.00  -0.00
  38   7    -0.00   0.00  -0.00     0.00  -0.00  -0.00     0.00  -0.00  -0.00
  39   1    -0.01   0.00   0.01     0.00  -0.00  -0.00     0.00  -0.00  -0.00
  40   1    -0.00   0.00   0.00     0.00  -0.00  -0.00     0.00  -0.00  -0.00
  41   1     0.04   0.02   0.02    -0.00  -0.00  -0.00    -0.00  -0.00  -0.00
  42   1     0.17  -0.05  -0.05    -0.00   0.00   0.00    -0.00   0.00   0.00
  43   1     0.12  -0.66  -0.66    -0.00   0.01   0.01    -0.00   0.01   0.01
  44   1    -0.00   0.02   0.01    -0.00   0.01   0.01    -0.00   0.01   0.01
  45   1    -0.00   0.01   0.00    -0.00   0.00   0.00     0.00  -0.00  -0.00
  46   1    -0.01   0.01   0.01     0.00  -0.00  -0.00     0.01  -0.01  -0.01
  47   1     0.00   0.00   0.00     0.00   0.00   0.00     0.01   0.01   0.01
  48   1    -0.02   0.00   0.00    -0.76   0.09   0.13    -0.16   0.02   0.03
  49   1    -0.00  -0.00   0.00    -0.15  -0.20   0.19    -0.04  -0.05   0.05
  50   1    -0.00   0.00  -0.00    -0.01   0.02  -0.01     0.02  -0.03   0.02
  51   1     0.01  -0.00  -0.00    -0.42   0.04   0.07    -0.01   0.00   0.00
  52   1     0.01  -0.00  -0.00     0.13  -0.02  -0.01    -0.45   0.07   0.03
  53   1    -0.00  -0.00   0.00     0.03   0.03  -0.03    -0.04  -0.04   0.04
  54   1     0.00  -0.00   0.00     0.01  -0.02   0.01    -0.13   0.21  -0.14
  55   1    -0.01   0.00   0.00     0.11  -0.01  -0.01    -0.77   0.10   0.05
  56   1     0.00  -0.00  -0.00     0.01  -0.01  -0.01     0.00  -0.01  -0.00
  57   1     0.00   0.00   0.00     0.00   0.00   0.00    -0.00  -0.00  -0.00
  58   1     0.00  -0.00  -0.00    -0.00   0.00   0.00    -0.00   0.00   0.00
                    166                    167                    168
                        a                      a                      a 
 Frequencies --  3118.6090              3118.8069              3127.8207
 Red. masses --     1.9003                 1.9059                 1.8165
 Frc consts  --     0.0000                 0.0000                 0.0000
 IR Inten    --   255.5798                41.7843               226.3495
 Raman Activ --     0.0000                 0.0000                 0.0000
 Depolar     --     0.0000                 0.0000                 0.0000
 Atom AN      X      Y      Z        X      Y      Z        X      Y      Z
   1   9     0.00   0.00   0.00    -0.00  -0.00   0.00    -0.00  -0.00  -0.00
   2   5     0.00  -0.00  -0.00     0.00   0.00  -0.00    -0.00   0.00   0.00
   3   9     0.00   0.00   0.00    -0.00  -0.00   0.00    -0.00   0.00  -0.00
   4   8    -0.00   0.00   0.00    -0.00   0.00   0.00    -0.00   0.00   0.00
   5   6     0.00  -0.00   0.00     0.00   0.00   0.00    -0.01  -0.01  -0.00
   6   6    -0.00   0.00   0.00    -0.00  -0.00   0.00     0.00  -0.00  -0.00
   7   6    -0.00   0.00   0.00    -0.00   0.00   0.00     0.03  -0.01  -0.01
   8   6     0.00  -0.00  -0.00     0.00  -0.00  -0.00     0.00  -0.00  -0.00
   9   6    -0.00  -0.00  -0.00    -0.00  -0.00  -0.00    -0.00   0.00   0.00
  10   6    -0.00   0.00   0.00    -0.00   0.00   0.00     0.00  -0.00  -0.00
  11   6    -0.00   0.00   0.00    -0.00   0.00   0.00     0.00  -0.00  -0.00
  12   6    -0.00   0.01   0.00    -0.00   0.00   0.00     0.06  -0.22  -0.13
  13   6    -0.00   0.00   0.00    -0.00   0.00   0.00     0.01  -0.01  -0.00
  14   6     0.00  -0.00  -0.00     0.00  -0.00  -0.00     0.00  -0.02  -0.01
  15   6    -0.00  -0.00  -0.00    -0.00  -0.00  -0.00     0.00  -0.00  -0.00
  16   6     0.00  -0.00   0.00    -0.00  -0.00  -0.00    -0.00   0.00   0.00
  17   6     0.00  -0.00  -0.00     0.00  -0.00  -0.00    -0.00   0.00   0.00
  18   6     0.00   0.00   0.00     0.00   0.00   0.00    -0.00  -0.00  -0.00
  19   6     0.00  -0.00  -0.00     0.00  -0.00   0.00    -0.00   0.00   0.00
  20   7    -0.00   0.00  -0.00    -0.00  -0.00   0.00    -0.00   0.00   0.00
  21   6    -0.00   0.00  -0.00     0.00  -0.00   0.00     0.00  -0.00   0.00
  22   6    -0.05   0.01   0.01     0.06  -0.01  -0.01    -0.00   0.00   0.00
  23   6    -0.03  -0.04   0.04     0.03   0.04  -0.04    -0.00  -0.00   0.00
  24   6     0.06  -0.09   0.05    -0.04   0.06  -0.04     0.00  -0.00   0.00
  25   6     0.18  -0.01  -0.03    -0.11   0.01   0.02     0.00  -0.00  -0.00
  26   6     0.00   0.00  -0.00    -0.00  -0.00   0.00    -0.00  -0.00   0.00
  27   8    -0.00  -0.00   0.00    -0.00   0.00  -0.00     0.00  -0.00  -0.00
  28   6     0.00  -0.00   0.00     0.00  -0.00   0.00    -0.00   0.00  -0.00
  29   6     0.13  -0.02  -0.01     0.15  -0.02  -0.01     0.00  -0.00  -0.00
  30   6     0.05   0.05  -0.05     0.06   0.07  -0.07     0.00   0.00  -0.00
  31   6    -0.02   0.04  -0.02    -0.04   0.06  -0.04    -0.00   0.00  -0.00
  32   6    -0.04   0.00   0.00    -0.09   0.01   0.01    -0.00   0.00   0.00
  33   6    -0.00  -0.00   0.00    -0.00  -0.00   0.00     0.00   0.00  -0.00
  34   6     0.00  -0.00  -0.00     0.00   0.00   0.00    -0.00   0.00   0.00
  35   6    -0.00  -0.00  -0.00    -0.00  -0.00  -0.00    -0.00  -0.00  -0.00
  36   7     0.00   0.00   0.00     0.00   0.00   0.00    -0.00   0.00   0.00
  37   6    -0.00   0.00  -0.00    -0.00   0.00   0.00     0.00   0.00   0.00
  38   7     0.00   0.00   0.00    -0.00   0.00   0.00    -0.00   0.00   0.00
  39   1     0.00  -0.00  -0.00     0.00  -0.00  -0.00    -0.11   0.03   0.04
  40   1    -0.00   0.00   0.00    -0.00   0.00   0.00    -0.00   0.01   0.01
  41   1     0.01   0.00   0.00     0.00   0.00   0.00    -0.00  -0.00  -0.00
  42   1     0.01  -0.00  -0.00     0.00  -0.00  -0.00    -0.00   0.00   0.00
  43   1     0.00  -0.01  -0.01     0.00  -0.00  -0.00    -0.00   0.01   0.01
  44   1     0.01  -0.03  -0.02     0.00  -0.01  -0.00    -0.20   0.80   0.48
  45   1    -0.00   0.00   0.00    -0.00   0.00   0.00    -0.02   0.05   0.04
  46   1    -0.00   0.00   0.00    -0.00   0.00   0.00     0.00  -0.00  -0.00
  47   1    -0.00  -0.00  -0.00    -0.00  -0.00  -0.00     0.00   0.00   0.00
  48   1     0.18  -0.02  -0.03    -0.20   0.02   0.03     0.01  -0.00  -0.00
  49   1     0.11   0.13  -0.13    -0.09  -0.12   0.12     0.01   0.01  -0.01
  50   1    -0.19   0.28  -0.17     0.14  -0.21   0.13    -0.01   0.01  -0.01
  51   1    -0.60   0.05   0.09     0.38  -0.03  -0.06    -0.01   0.00   0.00
  52   1    -0.43   0.07   0.03    -0.52   0.08   0.04    -0.01   0.00   0.00
  53   1    -0.15  -0.17   0.15    -0.21  -0.24   0.22    -0.01  -0.01   0.01
  54   1     0.07  -0.12   0.08     0.12  -0.20   0.14     0.01  -0.01   0.01
  55   1     0.14  -0.02  -0.01     0.32  -0.04  -0.02     0.02  -0.00  -0.00
  56   1    -0.00   0.00   0.00    -0.00   0.00   0.00     0.00  -0.00  -0.00
  57   1     0.00   0.00   0.00     0.00   0.00   0.00     0.01   0.01   0.00
  58   1     0.00  -0.00  -0.00     0.00  -0.00  -0.00     0.00  -0.00  -0.00
