 Entering Gaussian System
 *********************************************
 Gaussian 98:
 frequency output generated by the xtb code
 *********************************************
                         Standard orientation:
 --------------------------------------------------------------------
  Center     Atomic     Atomic              Coordinates (Angstroms)
  Number     Number      Type              X           Y           Z
 --------------------------------------------------------------------
    1          6             0       -3.401299    2.108146   -1.254826
    2          6             0       -2.887805    1.383305    0.007643
    3          6             0       -3.402252    2.112204    1.267357
    4          6             0       -3.452303   -0.017676    0.010958
    5          6             0       -4.811232   -0.254924    0.011146
    6          6             0       -5.332359   -1.544790    0.021139
    7          6             0       -4.465735   -2.643391    0.033683
    8          6             0       -3.112676   -2.444533    0.033534
    9          6             0       -2.581199   -1.135227    0.020082
   10          7             0       -1.233378   -0.971634    0.013945
   11          6             0       -0.560864    0.213436    0.001632
   12          6             0       -1.381703    1.434128    0.006997
   13          6             0       -0.722892    2.653311    0.007132
   14          6             0        0.644957    2.736696    0.003690
   15          6             0        1.443635    1.522919   -0.005788
   16          6             0        0.842816    0.275498   -0.010326
   17          6             0        1.699765   -0.989428   -0.061443
   18          6             0        1.341992   -1.936800    1.116211
   19          6             0        1.484945   -1.672869   -1.431722
   20          6             0        3.189400   -0.681609    0.015574
   21          6             0        4.111470   -1.711399    0.042043
   22          6             0        5.479526   -1.472008    0.079893
   23          6             0        5.951891   -0.161705    0.089799
   24          6             0        5.062332    0.883405    0.062030
   25          6             0        3.680075    0.638654    0.022029
   26          7             0        2.800329    1.679179   -0.007250
   27          1             0       -4.487303    2.117997   -1.274484
   28          1             0       -3.044021    1.594546   -2.144936
   29          1             0       -3.047779    3.134794   -1.283500
   30          1             0       -4.488258    2.121140    1.286776
   31          1             0       -3.049753    3.139287    1.292786
   32          1             0       -3.045048    1.602055    2.159546
   33          1             0       -5.503002    0.574655    0.004270
   34          1             0       -6.400065   -1.696345    0.020669
   35          1             0       -4.868214   -3.645497    0.043441
   36          1             0       -2.428356   -3.282400    0.043157
   37          1             0       -0.685044   -1.817644    0.042493
   38          1             0       -1.292023    3.571141    0.009560
   39          1             0        1.151997    3.688572    0.003085
   40          1             0        0.637863   -1.465215    1.798473
   41          1             0        2.233158   -2.169757    1.694366
   42          1             0        0.926871   -2.882828    0.769861
   43          1             0        2.017933   -2.619741   -1.473401
   44          1             0        0.436855   -1.854688   -1.654329
   45          1             0        1.880025   -1.028720   -2.215447
   46          1             0        3.769039   -2.736196    0.033541
   47          1             0        6.171337   -2.299575    0.099020
   48          1             0        7.014027    0.030832    0.119565
   49          1             0        5.409685    1.907512    0.070649
   50          1             0        3.168664    2.619118    0.003435
 --------------------------------------------------------------------
     1 basis functions        1 primitive gaussians
     1 alpha electrons        1 beta electrons
 
 Harmonic frequencies (cm**-1), IR intensities (km*mol⁻¹),
 Raman scattering activities (A**4/amu), Raman depolarization ratios,
 reduced masses (AMU), force constants (mDyne/A) and normal coordinates:
                      1                      2                      3
                        a                      a                      a 
 Frequencies --    23.6073                38.2286                72.5142
 Red. masses --    10.2736                 9.9242                 9.7153
 Frc consts  --     0.0000                 0.0000                 0.0000
 IR Inten    --     0.6191                 0.5273                 1.8467
 Raman Activ --     0.0000                 0.0000                 0.0000
 Depolar     --     0.0000                 0.0000                 0.0000
 Atom AN      X      Y      Z        X      Y      Z        X      Y      Z
   1   6     0.19  -0.10  -0.23     0.07  -0.19  -0.21    -0.15   0.20   0.10
   2   6    -0.00  -0.00  -0.10    -0.00  -0.00  -0.07    -0.00   0.00  -0.08
   3   6    -0.19   0.09  -0.23    -0.07   0.19  -0.22     0.15  -0.20   0.10
   4   6     0.00  -0.00  -0.07    -0.00  -0.00   0.08    -0.00   0.00  -0.14
   5   6     0.00  -0.00  -0.23    -0.00   0.00   0.22     0.00  -0.00  -0.24
   6   6     0.00  -0.00  -0.18    -0.00   0.00   0.32     0.00  -0.00  -0.10
   7   6     0.00  -0.00   0.04    -0.00   0.00   0.23     0.00   0.00   0.22
   8   6     0.00   0.00   0.18    -0.00   0.00   0.06     0.00   0.00   0.30
   9   6     0.00   0.00   0.12    -0.00  -0.00  -0.01     0.00   0.00   0.09
  10   7     0.00   0.00   0.23    -0.00  -0.00  -0.16     0.00   0.00   0.11
  11   6    -0.00   0.00   0.14     0.00  -0.00  -0.08     0.00  -0.00  -0.06
  12   6    -0.00   0.00   0.10    -0.00  -0.00  -0.01    -0.00   0.00  -0.18
  13   6    -0.00   0.00   0.18    -0.00  -0.00   0.01    -0.00  -0.00  -0.22
  14   6     0.00   0.00   0.26    -0.00  -0.00   0.07    -0.00  -0.00  -0.13
  15   6     0.00   0.00   0.19    -0.00  -0.00   0.06    -0.00  -0.00  -0.01
  16   6     0.00   0.00   0.14    -0.00  -0.00  -0.05     0.00  -0.00  -0.04
  17   6    -0.00   0.00   0.07     0.00   0.00  -0.15     0.00  -0.00  -0.05
  18   6     0.09   0.00   0.10    -0.03  -0.13  -0.26     0.07   0.01  -0.02
  19   6    -0.12   0.00   0.09     0.04   0.15  -0.23    -0.09  -0.02  -0.02
  20   6     0.00   0.00  -0.05     0.00  -0.00  -0.06     0.01   0.00  -0.10
  21   6     0.01  -0.00  -0.19     0.00  -0.00  -0.14     0.01   0.00  -0.26
  22   6     0.01  -0.00  -0.29    -0.00  -0.00  -0.02     0.01   0.00  -0.16
  23   6     0.01  -0.00  -0.24    -0.00  -0.00   0.20    -0.00   0.00   0.16
  24   6     0.01  -0.00  -0.10    -0.00  -0.00   0.26    -0.01   0.00   0.30
  25   6     0.00  -0.00  -0.00    -0.00  -0.00   0.13    -0.00   0.00   0.13
  26   7     0.00   0.00   0.15    -0.00  -0.00   0.18    -0.00   0.00   0.17
  27   1     0.05  -0.02  -0.11     0.02  -0.06  -0.08    -0.04   0.07   0.07
  28   1     0.09  -0.05  -0.04     0.04  -0.10  -0.03    -0.08   0.10  -0.01
  29   1     0.06  -0.03  -0.08     0.02  -0.06  -0.10    -0.04   0.06   0.06
  30   1    -0.06   0.02  -0.11    -0.02   0.06  -0.08     0.04  -0.07   0.07
  31   1    -0.06   0.03  -0.08    -0.02   0.06  -0.10     0.04  -0.06   0.06
  32   1    -0.09   0.05  -0.04    -0.04   0.09  -0.03     0.08  -0.10  -0.01
  33   1     0.00  -0.00  -0.11    -0.00   0.00   0.07    -0.00  -0.00  -0.12
  34   1     0.00  -0.00  -0.09    -0.00   0.00   0.13     0.00  -0.00  -0.06
  35   1     0.00  -0.00   0.02    -0.00   0.00   0.09     0.00   0.00   0.11
  36   1     0.00   0.00   0.10     0.00  -0.00  -0.00     0.00   0.00   0.16
  37   1     0.00   0.00   0.09    -0.00  -0.00  -0.07     0.00   0.00   0.07
  38   1    -0.00   0.00   0.05    -0.00  -0.00   0.00    -0.00   0.00  -0.08
  39   1    -0.00   0.00   0.10    -0.00  -0.00   0.03     0.00  -0.00  -0.05
  40   1     0.05   0.00   0.05    -0.00  -0.05  -0.06     0.07   0.02   0.03
  41   1     0.04  -0.01   0.00    -0.01  -0.07  -0.09     0.04  -0.04  -0.05
  42   1     0.01   0.00   0.04    -0.02  -0.02  -0.11    -0.03   0.02   0.01
  43   1    -0.04  -0.00   0.01     0.01   0.05  -0.09    -0.04  -0.02  -0.01
  44   1    -0.04   0.00   0.05     0.01   0.05  -0.08    -0.03   0.01   0.01
  45   1    -0.05  -0.00   0.02     0.01   0.07  -0.04    -0.03  -0.02  -0.02
  46   1     0.00  -0.00  -0.06     0.00  -0.00  -0.08     0.01   0.00  -0.13
  47   1     0.00  -0.00  -0.11    -0.00  -0.00  -0.02     0.00   0.00  -0.09
  48   1     0.00  -0.00  -0.09    -0.00  -0.00   0.09    -0.00   0.00   0.08
  49   1     0.00  -0.00  -0.02    -0.00  -0.00   0.12    -0.00   0.00   0.15
  50   1     0.00   0.00   0.05    -0.00  -0.00   0.08    -0.00   0.00   0.07
                      4                      5                      6
                        a                      a                      a 
 Frequencies --    88.1565               102.6813               107.9233
 Red. masses --    10.1780                10.5513                10.3444
 Frc consts  --     0.0000                 0.0000                 0.0000
 IR Inten    --     0.0718                 3.9373                 1.1394
 Raman Activ --     0.0000                 0.0000                 0.0000
 Depolar     --     0.0000                 0.0000                 0.0000
 Atom AN      X      Y      Z        X      Y      Z        X      Y      Z
   1   6    -0.12  -0.07  -0.03    -0.04   0.02   0.01    -0.04   0.18  -0.02
   2   6    -0.00   0.00  -0.03    -0.02   0.02   0.00    -0.00  -0.00  -0.15
   3   6     0.09   0.06  -0.03    -0.11  -0.03  -0.00     0.04  -0.19  -0.02
   4   6     0.01  -0.01   0.04     0.06  -0.02  -0.02    -0.01  -0.00  -0.22
   5   6     0.01  -0.02   0.22     0.08  -0.15  -0.04    -0.01   0.01  -0.11
   6   6     0.03  -0.03   0.16     0.20  -0.21  -0.01    -0.01   0.01   0.18
   7   6     0.05  -0.03  -0.15     0.28  -0.15   0.06    -0.02   0.01   0.33
   8   6     0.04  -0.01  -0.28     0.26  -0.03   0.06    -0.01   0.00   0.11
   9   6     0.02   0.00  -0.14     0.13   0.02   0.00    -0.01  -0.00  -0.17
  10   7     0.02   0.02  -0.13     0.10   0.13  -0.04    -0.01  -0.01  -0.32
  11   6     0.00   0.03  -0.07     0.01   0.16  -0.03    -0.00  -0.01  -0.19
  12   6    -0.00   0.02  -0.13    -0.02   0.12   0.03    -0.00  -0.01  -0.13
  13   6    -0.00   0.02  -0.19    -0.01   0.11   0.10    -0.00  -0.01   0.10
  14   6    -0.00   0.02  -0.06     0.02   0.11   0.06    -0.00  -0.00   0.26
  15   6     0.01   0.03   0.12     0.04   0.12  -0.04    -0.00  -0.00   0.14
  16   6     0.00   0.03   0.04     0.01   0.15  -0.06    -0.00  -0.00  -0.03
  17   6    -0.02   0.02   0.13    -0.10   0.10  -0.05     0.01  -0.00   0.04
  18   6    -0.01   0.16   0.25    -0.13   0.18   0.02    -0.11   0.00   0.00
  19   6    -0.05  -0.13   0.21    -0.15   0.08  -0.04     0.16   0.00   0.01
  20   6    -0.02   0.00   0.05    -0.10   0.00  -0.06     0.00   0.00   0.13
  21   6    -0.03  -0.01  -0.15    -0.20  -0.09  -0.01     0.00   0.00   0.20
  22   6    -0.02  -0.04  -0.30    -0.19  -0.22   0.07     0.01   0.01   0.03
  23   6    -0.01  -0.04  -0.17    -0.09  -0.25   0.08     0.01   0.01  -0.24
  24   6     0.00  -0.03   0.08     0.00  -0.17   0.01     0.01   0.00  -0.21
  25   6    -0.00  -0.00   0.17    -0.02  -0.03  -0.05     0.00   0.00   0.03
  26   7     0.01   0.01   0.34     0.06   0.05  -0.09    -0.00  -0.00   0.18
  27   1    -0.04  -0.03   0.02    -0.01  -0.02  -0.01    -0.01   0.05  -0.00
  28   1    -0.06  -0.03  -0.01     0.01   0.02   0.00    -0.01   0.10  -0.03
  29   1    -0.04  -0.02  -0.03    -0.03   0.01   0.02    -0.02   0.06   0.04
  30   1     0.03   0.02   0.02    -0.03  -0.03  -0.01     0.01  -0.05  -0.00
  31   1     0.03   0.02  -0.03    -0.05  -0.00   0.01     0.02  -0.06   0.04
  32   1     0.05   0.03  -0.01    -0.03  -0.01   0.00     0.01  -0.10  -0.03
  33   1     0.00  -0.01   0.12    -0.00  -0.06  -0.02    -0.00   0.00  -0.05
  34   1     0.01  -0.01   0.09     0.06  -0.09  -0.01    -0.00   0.00   0.09
  35   1     0.02  -0.01  -0.07     0.10  -0.05   0.03    -0.01   0.00   0.18
  36   1     0.02   0.00  -0.14     0.10   0.01   0.03    -0.01   0.00   0.06
  37   1     0.01   0.01  -0.02     0.04   0.05  -0.02    -0.00  -0.00  -0.08
  38   1    -0.00   0.01  -0.09     0.00   0.03   0.05    -0.00  -0.00   0.05
  39   1    -0.00   0.01  -0.03    -0.00   0.03   0.03    -0.00  -0.00   0.13
  40   1    -0.00   0.07   0.06    -0.06   0.05  -0.02    -0.08  -0.01  -0.04
  41   1     0.00   0.07   0.08    -0.04   0.09   0.03    -0.05   0.02   0.04
  42   1    -0.00   0.03   0.11    -0.00   0.03   0.02     0.01  -0.01  -0.01
  43   1    -0.08  -0.08   0.11    -0.10  -0.01   0.01     0.05  -0.00   0.02
  44   1    -0.02   0.02   0.03    -0.05   0.08  -0.04     0.05   0.00  -0.03
  45   1     0.05  -0.10   0.05     0.01  -0.01  -0.01     0.07  -0.00   0.02
  46   1    -0.02  -0.00  -0.06    -0.09  -0.01  -0.00    -0.00   0.00   0.10
  47   1    -0.01  -0.01  -0.14    -0.08  -0.08   0.04     0.00   0.00   0.02
  48   1    -0.00  -0.02  -0.08    -0.02  -0.10   0.04     0.00   0.00  -0.13
  49   1     0.01  -0.01   0.06     0.03  -0.06   0.01     0.00   0.00  -0.11
  50   1     0.01   0.00   0.10     0.04   0.01  -0.02    -0.00   0.00   0.05
                      7                      8                      9
                        a                      a                      a 
 Frequencies --   114.5213               142.6011               153.7658
 Red. masses --     9.5469                 3.3490                 2.8482
 Frc consts  --     0.0000                 0.0000                 0.0000
 IR Inten    --     0.4787                 5.0731                 0.2445
 Raman Activ --     0.0000                 0.0000                 0.0000
 Depolar     --     0.0000                 0.0000                 0.0000
 Atom AN      X      Y      Z        X      Y      Z        X      Y      Z
   1   6    -0.12  -0.03   0.00     0.19   0.11   0.00    -0.02   0.02  -0.02
   2   6    -0.01   0.00  -0.03     0.00  -0.00   0.01     0.01  -0.01  -0.05
   3   6     0.07   0.02  -0.00    -0.18  -0.12   0.00     0.05  -0.04  -0.02
   4   6     0.01  -0.01   0.02     0.00  -0.00  -0.08     0.00  -0.01  -0.05
   5   6     0.01  -0.04  -0.01     0.00   0.00   0.04    -0.00   0.01   0.02
   6   6     0.04  -0.05  -0.05    -0.00   0.01   0.12    -0.02   0.02   0.08
   7   6     0.06  -0.04  -0.05    -0.00   0.00   0.04    -0.03   0.01   0.01
   8   6     0.06  -0.01   0.02    -0.00   0.00  -0.07    -0.03  -0.00  -0.06
   9   6     0.02   0.01   0.06    -0.00  -0.00  -0.08    -0.01  -0.01  -0.06
  10   7     0.02   0.03   0.15     0.00  -0.00   0.00    -0.00  -0.03   0.00
  11   6     0.00   0.03   0.17     0.00  -0.00   0.09     0.00  -0.02   0.00
  12   6    -0.01   0.03  -0.08     0.00  -0.00   0.11     0.01  -0.02  -0.06
  13   6     0.00   0.03  -0.31     0.00   0.00  -0.08     0.00  -0.01  -0.02
  14   6     0.00   0.03  -0.18    -0.00   0.00  -0.18     0.00   0.00   0.08
  15   6     0.01   0.03   0.13    -0.00   0.00  -0.04     0.01   0.00   0.06
  16   6    -0.01   0.03   0.25    -0.00  -0.00   0.05     0.00   0.00   0.05
  17   6    -0.02   0.03   0.11    -0.00  -0.00   0.03     0.00   0.02  -0.01
  18   6    -0.07  -0.26  -0.15     0.01  -0.02   0.02     0.19   0.05   0.08
  19   6     0.02   0.40  -0.08    -0.02   0.02   0.03    -0.16   0.03   0.02
  20   6    -0.02  -0.01   0.19    -0.00  -0.00   0.02     0.00   0.02  -0.15
  21   6    -0.05  -0.03   0.16     0.00   0.00  -0.04    -0.02  -0.00  -0.07
  22   6    -0.04  -0.07  -0.02     0.00   0.00  -0.06    -0.02  -0.03   0.05
  23   6    -0.01  -0.08  -0.21     0.00   0.00   0.00    -0.01  -0.03   0.09
  24   6     0.01  -0.05  -0.13    -0.00   0.00   0.05     0.01  -0.01   0.02
  25   6    -0.00  -0.01   0.08    -0.00   0.00   0.03     0.01   0.01  -0.08
  26   7     0.01   0.00   0.14    -0.00  -0.00  -0.02     0.01   0.01  -0.00
  27   1    -0.03  -0.02   0.02     0.06  -0.24  -0.21    -0.01   0.00   0.00
  28   1    -0.05  -0.01  -0.01     0.35   0.24   0.00    -0.01   0.01  -0.01
  29   1    -0.05  -0.00  -0.01    -0.20   0.13   0.20    -0.01   0.01  -0.00
  30   1     0.02   0.01   0.02    -0.05   0.24  -0.21     0.01  -0.01   0.00
  31   1     0.03   0.00  -0.01     0.20  -0.13   0.21     0.02  -0.01   0.00
  32   1     0.04   0.01  -0.01    -0.35  -0.24   0.00     0.02  -0.02  -0.01
  33   1    -0.00  -0.02  -0.00     0.00   0.00   0.03     0.00   0.01   0.01
  34   1     0.01  -0.02  -0.03    -0.00   0.00   0.07    -0.01   0.01   0.05
  35   1     0.02  -0.01  -0.03    -0.00   0.00   0.02    -0.01   0.01   0.01
  36   1     0.02   0.00   0.01    -0.00  -0.00  -0.03    -0.01  -0.00  -0.03
  37   1     0.01   0.01   0.03    -0.00  -0.00   0.00    -0.00  -0.01   0.02
  38   1     0.00   0.01  -0.16    -0.00  -0.00  -0.05    -0.00  -0.00  -0.01
  39   1    -0.00   0.01  -0.10    -0.00   0.00  -0.10    -0.00   0.00   0.04
  40   1    -0.05  -0.14  -0.03     0.00  -0.01   0.01    -0.22  -0.15  -0.15
  41   1    -0.03  -0.09  -0.03     0.01  -0.01   0.00     0.02   0.35   0.22
  42   1     0.01  -0.06  -0.12     0.00  -0.00   0.00     0.42  -0.14   0.02
  43   1     0.07   0.16  -0.12    -0.01   0.00   0.00     0.22   0.16  -0.13
  44   1     0.01   0.06  -0.01    -0.01   0.02   0.00    -0.03  -0.29   0.17
  45   1    -0.06   0.21   0.03     0.00   0.01   0.01    -0.36   0.16  -0.03
  46   1    -0.02  -0.01   0.07     0.00  -0.00  -0.02    -0.02   0.00  -0.01
  47   1    -0.02  -0.02  -0.02     0.00   0.00  -0.03    -0.01  -0.01   0.04
  48   1    -0.00  -0.03  -0.12     0.00   0.00   0.00    -0.00  -0.01   0.06
  49   1     0.01  -0.02  -0.08    -0.00   0.00   0.03     0.01  -0.01   0.02
  50   1     0.01  -0.00   0.00    -0.00  -0.00  -0.02     0.00   0.00   0.01
                     10                     11                     12
                        a                      a                      a 
 Frequencies --   178.7679               187.3477               205.9859
 Red. masses --     5.5323                 6.5633                 1.4138
 Frc consts  --     0.0000                 0.0000                 0.0000
 IR Inten    --     2.1727                 1.3699                 3.8168
 Raman Activ --     0.0000                 0.0000                 0.0000
 Depolar     --     0.0000                 0.0000                 0.0000
 Atom AN      X      Y      Z        X      Y      Z        X      Y      Z
   1   6    -0.12   0.12  -0.05     0.03  -0.00   0.07    -0.06  -0.07  -0.01
   2   6    -0.02   0.04  -0.13    -0.03   0.04   0.13    -0.01  -0.01  -0.00
   3   6     0.04  -0.02  -0.07    -0.14   0.12   0.04    -0.08  -0.08   0.01
   4   6    -0.01   0.03  -0.11    -0.02   0.03   0.11    -0.00  -0.01  -0.01
   5   6    -0.00  -0.03   0.08    -0.01  -0.03  -0.03    -0.01   0.01  -0.00
   6   6     0.05  -0.06   0.19     0.05  -0.06  -0.15    -0.01   0.01   0.01
   7   6     0.09  -0.04  -0.03     0.08  -0.03   0.00    -0.01   0.02   0.00
   8   6     0.07   0.02  -0.18     0.07   0.03   0.13    -0.01   0.01  -0.01
   9   6     0.01   0.04  -0.09     0.00   0.05   0.06     0.00   0.00  -0.01
  10   7    -0.00   0.07   0.17    -0.01   0.07  -0.17     0.01   0.01  -0.00
  11   6    -0.01   0.05   0.04    -0.01   0.05  -0.14     0.01   0.01  -0.00
  12   6    -0.02   0.05  -0.14    -0.02   0.05   0.11    -0.00  -0.00   0.00
  13   6     0.00   0.03  -0.02     0.00   0.04   0.07     0.01   0.00   0.01
  14   6     0.02  -0.01   0.22     0.00  -0.01  -0.18     0.01   0.01  -0.01
  15   6     0.00  -0.02   0.11    -0.00  -0.01  -0.14     0.02   0.02  -0.01
  16   6     0.00  -0.01   0.06    -0.01  -0.01  -0.16     0.00   0.02  -0.00
  17   6    -0.02  -0.05  -0.00    -0.01  -0.04  -0.01     0.01   0.03   0.01
  18   6     0.03  -0.07  -0.01    -0.14   0.02  -0.01     0.01   0.05   0.01
  19   6    -0.13  -0.08   0.04     0.19  -0.17   0.03     0.02   0.04   0.00
  20   6    -0.00  -0.03  -0.07    -0.01  -0.02   0.10     0.01   0.02   0.01
  21   6     0.04  -0.00  -0.02     0.01  -0.01   0.05    -0.01  -0.00  -0.00
  22   6     0.03   0.02   0.12     0.01  -0.01  -0.13    -0.00  -0.03  -0.01
  23   6     0.01   0.03   0.09     0.01  -0.01  -0.13     0.02  -0.04   0.00
  24   6    -0.02   0.00  -0.08    -0.01  -0.01   0.08     0.04  -0.02   0.01
  25   6    -0.01  -0.03  -0.11    -0.01  -0.02   0.15     0.03   0.01   0.00
  26   7    -0.00  -0.02  -0.09    -0.00  -0.02   0.14     0.03   0.02  -0.01
  27   1    -0.04   0.00  -0.00     0.01  -0.01   0.00    -0.02   0.32   0.21
  28   1    -0.03   0.07  -0.03     0.03  -0.01   0.03    -0.35  -0.26   0.00
  29   1    -0.07   0.05   0.02     0.00   0.00   0.02     0.30  -0.13  -0.22
  30   1     0.01   0.01  -0.01    -0.04   0.02  -0.01    -0.02   0.30  -0.21
  31   1     0.02  -0.01  -0.01    -0.06   0.04  -0.01     0.28  -0.13   0.22
  32   1     0.02  -0.02  -0.03    -0.05   0.06   0.03    -0.35  -0.26  -0.00
  33   1    -0.01  -0.02   0.04    -0.01  -0.02  -0.02     0.00   0.01  -0.00
  34   1     0.02  -0.03   0.11     0.02  -0.03  -0.09    -0.00   0.00   0.01
  35   1     0.03  -0.01  -0.02     0.03  -0.01   0.00    -0.00   0.00   0.00
  36   1     0.03   0.01  -0.09     0.03   0.02   0.06    -0.00  -0.00  -0.00
  37   1     0.00   0.02   0.11    -0.00   0.02  -0.06     0.00   0.00   0.00
  38   1     0.01   0.01  -0.02     0.01   0.02   0.06     0.00   0.00   0.01
  39   1     0.01  -0.01   0.11     0.01  -0.00  -0.08    -0.00   0.01  -0.00
  40   1     0.27   0.11   0.17     0.02   0.06   0.02     0.03   0.03   0.02
  41   1     0.07  -0.30  -0.20    -0.04  -0.08  -0.03     0.01  -0.01  -0.01
  42   1    -0.30   0.11   0.02    -0.12   0.04   0.00    -0.03   0.03   0.01
  43   1     0.14   0.08  -0.06     0.36   0.13  -0.07     0.03   0.02  -0.01
  44   1    -0.03  -0.23   0.13     0.09  -0.40   0.13     0.01  -0.01   0.01
  45   1    -0.25   0.06  -0.02    -0.25   0.09  -0.03    -0.02   0.03   0.00
  46   1     0.02  -0.01  -0.01     0.01  -0.01   0.03    -0.01   0.00  -0.00
  47   1     0.01   0.01   0.07     0.00  -0.00  -0.07    -0.00  -0.01  -0.01
  48   1    -0.00   0.02   0.05     0.00   0.00  -0.08     0.01  -0.02   0.00
  49   1    -0.01   0.00  -0.04    -0.01  -0.00   0.03     0.02  -0.01   0.00
  50   1     0.00  -0.01  -0.02     0.00  -0.01   0.04     0.01   0.00  -0.01
                     13                     14                     15
                        a                      a                      a 
 Frequencies --   209.6815               219.1309               226.3575
 Red. masses --     8.9014                 8.8836                10.0056
 Frc consts  --     0.0000                 0.0000                 0.0000
 IR Inten    --     0.8163                 5.4997                 6.2317
 Raman Activ --     0.0000                 0.0000                 0.0000
 Depolar     --     0.0000                 0.0000                 0.0000
 Atom AN      X      Y      Z        X      Y      Z        X      Y      Z
   1   6    -0.15  -0.12   0.01    -0.27   0.25   0.09     0.24   0.07  -0.01
   2   6    -0.00   0.01   0.03    -0.15   0.13  -0.02     0.12   0.04   0.02
   3   6     0.13   0.14   0.01    -0.26   0.23  -0.10     0.17   0.05   0.03
   4   6    -0.00   0.01   0.18    -0.12   0.10  -0.02     0.13   0.04  -0.02
   5   6    -0.00  -0.00   0.09    -0.09  -0.08  -0.01     0.14   0.02  -0.02
   6   6     0.01  -0.01  -0.21     0.05  -0.15   0.02     0.18   0.01   0.01
   7   6     0.01  -0.00  -0.14     0.14  -0.09   0.01     0.16   0.00   0.03
   8   6     0.01   0.01   0.18     0.10   0.06  -0.01     0.16   0.02  -0.01
   9   6     0.00   0.01   0.20    -0.04   0.13  -0.01     0.09   0.02  -0.03
  10   7    -0.00   0.01   0.03    -0.06   0.12   0.03     0.08  -0.00  -0.05
  11   6    -0.00   0.00  -0.15    -0.05   0.08   0.05     0.03   0.00   0.03
  12   6    -0.00   0.00  -0.14    -0.10   0.09   0.00     0.08   0.01   0.05
  13   6    -0.00   0.00  -0.13    -0.01   0.02  -0.01     0.05   0.06  -0.02
  14   6     0.00  -0.01   0.18     0.03  -0.10   0.01     0.00   0.02  -0.06
  15   6    -0.00  -0.01   0.16     0.02  -0.11   0.01    -0.09  -0.03   0.02
  16   6     0.00  -0.00  -0.15     0.01  -0.07   0.04    -0.04  -0.08   0.04
  17   6     0.00  -0.01  -0.17     0.05  -0.10   0.02    -0.14  -0.15   0.00
  18   6     0.02   0.07  -0.09     0.11  -0.20  -0.04    -0.15  -0.25  -0.06
  19   6    -0.03  -0.15  -0.10     0.08  -0.14   0.03    -0.23  -0.21   0.03
  20   6     0.00  -0.00  -0.15     0.08  -0.09   0.00    -0.16  -0.09  -0.01
  21   6     0.01   0.01   0.04     0.16  -0.03  -0.02    -0.04   0.02   0.01
  22   6    -0.00   0.01   0.24     0.15   0.04  -0.03    -0.06   0.19   0.03
  23   6     0.00   0.01  -0.02     0.10   0.06   0.02    -0.15   0.23  -0.01
  24   6     0.00   0.01  -0.20     0.02  -0.00   0.03    -0.24   0.12  -0.03
  25   6     0.00  -0.00  -0.07     0.05  -0.08  -0.01    -0.20  -0.04   0.00
  26   7    -0.00   0.00   0.32     0.02  -0.11  -0.06    -0.15  -0.04   0.07
  27   1    -0.04  -0.17  -0.04    -0.08   0.09   0.08     0.07   0.11   0.02
  28   1     0.06   0.04   0.01    -0.13   0.09  -0.01     0.01  -0.04   0.01
  29   1    -0.18   0.01   0.05    -0.06   0.07   0.04     0.16  -0.01  -0.05
  30   1     0.04   0.22  -0.07    -0.08   0.08  -0.08     0.05   0.05   0.00
  31   1     0.20  -0.02   0.07    -0.07   0.06  -0.04     0.09  -0.00   0.03
  32   1    -0.11  -0.05   0.01    -0.12   0.09  -0.00     0.03  -0.01   0.00
  33   1    -0.00  -0.00   0.04    -0.06  -0.05  -0.00     0.04   0.00  -0.01
  34   1     0.00  -0.00  -0.13     0.02  -0.07   0.01     0.05  -0.00   0.01
  35   1     0.00  -0.00  -0.09     0.07  -0.04   0.00     0.05   0.00   0.02
  36   1     0.00   0.00   0.08     0.06   0.05  -0.01     0.05   0.01  -0.00
  37   1     0.00   0.00   0.00    -0.02   0.03  -0.01     0.02   0.00  -0.01
  38   1     0.00   0.00  -0.07     0.03   0.02  -0.01     0.01   0.01  -0.01
  39   1     0.00  -0.00   0.08     0.02  -0.03   0.00     0.02  -0.01  -0.04
  40   1    -0.01   0.03  -0.05    -0.09  -0.15  -0.07    -0.11  -0.13  -0.04
  41   1     0.00   0.06  -0.01     0.01   0.07   0.07    -0.05  -0.02   0.02
  42   1     0.03   0.00  -0.01     0.18  -0.11  -0.05     0.04  -0.10  -0.05
  43   1    -0.04  -0.06   0.01    -0.07  -0.09   0.06    -0.10  -0.08   0.03
  44   1    -0.01  -0.02  -0.03     0.01   0.06  -0.04    -0.07  -0.03   0.01
  45   1     0.02  -0.09  -0.05     0.13  -0.10   0.01    -0.05  -0.09  -0.01
  46   1     0.00   0.00   0.02     0.06  -0.02  -0.00     0.02  -0.00   0.00
  47   1    -0.00   0.00   0.14     0.06   0.02  -0.02     0.00   0.07   0.02
  48   1     0.00   0.01  -0.01     0.02   0.03   0.01    -0.05   0.09  -0.01
  49   1    -0.00   0.00  -0.10    -0.01   0.01   0.02    -0.11   0.05  -0.01
  50   1    -0.00   0.00   0.13     0.00  -0.03  -0.02    -0.03  -0.01   0.01
                     16                     17                     18
                        a                      a                      a 
 Frequencies --   245.3994               269.9765               290.1724
 Red. masses --     9.6639                11.0612                 9.2096
 Frc consts  --     0.0000                 0.0000                 0.0000
 IR Inten    --     2.3802                 3.1087                 1.0395
 Raman Activ --     0.0000                 0.0000                 0.0000
 Depolar     --     0.0000                 0.0000                 0.0000
 Atom AN      X      Y      Z        X      Y      Z        X      Y      Z
   1   6    -0.14  -0.06  -0.07     0.08   0.12  -0.07    -0.25  -0.32  -0.06
   2   6     0.03   0.00  -0.10     0.00  -0.00  -0.11    -0.01  -0.01   0.02
   3   6     0.26   0.06  -0.04    -0.06  -0.16  -0.05    -0.23  -0.29   0.09
   4   6     0.03   0.01   0.06     0.01   0.00  -0.08     0.12  -0.01  -0.00
   5   6     0.03   0.01   0.07     0.01   0.01   0.05     0.10   0.15  -0.03
   6   6     0.03   0.01  -0.07     0.00   0.02   0.21     0.02   0.21  -0.02
   7   6     0.02   0.00  -0.09     0.00   0.01  -0.11    -0.01   0.20   0.03
   8   6     0.02  -0.01   0.09     0.00   0.00  -0.13     0.02   0.08  -0.00
   9   6     0.02  -0.00   0.11     0.01   0.00   0.14     0.10   0.03  -0.03
  10   7     0.01  -0.00   0.07     0.01   0.01   0.59     0.10   0.10  -0.05
  11   6    -0.00  -0.00  -0.08     0.00   0.01  -0.02     0.04   0.13   0.09
  12   6     0.02  -0.00  -0.20     0.00   0.01  -0.05    -0.01   0.14   0.03
  13   6    -0.00   0.01   0.10    -0.02   0.01   0.07    -0.01   0.15  -0.05
  14   6    -0.00   0.00   0.28    -0.02   0.02  -0.03    -0.00   0.09   0.03
  15   6    -0.03  -0.00  -0.07    -0.01   0.02  -0.17     0.02   0.06   0.07
  16   6    -0.01  -0.01   0.00     0.00   0.01  -0.24     0.03   0.03   0.06
  17   6    -0.03  -0.02   0.09     0.01   0.01  -0.15    -0.01  -0.04   0.01
  18   6    -0.15  -0.07   0.01    -0.05   0.03  -0.16     0.06  -0.22  -0.10
  19   6     0.16   0.02   0.05     0.18  -0.15  -0.11     0.10  -0.24   0.09
  20   6    -0.04  -0.00   0.18    -0.02   0.05   0.03    -0.02   0.01  -0.01
  21   6    -0.04   0.00   0.03    -0.06   0.02   0.13    -0.03   0.01  -0.04
  22   6    -0.03   0.02  -0.27    -0.06  -0.03   0.00    -0.03  -0.03  -0.01
  23   6    -0.05   0.02  -0.01    -0.03  -0.04  -0.13    -0.02  -0.03   0.04
  24   6    -0.06   0.02   0.24    -0.00  -0.01   0.05    -0.00  -0.02  -0.01
  25   6    -0.05  -0.00   0.05    -0.01   0.04   0.13    -0.01   0.02  -0.04
  26   7    -0.03  -0.00  -0.44    -0.01   0.05   0.18     0.02   0.05  -0.04
  27   1    -0.04  -0.12  -0.04     0.02   0.09  -0.01    -0.07  -0.18  -0.01
  28   1     0.02   0.04  -0.03    -0.01   0.03  -0.03    -0.04  -0.12   0.01
  29   1    -0.13   0.02   0.02     0.07   0.02  -0.01    -0.15  -0.07  -0.08
  30   1     0.08   0.14  -0.03    -0.02  -0.10   0.00    -0.07  -0.16   0.02
  31   1     0.19  -0.03   0.04    -0.06  -0.03   0.01    -0.14  -0.06   0.07
  32   1     0.00  -0.06  -0.03     0.02  -0.05  -0.03    -0.03  -0.10   0.00
  33   1     0.01   0.00   0.04     0.00   0.00   0.00     0.05   0.06  -0.01
  34   1     0.01   0.00  -0.04     0.00   0.01   0.12     0.00   0.07  -0.01
  35   1     0.00   0.00  -0.06    -0.00   0.00  -0.09    -0.02   0.06   0.02
  36   1     0.01  -0.00   0.04    -0.00  -0.00  -0.09    -0.02   0.00   0.00
  37   1     0.01  -0.00   0.00     0.00   0.00   0.12     0.04   0.04  -0.02
  38   1    -0.00   0.00   0.06    -0.01   0.00   0.06    -0.01   0.04  -0.04
  39   1     0.00  -0.00   0.19    -0.01   0.00   0.02     0.01   0.02  -0.00
  40   1    -0.10  -0.05  -0.03    -0.08  -0.02  -0.09    -0.00  -0.12  -0.01
  41   1    -0.07   0.01   0.05    -0.03   0.08   0.01     0.02  -0.06  -0.03
  42   1     0.02  -0.03  -0.03     0.07  -0.03  -0.05     0.05  -0.06  -0.07
  43   1     0.07   0.02   0.01     0.05  -0.05   0.02     0.04  -0.07   0.09
  44   1     0.06  -0.02  -0.01     0.05  -0.05  -0.04     0.04  -0.10   0.01
  45   1     0.05   0.03   0.03     0.07  -0.08  -0.05     0.04  -0.12  -0.01
  46   1    -0.01   0.00   0.02    -0.03   0.01   0.05    -0.01   0.00  -0.02
  47   1    -0.00   0.01  -0.17    -0.02  -0.01  -0.01    -0.01  -0.01  -0.00
  48   1    -0.02   0.01  -0.01    -0.01  -0.02  -0.09    -0.01  -0.01   0.03
  49   1    -0.02   0.01   0.12     0.01  -0.01   0.01     0.01  -0.01  -0.00
  50   1    -0.01  -0.00  -0.11    -0.01   0.01   0.06     0.01   0.01  -0.02
                     19                     20                     21
                        a                      a                      a 
 Frequencies --   294.9715               310.8524               320.2620
 Red. masses --     9.7232                 9.7012                 9.5714
 Frc consts  --     0.0000                 0.0000                 0.0000
 IR Inten    --     0.9059                 2.3504                 0.5122
 Raman Activ --     0.0000                 0.0000                 0.0000
 Depolar     --     0.0000                 0.0000                 0.0000
 Atom AN      X      Y      Z        X      Y      Z        X      Y      Z
   1   6    -0.08  -0.17  -0.09     0.25  -0.12  -0.15    -0.06   0.06   0.12
   2   6    -0.01  -0.01  -0.02    -0.05   0.02   0.03     0.04  -0.02   0.03
   3   6    -0.07  -0.20   0.05     0.21  -0.10   0.20    -0.16   0.03  -0.07
   4   6    -0.04   0.00   0.00    -0.25   0.07  -0.01     0.13  -0.04   0.00
   5   6    -0.04   0.01   0.04    -0.25  -0.10  -0.05     0.13   0.05  -0.06
   6   6    -0.03   0.01   0.01    -0.09  -0.19   0.00     0.04   0.09   0.02
   7   6    -0.01   0.03  -0.04     0.03  -0.11   0.05    -0.03   0.04   0.04
   8   6    -0.01   0.03   0.01    -0.00   0.07  -0.03    -0.01  -0.06  -0.05
   9   6    -0.03   0.04   0.04    -0.16   0.14  -0.03     0.08  -0.09   0.00
  10   7    -0.04   0.10   0.05    -0.18   0.20   0.01     0.08  -0.10   0.07
  11   6     0.00   0.08  -0.14    -0.04   0.11   0.21     0.01  -0.05   0.29
  12   6     0.01   0.09  -0.06    -0.02   0.08   0.08     0.03  -0.03   0.09
  13   6     0.07   0.06   0.11    -0.01   0.06  -0.18     0.02  -0.04  -0.28
  14   6     0.09   0.01  -0.04     0.03   0.01   0.08     0.03  -0.01   0.14
  15   6     0.07  -0.01  -0.13     0.03   0.01   0.16    -0.01  -0.02   0.22
  16   6     0.02   0.03  -0.07     0.01   0.04   0.03     0.00  -0.00  -0.01
  17   6    -0.03  -0.02  -0.00     0.01   0.03  -0.05    -0.03  -0.00  -0.11
  18   6    -0.25   0.09   0.02    -0.15   0.05  -0.09    -0.36   0.30   0.02
  19   6    -0.37   0.15  -0.03     0.14  -0.14   0.02     0.15  -0.00  -0.14
  20   6     0.07  -0.20   0.03     0.04   0.02  -0.04     0.00  -0.11  -0.06
  21   6     0.24  -0.07   0.10     0.04   0.02  -0.06     0.07  -0.06  -0.06
  22   6     0.25   0.11   0.00     0.05  -0.01  -0.03     0.07   0.06  -0.06
  23   6     0.17   0.15  -0.07     0.06  -0.02   0.05     0.00   0.08   0.05
  24   6     0.02   0.01   0.05     0.06  -0.01  -0.00    -0.07   0.01   0.02
  25   6     0.05  -0.17   0.08     0.06   0.01  -0.07    -0.04  -0.10  -0.09
  26   7     0.08  -0.16   0.04     0.05   0.01  -0.06    -0.01  -0.10  -0.08
  27   1    -0.02  -0.09  -0.04     0.07   0.00  -0.11    -0.02   0.03   0.08
  28   1     0.01  -0.06  -0.01     0.11  -0.11   0.01    -0.06   0.04   0.01
  29   1    -0.06  -0.04  -0.05     0.11  -0.05  -0.10    -0.01   0.02   0.04
  30   1    -0.02  -0.09   0.02     0.06  -0.02   0.13    -0.05  -0.03  -0.06
  31   1    -0.05  -0.05   0.06     0.08  -0.04   0.08    -0.08   0.02  -0.05
  32   1     0.00  -0.09  -0.01     0.12  -0.08   0.00    -0.06   0.06   0.01
  33   1    -0.02   0.00   0.02    -0.10  -0.05  -0.03     0.05   0.02  -0.04
  34   1    -0.01  -0.00   0.01    -0.02  -0.09   0.00     0.01   0.05   0.01
  35   1     0.00   0.01  -0.03     0.04  -0.05   0.03    -0.03   0.02   0.02
  36   1    -0.00   0.01  -0.00     0.03   0.05  -0.01    -0.02  -0.03  -0.02
  37   1    -0.01   0.03   0.04    -0.06   0.04  -0.05     0.03  -0.02  -0.07
  38   1     0.03   0.02   0.08     0.01   0.03  -0.12     0.00  -0.01  -0.18
  39   1     0.03   0.00   0.01     0.01   0.00   0.00     0.01  -0.00   0.02
  40   1    -0.10   0.05  -0.04    -0.09   0.00  -0.07    -0.13   0.16  -0.07
  41   1    -0.10   0.04   0.06    -0.07   0.03   0.02    -0.14   0.10   0.07
  42   1    -0.05   0.01   0.01    -0.01   0.01  -0.05    -0.11   0.07   0.06
  43   1    -0.15   0.02  -0.08     0.06  -0.03   0.06     0.10   0.03  -0.03
  44   1    -0.13   0.10   0.05     0.05  -0.08  -0.00     0.06  -0.06  -0.07
  45   1    -0.13   0.06  -0.01     0.04  -0.07  -0.02     0.03   0.03  -0.02
  46   1     0.11  -0.03   0.04     0.01   0.01  -0.01     0.04  -0.02   0.00
  47   1     0.09   0.05  -0.01     0.01  -0.01  -0.01     0.04   0.03  -0.02
  48   1     0.04   0.07  -0.05     0.02  -0.01   0.04    -0.00   0.04   0.04
  49   1    -0.04   0.02   0.02     0.02  -0.00   0.01    -0.05   0.01   0.03
  50   1     0.05  -0.05   0.01     0.01   0.00  -0.00     0.01  -0.03   0.01
                     22                     23                     24
                        a                      a                      a 
 Frequencies --   328.7708               341.4361               356.8099
 Red. masses --     9.4883                 9.7636                 9.7424
 Frc consts  --     0.0000                 0.0000                 0.0000
 IR Inten    --     0.7709                 3.9958                 1.4693
 Raman Activ --     0.0000                 0.0000                 0.0000
 Depolar     --     0.0000                 0.0000                 0.0000
 Atom AN      X      Y      Z        X      Y      Z        X      Y      Z
   1   6     0.23   0.23  -0.08    -0.02  -0.10  -0.11    -0.10   0.04   0.01
   2   6    -0.01   0.01  -0.10    -0.03   0.06  -0.01     0.03  -0.04  -0.09
   3   6    -0.22  -0.27  -0.03     0.09  -0.03   0.09     0.07   0.01  -0.11
   4   6    -0.01   0.01   0.09    -0.00   0.07  -0.02     0.01  -0.05  -0.03
   5   6    -0.00   0.01   0.41     0.01   0.05  -0.07    -0.00  -0.05   0.01
   6   6     0.01   0.00  -0.04     0.08   0.03   0.03    -0.04  -0.03   0.03
   7   6     0.02   0.01  -0.26     0.10   0.05   0.02    -0.07  -0.03  -0.05
   8   6     0.01   0.02   0.27     0.09   0.08  -0.05    -0.05  -0.04   0.02
   9   6    -0.00   0.02   0.21     0.01   0.09   0.01    -0.01  -0.05   0.06
  10   7    -0.00   0.02  -0.17    -0.01   0.07   0.10     0.00  -0.03   0.07
  11   6    -0.01   0.01  -0.13    -0.05   0.05  -0.05     0.03  -0.02  -0.02
  12   6    -0.01   0.02  -0.14    -0.04   0.07   0.00     0.04  -0.02   0.01
  13   6    -0.01   0.02  -0.18    -0.07   0.08   0.13     0.07  -0.00   0.22
  14   6    -0.01   0.00   0.05    -0.07  -0.01  -0.08     0.05   0.04  -0.14
  15   6    -0.02  -0.01   0.09    -0.14  -0.06  -0.08     0.07   0.05  -0.11
  16   6    -0.01  -0.01   0.05    -0.07  -0.07  -0.01     0.01   0.04   0.07
  17   6    -0.00  -0.01   0.07     0.01  -0.07   0.06    -0.04   0.03   0.17
  18   6     0.02  -0.04   0.06     0.17   0.09   0.23    -0.37  -0.10  -0.02
  19   6     0.06   0.06   0.04     0.33   0.20  -0.11     0.09  -0.00   0.18
  20   6    -0.00  -0.02   0.01     0.01  -0.18  -0.02    -0.01   0.04   0.04
  21   6     0.00  -0.02  -0.08     0.06  -0.16  -0.19     0.00   0.06  -0.40
  22   6     0.00  -0.00  -0.02     0.03  -0.01   0.05     0.00   0.02   0.04
  23   6    -0.02   0.00   0.08    -0.12   0.04   0.10     0.06   0.01   0.25
  24   6    -0.03  -0.00  -0.05    -0.19  -0.04  -0.15     0.09   0.02  -0.29
  25   6    -0.02  -0.02  -0.07    -0.15  -0.16  -0.05     0.07   0.05  -0.08
  26   7    -0.02  -0.02  -0.05    -0.17  -0.19   0.12     0.08   0.06   0.17
  27   1     0.07   0.17  -0.03    -0.01  -0.06  -0.06    -0.03  -0.01   0.03
  28   1     0.03   0.05  -0.03     0.03  -0.06  -0.00    -0.04   0.05  -0.03
  29   1     0.17   0.03  -0.00    -0.03  -0.02  -0.06    -0.05   0.02   0.03
  30   1    -0.06  -0.19  -0.01     0.03   0.01   0.06     0.02   0.03  -0.03
  31   1    -0.17  -0.04   0.03     0.04  -0.02   0.06     0.04  -0.00  -0.04
  32   1    -0.01  -0.08  -0.03     0.04  -0.05  -0.00     0.01   0.01  -0.03
  33   1    -0.00   0.00   0.16    -0.01   0.01  -0.03     0.00  -0.01   0.00
  34   1     0.00  -0.00  -0.06     0.02  -0.01   0.02    -0.01   0.00   0.02
  35   1     0.01  -0.00  -0.18     0.03   0.01   0.01    -0.02  -0.01  -0.03
  36   1     0.01   0.01   0.11     0.04   0.03  -0.03    -0.02  -0.02   0.00
  37   1     0.00   0.01  -0.03     0.01   0.02  -0.01    -0.00  -0.01  -0.02
  38   1    -0.00   0.01  -0.05    -0.02   0.02   0.07     0.02  -0.00   0.11
  39   1     0.00  -0.00   0.05     0.00  -0.02  -0.03     0.01   0.02  -0.06
  40   1     0.01  -0.01   0.02     0.07   0.06   0.06    -0.17  -0.07  -0.05
  41   1     0.01  -0.02   0.01     0.07   0.06   0.04    -0.15  -0.05   0.06
  42   1     0.00  -0.01   0.01     0.04   0.01   0.13    -0.06  -0.02  -0.09
  43   1     0.02   0.02   0.00     0.12   0.07  -0.07     0.05   0.01   0.07
  44   1     0.02   0.01  -0.01     0.11   0.06  -0.12     0.04  -0.04   0.04
  45   1     0.03   0.03   0.03     0.14   0.14   0.06     0.02  -0.00   0.05
  46   1     0.00  -0.01  -0.03     0.04  -0.05  -0.08     0.00   0.02  -0.18
  47   1     0.00   0.00  -0.00     0.04   0.02   0.04    -0.01  -0.00   0.05
  48   1    -0.01   0.00   0.05    -0.04   0.04   0.07     0.02  -0.01   0.16
  49   1    -0.01  -0.00  -0.02    -0.08  -0.00  -0.07     0.03   0.00  -0.15
  50   1    -0.00  -0.01  -0.01    -0.03  -0.06   0.01     0.02   0.02  -0.03
                     25                     26                     27
                        a                      a                      a 
 Frequencies --   380.8062               396.9703               409.8861
 Red. masses --    10.5334                10.9147                10.6224
 Frc consts  --     0.0000                 0.0000                 0.0000
 IR Inten    --     0.3465                 0.0291                 0.4726
 Raman Activ --     0.0000                 0.0000                 0.0000
 Depolar     --     0.0000                 0.0000                 0.0000
 Atom AN      X      Y      Z        X      Y      Z        X      Y      Z
   1   6     0.19  -0.08   0.15    -0.02  -0.02  -0.08    -0.10  -0.07  -0.03
   2   6     0.01  -0.00   0.24    -0.12   0.03   0.00     0.04   0.06  -0.01
   3   6    -0.19   0.08   0.14    -0.02  -0.01   0.08    -0.08  -0.09   0.02
   4   6     0.01  -0.01   0.16    -0.05   0.13   0.00    -0.05   0.08   0.01
   5   6     0.01  -0.01  -0.24    -0.03   0.15  -0.01    -0.04   0.02  -0.02
   6   6    -0.00  -0.00   0.06     0.12   0.11   0.01     0.03  -0.02   0.02
   7   6    -0.01  -0.01   0.14     0.24   0.20  -0.00     0.05  -0.02  -0.01
   8   6    -0.01  -0.02  -0.22     0.21   0.23  -0.01     0.03   0.05  -0.01
   9   6    -0.00  -0.01   0.08     0.08   0.22   0.01    -0.06   0.08   0.04
  10   7    -0.00   0.00   0.17     0.09  -0.08   0.01    -0.08   0.03  -0.01
  11   6    -0.01   0.00  -0.51     0.07  -0.14  -0.01    -0.02  -0.03   0.03
  12   6     0.01   0.01  -0.25    -0.15  -0.30  -0.00     0.08   0.03   0.01
  13   6     0.02   0.01  -0.23    -0.25  -0.35   0.00     0.32  -0.10  -0.00
  14   6     0.02   0.00   0.13    -0.25  -0.23  -0.01     0.32  -0.30  -0.00
  15   6     0.01  -0.00   0.10    -0.00  -0.06   0.00     0.15  -0.30  -0.00
  16   6    -0.00   0.00  -0.06     0.08  -0.05   0.01    -0.01  -0.18  -0.01
  17   6    -0.01  -0.00   0.11     0.05  -0.02   0.01    -0.08  -0.10  -0.01
  18   6    -0.05  -0.10   0.03    -0.16   0.03  -0.01    -0.01   0.03   0.13
  19   6     0.01   0.07   0.09    -0.08   0.02   0.02     0.01   0.05  -0.12
  20   6    -0.01   0.02   0.08     0.04   0.07   0.02    -0.15   0.16   0.01
  21   6    -0.01   0.01  -0.07     0.02   0.05  -0.04    -0.24   0.15  -0.02
  22   6    -0.01   0.01  -0.04     0.03  -0.04  -0.00    -0.26   0.15  -0.00
  23   6     0.00   0.00   0.09     0.06  -0.06   0.03    -0.06   0.08   0.00
  24   6     0.02   0.01  -0.06     0.08  -0.02  -0.03     0.06   0.16  -0.01
  25   6     0.01   0.01  -0.07     0.05   0.08  -0.00     0.09   0.09   0.02
  26   7     0.01   0.01  -0.07     0.00   0.09  -0.00     0.09  -0.01   0.01
  27   1     0.05   0.00  -0.01    -0.00  -0.01  -0.05    -0.03  -0.07   0.01
  28   1     0.09  -0.05   0.07     0.02  -0.03   0.00    -0.02  -0.03  -0.00
  29   1     0.08  -0.03   0.03    -0.01  -0.00  -0.04    -0.07  -0.01  -0.04
  30   1    -0.06  -0.00  -0.02    -0.01  -0.01   0.05    -0.02  -0.07  -0.01
  31   1    -0.08   0.03   0.03    -0.01  -0.00   0.04    -0.06  -0.01   0.04
  32   1    -0.09   0.06   0.07     0.02  -0.03   0.00    -0.02  -0.04  -0.00
  33   1     0.00  -0.00  -0.15    -0.01   0.04  -0.01    -0.03  -0.01  -0.02
  34   1    -0.00   0.00   0.02     0.04  -0.01   0.00     0.01  -0.02   0.01
  35   1    -0.01  -0.00   0.06     0.09   0.05  -0.00     0.02  -0.01  -0.01
  36   1    -0.00  -0.01  -0.15     0.07   0.08  -0.01     0.03   0.03  -0.01
  37   1     0.00   0.00   0.06    -0.03  -0.05   0.00    -0.03  -0.00  -0.02
  38   1     0.01   0.00  -0.03    -0.08  -0.11   0.00     0.13  -0.00  -0.01
  39   1     0.01  -0.00   0.11    -0.12  -0.04  -0.00     0.13  -0.10  -0.00
  40   1    -0.03  -0.06   0.01    -0.06   0.03  -0.03     0.01   0.05   0.02
  41   1    -0.02  -0.04   0.01    -0.07  -0.01   0.03     0.00   0.03   0.03
  42   1     0.01  -0.03  -0.03    -0.05   0.01  -0.01    -0.02  -0.00   0.09
  43   1    -0.01   0.02   0.01    -0.04  -0.00  -0.02     0.00   0.02  -0.08
  44   1    -0.00   0.03   0.02    -0.03   0.02   0.03     0.01   0.03  -0.06
  45   1     0.01   0.03   0.04    -0.04   0.01  -0.00     0.02   0.06   0.01
  46   1    -0.00   0.00  -0.03    -0.01   0.02  -0.02    -0.07   0.05  -0.01
  47   1    -0.00  -0.00  -0.02    -0.00  -0.02  -0.00    -0.09   0.03  -0.00
  48   1     0.00  -0.00   0.06     0.02  -0.02   0.02    -0.01  -0.03  -0.00
  49   1     0.01   0.00  -0.03     0.04  -0.01  -0.02     0.01   0.05  -0.01
  50   1     0.00   0.00   0.02    -0.02   0.03  -0.00    -0.03   0.02   0.01
                     28                     29                     30
                        a                      a                      a 
 Frequencies --   417.6361               436.0813               452.8902
 Red. masses --    10.0493                 9.8137                10.9110
 Frc consts  --     0.0000                 0.0000                 0.0000
 IR Inten    --     1.4673                 1.4775                 9.1304
 Raman Activ --     0.0000                 0.0000                 0.0000
 Depolar     --     0.0000                 0.0000                 0.0000
 Atom AN      X      Y      Z        X      Y      Z        X      Y      Z
   1   6     0.05  -0.07   0.06    -0.03  -0.01  -0.01    -0.01  -0.06   0.16
   2   6     0.00   0.00   0.11     0.00  -0.00  -0.01     0.12  -0.15   0.01
   3   6    -0.06   0.06   0.06     0.03   0.00  -0.02    -0.03  -0.06  -0.15
   4   6     0.00   0.00  -0.19    -0.01   0.00  -0.08    -0.18  -0.02   0.03
   5   6     0.00   0.01   0.32    -0.01  -0.00   0.03    -0.24  -0.10  -0.00
   6   6     0.01  -0.00  -0.27    -0.00  -0.00   0.01    -0.20  -0.11  -0.01
   7   6     0.01   0.00   0.09     0.00   0.00  -0.04     0.01   0.10   0.02
   8   6     0.00   0.00   0.12     0.00   0.01   0.05    -0.00   0.28  -0.02
   9   6    -0.00  -0.00  -0.64    -0.00   0.01  -0.04    -0.00   0.21  -0.00
  10   7    -0.00   0.00   0.31     0.00   0.00   0.10     0.09   0.02  -0.01
  11   6    -0.00  -0.00  -0.08     0.01  -0.01  -0.23     0.32  -0.09   0.05
  12   6     0.01   0.00  -0.05     0.01  -0.01   0.05     0.17  -0.20  -0.03
  13   6     0.02  -0.01  -0.06     0.01  -0.01   0.18     0.12  -0.06  -0.04
  14   6     0.02  -0.02   0.04     0.01  -0.01  -0.20     0.02   0.17   0.05
  15   6     0.01  -0.02  -0.05     0.01  -0.00   0.28     0.12   0.21  -0.10
  16   6    -0.00  -0.01  -0.05     0.01  -0.00   0.09     0.19   0.04  -0.01
  17   6     0.00  -0.00   0.01    -0.01  -0.00   0.04     0.05  -0.06   0.01
  18   6    -0.04   0.00  -0.00    -0.06  -0.02   0.00     0.05  -0.02   0.04
  19   6     0.04   0.02  -0.01     0.06   0.02   0.02     0.03   0.00  -0.03
  20   6    -0.01   0.01   0.05    -0.00   0.00  -0.20    -0.03  -0.13  -0.01
  21   6    -0.01   0.00  -0.05    -0.02  -0.00   0.28    -0.05  -0.13   0.02
  22   6    -0.02   0.01   0.00    -0.01   0.01  -0.23    -0.07   0.01  -0.02
  23   6    -0.01   0.01   0.03    -0.01   0.01   0.06    -0.18   0.08  -0.00
  24   6    -0.00   0.01  -0.05    -0.01   0.01   0.13    -0.17   0.04   0.01
  25   6     0.00   0.00   0.04     0.01  -0.00  -0.57    -0.13  -0.06  -0.04
  26   7     0.00  -0.01   0.01     0.01   0.01   0.12     0.09   0.09   0.05
  27   1     0.01  -0.02   0.01    -0.01  -0.01   0.01    -0.00  -0.04   0.10
  28   1     0.02  -0.05   0.03    -0.01   0.00  -0.01    -0.04   0.03   0.01
  29   1     0.02  -0.02  -0.01    -0.02   0.00  -0.01    -0.03  -0.01   0.07
  30   1    -0.02   0.01   0.01     0.01   0.01   0.00    -0.01  -0.04  -0.10
  31   1    -0.03   0.02  -0.01     0.01  -0.00  -0.01    -0.04  -0.01  -0.07
  32   1    -0.02   0.04   0.03     0.01   0.00  -0.01    -0.05   0.03  -0.00
  33   1    -0.00   0.00   0.27    -0.00  -0.00   0.04    -0.08  -0.03  -0.01
  34   1     0.00  -0.00  -0.09    -0.00  -0.00   0.02    -0.05  -0.07  -0.01
  35   1     0.00   0.00   0.15     0.00   0.00  -0.02     0.07  -0.00   0.01
  36   1     0.00   0.00   0.22     0.00   0.00   0.04     0.00   0.08  -0.01
  37   1    -0.00   0.00   0.14    -0.00  -0.00   0.04    -0.04  -0.04  -0.00
  38   1     0.01  -0.00   0.00     0.00  -0.00   0.05    -0.02  -0.05  -0.00
  39   1     0.01  -0.01   0.06     0.00  -0.00  -0.21    -0.02   0.07   0.07
  40   1    -0.03  -0.00  -0.01    -0.01   0.00   0.00     0.02   0.00   0.01
  41   1    -0.02   0.01   0.01    -0.03  -0.03   0.01     0.02  -0.01   0.01
  42   1     0.01  -0.01  -0.01    -0.03   0.00  -0.01     0.00  -0.01   0.02
  43   1     0.01   0.00  -0.01     0.02   0.01   0.02     0.01   0.00  -0.02
  44   1     0.01   0.01   0.00     0.02   0.01  -0.02     0.01   0.00  -0.01
  45   1     0.02   0.01   0.00     0.04   0.01   0.02     0.01   0.02   0.01
  46   1    -0.00   0.00  -0.04    -0.01  -0.00   0.25    -0.00  -0.04   0.02
  47   1    -0.00   0.00  -0.00    -0.00   0.00  -0.07     0.01   0.03  -0.01
  48   1    -0.00  -0.00   0.01    -0.01   0.00   0.12    -0.05   0.03   0.01
  49   1    -0.00   0.00  -0.03    -0.01   0.00   0.21    -0.07   0.02   0.01
  50   1    -0.00  -0.00  -0.02     0.00   0.00   0.12     0.08   0.00  -0.02
                     31                     32                     33
                        a                      a                      a 
 Frequencies --   462.1766               505.8353               508.8515
 Red. masses --    10.6098                10.0337                10.6486
 Frc consts  --     0.0000                 0.0000                 0.0000
 IR Inten    --     1.8398                 3.1530                 6.4274
 Raman Activ --     0.0000                 0.0000                 0.0000
 Depolar     --     0.0000                 0.0000                 0.0000
 Atom AN      X      Y      Z        X      Y      Z        X      Y      Z
   1   6    -0.03  -0.02   0.02     0.02   0.11  -0.08     0.06  -0.01   0.05
   2   6     0.02  -0.03  -0.01    -0.08  -0.05  -0.09    -0.16  -0.13   0.05
   3   6     0.03  -0.00  -0.04     0.02  -0.07  -0.07     0.05   0.08   0.02
   4   6    -0.04  -0.01  -0.11    -0.01  -0.07   0.34    -0.01  -0.18  -0.18
   5   6    -0.04  -0.01  -0.01    -0.01  -0.01   0.15    -0.03  -0.04  -0.08
   6   6    -0.04  -0.01   0.06    -0.09   0.01  -0.26    -0.20   0.03   0.13
   7   6    -0.00   0.01  -0.09    -0.03   0.04   0.31    -0.07   0.09  -0.16
   8   6    -0.00   0.03   0.07    -0.02  -0.05  -0.24    -0.03  -0.06   0.13
   9   6     0.01   0.03   0.00     0.09  -0.05  -0.00     0.20  -0.10  -0.01
  10   7     0.01   0.02   0.08     0.08   0.10   0.08     0.18   0.23  -0.02
  11   6     0.05  -0.01  -0.30     0.01   0.12   0.02     0.03   0.26   0.00
  12   6     0.03  -0.02   0.12    -0.08   0.03  -0.18    -0.17   0.10   0.09
  13   6     0.01  -0.02   0.15    -0.08  -0.05   0.12    -0.17  -0.04  -0.07
  14   6     0.02   0.02  -0.17    -0.01  -0.11  -0.10    -0.06  -0.21   0.06
  15   6     0.03   0.02   0.55     0.09  -0.02   0.01     0.16  -0.05  -0.06
  16   6     0.06   0.02   0.06     0.09   0.04   0.20     0.17   0.04  -0.10
  17   6     0.02  -0.00  -0.08    -0.06  -0.06   0.02    -0.08  -0.17   0.00
  18   6     0.01   0.07  -0.03    -0.07  -0.04   0.08    -0.00  -0.11   0.16
  19   6     0.01  -0.06  -0.06     0.06  -0.01  -0.03    -0.02  -0.02  -0.14
  20   6    -0.00  -0.02   0.07    -0.04  -0.01  -0.23    -0.10  -0.00   0.07
  21   6     0.00  -0.03  -0.15    -0.00   0.02  -0.09     0.00   0.06   0.03
  22   6    -0.02   0.01   0.15    -0.02   0.04   0.17    -0.01   0.06  -0.06
  23   6    -0.05   0.02  -0.09     0.01   0.02  -0.20     0.03   0.02   0.07
  24   6    -0.06   0.00  -0.01    -0.04  -0.02   0.14    -0.05  -0.05  -0.06
  25   6    -0.04  -0.02   0.33    -0.01  -0.03   0.01    -0.01  -0.05  -0.02
  26   7     0.03   0.02  -0.35     0.10   0.07  -0.06     0.17   0.13   0.02
  27   1    -0.01  -0.02   0.03     0.01   0.08  -0.05     0.02   0.05  -0.03
  28   1    -0.02   0.00  -0.00     0.01   0.06  -0.04     0.03  -0.00   0.02
  29   1    -0.02  -0.00   0.00     0.05   0.02   0.04     0.06  -0.02   0.05
  30   1     0.01   0.00  -0.01     0.01  -0.01  -0.00     0.02   0.09   0.06
  31   1     0.01  -0.00  -0.03     0.01  -0.02   0.00     0.08   0.00  -0.07
  32   1     0.01   0.01  -0.01     0.02  -0.05  -0.04     0.03   0.05   0.02
  33   1    -0.01  -0.00   0.02     0.02   0.01  -0.00     0.04   0.03   0.00
  34   1    -0.01  -0.01   0.05    -0.02   0.00  -0.20    -0.06   0.01   0.10
  35   1     0.01  -0.00  -0.04    -0.01   0.01   0.15    -0.02   0.02  -0.07
  36   1    -0.00   0.01   0.04    -0.03  -0.03  -0.12    -0.06  -0.06   0.07
  37   1    -0.00   0.00   0.04     0.05   0.04  -0.10     0.11   0.10  -0.00
  38   1    -0.00  -0.01  -0.01     0.01   0.01   0.07     0.02   0.03  -0.04
  39   1    -0.00   0.01  -0.29    -0.02  -0.02  -0.02    -0.04  -0.05   0.02
  40   1    -0.00   0.03  -0.02    -0.02   0.00   0.01     0.01  -0.01   0.05
  41   1     0.00   0.04  -0.00    -0.02  -0.01   0.02     0.02   0.01   0.03
  42   1     0.01   0.01   0.01    -0.03  -0.01   0.03     0.00  -0.05   0.10
  43   1     0.01  -0.01  -0.00     0.04   0.01   0.00     0.00  -0.00  -0.09
  44   1     0.00  -0.03  -0.01     0.03  -0.02  -0.07     0.00   0.00  -0.08
  45   1    -0.00  -0.03  -0.03     0.04   0.01   0.02     0.01   0.05   0.01
  46   1     0.00  -0.01  -0.13     0.01   0.00   0.00     0.01   0.01   0.00
  47   1     0.00   0.01   0.05    -0.01   0.01   0.12    -0.01   0.01  -0.04
  48   1    -0.01   0.01  -0.10     0.00   0.01  -0.09     0.01   0.02   0.04
  49   1    -0.02   0.00  -0.10    -0.03  -0.00   0.08    -0.03  -0.01  -0.03
  50   1     0.02  -0.00   0.09     0.03   0.01   0.14     0.06   0.03   0.05
                     34                     35                     36
                        a                      a                      a 
 Frequencies --   517.2305               524.2388               530.9088
 Red. masses --     8.3787                10.3629                 5.6894
 Frc consts  --     0.0000                 0.0000                 0.0000
 IR Inten    --    26.4333                 2.7948                36.7877
 Raman Activ --     0.0000                 0.0000                 0.0000
 Depolar     --     0.0000                 0.0000                 0.0000
 Atom AN      X      Y      Z        X      Y      Z        X      Y      Z
   1   6    -0.01   0.07  -0.05     0.06  -0.10   0.24     0.06  -0.08   0.13
   2   6    -0.00  -0.03  -0.09     0.22  -0.24  -0.01     0.02  -0.09   0.07
   3   6     0.04  -0.08  -0.09     0.08  -0.12  -0.26    -0.01   0.02  -0.01
   4   6    -0.01  -0.03   0.20    -0.09  -0.04   0.02    -0.04  -0.04  -0.07
   5   6    -0.01  -0.00   0.10    -0.12   0.15   0.01    -0.05   0.06  -0.07
   6   6    -0.03   0.00  -0.16     0.08   0.08  -0.02     0.01   0.05   0.09
   7   6    -0.01   0.02   0.19     0.12   0.07   0.02     0.04   0.04  -0.11
   8   6     0.00  -0.01  -0.16     0.12  -0.08  -0.02     0.05  -0.05   0.09
   9   6     0.02  -0.01   0.03    -0.11  -0.01  -0.00    -0.00  -0.03  -0.01
  10   7     0.02   0.05   0.03    -0.18   0.21   0.01    -0.03   0.09  -0.02
  11   6     0.01   0.04  -0.02     0.00   0.06   0.02    -0.02   0.05  -0.07
  12   6    -0.01   0.03   0.03     0.13   0.08   0.03    -0.00   0.02  -0.18
  13   6    -0.03   0.02   0.08    -0.08   0.19  -0.01    -0.03  -0.01   0.04
  14   6    -0.02  -0.03  -0.07    -0.08  -0.04   0.01    -0.00  -0.06  -0.06
  15   6    -0.00  -0.02   0.21    -0.17  -0.12  -0.02    -0.01  -0.04   0.03
  16   6     0.03  -0.02  -0.09     0.00  -0.18  -0.05     0.02  -0.01   0.32
  17   6     0.02  -0.03  -0.13     0.08  -0.14   0.02     0.00   0.02  -0.04
  18   6     0.10   0.08  -0.05    -0.07  -0.04   0.10    -0.04   0.07  -0.05
  19   6    -0.09  -0.08  -0.15    -0.03   0.01  -0.05     0.05  -0.04  -0.03
  20   6    -0.01   0.01   0.33     0.07   0.12  -0.01     0.01   0.01  -0.16
  21   6     0.01   0.01   0.16     0.08   0.12  -0.01    -0.01  -0.00  -0.07
  22   6     0.01  -0.01  -0.26     0.12  -0.12   0.01    -0.02   0.01   0.13
  23   6    -0.01  -0.00   0.29     0.05  -0.12  -0.01    -0.01   0.00  -0.16
  24   6    -0.00  -0.01  -0.20     0.04  -0.07  -0.00    -0.01   0.02   0.16
  25   6    -0.01   0.01   0.03    -0.03   0.17  -0.01     0.01  -0.00  -0.01
  26   7    -0.01   0.01   0.11    -0.20   0.09  -0.05    -0.02  -0.03   0.18
  27   1    -0.00   0.04  -0.01     0.02  -0.03   0.14     0.02  -0.01   0.02
  28   1    -0.02   0.05  -0.04    -0.04   0.04   0.01     0.02  -0.01   0.03
  29   1     0.01   0.02   0.02     0.00  -0.02   0.12     0.03  -0.02   0.05
  30   1     0.01  -0.02  -0.01     0.02  -0.04  -0.14    -0.00   0.02  -0.03
  31   1     0.01  -0.02  -0.01     0.01  -0.03  -0.12     0.00   0.00  -0.04
  32   1     0.02  -0.04  -0.04    -0.03   0.03  -0.02    -0.03   0.04   0.03
  33   1     0.00   0.00  -0.00    -0.05   0.03   0.00    -0.01   0.02  -0.01
  34   1    -0.01  -0.00  -0.13     0.03  -0.02  -0.01     0.01  -0.01   0.07
  35   1    -0.00   0.01   0.08     0.00   0.03   0.01    -0.00   0.02  -0.05
  36   1    -0.01  -0.01  -0.09     0.04  -0.01  -0.01     0.01  -0.02   0.04
  37   1     0.01   0.02  -0.02    -0.04   0.06  -0.03     0.00   0.03   0.05
  38   1    -0.00   0.01  -0.00    -0.02   0.06  -0.01     0.01   0.01   0.06
  39   1    -0.00  -0.01  -0.08     0.03  -0.04  -0.01     0.00  -0.02   0.07
  40   1     0.04   0.04  -0.02    -0.03   0.03  -0.01    -0.01   0.04  -0.03
  41   1     0.04   0.05  -0.02    -0.04  -0.01   0.06    -0.02   0.02   0.00
  42   1     0.03   0.00   0.04    -0.03  -0.01   0.04    -0.02   0.02  -0.00
  43   1    -0.04  -0.03  -0.06    -0.04  -0.01  -0.08     0.03  -0.01   0.03
  44   1    -0.04  -0.01   0.01    -0.02   0.04   0.00     0.02  -0.03  -0.02
  45   1    -0.06  -0.03  -0.06    -0.02   0.04   0.01     0.03  -0.03  -0.02
  46   1    -0.00   0.00  -0.01    -0.02   0.05   0.00    -0.00  -0.00  -0.02
  47   1     0.01  -0.00  -0.20     0.01  -0.05   0.01    -0.01   0.00   0.08
  48   1    -0.00   0.00   0.13     0.01  -0.01   0.00    -0.00  -0.00  -0.08
  49   1     0.00  -0.00  -0.13     0.06  -0.04   0.01    -0.00   0.00   0.08
  50   1     0.00   0.00  -0.43    -0.11   0.04   0.17     0.00  -0.00  -0.72
                     37                     38                     39
                        a                      a                      a 
 Frequencies --   538.4264               548.6979               571.3791
 Red. masses --    10.6368                11.0499                10.8088
 Frc consts  --     0.0000                 0.0000                 0.0000
 IR Inten    --    61.5539                54.0632                11.4368
 Raman Activ --     0.0000                 0.0000                 0.0000
 Depolar     --     0.0000                 0.0000                 0.0000
 Atom AN      X      Y      Z        X      Y      Z        X      Y      Z
   1   6     0.01  -0.03   0.05    -0.05   0.04  -0.12     0.04  -0.00   0.02
   2   6    -0.01  -0.08   0.00     0.04   0.22   0.02    -0.03  -0.02   0.02
   3   6     0.01  -0.02  -0.04    -0.07   0.06   0.15    -0.00   0.02   0.02
   4   6    -0.09   0.00   0.01     0.06   0.15  -0.01     0.09  -0.09   0.01
   5   6    -0.07   0.22  -0.01     0.12  -0.05  -0.02     0.08  -0.22  -0.01
   6   6     0.09   0.13   0.00     0.01  -0.06   0.02    -0.21  -0.10   0.01
   7   6     0.09  -0.00  -0.00    -0.13  -0.21  -0.02    -0.09   0.06  -0.01
   8   6     0.08  -0.27   0.00    -0.15  -0.08   0.02    -0.08   0.23   0.01
   9   6    -0.04  -0.12   0.01    -0.03  -0.01  -0.01     0.18   0.07  -0.01
  10   7    -0.13   0.17  -0.04    -0.03   0.01  -0.01     0.20   0.04  -0.05
  11   6    -0.09   0.08   0.04     0.09  -0.04   0.01     0.08   0.09   0.08
  12   6    -0.02   0.02  -0.03     0.10   0.06  -0.07    -0.02   0.11  -0.15
  13   6    -0.03  -0.22   0.01    -0.01  -0.02   0.02    -0.04   0.19   0.05
  14   6     0.13  -0.19  -0.01     0.07  -0.06  -0.02    -0.08  -0.14  -0.05
  15   6     0.09  -0.07  -0.07     0.01  -0.03  -0.02    -0.12  -0.18   0.00
  16   6     0.16   0.14   0.03     0.29  -0.06   0.09    -0.01  -0.19   0.09
  17   6     0.16   0.22   0.01     0.20  -0.16  -0.01     0.22   0.03  -0.02
  18   6     0.08   0.13  -0.23    -0.08  -0.02   0.06    -0.06   0.11  -0.12
  19   6     0.01   0.05   0.21    -0.03  -0.03  -0.08    -0.02   0.01   0.06
  20   6     0.13  -0.04   0.05     0.13   0.07  -0.01     0.21   0.02   0.01
  21   6    -0.00  -0.20   0.03     0.16   0.03  -0.00    -0.06  -0.19   0.01
  22   6    -0.09   0.02  -0.06     0.15  -0.17   0.01    -0.10  -0.07  -0.02
  23   6    -0.28   0.05   0.06    -0.20  -0.10  -0.01    -0.17   0.00   0.02
  24   6    -0.21   0.10  -0.07    -0.26  -0.11  -0.01     0.12   0.25  -0.02
  25   6    -0.02  -0.10   0.00    -0.19   0.16  -0.01     0.11   0.11   0.02
  26   7     0.08  -0.01   0.00    -0.03   0.37   0.03    -0.18  -0.16  -0.03
  27   1     0.00   0.00   0.01    -0.02  -0.03  -0.03     0.01   0.02  -0.02
  28   1     0.00   0.01   0.01    -0.01  -0.04  -0.00     0.02  -0.00   0.01
  29   1     0.01  -0.01   0.04    -0.05   0.02  -0.11     0.03  -0.01   0.02
  30   1     0.00   0.00  -0.02    -0.02  -0.03   0.02    -0.00   0.02   0.00
  31   1     0.01  -0.01  -0.03    -0.06   0.03   0.11     0.01   0.00  -0.01
  32   1    -0.01   0.01  -0.00    -0.02  -0.03   0.02    -0.01   0.01   0.01
  33   1    -0.03   0.05  -0.00     0.01  -0.03  -0.00     0.06  -0.03  -0.00
  34   1     0.03   0.00   0.00    -0.00   0.04   0.01    -0.06   0.00   0.01
  35   1    -0.04   0.03  -0.00    -0.05  -0.06  -0.01     0.05  -0.01  -0.00
  36   1     0.02  -0.08  -0.00    -0.03  -0.01   0.01    -0.05   0.04   0.00
  37   1    -0.02   0.05   0.03    -0.02  -0.01   0.01     0.06   0.02   0.10
  38   1     0.03  -0.04   0.01    -0.00  -0.01   0.02     0.02   0.07   0.04
  39   1     0.01  -0.04   0.01     0.03  -0.02   0.01     0.04  -0.07   0.01
  40   1     0.00  -0.00  -0.06    -0.04   0.06  -0.04    -0.04   0.06  -0.08
  41   1     0.00  -0.00  -0.05    -0.06  -0.02   0.07    -0.07  -0.01   0.03
  42   1     0.03   0.06  -0.13    -0.05  -0.00   0.04    -0.03   0.04  -0.06
  43   1    -0.01   0.01   0.10    -0.04  -0.02  -0.10    -0.04  -0.02  -0.01
  44   1    -0.01   0.01   0.13    -0.02   0.03   0.02    -0.03   0.03   0.10
  45   1    -0.03  -0.05  -0.01    -0.03   0.02  -0.02    -0.05  -0.02  -0.02
  46   1    -0.01  -0.05   0.01    -0.02   0.03  -0.00    -0.05  -0.04   0.00
  47   1     0.03   0.05  -0.04     0.06  -0.03   0.00     0.01   0.02  -0.01
  48   1    -0.08   0.02   0.03    -0.07   0.05  -0.00    -0.04  -0.05   0.01
  49   1    -0.07   0.03  -0.04    -0.03  -0.05   0.00     0.08   0.05  -0.01
  50   1     0.04  -0.01   0.16    -0.02   0.10  -0.05    -0.10  -0.02   0.11
                     40                     41                     42
                        a                      a                      a 
 Frequencies --   572.7841               614.5892               615.8192
 Red. masses --     9.9487                10.9643                10.5003
 Frc consts  --     0.0000                 0.0000                 0.0000
 IR Inten    --    25.4992                 1.6517                 6.9991
 Raman Activ --     0.0000                 0.0000                 0.0000
 Depolar     --     0.0000                 0.0000                 0.0000
 Atom AN      X      Y      Z        X      Y      Z        X      Y      Z
   1   6    -0.07   0.06  -0.09    -0.01  -0.00  -0.00     0.02  -0.02   0.03
   2   6    -0.02   0.01  -0.08    -0.02  -0.04  -0.02    -0.05  -0.03   0.02
   3   6     0.06  -0.04  -0.06     0.03  -0.03  -0.05    -0.02   0.01   0.02
   4   6     0.02  -0.01  -0.02    -0.00  -0.05  -0.04    -0.03  -0.06   0.03
   5   6     0.02  -0.03   0.07    -0.02  -0.09   0.02    -0.05  -0.04  -0.01
   6   6    -0.04  -0.01  -0.07    -0.17  -0.04  -0.02    -0.11  -0.01   0.00
   7   6    -0.03  -0.00   0.07     0.03   0.10   0.02     0.04   0.09   0.00
   8   6    -0.02   0.01  -0.07     0.01   0.15  -0.02     0.04   0.06  -0.00
   9   6     0.04  -0.00   0.05     0.15   0.05   0.03     0.10   0.01  -0.00
  10   7     0.03   0.04   0.08     0.13  -0.04   0.06     0.09  -0.05  -0.11
  11   6     0.02   0.03  -0.22    -0.08   0.01  -0.23    -0.06   0.01   0.28
  12   6    -0.01   0.03   0.52    -0.01   0.02   0.23    -0.02   0.02  -0.25
  13   6    -0.01   0.01  -0.17     0.17  -0.07  -0.11     0.15  -0.06   0.13
  14   6     0.00  -0.07   0.17     0.16  -0.12   0.08     0.14  -0.07  -0.09
  15   6    -0.01  -0.05   0.01    -0.06  -0.11  -0.19    -0.02  -0.07   0.23
  16   6     0.04  -0.03  -0.34    -0.10   0.00   0.35    -0.08   0.02  -0.49
  17   6     0.11   0.02   0.13    -0.07   0.16  -0.03    -0.04   0.09   0.06
  18   6    -0.02  -0.09   0.04     0.04   0.16  -0.18    -0.01  -0.01  -0.04
  19   6    -0.01   0.12   0.20    -0.01   0.02   0.08     0.03   0.11   0.17
  20   6     0.11   0.00  -0.06    -0.08   0.08  -0.03    -0.06   0.06   0.06
  21   6    -0.00  -0.10  -0.11     0.10   0.23   0.06     0.09   0.16  -0.09
  22   6    -0.04  -0.03   0.14     0.18  -0.07  -0.05     0.13  -0.06   0.09
  23   6    -0.12   0.00  -0.16     0.06  -0.07   0.06     0.03  -0.05  -0.09
  24   6    -0.02   0.10   0.14    -0.18  -0.25  -0.06    -0.16  -0.19   0.08
  25   6     0.02   0.04  -0.10    -0.18   0.01   0.06    -0.14   0.01  -0.11
  26   7    -0.03  -0.00   0.06    -0.14   0.00   0.01    -0.08   0.04   0.00
  27   1    -0.02   0.01   0.01    -0.00   0.00   0.01     0.01   0.01  -0.03
  28   1    -0.05   0.03  -0.04    -0.01   0.01  -0.01     0.03  -0.01   0.02
  29   1    -0.03   0.02  -0.03    -0.00  -0.00   0.01     0.03  -0.01   0.03
  30   1     0.02   0.00   0.03     0.01   0.01   0.01    -0.01   0.01   0.00
  31   1     0.04  -0.02  -0.02     0.03  -0.01  -0.03    -0.00   0.00  -0.01
  32   1     0.05  -0.03  -0.04     0.02  -0.01  -0.02    -0.01   0.01   0.01
  33   1     0.01  -0.00   0.01     0.02  -0.01   0.01     0.00   0.01  -0.00
  34   1    -0.01   0.01  -0.05    -0.04  -0.02  -0.01    -0.03  -0.02  -0.00
  35   1    -0.00  -0.00   0.02     0.06   0.01   0.00     0.04   0.02  -0.00
  36   1    -0.01  -0.00  -0.03    -0.01   0.03  -0.00    -0.01   0.00  -0.01
  37   1     0.01   0.01  -0.13     0.05  -0.01  -0.11     0.03  -0.00   0.27
  38   1     0.01   0.01  -0.13     0.08  -0.00  -0.02     0.07  -0.00   0.02
  39   1     0.01  -0.02  -0.05     0.07  -0.05   0.04     0.06  -0.03  -0.07
  40   1    -0.02  -0.05   0.00     0.02   0.02  -0.03    -0.00  -0.06   0.02
  41   1    -0.03  -0.07   0.02     0.02   0.04  -0.07     0.01  -0.00  -0.03
  42   1    -0.01   0.00  -0.05     0.02   0.04  -0.06     0.04  -0.00  -0.06
  43   1    -0.03   0.02  -0.00     0.02   0.02   0.12     0.00   0.03   0.04
  44   1    -0.01   0.06   0.08     0.01  -0.04  -0.00     0.00   0.04   0.06
  45   1    -0.02   0.05   0.06     0.01  -0.05  -0.02     0.01   0.03   0.05
  46   1    -0.02  -0.02  -0.02     0.02   0.07   0.02     0.02   0.05  -0.03
  47   1     0.01   0.01   0.09     0.01  -0.05  -0.03     0.01  -0.04   0.04
  48   1    -0.03  -0.01  -0.05     0.00   0.07   0.01    -0.01   0.06  -0.02
  49   1     0.01   0.02   0.09    -0.05  -0.07  -0.03    -0.05  -0.05   0.05
  50   1    -0.01   0.00  -0.28    -0.06   0.01   0.06    -0.03   0.01  -0.09
                     43                     44                     45
                        a                      a                      a 
 Frequencies --   637.7390               641.5754               662.3547
 Red. masses --     6.2764                10.8032                 8.5298
 Frc consts  --     0.0000                 0.0000                 0.0000
 IR Inten    --    50.8036                 8.6050                 0.7146
 Raman Activ --     0.0000                 0.0000                 0.0000
 Depolar     --     0.0000                 0.0000                 0.0000
 Atom AN      X      Y      Z        X      Y      Z        X      Y      Z
   1   6    -0.00  -0.01   0.01     0.07  -0.08   0.15    -0.03   0.07  -0.08
   2   6    -0.01  -0.00   0.01     0.24   0.03   0.00     0.00   0.00  -0.05
   3   6    -0.00   0.02   0.02     0.07  -0.08  -0.14     0.03  -0.07  -0.08
   4   6    -0.01  -0.01  -0.31     0.16   0.21  -0.02    -0.00   0.00   0.54
   5   6    -0.01   0.02   0.17     0.28  -0.11   0.01    -0.00   0.00  -0.19
   6   6     0.03   0.01  -0.17     0.06  -0.08  -0.01     0.01   0.00   0.18
   7   6     0.00  -0.00   0.18    -0.16  -0.24   0.01    -0.00  -0.00  -0.14
   8   6     0.01  -0.03  -0.19    -0.23   0.19  -0.01     0.00  -0.00   0.17
   9   6    -0.02  -0.01   0.32    -0.03   0.18   0.02    -0.01  -0.01  -0.36
  10   7    -0.01  -0.02  -0.22    -0.09   0.22  -0.02    -0.00  -0.01  -0.05
  11   6     0.01  -0.00  -0.07    -0.00   0.10   0.02     0.01   0.00  -0.07
  12   6    -0.00   0.01   0.13     0.06  -0.04  -0.01     0.00   0.00   0.10
  13   6    -0.02   0.02  -0.05    -0.24  -0.12   0.01    -0.01   0.01  -0.02
  14   6    -0.02   0.02   0.10    -0.16  -0.22  -0.00    -0.01   0.00   0.23
  15   6     0.02   0.02  -0.11     0.03  -0.07   0.01     0.01   0.00  -0.15
  16   6     0.02  -0.01   0.13     0.07   0.06  -0.06     0.01  -0.01   0.09
  17   6    -0.00  -0.04  -0.04    -0.08   0.10   0.01     0.00  -0.01  -0.03
  18   6    -0.07   0.00   0.01     0.05   0.05  -0.08    -0.03   0.01  -0.01
  19   6     0.08  -0.03  -0.08     0.02   0.06   0.10     0.04  -0.01  -0.04
  20   6    -0.01  -0.01   0.01    -0.12  -0.00   0.02    -0.02  -0.00   0.07
  21   6    -0.01  -0.00  -0.02    -0.04   0.09  -0.01    -0.01   0.01  -0.04
  22   6    -0.02   0.02   0.01    -0.05   0.11   0.01    -0.01   0.01   0.03
  23   6     0.01   0.01  -0.01     0.13   0.02  -0.01     0.02   0.00  -0.03
  24   6     0.01   0.00   0.01    -0.03  -0.12   0.01     0.00  -0.01   0.03
  25   6     0.01  -0.01  -0.02    -0.00  -0.14  -0.02     0.00  -0.01  -0.05
  26   7     0.03   0.01   0.01     0.05  -0.08   0.01     0.01  -0.00   0.03
  27   1    -0.00  -0.02   0.01     0.02  -0.08   0.13    -0.01   0.04  -0.02
  28   1    -0.01  -0.02   0.01    -0.03  -0.02   0.02    -0.02   0.05  -0.04
  29   1    -0.01  -0.00  -0.02    -0.04  -0.00   0.00     0.00   0.02   0.02
  30   1     0.00   0.02   0.02     0.02  -0.08  -0.13     0.01  -0.04  -0.02
  31   1     0.01   0.00  -0.02    -0.04  -0.00  -0.00    -0.00  -0.02   0.02
  32   1     0.01   0.02   0.01    -0.03  -0.02  -0.02     0.02  -0.05  -0.04
  33   1    -0.01   0.00   0.07     0.04  -0.06   0.00    -0.00  -0.00  -0.11
  34   1     0.01  -0.00  -0.06     0.00   0.09  -0.00     0.00  -0.00  -0.03
  35   1    -0.01   0.00   0.03    -0.01  -0.08   0.00    -0.00  -0.00  -0.05
  36   1     0.00  -0.01  -0.10    -0.02   0.09  -0.01     0.00  -0.00   0.00
  37   1    -0.01   0.02   0.70    -0.03   0.06   0.04    -0.00   0.01   0.41
  38   1    -0.01   0.01  -0.04    -0.07  -0.03  -0.00    -0.00   0.00  -0.09
  39   1    -0.01   0.01  -0.08    -0.07  -0.05  -0.01    -0.00   0.00  -0.33
  40   1    -0.01   0.02   0.00     0.02  -0.03   0.01    -0.00   0.01  -0.00
  41   1    -0.02   0.03   0.02     0.03   0.02  -0.05    -0.01   0.02   0.00
  42   1     0.02  -0.02   0.02     0.03   0.01  -0.04     0.01  -0.01   0.01
  43   1     0.01  -0.01  -0.02     0.02   0.02   0.07     0.00  -0.01  -0.01
  44   1     0.01   0.01   0.01     0.01  -0.01   0.01     0.00   0.01   0.02
  45   1     0.03  -0.01  -0.02     0.02  -0.00   0.02     0.01  -0.01  -0.02
  46   1    -0.00  -0.00  -0.01     0.02   0.02  -0.00     0.00   0.00  -0.02
  47   1    -0.01   0.00   0.00    -0.04   0.00   0.00    -0.01   0.00  -0.00
  48   1     0.00  -0.00  -0.00     0.03   0.01  -0.00     0.00  -0.00  -0.01
  49   1    -0.00   0.00   0.00    -0.05  -0.02   0.00    -0.00  -0.00   0.01
  50   1     0.01   0.00   0.03     0.02  -0.03  -0.01     0.01  -0.00   0.01
                     46                     47                     48
                        a                      a                      a 
 Frequencies --   674.9363               680.2267               717.9628
 Red. masses --    11.1381                 4.9565                10.8459
 Frc consts  --     0.0000                 0.0000                 0.0000
 IR Inten    --     2.8210                29.1517                22.4986
 Raman Activ --     0.0000                 0.0000                 0.0000
 Depolar     --     0.0000                 0.0000                 0.0000
 Atom AN      X      Y      Z        X      Y      Z        X      Y      Z
   1   6     0.00   0.00  -0.00    -0.04   0.03  -0.06    -0.04   0.08  -0.12
   2   6     0.01  -0.00  -0.00     0.00   0.00  -0.04     0.09   0.11   0.00
   3   6     0.01  -0.01  -0.01     0.04  -0.03  -0.06    -0.04   0.09   0.12
   4   6     0.00   0.01   0.05    -0.00   0.00   0.18    -0.11  -0.01  -0.01
   5   6     0.01  -0.00  -0.02    -0.00   0.00  -0.06    -0.19   0.06   0.00
   6   6     0.00  -0.00   0.01     0.01   0.00   0.08    -0.12  -0.01  -0.00
   7   6    -0.00  -0.01  -0.01    -0.00  -0.01  -0.04     0.03   0.03  -0.00
   8   6    -0.01   0.01   0.01    -0.00  -0.00   0.06     0.07  -0.21  -0.00
   9   6     0.00   0.01  -0.03    -0.01  -0.00  -0.12     0.07  -0.10   0.01
  10   7    -0.00   0.01  -0.03    -0.00  -0.00  -0.04     0.12  -0.03   0.00
  11   6    -0.01   0.01   0.02     0.01   0.00  -0.05     0.22  -0.08   0.00
  12   6    -0.00  -0.00   0.01    -0.00   0.00   0.28     0.20   0.05  -0.00
  13   6     0.01  -0.02   0.00    -0.01   0.01  -0.09    -0.17   0.18   0.00
  14   6     0.01  -0.02   0.03    -0.01  -0.01  -0.40    -0.08   0.03   0.00
  15   6     0.00  -0.00   0.04     0.01   0.00   0.17    -0.09  -0.06   0.00
  16   6    -0.01   0.01  -0.13     0.01  -0.00  -0.01     0.29  -0.10  -0.02
  17   6    -0.02  -0.00   0.06     0.00  -0.01  -0.01     0.18  -0.03   0.02
  18   6    -0.07  -0.09   0.08    -0.02   0.00  -0.01     0.03   0.07  -0.09
  19   6     0.05   0.08   0.12     0.03  -0.00  -0.01     0.03   0.05   0.12
  20   6     0.03   0.00  -0.65    -0.01  -0.00   0.00    -0.12   0.07  -0.04
  21   6    -0.00  -0.01   0.24    -0.01   0.01  -0.00    -0.13   0.21  -0.00
  22   6     0.02  -0.01  -0.23    -0.00   0.01  -0.00    -0.17   0.21  -0.02
  23   6    -0.02  -0.00   0.19     0.01   0.00  -0.00     0.21  -0.00   0.01
  24   6     0.00   0.01  -0.23    -0.00  -0.01  -0.00    -0.03  -0.19  -0.01
  25   6    -0.02   0.02   0.47    -0.00  -0.01  -0.01    -0.01  -0.17   0.02
  26   7    -0.00   0.02  -0.05     0.01   0.00  -0.03    -0.06  -0.22   0.00
  27   1     0.00   0.00   0.00    -0.01   0.00   0.01    -0.01  -0.02   0.00
  28   1    -0.00   0.00  -0.00    -0.02   0.03  -0.03    -0.03  -0.00  -0.03
  29   1     0.00   0.00   0.00    -0.02   0.01  -0.00    -0.05   0.04  -0.09
  30   1     0.00  -0.01  -0.01     0.01  -0.00   0.01    -0.01  -0.02  -0.00
  31   1    -0.00  -0.00   0.00     0.02  -0.01   0.00    -0.05   0.04   0.10
  32   1     0.00  -0.01  -0.00     0.02  -0.03  -0.03    -0.03  -0.00   0.03
  33   1     0.00  -0.00  -0.01    -0.00  -0.00  -0.06    -0.06   0.01   0.00
  34   1    -0.00   0.00  -0.01     0.00   0.00  -0.06    -0.03  -0.06   0.01
  35   1     0.00  -0.00  -0.01    -0.00  -0.00  -0.04    -0.02   0.02   0.00
  36   1    -0.00   0.00  -0.01     0.00  -0.00  -0.03    -0.02  -0.09   0.01
  37   1     0.00   0.01   0.13    -0.00   0.01   0.27     0.01  -0.02  -0.03
  38   1     0.00  -0.00  -0.02    -0.00   0.00   0.13    -0.08   0.03  -0.00
  39   1     0.00  -0.00  -0.05     0.00  -0.00   0.73     0.03  -0.02  -0.00
  40   1    -0.02  -0.04   0.03    -0.00   0.00   0.00    -0.01   0.05  -0.07
  41   1    -0.03  -0.05   0.02    -0.01   0.01   0.00    -0.03  -0.02   0.02
  42   1    -0.02  -0.01  -0.02     0.01  -0.01   0.00    -0.01   0.04  -0.05
  43   1     0.03   0.03   0.03     0.00  -0.00  -0.00    -0.02  -0.00  -0.01
  44   1     0.03   0.02  -0.02     0.00   0.01   0.01    -0.01   0.05   0.09
  45   1     0.05   0.04   0.07     0.01  -0.00  -0.00    -0.03   0.02   0.02
  46   1    -0.00  -0.00   0.14     0.00   0.00   0.00    -0.02   0.06   0.01
  47   1     0.01  -0.00   0.03    -0.00   0.00   0.00    -0.12  -0.00   0.02
  48   1    -0.01   0.00   0.06     0.00   0.00   0.00     0.06  -0.02   0.01
  49   1     0.00   0.00  -0.02    -0.00  -0.00   0.00    -0.07  -0.03   0.01
  50   1    -0.00   0.01  -0.13     0.00  -0.00   0.05     0.00  -0.07  -0.01
                     49                     50                     51
                        a                      a                      a 
 Frequencies --   737.6048               754.7882               755.4007
 Red. masses --     3.2180                 9.6744                 4.4881
 Frc consts  --     0.0000                 0.0000                 0.0000
 IR Inten    --    29.1401                53.4917                29.1140
 Raman Activ --     0.0000                 0.0000                 0.0000
 Depolar     --     0.0000                 0.0000                 0.0000
 Atom AN      X      Y      Z        X      Y      Z        X      Y      Z
   1   6    -0.01   0.03  -0.04     0.00   0.03  -0.03    -0.00  -0.01   0.01
   2   6    -0.00  -0.00  -0.02     0.11   0.10  -0.00    -0.03  -0.03   0.00
   3   6     0.01  -0.03  -0.04     0.01   0.03   0.03    -0.00  -0.01  -0.01
   4   6     0.00  -0.00   0.21    -0.02   0.05   0.01     0.00  -0.02  -0.00
   5   6     0.00  -0.00  -0.13    -0.01  -0.01  -0.00    -0.01   0.00   0.00
   6   6     0.01  -0.00  -0.25    -0.18  -0.02  -0.00     0.06   0.01   0.00
   7   6    -0.00  -0.00  -0.15    -0.00  -0.01  -0.00     0.00   0.01  -0.00
   8   6    -0.00  -0.00  -0.18     0.01  -0.12   0.00     0.00   0.04  -0.00
   9   6    -0.00   0.00   0.13     0.15  -0.03   0.00    -0.06   0.01   0.00
  10   7    -0.00  -0.00  -0.03     0.07   0.26  -0.01    -0.02  -0.12   0.00
  11   6     0.00   0.00  -0.01    -0.07   0.14   0.00     0.03  -0.07   0.00
  12   6    -0.00  -0.00   0.03     0.11  -0.13   0.01    -0.03   0.06  -0.00
  13   6     0.00   0.00  -0.02     0.04  -0.42  -0.00    -0.03   0.19   0.00
  14   6    -0.00  -0.00  -0.02     0.17   0.20  -0.01    -0.08  -0.09  -0.00
  15   6     0.00   0.00   0.00    -0.21   0.04  -0.00     0.09  -0.03   0.00
  16   6    -0.00  -0.00   0.00     0.06   0.14  -0.01    -0.02  -0.06  -0.01
  17   6    -0.00  -0.00  -0.00    -0.03   0.01   0.00     0.00  -0.01   0.01
  18   6    -0.00   0.00  -0.00    -0.05  -0.11   0.13    -0.01   0.02  -0.02
  19   6     0.01   0.00  -0.00    -0.01  -0.04  -0.09     0.03   0.05   0.10
  20   6    -0.00  -0.00  -0.00     0.07   0.07  -0.07    -0.02  -0.03  -0.20
  21   6     0.00  -0.00   0.00     0.02   0.02   0.05    -0.01  -0.01   0.12
  22   6     0.00  -0.00  -0.00     0.01  -0.03   0.09    -0.01   0.01   0.20
  23   6    -0.00   0.00   0.00    -0.01  -0.05   0.07    -0.00   0.02   0.16
  24   6    -0.00  -0.00  -0.00     0.08   0.10   0.07    -0.04  -0.04   0.17
  25   6    -0.00   0.00   0.00     0.07   0.03  -0.06    -0.02  -0.01  -0.13
[...]
  29   1     0.01   0.02   0.00     0.18   0.46   0.00    -0.02  -0.04   0.00
  30   1     0.02  -0.00   0.00     0.46   0.01   0.01     0.05   0.00   0.00
  31   1     0.01   0.02   0.00    -0.17  -0.43   0.00    -0.02  -0.04  -0.00
  32   1    -0.00  -0.00  -0.00    -0.08   0.11  -0.16    -0.00   0.00  -0.01
  33   1    -0.00   0.00  -0.00     0.00  -0.00  -0.00    -0.02   0.02  -0.00
  34   1     0.00   0.00   0.00     0.00   0.00   0.00    -0.00   0.00  -0.00
  35   1     0.00   0.00  -0.00    -0.00  -0.00   0.00     0.08   0.21  -0.00
  36   1     0.00  -0.00   0.00    -0.00   0.00   0.00     0.59  -0.73   0.01
  37   1     0.00  -0.00  -0.00    -0.00   0.00   0.00     0.01   0.00  -0.00
  38   1     0.00  -0.00   0.00     0.00  -0.00  -0.00    -0.01   0.01   0.00
  39   1     0.00   0.00   0.00     0.00   0.00   0.00    -0.00  -0.00   0.00
  40   1     0.16  -0.10  -0.13    -0.00   0.00   0.00    -0.00   0.00   0.00
  41   1    -0.32   0.08  -0.19     0.00  -0.00   0.00    -0.00   0.00  -0.00
  42   1     0.02   0.02   0.02    -0.00  -0.00  -0.00    -0.00  -0.01  -0.01
  43   1     0.21  -0.33   0.00    -0.00   0.00   0.00     0.00  -0.00  -0.00
  44   1    -0.68  -0.10  -0.11     0.00   0.00   0.00     0.00   0.00   0.00
  45   1     0.15   0.23  -0.26    -0.00  -0.00   0.00    -0.00  -0.01   0.01
  46   1     0.01   0.02  -0.00    -0.00  -0.00   0.00     0.00   0.01   0.00
  47   1     0.00  -0.00   0.00     0.00  -0.00   0.00    -0.00   0.00  -0.00
  48   1    -0.00  -0.00  -0.00     0.00   0.00   0.00     0.00   0.00   0.00
  49   1     0.00   0.00   0.00    -0.00  -0.00   0.00    -0.00  -0.01  -0.00
  50   1    -0.00  -0.00   0.00     0.00   0.00   0.00    -0.00  -0.00   0.00
                    133                    134                    135
                        a                      a                      a 
 Frequencies --  3052.6324              3059.2999              3073.7191
 Red. masses --     1.4218                 1.7871                 1.7840
 Frc consts  --     0.0000                 0.0000                 0.0000
 IR Inten    --    67.1009                30.4233                14.7372
 Raman Activ --     0.0000                 0.0000                 0.0000
 Depolar     --     0.0000                 0.0000                 0.0000
 Atom AN      X      Y      Z        X      Y      Z        X      Y      Z
   1   6    -0.07   0.11  -0.02     0.00  -0.00   0.00     0.00  -0.00   0.00
   2   6    -0.01   0.01   0.00     0.00  -0.00  -0.00     0.00  -0.00   0.00
   3   6    -0.08   0.11   0.02     0.00  -0.00  -0.00     0.00  -0.00  -0.00
   4   6    -0.00  -0.00   0.00     0.00   0.00  -0.00     0.00  -0.00   0.00
   5   6     0.02  -0.03   0.00    -0.00   0.00  -0.00     0.02  -0.02   0.00
   6   6    -0.00   0.00  -0.00    -0.00  -0.00   0.00    -0.01  -0.00  -0.00
   7   6     0.00   0.01  -0.00    -0.00  -0.00   0.00     0.00   0.01  -0.00
   8   6     0.02  -0.02   0.00    -0.00   0.00  -0.00     0.00  -0.00   0.00
   9   6     0.00  -0.00   0.00    -0.00   0.00   0.00     0.00   0.00  -0.00
  10   7     0.00  -0.00  -0.00     0.00   0.00   0.00     0.00  -0.00   0.00
  11   6     0.00   0.00   0.00     0.00  -0.00  -0.00    -0.00   0.00   0.00
  12   6     0.00   0.00   0.00    -0.00  -0.00  -0.00     0.00  -0.00   0.00
  13   6     0.02  -0.03  -0.00    -0.00   0.00   0.00     0.01  -0.02  -0.00
  14   6     0.00   0.01  -0.00     0.00   0.00   0.00     0.01   0.01  -0.00
  15   6     0.00   0.00  -0.00    -0.00   0.00  -0.00     0.00   0.00   0.00
  16   6    -0.00  -0.00  -0.00    -0.00  -0.00   0.00    -0.00  -0.00  -0.00
  17   6     0.00  -0.00   0.00     0.00  -0.00  -0.00     0.00  -0.00  -0.00
  18   6    -0.00  -0.00   0.00    -0.00   0.00  -0.00     0.01  -0.01   0.00
  19   6    -0.00  -0.00  -0.00     0.00  -0.00  -0.00     0.01  -0.01  -0.00
  20   6     0.00  -0.00  -0.00     0.00   0.00  -0.00    -0.01  -0.01  -0.00
  21   6     0.00   0.00   0.00    -0.00   0.01  -0.00    -0.08  -0.23  -0.00
  22   6    -0.00   0.00  -0.00     0.00   0.01   0.00    -0.05   0.06  -0.00
  23   6    -0.00   0.00  -0.00     0.06   0.01   0.00     0.03   0.01   0.00
  24   6    -0.00  -0.01  -0.00    -0.08  -0.24  -0.00     0.00   0.01   0.00
  25   6    -0.00   0.00  -0.00     0.00  -0.01   0.00     0.00   0.00   0.00
  26   7     0.00  -0.00   0.00     0.00   0.00   0.00    -0.00  -0.00  -0.00
  27   1     0.46   0.02  -0.00    -0.01  -0.00  -0.00    -0.01  -0.00  -0.00
  28   1    -0.03   0.05   0.06     0.00  -0.00  -0.00     0.00  -0.00  -0.00
  29   1    -0.17  -0.44   0.00     0.00   0.01  -0.00     0.00   0.01  -0.00
  30   1     0.49   0.02   0.00    -0.01  -0.00  -0.00    -0.01  -0.00   0.00
  31   1    -0.18  -0.45  -0.00     0.00   0.01   0.00     0.00   0.01   0.00
  32   1    -0.04   0.05  -0.06     0.00  -0.00   0.00     0.00  -0.00   0.00
  33   1    -0.08   0.09  -0.00     0.01  -0.01   0.00    -0.06   0.07  -0.00
  34   1     0.02   0.00   0.00     0.00   0.00   0.00     0.03   0.00   0.00
  35   1    -0.01  -0.02   0.00     0.00   0.01  -0.00    -0.01  -0.03   0.00
  36   1    -0.05   0.07  -0.00     0.01  -0.01   0.00    -0.00   0.00  -0.00
  37   1    -0.00   0.00   0.00    -0.00   0.00  -0.00    -0.00   0.00  -0.00
  38   1    -0.07   0.11   0.00     0.00  -0.00  -0.00    -0.05   0.07   0.00
  39   1    -0.02  -0.03   0.00    -0.01  -0.02   0.00    -0.02  -0.04   0.00
  40   1     0.00  -0.00  -0.00    -0.00   0.00   0.00    -0.01   0.01   0.01
  41   1    -0.00   0.00  -0.00     0.00  -0.00   0.00    -0.02   0.01  -0.02
  42   1     0.00   0.00   0.00    -0.00  -0.00  -0.00     0.01   0.01   0.00
  43   1    -0.00   0.00  -0.00    -0.00   0.00   0.00    -0.03   0.06   0.00
  44   1     0.00   0.00   0.00    -0.00  -0.00  -0.00    -0.00  -0.00  -0.00
  45   1    -0.00  -0.00   0.00    -0.00  -0.00   0.00    -0.00  -0.01   0.01
  46   1    -0.00  -0.01  -0.00    -0.01  -0.02  -0.00     0.28   0.84   0.01
  47   1     0.00  -0.00   0.00     0.01  -0.01   0.00     0.21  -0.25   0.01
  48   1     0.00   0.00  -0.00    -0.26  -0.05  -0.01    -0.10  -0.02  -0.00
  49   1     0.01   0.02   0.00     0.30   0.87   0.01    -0.01  -0.01  -0.00
  50   1    -0.00  -0.00  -0.00    -0.00   0.00  -0.00     0.00   0.00  -0.00
                    136                    137                    138
                        a                      a                      a 
 Frequencies --  3074.0233              3074.6291              3081.0296
 Red. masses --     1.7820                 1.7646                 1.8302
 Frc consts  --     0.0000                 0.0000                 0.0000
 IR Inten    --    20.5923                47.7276                37.7081
 Raman Activ --     0.0000                 0.0000                 0.0000
 Depolar     --     0.0000                 0.0000                 0.0000
 Atom AN      X      Y      Z        X      Y      Z        X      Y      Z
   1   6     0.03   0.02  -0.00     0.01  -0.02   0.00     0.00   0.00   0.00
   2   6     0.00   0.00  -0.00     0.00  -0.00  -0.00     0.00   0.00  -0.00
   3   6     0.03   0.02   0.00     0.01  -0.02  -0.00     0.00   0.00  -0.00
   4   6    -0.00  -0.01   0.00    -0.00  -0.01   0.00    -0.00  -0.00   0.00
   5   6     0.12  -0.14   0.00     0.11  -0.13   0.00     0.03  -0.03   0.00
   6   6    -0.05  -0.01  -0.00    -0.05  -0.01  -0.00     0.08   0.01   0.00
   7   6     0.00   0.01  -0.00     0.00   0.01  -0.00    -0.10  -0.23   0.00
   8   6    -0.00   0.00  -0.00    -0.00   0.00  -0.00     0.04  -0.05   0.00
   9   6    -0.00   0.00  -0.00    -0.00   0.00  -0.00     0.00   0.00  -0.00
  10   7    -0.00  -0.00   0.00     0.00  -0.00  -0.00    -0.00  -0.00   0.00
  11   6     0.00  -0.00  -0.00    -0.00   0.00   0.00    -0.00  -0.00   0.00
  12   6    -0.00   0.00   0.00     0.01  -0.00  -0.00     0.00   0.00   0.00
  13   6    -0.09   0.14   0.00     0.09  -0.14  -0.00     0.00  -0.00  -0.00
  14   6    -0.04  -0.07   0.00     0.04   0.08  -0.00    -0.00  -0.01   0.00
  15   6    -0.00  -0.00  -0.00     0.00   0.00   0.00    -0.00  -0.00  -0.00
  16   6     0.00   0.00   0.00    -0.00  -0.00  -0.00     0.00   0.00  -0.00
  17   6    -0.00  -0.00  -0.00     0.00   0.00   0.00    -0.00  -0.00   0.00
  18   6    -0.00   0.00  -0.00    -0.00   0.00  -0.00    -0.00  -0.00  -0.00
  19   6    -0.00   0.00   0.00    -0.00   0.00   0.00    -0.00  -0.00   0.00
  20   6     0.00   0.00  -0.00     0.00   0.00   0.00    -0.00   0.00  -0.00
  21   6     0.00   0.00   0.00     0.01   0.03   0.00    -0.00  -0.00  -0.00
  22   6     0.00  -0.00   0.00     0.01  -0.01   0.00    -0.00   0.00  -0.00
  23   6     0.00   0.00   0.00    -0.00  -0.00  -0.00     0.00   0.00   0.00
  24   6    -0.00  -0.00  -0.00     0.00  -0.00   0.00     0.00   0.00   0.00
  25   6     0.00  -0.00   0.00    -0.00   0.00  -0.00     0.00  -0.00   0.00
  26   7    -0.00   0.00   0.00     0.00  -0.00   0.00     0.00  -0.00   0.00
  27   1    -0.08   0.00   0.00    -0.09  -0.00  -0.00    -0.01   0.00  -0.00
  28   1     0.00   0.00   0.00     0.01  -0.01  -0.01     0.00   0.00  -0.00
  29   1    -0.02  -0.08   0.00     0.03   0.09  -0.00    -0.00  -0.00  -0.00
  30   1    -0.08   0.00  -0.00    -0.09  -0.00   0.00    -0.01   0.00   0.00
  31   1    -0.02  -0.08  -0.00     0.03   0.09   0.00    -0.00  -0.00   0.00
  32   1     0.00   0.00  -0.00     0.01  -0.01   0.01     0.00   0.00   0.00
  33   1    -0.41   0.50  -0.00    -0.40   0.48  -0.00    -0.10   0.12  -0.00
  34   1     0.19   0.03   0.00     0.19   0.03   0.00    -0.29  -0.04  -0.00
  35   1    -0.02  -0.05   0.00    -0.02  -0.04   0.00     0.33   0.81  -0.01
  36   1     0.00  -0.00   0.00     0.00  -0.00   0.00    -0.13   0.16  -0.00
  37   1     0.00  -0.00   0.00     0.00  -0.00  -0.00    -0.00   0.00  -0.00
  38   1     0.31  -0.50  -0.00    -0.31   0.49   0.00    -0.01   0.01   0.00
  39   1     0.14   0.27  -0.00    -0.16  -0.29   0.00     0.01   0.02  -0.00
  40   1    -0.00   0.00   0.00     0.00  -0.00  -0.00     0.00  -0.00  -0.00
  41   1     0.00  -0.00   0.00     0.00  -0.00   0.00    -0.00   0.00  -0.00
  42   1    -0.00  -0.00  -0.00    -0.00  -0.00  -0.00     0.00   0.00   0.00
  43   1     0.00  -0.00  -0.00     0.00  -0.01  -0.00    -0.00   0.00   0.00
  44   1    -0.00  -0.00  -0.00    -0.00   0.00  -0.00     0.00   0.00   0.00
  45   1     0.00   0.00  -0.00     0.00   0.00  -0.00     0.00   0.00  -0.00
  46   1    -0.00  -0.00  -0.00    -0.04  -0.12  -0.00     0.00   0.01   0.00
  47   1    -0.00   0.00  -0.00    -0.03   0.04  -0.00     0.01  -0.01   0.00
  48   1    -0.01  -0.00  -0.00     0.00   0.00   0.00    -0.00  -0.00  -0.00
  49   1     0.00   0.01   0.00    -0.00  -0.00   0.00    -0.00  -0.00  -0.00
  50   1     0.00  -0.00  -0.00    -0.00   0.00   0.00     0.00   0.00  -0.00
                    139                    140                    141
                        a                      a                      a 
 Frequencies --  3082.2342              3089.5649              3096.7631
 Red. masses --     1.8301                 1.8597                 1.8887
 Frc consts  --     0.0000                 0.0000                 0.0000
 IR Inten    --    92.1920                71.7955                17.1010
 Raman Activ --     0.0000                 0.0000                 0.0000
 Depolar     --     0.0000                 0.0000                 0.0000
 Atom AN      X      Y      Z        X      Y      Z        X      Y      Z
   1   6    -0.00   0.00  -0.00     0.00   0.01  -0.00     0.00   0.00  -0.00
   2   6    -0.00  -0.00  -0.00     0.00   0.00   0.00     0.00  -0.00   0.00
   3   6    -0.00   0.00   0.00     0.00   0.01   0.00     0.00   0.00   0.00
   4   6     0.00   0.00  -0.00    -0.00   0.00   0.00    -0.00   0.00  -0.00
   5   6    -0.00   0.00  -0.00    -0.00   0.00  -0.00     0.01  -0.01   0.00
   6   6    -0.00   0.00   0.00     0.01   0.00   0.00     0.05   0.01   0.00
   7   6     0.00   0.00  -0.00    -0.00  -0.00   0.00     0.01   0.02  -0.00
   8   6    -0.00   0.00  -0.00     0.00  -0.00   0.00    -0.00   0.00  -0.00
   9   6    -0.00  -0.00   0.00    -0.00  -0.00   0.00     0.00  -0.00  -0.00
  10   7    -0.00  -0.00  -0.00     0.00   0.00   0.00    -0.00   0.00   0.00
  11   6     0.00   0.00  -0.00     0.00  -0.00  -0.00    -0.00  -0.00   0.00
  12   6     0.00   0.00  -0.00    -0.01  -0.00   0.00    -0.00   0.00  -0.00
  13   6     0.00  -0.00  -0.00    -0.07   0.12   0.00    -0.00   0.01   0.00
  14   6    -0.01  -0.01   0.00     0.11   0.21  -0.00     0.01   0.01   0.00
  15   6    -0.00  -0.00   0.00     0.01   0.00  -0.00    -0.00  -0.00   0.00
  16   6    -0.00  -0.00  -0.00    -0.00  -0.00   0.00     0.00   0.00  -0.00
  17   6    -0.00   0.00   0.00     0.00   0.00  -0.00     0.00  -0.00  -0.00
  18   6    -0.00   0.00   0.00     0.00   0.00   0.00     0.00  -0.00  -0.00
  19   6    -0.00   0.00   0.00     0.00  -0.00   0.00     0.00  -0.00  -0.00
  20   6     0.00  -0.00   0.00     0.00  -0.00   0.00    -0.00   0.00  -0.00
  21   6     0.02   0.07   0.00     0.00   0.01   0.00    -0.02  -0.07  -0.00
  22   6    -0.06   0.08  -0.00    -0.01   0.02  -0.00     0.15  -0.18   0.00
  23   6     0.23   0.04   0.01     0.00   0.00   0.00     0.12   0.02   0.00
  24   6     0.03   0.07   0.00     0.00   0.01   0.00     0.01   0.03   0.00
  25   6    -0.00  -0.00  -0.00    -0.00   0.00  -0.00    -0.00   0.00   0.00
  26   7     0.00   0.00   0.00    -0.00  -0.00   0.00     0.00   0.00  -0.00
  27   1     0.00   0.00   0.00    -0.00   0.00   0.00    -0.00   0.00   0.00
  28   1    -0.00   0.00   0.00     0.00   0.00   0.00    -0.00   0.00   0.00
  29   1    -0.00  -0.00   0.00    -0.01  -0.03   0.00    -0.00  -0.01   0.00
  30   1     0.00   0.00  -0.00    -0.00   0.00  -0.00    -0.00   0.00   0.00
  31   1    -0.00  -0.00  -0.00    -0.01  -0.03  -0.00    -0.00  -0.01  -0.00
  32   1    -0.00   0.00  -0.00     0.00   0.00  -0.00    -0.00   0.00  -0.00
  33   1     0.01  -0.01   0.00     0.00  -0.00   0.00    -0.02   0.03  -0.00
  34   1     0.00   0.00   0.00    -0.05  -0.01  -0.00    -0.19  -0.03  -0.00
  35   1    -0.00  -0.01   0.00     0.00   0.01  -0.00    -0.02  -0.05   0.00
  36   1     0.00  -0.00   0.00    -0.00   0.00  -0.00     0.00  -0.00   0.00
  37   1     0.00  -0.00   0.00    -0.00   0.00  -0.00    -0.00   0.00   0.00
  38   1    -0.01   0.02   0.00     0.24  -0.38  -0.00     0.02  -0.02  -0.00
  39   1     0.02   0.03  -0.00    -0.39  -0.75   0.00    -0.02  -0.04   0.00
  40   1     0.00  -0.00  -0.00     0.00  -0.00  -0.00    -0.00   0.00   0.00
  41   1     0.00  -0.00   0.00    -0.00   0.00  -0.00    -0.00   0.00  -0.00
  42   1    -0.00  -0.00  -0.00     0.00   0.00  -0.00     0.00   0.00   0.00
  43   1     0.01  -0.01  -0.00    -0.00   0.00   0.00    -0.00   0.01   0.00
  44   1     0.00   0.00   0.00    -0.00  -0.00  -0.00    -0.00  -0.00   0.00
  45   1    -0.00   0.00  -0.00     0.00  -0.00   0.00     0.00  -0.00  -0.00
  46   1    -0.07  -0.22  -0.00    -0.01  -0.02  -0.00     0.08   0.23   0.00
  47   1     0.24  -0.29   0.01     0.05  -0.06   0.00    -0.51   0.61  -0.01
  48   1    -0.81  -0.14  -0.02    -0.00  -0.00  -0.00    -0.40  -0.07  -0.01
  49   1    -0.08  -0.23  -0.00    -0.01  -0.02  -0.00    -0.03  -0.09  -0.00
  50   1     0.00  -0.00   0.00    -0.00   0.00  -0.00     0.00   0.00   0.00
                    142                    143                    144
                        a                      a                      a 
 Frequencies --  3099.5709              3422.7207              3445.8545
 Red. masses --     1.8782                 1.8249                 1.8138
 Frc consts  --     0.0000                 0.0000                 0.0000
 IR Inten    --    10.4153               122.3736                80.3094
 Raman Activ --     0.0000                 0.0000                 0.0000
 Depolar     --     0.0000                 0.0000                 0.0000
 Atom AN      X      Y      Z        X      Y      Z        X      Y      Z
   1   6    -0.00   0.00  -0.00     0.00   0.00   0.00    -0.00  -0.00   0.00
   2   6    -0.00   0.00  -0.00    -0.00   0.00  -0.00    -0.00  -0.00   0.00
   3   6    -0.00   0.00   0.00     0.00  -0.00  -0.00    -0.00  -0.00  -0.00
   4   6     0.00   0.00  -0.00     0.00  -0.00   0.00    -0.00   0.00  -0.00
   5   6    -0.05   0.05  -0.00    -0.00  -0.00   0.00     0.00   0.00  -0.00
   6   6    -0.24  -0.03  -0.00     0.00  -0.00   0.00    -0.00   0.00  -0.00
   7   6    -0.04  -0.09   0.00    -0.00   0.00  -0.00     0.00  -0.00  -0.00
   8   6     0.02  -0.01   0.00     0.00   0.00  -0.00    -0.00  -0.00   0.00
   9   6     0.00   0.00   0.00    -0.00   0.00  -0.00     0.01  -0.01   0.00
  10   7    -0.00  -0.00  -0.00    -0.01   0.01  -0.00     0.13  -0.21   0.01
  11   6     0.00  -0.00  -0.00     0.00   0.00  -0.00     0.00  -0.01   0.00
  12   6    -0.00   0.00   0.00     0.00  -0.00   0.00    -0.00   0.00   0.00
  13   6    -0.00   0.01   0.00     0.00   0.00  -0.00    -0.00  -0.00   0.00
  14   6     0.00   0.01  -0.00    -0.00  -0.00  -0.00     0.00  -0.00  -0.00
  15   6     0.00  -0.00  -0.00     0.00   0.01   0.00    -0.00  -0.00   0.00
  16   6    -0.00  -0.00   0.00    -0.00  -0.00  -0.00     0.00   0.00   0.00
  17   6     0.00  -0.00   0.00     0.00   0.00   0.00     0.00   0.00  -0.00
  18   6     0.00  -0.00   0.00    -0.00  -0.00  -0.00     0.00   0.00   0.00
  19   6     0.00  -0.00  -0.00    -0.00  -0.00   0.00     0.00   0.00  -0.00
  20   6    -0.00  -0.00  -0.00    -0.00  -0.00   0.00     0.00   0.00   0.00
  21   6    -0.01  -0.02  -0.00    -0.00   0.00  -0.00     0.00   0.00   0.00
  22   6     0.03  -0.04   0.00     0.00  -0.00   0.00    -0.00   0.00   0.00
  23   6     0.03   0.00   0.00    -0.00   0.00  -0.00    -0.00  -0.00  -0.00
  24   6     0.00   0.01   0.00     0.00  -0.00   0.00    -0.00   0.00  -0.00
  25   6    -0.00   0.00  -0.00     0.00   0.01   0.00     0.00  -0.00   0.00
  26   7     0.00  -0.00   0.00     0.09   0.23   0.00     0.01   0.02   0.00
  27   1     0.01  -0.00   0.00    -0.00   0.00  -0.00    -0.00  -0.00  -0.00
  28   1    -0.00   0.00   0.00     0.00  -0.00  -0.00     0.00  -0.00  -0.00
  29   1    -0.00  -0.00   0.00    -0.00   0.00  -0.00     0.00   0.00   0.00
  30   1     0.01  -0.00  -0.00    -0.00  -0.00   0.00    -0.00   0.00   0.00
  31   1    -0.00  -0.00  -0.00    -0.00   0.00   0.00     0.00   0.00  -0.00
  32   1    -0.00   0.00   0.00    -0.00  -0.00   0.00     0.00  -0.00   0.00
  33   1     0.14  -0.18   0.00     0.00  -0.00   0.00    -0.00   0.00   0.00
  34   1     0.84   0.12   0.00    -0.00  -0.00   0.00     0.00   0.00   0.00
  35   1     0.12   0.29  -0.00     0.00   0.00   0.00    -0.00  -0.00  -0.00
  36   1    -0.04   0.05  -0.00    -0.00   0.00   0.00     0.00  -0.00   0.00
  37   1     0.00   0.00   0.00     0.04  -0.06   0.00    -0.53   0.81  -0.03
  38   1     0.02  -0.02  -0.00    -0.00   0.00   0.00    -0.00   0.00   0.00
  39   1    -0.02  -0.04  -0.00     0.00  -0.00  -0.00     0.00   0.00  -0.00
  40   1    -0.00   0.00   0.00    -0.00  -0.00  -0.00     0.00   0.00   0.00
  41   1    -0.00   0.00  -0.00     0.00  -0.00   0.00     0.00  -0.00   0.00
  42   1     0.00   0.00   0.00    -0.00   0.00   0.00     0.00  -0.01  -0.00
  43   1    -0.00   0.00   0.00    -0.00  -0.00   0.00     0.00  -0.00  -0.00
  44   1     0.00   0.00   0.00     0.00   0.00   0.00    -0.00   0.00  -0.00
  45   1    -0.00  -0.00   0.00     0.00   0.00  -0.00    -0.00  -0.00   0.00
  46   1     0.02   0.05   0.00    -0.00   0.00   0.00    -0.00  -0.00  -0.00
  47   1    -0.11   0.13  -0.00    -0.00   0.00   0.00    -0.00   0.00  -0.00
  48   1    -0.09  -0.02  -0.00     0.00  -0.00   0.00    -0.00  -0.00  -0.00
  49   1    -0.01  -0.02  -0.00    -0.00   0.00  -0.00    -0.00  -0.00  -0.00
  50   1    -0.00  -0.00  -0.00    -0.35  -0.90  -0.01    -0.03  -0.07  -0.00
