$hessian                                                                        
        0.5169442545   0.0153173313  -0.0240238370  -0.0723601167   0.0146057818
       -0.0320385004   0.0028403741  -0.0024256685   0.0061182294   0.0050820776
       -0.0022855409   0.0057424626  -0.0011335786  -0.0009845927   0.0000298750
        0.0004465506   0.0004154743  -0.0001475488  -0.0001527816  -0.0001791289
        0.0001316853   0.0003716010   0.0001721784  -0.0004095332  -0.0019449988
       -0.0011970733  -0.0000082992   0.0018681671   0.0014420931   0.0000333587
       -0.0033872464  -0.0033274310  -0.0013247053  -0.0209719725   0.0141976799
       -0.0225066367  -0.0003563844   0.0006560736  -0.0011297664  -0.0001750858
        0.0006275432   0.0007039804   0.0006222375  -0.0000185008   0.0000587647
       -0.0005324410   0.0005462993   0.0011957558  -0.0001905518  -0.0000974815
       -0.0000618076   0.0000130021   0.0000106554  -0.0000029796   0.0000192235
        0.0000122418  -0.0000057074  -0.0000343643   0.0001636104  -0.0000216602
        0.0000111225  -0.0000500999   0.0000525416  -0.0000340281   0.0000107305
       -0.0000000282   0.0000335143  -0.0000156149   0.0000102539  -0.0000962343
        0.0000538286   0.0000091484   0.0002297460  -0.0003247897  -0.0000370930
       -0.0008064392   0.0001706402  -0.0000930854  -0.2841814853  -0.0001679710
       -0.0033615507  -0.0722336904   0.0387400364   0.0664086710  -0.0691203772
       -0.0754396164   0.0022458724   0.0005145097  -0.0003674435   0.0007676815
        0.0001005951  -0.0000889351  -0.0001112827   0.0000210416   0.0007051857
        0.0019863764  -0.0004373235  -0.0009032916   0.0007148256  -0.0000420312
       -0.0000078230  -0.0000761267   0.0000171296  -0.0000355062   0.0000653930
        0.0000062455  -0.0001081683  -0.0000074647  -0.0000000466  -0.0000670625
        0.0000187153  -0.0009009324   0.0001897213  -0.0009735124   0.0000043846
        0.0000117731   0.0000718939   0.0000012019  -0.0000356406   0.0000233468
        0.0000017979   0.0000069791   0.0000112189  -0.0000039799   0.0000157593
        0.0000073716  -0.0000147238   0.0000115148   0.0000078539  -0.0000053769
       -0.0000006961  -0.0000111424  -0.0000032981  -0.0000068343  -0.0000176911
        0.0000033550   0.0000095371  -0.0000008509  -0.0000162246   0.0000130274
       -0.0000132450  -0.0000204376  -0.0000004629  -0.0000021054   0.0000009224
       -0.0000092068  -0.0000018279   0.0000030968   0.0000388841  -0.0000272878
        0.0153173313   0.5074633420   0.0326282005   0.0148507232  -0.0829117563
        0.0461060635  -0.0024589887   0.0048228425  -0.0090281422   0.0048204352
       -0.0249476144   0.0225664692   0.0008373377  -0.0003692776   0.0010746641
        0.0003923803  -0.0002726791  -0.0008694309  -0.0001680348  -0.0000758952
       -0.0000883642   0.0005050174  -0.0005050942  -0.0012981210  -0.0038552012
       -0.0024482341   0.0010573265   0.0014903176   0.0007162470  -0.0000454355
       -0.0002657006  -0.0003678429   0.0004032629   0.0067166750   0.0007410493
        0.0023261695  -0.0011184876  -0.0010079836   0.0003117093   0.0004228950
        0.0001354328  -0.0001642398   0.0000587499   0.0000423922  -0.0001583995
        0.0001817138   0.0000322747  -0.0000408448  -0.0000151318  -0.0000397463
        0.0000651360   0.0000157536  -0.0000054747   0.0000056624  -0.0000110904
        0.0000083308  -0.0000184451  -0.0000074189   0.0000179675  -0.0000048994
        0.0000204340  -0.0000213618  -0.0000055691  -0.0000026648   0.0000112196
       -0.0000015414   0.0000109257  -0.0000190733   0.0000002329  -0.0000296975
        0.0000149666  -0.0000037556   0.0000639027  -0.0000877327   0.0000144899
       -0.0002119333   0.0000513627  -0.0000040103  -0.0002482715  -0.0428559957
       -0.0010755949   0.0387277622  -0.0994131054  -0.0936195319  -0.0753246882
       -0.2582775054   0.0030569866  -0.0002465574   0.0002594145  -0.0001573282
       -0.0002751627   0.0007232884  -0.0007634909   0.0007172767  -0.0005264100
       -0.0028939716   0.0000634317  -0.0004979940   0.0007550190   0.0000173467
        0.0000074657  -0.0000346164   0.0000141050  -0.0000066309   0.0002288208
       -0.0000394808  -0.0002643855   0.0001531728  -0.0000888534   0.0000674537
       -0.0000713965  -0.0008746821  -0.0001795288  -0.0004729060  -0.0000173462
       -0.0000387917   0.0000658797  -0.0000035292  -0.0000026796  -0.0000326227
        0.0000104864  -0.0000032780  -0.0000010877  -0.0000055742   0.0000207400
        0.0000059505  -0.0000029463   0.0000079761  -0.0000038564   0.0000009777
       -0.0000173378   0.0000374445   0.0000266623   0.0000088990  -0.0000087228
       -0.0000035894   0.0000061698   0.0000010926   0.0000029630  -0.0000007558
        0.0000004832   0.0000011461   0.0000019670   0.0000004870  -0.0000009677
       -0.0000034017   0.0000008935  -0.0000107516   0.0000067646   0.0000007079
       -0.0240238370   0.0326282005   0.4582834053  -0.0281292900   0.0401303665
       -0.1351733317  -0.0061650274   0.0089847410  -0.0304999509   0.0010156594
        0.0092704081  -0.0025975098  -0.0006808094  -0.0005138460   0.0001475426
       -0.0000234636   0.0001907369   0.0001229588  -0.0001699924   0.0000766969
        0.0000467245   0.0002066360   0.0003666416   0.0001028030   0.0002607331
       -0.0008864299  -0.0006060771   0.0000276043   0.0001202354  -0.0002302987
        0.0006811006  -0.0006685911  -0.0006029082  -0.0088832122   0.0020301683
       -0.0021962857   0.0006147933   0.0004222429   0.0001299462  -0.0000881483
        0.0000903041   0.0001015841  -0.0001960380   0.0000842495   0.0000878744
       -0.0002661302  -0.0000346183   0.0000833233   0.0000171319   0.0000452416
        0.0000452108   0.0000455172  -0.0000064303  -0.0000162199   0.0000291478
        0.0000078904  -0.0000046671  -0.0000113525  -0.0000473213  -0.0000082113
       -0.0000289374   0.0000390542   0.0000006448   0.0000033459  -0.0000175366
       -0.0000008864  -0.0000064293   0.0000234517  -0.0000019138   0.0000373744
       -0.0000080900   0.0000018160  -0.0000999739   0.0001169462  -0.0000066498
        0.0001833699  -0.0000658673  -0.0000155224  -0.0026084355  -0.0012347830
       -0.0426064282   0.0661654131  -0.0931843608  -0.1980979185   0.0021489006
        0.0022130774  -0.0424934434  -0.0007862696   0.0005946886   0.0008100461
       -0.0003018812   0.0009607736   0.0008956769   0.0014252722  -0.0020260344
       -0.0054274151  -0.0000893724   0.0002189685  -0.0001772212  -0.0000252907
       -0.0000019285  -0.0000338386  -0.0000125735  -0.0000225688  -0.0000186677
        0.0000504965  -0.0000242064   0.0000490457  -0.0000209192  -0.0000087185
        0.0001196295  -0.0002413291   0.0001634681  -0.0002050663   0.0000029201
        0.0000229609  -0.0000406917  -0.0000167229  -0.0000120335   0.0000055700
        0.0000021253   0.0000065184   0.0000113764  -0.0000097611  -0.0000131742
        0.0000053852  -0.0000141133  -0.0000051285   0.0000013145  -0.0000302167
       -0.0000327549   0.0000124499   0.0000113806   0.0000106487  -0.0000084741
        0.0000014538  -0.0000114672   0.0000005014   0.0000003524   0.0000004008
        0.0000008578  -0.0000007555  -0.0000017863   0.0000007735   0.0000022706
        0.0000037643   0.0000000199  -0.0000027168   0.0000048307   0.0000031168
       -0.0723601167   0.0148507232  -0.0281292900   0.4793507382   0.0204570808
       -0.0004190921  -0.0723674887   0.0148031319   0.0280410301  -0.0816173310
       -0.0437277982   0.0001824866  -0.0145513456  -0.0274803721   0.0001071696
       -0.0051564251   0.0007841755   0.0000647676   0.0006225814  -0.0000076915
       -0.0000032416  -0.0027705559   0.0021513467   0.0000367262   0.0105225964
        0.0125517660  -0.0001043435  -0.0016983719  -0.0035207494   0.0000049453
       -0.0203925058   0.0092724190   0.0001153072  -0.1814858612  -0.0018037900
        0.0001607939  -0.0221234216  -0.0108615322  -0.0000013992   0.0008768085
       -0.0023101120  -0.0000204627  -0.0016153482  -0.0003626793   0.0000266940
        0.0010143093   0.0021489210   0.0000162215  -0.0004797647   0.0000428696
       -0.0000047324   0.0000590321  -0.0000410352   0.0000036207   0.0000466618
       -0.0000575109   0.0000139942  -0.0000221572   0.0000350407   0.0000056495
       -0.0001022506   0.0000955970  -0.0000018091   0.0000272983  -0.0000303200
       -0.0000040529  -0.0000276661   0.0000344146  -0.0000081609   0.0000911562
       -0.0000560367   0.0000055690  -0.0002745252   0.0003845715  -0.0000014590
        0.0011277450  -0.0001279814  -0.0000032416  -0.0139479044   0.0138366093
       -0.0246697294   0.0028532235  -0.0040179003   0.0068289843   0.0027960748
       -0.0038207158   0.0073071923  -0.0139009392   0.0138855355   0.0246577554
        0.0028142383  -0.0038715466  -0.0073853946   0.0028349880  -0.0040105688
       -0.0068054258   0.0007103510  -0.0003381304  -0.0000167298  -0.0007294054
       -0.0012591510   0.0000211924   0.0000337375   0.0000416906  -0.0000049290
        0.0000261030   0.0010825913  -0.0000147111   0.0000169434  -0.0002092240
       -0.0000247154   0.0002382322   0.0014495753   0.0000078632  -0.0004379892
        0.0001339914   0.0000106865  -0.0000579584   0.0000296485   0.0000321428
        0.0000257133  -0.0000021113   0.0000278393  -0.0000016004  -0.0000763965
       -0.0000075684   0.0000196139  -0.0000660529  -0.0000094327  -0.0000642986
        0.0000112438  -0.0000325723  -0.0000083021   0.0000126904  -0.0000188607
        0.0000066380  -0.0000346512  -0.0000013397   0.0000031063  -0.0000035595
        0.0000011698   0.0000094782  -0.0000088521  -0.0000002078   0.0000111507
        0.0000179864  -0.0000008280   0.0000550141  -0.0000071509   0.0000139283
        0.0146057818  -0.0829117563   0.0401303665   0.0204570808   0.4734962830
       -0.0000434356   0.0145875031  -0.0830983237  -0.0402830962  -0.0407863785
       -0.1713931719   0.0002575333  -0.0125124243  -0.0074591542   0.0000563871
        0.0000792043   0.0012183212  -0.0000224933  -0.0009082679  -0.0007719727
       -0.0000026361   0.0037616072  -0.0011010489  -0.0000252678  -0.0020130952
       -0.0304908332   0.0000442489  -0.0033152579   0.0013054205   0.0000382223
        0.0226616632   0.0025151124  -0.0000022883  -0.0030188154  -0.0648882635
       -0.0000798172  -0.0262092156  -0.0019584787   0.0000775446  -0.0014126181
       -0.0046224204  -0.0000511221   0.0004114970   0.0005204004  -0.0000033493
        0.0009333443  -0.0041174229  -0.0000635860   0.0010058846   0.0000391148
        0.0000099704  -0.0000855723   0.0000266365  -0.0000606198  -0.0000425217
        0.0000169019   0.0000416797   0.0001057287  -0.0002296258  -0.0000198297
        0.0000936975  -0.0000073854   0.0000022979   0.0000131970  -0.0000092701
        0.0000037655  -0.0000065597   0.0000037116   0.0000014013  -0.0000163807
       -0.0000009774  -0.0000000890   0.0000681766  -0.0000861309   0.0000044152
       -0.0000708221   0.0000482604  -0.0000163398   0.0021759204  -0.0008514088
        0.0010042655  -0.0039654856   0.0056798769  -0.0095560794   0.0079020761
       -0.0174880515   0.0235995646   0.0022159806  -0.0008908991  -0.0010736193
        0.0078390523  -0.0175013990  -0.0235390291  -0.0039602222   0.0056959270
        0.0095516839   0.0012627375  -0.0000875053  -0.0000075968   0.0002739146
       -0.0000137691   0.0000029855   0.0001184957   0.0002264273   0.0000025697
       -0.0004500978  -0.0008419456  -0.0000007796  -0.0001608737   0.0002870404
        0.0000372368  -0.0002857269   0.0001544551   0.0000047552  -0.0014434140
       -0.0004071573   0.0000068416   0.0000498639   0.0000432375   0.0000077813
       -0.0000302666   0.0000025237  -0.0000123735  -0.0000103687  -0.0000077767
       -0.0000217350  -0.0000028347   0.0000087817  -0.0000030790   0.0000397793
       -0.0000058438  -0.0000192803  -0.0000096134  -0.0000079831   0.0000250199
       -0.0000043404   0.0000145293  -0.0000013768   0.0000054544   0.0000000802
       -0.0000006406  -0.0000003826   0.0000014142  -0.0000007838   0.0000046803
       -0.0000040624   0.0000002048   0.0000492343  -0.0000504183  -0.0000003980
       -0.0320385004   0.0461060635  -0.1351733317  -0.0004190921  -0.0000434356
        0.4259028457   0.0318667457  -0.0462011427  -0.1350715598   0.0001742557
        0.0001561983  -0.0542832456   0.0000487488   0.0001328619  -0.0008828930
        0.0000749440   0.0000676128   0.0066848927   0.0000563561  -0.0000042220
       -0.0000155688   0.0000183080  -0.0000136738   0.0065068899  -0.0000445106
        0.0000288935   0.0021789996   0.0000588270   0.0000745505  -0.0037276603
        0.0002131004  -0.0002561002   0.0004278168   0.0000729348  -0.0000432796
       -0.0532181823   0.0000081884   0.0000919733  -0.0010650102  -0.0000134299
       -0.0000266273   0.0057891795   0.0000274397  -0.0000189863   0.0004356533
        0.0000128410  -0.0000115189   0.0055965546   0.0000084172  -0.0000614450
       -0.0001068001  -0.0000043115   0.0000077353  -0.0000398815   0.0000192937
        0.0000280169  -0.0000164406  -0.0000413281   0.0000083308  -0.0001316838
        0.0000110358  -0.0000058498   0.0002090255  -0.0000254729  -0.0000222570
        0.0000046070  -0.0000089352   0.0000346840   0.0000420601   0.0000285517
       -0.0000031691   0.0000382378  -0.0000522122   0.0000345377  -0.0002022283
        0.0000261419  -0.0000279563  -0.0010058583  -0.0035661086   0.0018538262
       -0.0027113773  -0.0073476600   0.0103645361  -0.0254801686  -0.0005330882
        0.0040539141  -0.0027908265   0.0035643618  -0.0018561733  -0.0027031849
        0.0005120597  -0.0040349402  -0.0027442832   0.0073288695  -0.0104005945
       -0.0254811349  -0.0000188440  -0.0000095940  -0.0028122740   0.0000059033
        0.0000099557   0.0002033344  -0.0000081178  -0.0000081699  -0.0015502582
       -0.0000028711  -0.0000090496  -0.0005662575   0.0000036817   0.0000090589
        0.0001522461  -0.0000098378   0.0000051134  -0.0025749800  -0.0000044402
       -0.0000039222   0.0004243431   0.0000173939   0.0000425955  -0.0000554151
        0.0000003055   0.0000200855  -0.0000158411  -0.0000008300  -0.0000144276
       -0.0000040651  -0.0000185193   0.0000116506  -0.0000158181  -0.0000357237
       -0.0000635338  -0.0000109526   0.0000373015   0.0000053638  -0.0000420455
        0.0000008493  -0.0000011180   0.0000069220   0.0000007642  -0.0000001566
       -0.0000541571  -0.0000006583   0.0000006774  -0.0000055968   0.0000006125
        0.0000001025   0.0000033434  -0.0000037410  -0.0000069948  -0.0000479704
        0.0028403741  -0.0024589887  -0.0061650274  -0.0723674887   0.0145875031
        0.0318667457   0.5170821982   0.0152994731   0.0238279366   0.0050415564
       -0.0023441770  -0.0057654480  -0.0011455143  -0.0009711889  -0.0000239195
        0.0004512663   0.0004086340   0.0001380939  -0.0001532398  -0.0001788292
       -0.0001211731   0.0003737835   0.0001699041   0.0003974710  -0.0019413939
       -0.0011958321   0.0000298830   0.0018213769   0.0013704951  -0.0000244414
       -0.0034357432  -0.0031832054   0.0012931605  -0.0207045274   0.0142162006
        0.0224924879  -0.0003925047   0.0005775960   0.0011301344  -0.0001579028
        0.0006478090  -0.0006808381   0.0005938799  -0.0000213780  -0.0000753224
       -0.0005447273   0.0005569868  -0.0011629648  -0.0001991110  -0.0000751139
        0.0000618802   0.0000136102   0.0000035236   0.0000125814   0.0000073840
        0.0000244782  -0.0000127950  -0.0000134382   0.0001580294   0.0000242751
        0.0000052850  -0.0000445691  -0.0000470198  -0.0000229525   0.0000193232
       -0.0000079618   0.0000377659  -0.0000313995  -0.0000057426  -0.0001096513
        0.0000577331  -0.0000171900   0.0002461500  -0.0003434825   0.0000423642
       -0.0008091031   0.0001888346   0.0001333430   0.0005088360  -0.0003717260
       -0.0007640744   0.0000110505   0.0007061532  -0.0019872202   0.0001072249
       -0.0000905919   0.0001164006  -0.2842940537   0.0006812385   0.0033423345
       -0.0694819388  -0.0759796502  -0.0022747641  -0.0718914632   0.0385461252
       -0.0660090914  -0.0004530751  -0.0009495486  -0.0007264634  -0.0000405744
       -0.0000062667   0.0000756825   0.0000165924  -0.0000365925  -0.0000638131
        0.0000065162  -0.0001088573   0.0000103189  -0.0000023035  -0.0000644787
       -0.0000390559  -0.0009538001   0.0001966611   0.0010087473   0.0000042710
        0.0000126732  -0.0000696222  -0.0000156343  -0.0000273449   0.0000173624
       -0.0000070029   0.0000048693   0.0000032472   0.0000036738   0.0000153416
        0.0000089219  -0.0000202213   0.0000117190   0.0000055864  -0.0000010162
       -0.0000296797  -0.0000004272   0.0000136881  -0.0000022615  -0.0000286528
        0.0000033629   0.0000099984   0.0000006531  -0.0000162452   0.0000133595
        0.0000117819  -0.0000203680  -0.0000005203   0.0000012425   0.0000007055
       -0.0000092840   0.0000005881   0.0000044432   0.0000403039   0.0000198041
       -0.0024256685   0.0048228425   0.0089847410   0.0148031319  -0.0830983237
       -0.0462011427   0.0152994731   0.5075779172  -0.0325634849   0.0047886432
       -0.0250202661  -0.0225262408   0.0007828585  -0.0004092886  -0.0011053675
        0.0004126862  -0.0002365832   0.0008480984  -0.0001345812  -0.0000871813
        0.0000882649   0.0005018253  -0.0005152598   0.0012951659  -0.0038389053
       -0.0024408780  -0.0009923451   0.0014728848   0.0007144240  -0.0000317612
       -0.0002539878  -0.0003858559  -0.0004085268   0.0067052430   0.0007066423
       -0.0023300267  -0.0010858958  -0.0010406727  -0.0003293912   0.0004168447
        0.0001379150   0.0001636566   0.0000594320   0.0000340571   0.0001479045
        0.0001803349   0.0000266950   0.0000632962  -0.0000149151  -0.0000332610
       -0.0000734316   0.0000094120  -0.0000029610   0.0000053677   0.0000004299
       -0.0000136527  -0.0000081522  -0.0000113483   0.0000184114   0.0000030132
        0.0000195395  -0.0000220481   0.0000064261  -0.0000019625   0.0000114870
        0.0000020178   0.0000109503  -0.0000190956   0.0000035024  -0.0000297642
        0.0000151775   0.0000021112   0.0000635768  -0.0000861794  -0.0000100174
       -0.0002099945   0.0000524166  -0.0000044567  -0.0002448315   0.0002537448
        0.0001612599   0.0007211715  -0.0005160276   0.0028823886  -0.0002737343
        0.0007287854   0.0007659633   0.0006093482  -0.0428116706   0.0010738786
       -0.0758778780  -0.2579557428  -0.0030644170   0.0385177620  -0.0995002671
        0.0937315139   0.0000553661  -0.0005282259  -0.0007690080   0.0000184679
        0.0000091282   0.0000286315   0.0000117190  -0.0000105225  -0.0002265605
       -0.0000394470  -0.0002678818  -0.0001508023  -0.0000893623   0.0000679918
        0.0000895405  -0.0009326874  -0.0001790325   0.0004965640  -0.0000173950
       -0.0000369723  -0.0000653514   0.0000057214  -0.0000127190  -0.0000183007
        0.0000189500  -0.0000039678   0.0000040812  -0.0000056376   0.0000274110
        0.0000061430   0.0000039536   0.0000009373  -0.0000020756   0.0000033579
        0.0000155694   0.0000284490   0.0000049353   0.0000015402   0.0000082371
       -0.0000036632   0.0000060928  -0.0000010210   0.0000031400  -0.0000008669
       -0.0000010745   0.0000012537   0.0000020618  -0.0000001241  -0.0000007240
       -0.0000030724  -0.0000005502  -0.0000100294   0.0000072285  -0.0000065861
        0.0061182294  -0.0090281422  -0.0304999509   0.0280410301  -0.0402830962
       -0.1350715598   0.0238279366  -0.0325634849   0.4582439002  -0.0010239384
       -0.0092075507  -0.0025354861   0.0006822735   0.0005145118   0.0001480265
        0.0000248716  -0.0001941643   0.0001187802   0.0001705569  -0.0000780101
        0.0000389786  -0.0002018826  -0.0003579252   0.0001087148  -0.0002557805
        0.0008877272  -0.0006033317  -0.0000426976  -0.0001234425  -0.0002163553
       -0.0006626016   0.0006699862  -0.0005984668   0.0088088610  -0.0020515450
       -0.0022312239  -0.0005936956  -0.0004133073   0.0001254234   0.0000908085
       -0.0000999866   0.0001040250   0.0001970462  -0.0000863876   0.0000764194
        0.0002680988   0.0000329633   0.0000883709  -0.0000153918  -0.0000489406
        0.0000349984  -0.0000392831   0.0000095452   0.0000073794  -0.0000350637
        0.0000021011  -0.0000126052   0.0000142466   0.0000447522  -0.0000011966
        0.0000271819  -0.0000361682   0.0000013770  -0.0000040759   0.0000163798
        0.0000002249   0.0000075690  -0.0000235269   0.0000030087  -0.0000364797
        0.0000094837  -0.0000021116   0.0000946672  -0.0001166926   0.0000009065
       -0.0001792095   0.0000640756  -0.0000321797   0.0007810473  -0.0005862907
        0.0008032930  -0.0014418263   0.0020204203  -0.0054222732   0.0003055586
       -0.0009685418   0.0009031740   0.0025781704   0.0012309553  -0.0426007038
       -0.0021695508  -0.0021988595  -0.0424991009  -0.0657263394   0.0932711577
       -0.1981655143   0.0000848799  -0.0002259770  -0.0001831992   0.0000247446
        0.0000016079  -0.0000364753   0.0000117274   0.0000224944  -0.0000178189
       -0.0000501467   0.0000253173   0.0000440619   0.0000181765   0.0000151595
        0.0001383661   0.0002539931  -0.0001664818  -0.0002199670  -0.0000036886
       -0.0000224795  -0.0000400606   0.0000172288   0.0000145845  -0.0000062734
       -0.0000052477  -0.0000049390  -0.0000022888   0.0000048262   0.0000075102
       -0.0000036962   0.0000141294   0.0000143129   0.0000052802   0.0000238904
        0.0000161951  -0.0000036276  -0.0000048187  -0.0000089192   0.0000086370
       -0.0000011213   0.0000108199   0.0000017170  -0.0000000038  -0.0000001940
       -0.0000004931   0.0000006848   0.0000018119   0.0000003844  -0.0000021881
       -0.0000038961   0.0000012439   0.0000025970  -0.0000049236  -0.0000007312
        0.0050820776   0.0048204352   0.0010156594  -0.0816173310  -0.0407863785
        0.0001742557   0.0050415564   0.0047886432  -0.0010239384   0.6598209881
       -0.0183787492  -0.0032164405  -0.3165948586  -0.0001692428   0.0015291948
       -0.0206393893  -0.0890769914   0.0003846657  -0.0526365766   0.0248623663
        0.0002026464   0.0484465517   0.0378641389  -0.0003660418  -0.1532602690
        0.0677836808   0.0005577377  -0.0494351233   0.0313811979   0.0005326744
        0.0049450216   0.0038004926  -0.0001013434  -0.0150145888  -0.0235795612
        0.0000178306  -0.0060046304   0.0000953697   0.0000235808  -0.0003719951
       -0.0013456596  -0.0000165983   0.0010861055   0.0005929878  -0.0000056440
        0.0000556761  -0.0008541247  -0.0000453160   0.0003518493  -0.0000877278
        0.0000202033  -0.0004463427   0.0000552503  -0.0002994835  -0.0001530995
        0.0000340545   0.0001847250   0.0001804793   0.0002312032   0.0000042197
        0.0000808051  -0.0001464842   0.0000042335  -0.0000661142  -0.0000456973
       -0.0000012233   0.0000362467   0.0000304224   0.0000029730  -0.0000776404
        0.0000461778  -0.0000021663   0.0003157002  -0.0004029434   0.0000071689
       -0.0006299717   0.0002400031   0.0000049074  -0.0000156013   0.0006654949
        0.0002969824   0.0001492725  -0.0001106904   0.0000261522  -0.0004670156
        0.0013615656  -0.0018122183  -0.0000341648   0.0006500936  -0.0002974922
       -0.0004697744   0.0013480914   0.0017999469   0.0001585355  -0.0001144782
       -0.0000241427  -0.0216843717   0.0015003992   0.0002136911   0.0002462700
       -0.0019903799   0.0000395246  -0.0004525413   0.0006278095  -0.0000231668
        0.0000765427  -0.0030081858   0.0000535551  -0.0051635944  -0.0022645175
        0.0002000930   0.0001681667   0.0000344283   0.0000024044  -0.0004447955
       -0.0001566953   0.0000045540  -0.0000563075   0.0000266506   0.0002565169
       -0.0001504692  -0.0000363317  -0.0000193759  -0.0000386007  -0.0001120669
       -0.0000292071  -0.0000350196   0.0000525981  -0.0000072275  -0.0001645236
       -0.0001625160  -0.0002225817  -0.0000427945  -0.0000458415  -0.0000351618
        0.0000214105   0.0000087573  -0.0000006703  -0.0000508547   0.0000362398
       -0.0000017434  -0.0000546828  -0.0000058511  -0.0000020669  -0.0000176467
       -0.0000360813  -0.0000018282   0.0000274334  -0.0000213561  -0.0000050185
       -0.0022855409  -0.0249476144   0.0092704081  -0.0437277982  -0.1713931719
        0.0001561983  -0.0023441770  -0.0250202661  -0.0092075507  -0.0183787492
        0.6079862471  -0.0004310676  -0.0710517716  -0.0974065107   0.0005753522
       -0.0316616106   0.0092627334   0.0001577177   0.0217685378  -0.0043850408
       -0.0001458049  -0.0089518925  -0.0552692330   0.0002218889   0.1368053707
       -0.2291541639  -0.0004133119   0.0100155955   0.0006502514  -0.0003276559
        0.0008993497   0.0014183771   0.0000176629  -0.0091422786  -0.0034551470
        0.0000214126   0.0014463356   0.0007415665   0.0000107016  -0.0006782165
       -0.0002680325   0.0000006277  -0.0011450773  -0.0004928388   0.0000123700
       -0.0004352797   0.0002843036   0.0000237373   0.0000665021   0.0001045465
       -0.0000346606  -0.0000233598  -0.0000182742  -0.0000065122  -0.0000059012
       -0.0000565669   0.0000604099  -0.0000378343  -0.0002517483  -0.0000014514
       -0.0000555282   0.0001312873  -0.0000034108   0.0000472938  -0.0000205817
        0.0000015837  -0.0000609170   0.0000355943  -0.0000074681   0.0001788200
       -0.0000836534   0.0000059949  -0.0004359688   0.0005959074  -0.0000089741
        0.0012549391  -0.0003232746  -0.0000026116  -0.0002215984   0.0003451427
       -0.0006472358  -0.0002882152   0.0006825103  -0.0006258321   0.0004558985
       -0.0023595049   0.0029719392  -0.0002194653   0.0003607237   0.0006574339
        0.0004553012  -0.0023814823  -0.0029736268  -0.0002862631   0.0006785879
        0.0006349304   0.0234315300   0.0018770769  -0.0001406510  -0.0026503240
       -0.0048667623   0.0000440531   0.0003686417   0.0006553910  -0.0000021443
       -0.0019075237  -0.0047063402   0.0000850354  -0.0014636376   0.0010992731
        0.0000971111  -0.0000414401  -0.0001031713  -0.0000027157   0.0001634335
        0.0001313052   0.0000000327   0.0000419885   0.0000752062  -0.0000529941
       -0.0000303277  -0.0000055912  -0.0000059591   0.0000238765  -0.0000924619
       -0.0000159967   0.0000142841  -0.0000669680  -0.0000214728   0.0000723847
        0.0000575996   0.0000023858  -0.0000412224   0.0000007137   0.0000386467
        0.0000031258  -0.0000337028  -0.0000002364   0.0000296498  -0.0000239137
        0.0000017867   0.0000337861  -0.0000027508   0.0000007273   0.0000051243
        0.0000179623   0.0000008758  -0.0000098501  -0.0000035395   0.0000083208
        0.0057424626   0.0225664692  -0.0025975098   0.0001824866   0.0002575333
       -0.0542832456  -0.0057654480  -0.0225262408  -0.0025354861  -0.0032164405
       -0.0004310676   0.1440704976   0.0018648513   0.0001515937  -0.0457290775
        0.0001870684   0.0004458293   0.0003884770   0.0001902655  -0.0001183737
       -0.0041758061  -0.0002266175  -0.0000841668  -0.0009274704   0.0004637813
       -0.0001590951  -0.0488627179   0.0003700017  -0.0002591272   0.0025812743
        0.0000053053  -0.0000178407  -0.0004832611   0.0000106030   0.0000397466
       -0.0000515142   0.0000028620  -0.0000035416   0.0009867017   0.0000067969
       -0.0000017532   0.0001494327   0.0000024479   0.0000016441  -0.0000351261
        0.0000056610  -0.0000036835  -0.0000293483   0.0000006822   0.0000080671
       -0.0000084332   0.0000461034  -0.0000089936   0.0000369619   0.0000188384
        0.0000074605   0.0000358601  -0.0000008237  -0.0000005195  -0.0000036804
       -0.0000011572   0.0000009971  -0.0000015938   0.0000006609  -0.0000000770
        0.0000012543   0.0000010132  -0.0000003662   0.0000012741  -0.0000007757
        0.0000007070   0.0000023615  -0.0000011952   0.0000008132  -0.0000092572
       -0.0000034328  -0.0000019489   0.0000205141   0.0002603411  -0.0000960006
        0.0006906017   0.0003205499   0.0007581246   0.0003748833  -0.0012424615
        0.0034951460  -0.0037665839  -0.0002423486   0.0001002420   0.0006827515
        0.0012442551  -0.0034965502  -0.0037555312  -0.0003241148  -0.0007740941
        0.0003709097   0.0000771321  -0.0000161298   0.0006397557   0.0000400498
        0.0000423706   0.0071856257   0.0000037803  -0.0000058674   0.0000694094
        0.0000488881   0.0000781930   0.0069734021  -0.0000273938   0.0000541069
        0.0021867596   0.0000021998  -0.0000008315  -0.0001049086  -0.0000017825
        0.0000006385  -0.0001081692   0.0000353693  -0.0000125362   0.0000110607
        0.0000116721  -0.0000001623  -0.0000088511   0.0000009323   0.0000064211
        0.0000116712  -0.0000053630  -0.0000050678  -0.0000026436  -0.0000729827
        0.0000089087   0.0000239423  -0.0000155686  -0.0000011485   0.0000011337
        0.0000001977   0.0000000036  -0.0000005175   0.0000001191   0.0000001116
        0.0000000067  -0.0000000406  -0.0000000731  -0.0000003125   0.0000002244
       -0.0000000948  -0.0000015313   0.0000003444   0.0000002240  -0.0000139458
       -0.0011335786   0.0008373377  -0.0006808094  -0.0145513456  -0.0125124243
        0.0000487488  -0.0011455143   0.0007828585   0.0006822735  -0.3165948586
       -0.0710517716   0.0018648513   0.6551385221  -0.0018941813  -0.0030770057
       -0.1262129946  -0.0430887807   0.0006332374   0.0546605704  -0.0119621722
       -0.0002760383  -0.0361160313  -0.0273123023   0.0002648451  -0.0528759026
        0.0660510254   0.0001636641   0.0046578848   0.0018927081  -0.0002725393
       -0.0005635684  -0.0012375820   0.0000166412   0.0007010247  -0.0019446294
        0.0000057106  -0.0012162932  -0.0007335922   0.0000015791   0.0007325477
       -0.0003597078  -0.0000103437  -0.0008152149   0.0003119342   0.0000082154