67
 energy: -109.442593748641 gnorm: 0.000062528916 xtb: 6.7.1 (edcfbbe)
C           -0.35163348252462        3.46471829579032       -1.29895173739615
C           -1.69995328203167        3.77135870256870       -1.40913947859258
C           -2.65509066361777        2.80692373040896       -1.14953967519911
C           -2.28328346990098        1.52432131173904       -0.75525329571388
N           -3.26467073546648        0.55547250342554       -0.55034147526187
C           -4.35144625967450        0.67612482086533        0.29410986567220
C           -4.70321134303686        1.72096765311368        1.13467003734495
C           -5.84729501365481        1.57740866561084        1.89739674342193
C           -6.62120745666145        0.42142974062987        1.83540411685790
C           -6.26271692690432       -0.63049774661744        1.01527287430298
C           -5.11872261580548       -0.50877958753481        0.23859247690527
C           -4.45774299307531       -1.38005041195439       -0.69349817897667
C           -4.73974954496948       -2.64996264376784       -1.17781483821320
C           -3.89020445177840       -3.20493075646288       -2.11394006842849
C           -2.78253284292225       -2.50226580675709       -2.58135026925558
C           -2.48423074679257       -1.23614613810364       -2.11551686764196
C           -3.31630319826677       -0.68682162370826       -1.15207272606301
C           -0.91863456077071        1.22909889549658       -0.59981036955000
C           -0.47802834058630       -0.04035407767545       -0.06942697681897
N           -1.16897317371053       -0.92885300491423        0.58429900979067
N           -0.32852132810504       -1.90380672487002        0.94362053506615
C            0.85238082056216       -1.57866142093076        0.50460090186243
C            2.06735474930854       -2.35012800862454        0.66107164355141
C            1.95826247208823       -3.72482037578884        0.86676876212203
C            3.09011795455464       -4.50927257944453        0.95984914126679
C            4.34585315199840       -3.92958429714909        0.84975212875477
C            4.46870908224346       -2.56343760418991        0.67926160763347
C            3.33785661111825       -1.75792677959902        0.59451353987666
N            3.48206821141017       -0.37059543787898        0.47060357688084
C            2.90528768797693        0.57637734859082        1.29522383243054
C            2.14848085149862        0.40078776144107        2.44478102552092
C            1.67409841541044        1.53175330326580        3.08081179726378
C            1.95692104213174        2.80896365566528        2.60077938458501
C            2.73666465110626        2.98957042737412        1.47638467194218
C            3.21892138012148        1.86741127426943        0.81424320425808
C            4.02651368577279        1.68046856721719       -0.35971659014975
C            4.61237936000681        2.55419202040912       -1.26617440144680
C            5.32178535389878        2.02814498042476       -2.32743496757531
C            5.44024782981499        0.65067359800244       -2.49860573603059
C            4.86387177475641       -0.23907849143176       -1.61193532204773
C            4.16652149855756        0.28471546483822       -0.53386650253706
O            0.82307980318498       -0.40088003949904       -0.15763326009103
C            0.03519637529109        2.20240352760317       -0.89840766124627
H            0.39633247042001        4.21038867518421       -1.51941146260236
H           -2.00720996957595        4.76003996537929       -1.71546450788571
H           -3.70473055937687        3.03027081577500       -1.26921773488747
H           -4.09936571731360        2.61377326928195        1.20164117059637
H           -6.14524062645161        2.37807013985329        2.55848610424587
H           -7.50897608085627        0.34778404322318        2.44597037077808
H           -6.85483951506154       -1.53244729510175        0.97953284489759
H           -5.60775437859355       -3.18846583565640       -0.82844300962870
H           -4.08722049124705       -4.19456264548254       -2.49897117309463
H           -2.14371849886525       -2.95591936321129       -3.32534697752158
H           -1.63023667553421       -0.69322762997977       -2.49544202716184
H            0.97011939224205       -4.15114459314015        0.93605679635030
H            2.99690487270485       -5.57333526034135        1.11202671257818
H            5.23285004997246       -4.54165323248430        0.91364246495339
H            5.44352892467532       -2.10151563969510        0.62865265481739
H            1.92887289858343       -0.58517502221218        2.82859353719389
H            1.07035578292369        1.42154495603160        3.96916048126616
H            1.56300375369604        3.66729512098712        3.12404753014131
H            2.96671412323081        3.97971704503956        1.11259608601957
H            4.51024020148411        3.62168924852695       -1.14044669826005
H            5.78760753243988        2.69026168466818       -3.04197276810727
H            5.99180485398953        0.26931448693850       -3.34520194658253
H            4.94702591366500       -1.30554517258365       -1.75977489489043
H            1.08166803670520        1.96179004402438       -0.79086442409178
