$hessian                                                                        
        0.3024545366  -0.1834105050  -0.1483039186  -0.0928245286   0.0721892614
       -0.0290480350  -0.0160104434   0.0164502894  -0.0188290052   0.0008060756
       -0.0002681493  -0.0027903902  -0.0003893212  -0.0019791723  -0.0003216564
       -0.0001422037   0.0001814942   0.0003625636  -0.0001472153  -0.0009888619
        0.0006767260  -0.0010912480   0.0003384731   0.0015286118  -0.0009642275
        0.0003096150   0.0029794771   0.0002345349   0.0006871747  -0.0000366451
        0.0001004044   0.0000151229  -0.0003455853  -0.0000044655  -0.0000120305
        0.0000112559   0.0001399238  -0.0000631216   0.0000411960   0.0000704782
        0.0001090658   0.0000187365   0.0000255420   0.0001480652  -0.0000089227
        0.0000951165   0.0000098947   0.0000516740   0.0000383141   0.0000265172
       -0.0000663219   0.0000013838  -0.0000192041   0.0000300684  -0.0000208519
        0.0000043780  -0.0000110136   0.0000058935  -0.0000146119   0.0000313169
       -0.0000193500  -0.0000047852   0.0000229283   0.0000250067   0.0000031465
       -0.0000171328   0.0002301063  -0.0001896169  -0.0000920608  -0.0006464331
       -0.0001140805   0.0003908141   0.0002551909  -0.0001243787  -0.0000751357
        0.0001042012   0.0000173798  -0.0000043019   0.0001042549  -0.0000965960
        0.0000268120  -0.0001215152   0.0000549723  -0.0000570364  -0.0003814652
       -0.0005104164  -0.0001265899   0.0002087478  -0.0006457586   0.0010294755
       -0.1841978556   0.0724582397   0.1985670493   0.0105864349  -0.0001774156
        0.0016371914  -0.0192353453   0.0244076841  -0.0060552818   0.0002397836
        0.0005451934  -0.0000436049  -0.0002626709  -0.0000730936  -0.0001711802
       -0.0000685202   0.0002970644  -0.0002171154   0.0000385081   0.0000410155
       -0.0001488180  -0.0000625698  -0.0001426864   0.0000665820  -0.0000225344
        0.0000035869   0.0000028759   0.0000025285   0.0000274732  -0.0000059585
        0.0000322982   0.0000291553  -0.0000342957  -0.0000012007   0.0000100217
       -0.0000142829   0.0000112691   0.0000040080  -0.0000164093   0.0000148195
       -0.0000004359  -0.0000189274   0.0000419635  -0.0000052520  -0.0000108324
        0.0000179523   0.0000224988  -0.0000431148   0.0000738616   0.0000028525
       -0.0000448702   0.0003973946   0.0002949875  -0.0004350282   0.0000178522
       -0.0000065110  -0.0000516292   0.0000349841   0.0000039600  -0.0000289818
        0.0000200393   0.0000314315  -0.0000410370   0.0001845646   0.0001226604
        0.0000397644
       -0.1834105050   0.2448638609  -0.0213951235   0.0608686787  -0.1433081234
        0.0642216430   0.0089885553   0.0005138067   0.0091291180  -0.0006226825
       -0.0002624588   0.0015040377   0.0001637134   0.0002894813   0.0001877179
       -0.0000895352  -0.0000586691  -0.0002168133   0.0002909230   0.0001855894
       -0.0000716223   0.0003082023   0.0002695543  -0.0015375550   0.0002943334
       -0.0003983719  -0.0012339472  -0.0000935764  -0.0006552805   0.0004211710
       -0.0000843840   0.0002305824   0.0004948075   0.0000506292   0.0002233924
        0.0000058359  -0.0001489568   0.0001935325  -0.0000134729   0.0001059346
       -0.0000775199   0.0000410173   0.0002075815   0.0000065009  -0.0000756931
        0.0000799968  -0.0000168921  -0.0000255894  -0.0000105159   0.0000286157
        0.0000522617  -0.0000100886   0.0000140412  -0.0000200039  -0.0000121184
       -0.0000012582  -0.0000012799  -0.0000005986   0.0000011429  -0.0000113008
        0.0000136442  -0.0000139989   0.0000337333  -0.0000167949   0.0000619421
       -0.0000278858   0.0001232885  -0.0000466427  -0.0000622026  -0.0001119291
        0.0000796059   0.0000936998  -0.0002101623   0.0000053980   0.0000961810
       -0.0000184919   0.0001415035  -0.0000057838  -0.0000614670  -0.0000657802
        0.0000138599   0.0000382797   0.0001234215   0.0000093714  -0.0002013664
        0.0002230759  -0.0004406584  -0.0004184671   0.0002948988  -0.0005999625
        0.0827862360  -0.0490592662  -0.0696954227   0.0179027842  -0.0416517777
        0.0181019861   0.0130932988  -0.0118448095   0.0009370476  -0.0000811516
       -0.0002645258  -0.0001874483   0.0001635941   0.0000850248   0.0000737019
        0.0000234654  -0.0000372899   0.0000857015  -0.0000742269  -0.0000786545
        0.0000809876  -0.0001119552   0.0000170486  -0.0001458085   0.0000287221
        0.0000502189  -0.0000318383  -0.0000078843  -0.0000286515  -0.0000112126
       -0.0000425316  -0.0000163554  -0.0000230612   0.0000071904  -0.0000167533
        0.0000145899  -0.0000090905  -0.0000081612   0.0000189598  -0.0000210950
       -0.0000078723   0.0000175635  -0.0000156214  -0.0000050554   0.0000064519
       -0.0000552897   0.0000013830   0.0000227565  -0.0000543397  -0.0000169329
        0.0000509333   0.0001399747  -0.0000628090  -0.0001888732   0.0000417661
       -0.0000032622   0.0000247762   0.0000229161   0.0000005895   0.0000256638
        0.0000108236   0.0000462334   0.0000454609   0.0002402938   0.0000567279
        0.0002115232
       -0.1483039186  -0.0213951235   0.3521788288  -0.0109525920   0.0477451359
       -0.0961819308  -0.0243478036   0.0250503730  -0.0189049250   0.0001816185
       -0.0002347031  -0.0034322191  -0.0005952474  -0.0020088879   0.0000847719
       -0.0003023274   0.0002206363   0.0003187073   0.0000618766  -0.0012437391
        0.0012211425  -0.0010960245   0.0004087536   0.0006058581   0.0006310387
        0.0013693868  -0.0038965741  -0.0003421307  -0.0009767565  -0.0001945222
       -0.0002238830   0.0003745440  -0.0000966689   0.0001554650  -0.0001445332
        0.0000485793  -0.0000719797   0.0001688645   0.0000186770  -0.0000093449
       -0.0002046456   0.0000517592   0.0002066833   0.0003102040   0.0000855217
       -0.0000955412  -0.0001468295   0.0000295781   0.0000499768   0.0000081180
       -0.0000230680   0.0000318678  -0.0000418558   0.0000356873  -0.0000112396
       -0.0000004026   0.0000185306  -0.0000227822  -0.0000143926   0.0000525476
       -0.0000045128   0.0000002761   0.0000063012   0.0000105201   0.0000190918
       -0.0000329294   0.0001761475  -0.0000259455  -0.0000834194  -0.0003921926
       -0.0000942014   0.0002482773  -0.0003115710   0.0001204313  -0.0000027219
       -0.0000097268  -0.0003250471   0.0000450018   0.0001034763   0.0001239001
        0.0000252099   0.0000867763   0.0001707345   0.0000441898   0.0001427458
        0.0003770417  -0.0000029014  -0.0000387615   0.0000356820  -0.0008584398
        0.1796173896  -0.0508273891  -0.2359275187  -0.0049888531   0.0164784755
       -0.0023086424   0.0105383345  -0.0159383711   0.0079688959   0.0000498938
        0.0004614273  -0.0001574749  -0.0003100138  -0.0001518275  -0.0002629639
       -0.0000197665   0.0002962077  -0.0002298653   0.0000884763   0.0000588916
       -0.0000818234  -0.0000132496  -0.0001818005   0.0000266805  -0.0000229387
       -0.0000209139  -0.0000019981   0.0000274272   0.0000172024  -0.0000042107
        0.0000563555   0.0000053278  -0.0000189071  -0.0000250397   0.0000036427
        0.0000067661  -0.0000077054   0.0000025443  -0.0000005677  -0.0000050904
       -0.0000025791  -0.0000053659   0.0000219690  -0.0000086880  -0.0000010500
        0.0000065540   0.0000168061  -0.0000059877   0.0000117109  -0.0000256491
       -0.0000875995   0.0001669327   0.0001421117  -0.0002584911   0.0000532105
       -0.0000080555  -0.0000170744   0.0000372175  -0.0000236593  -0.0000293100
       -0.0000232804  -0.0000394210  -0.0000217234   0.0000338532   0.0000996067
        0.0000093825
       -0.0928245286   0.0608686787  -0.0109525920   0.4833297550   0.0149936814
       -0.0575325176  -0.0853008989  -0.0178001600  -0.0402210507  -0.0208230151
       -0.0071891288  -0.0239107852  -0.0044739047   0.0011462865   0.0006245609
       -0.0005352854  -0.0002350029  -0.0007151196  -0.0008165984   0.0015010388
        0.0032848759   0.0078136862   0.0029512880   0.0077664901   0.0011669299
        0.0001203056   0.0001869375  -0.0003992881  -0.0005053457   0.0005157439
       -0.0005039946  -0.0002766596   0.0005296776   0.0001365839   0.0002539249
        0.0000336402  -0.0002196754   0.0001719294  -0.0000392852   0.0001063810
       -0.0001353045  -0.0000447363   0.0001132405  -0.0002356213   0.0000882313
       -0.0000107547   0.0001164447  -0.0000568559  -0.0000733731  -0.0000116216
        0.0000622526  -0.0000102977   0.0000288726  -0.0000475675   0.0000201405
       -0.0000052912   0.0000033630   0.0000149302   0.0000101314  -0.0000293537
        0.0000337900  -0.0000014407   0.0000081880  -0.0000080483  -0.0000036033
       -0.0000109676  -0.0000235204   0.0000001170  -0.0000255584   0.0002307963
        0.0001242342  -0.0001750734  -0.0000910982   0.0000525615   0.0000624983
        0.0000511530   0.0001497450  -0.0000273914  -0.0000852250  -0.0001365643
       -0.0000154407   0.0000683380  -0.0001023421   0.0000378557  -0.0000420505
        0.0001713535  -0.0000839646  -0.0000672734   0.0003666339  -0.0001823741
       -0.0188085524   0.0204864058  -0.0087891381  -0.1201981964  -0.0996129680
        0.0181153886  -0.1478711567   0.0240025229   0.1127004312   0.0004225012
       -0.0008183491  -0.0018550740  -0.0005376817  -0.0003768516  -0.0010392654
        0.0001413707  -0.0001411385   0.0001263778   0.0002610354   0.0002809553
        0.0010972173   0.0000913582   0.0000671863  -0.0000655095   0.0000242149
       -0.0000298379   0.0000301267  -0.0000050190  -0.0000298734   0.0000049293
       -0.0000241033  -0.0000178687   0.0000265609   0.0000037048  -0.0000106975
        0.0000381410  -0.0000117861  -0.0000054470   0.0000207706  -0.0000137036
       -0.0000014616   0.0000145026  -0.0000275738   0.0000047650   0.0000076298
       -0.0000154113   0.0000041119   0.0000391478  -0.0000476458  -0.0000033944
        0.0000269525  -0.0001671048  -0.0001268834   0.0002429785  -0.0000157976
        0.0000038160   0.0000252642  -0.0000176450   0.0000083002   0.0000245053
        0.0000023267  -0.0000070900   0.0000379949   0.0000379715  -0.0000653434
        0.0000363864
        0.0721892614  -0.1433081234   0.0477451359   0.0149936814   0.4270479905
        0.0180733990  -0.0195578581  -0.0672874436  -0.0345821674  -0.0026663960
        0.0015851990  -0.0041272257  -0.0004591659   0.0073010302  -0.0018108002
        0.0003279138  -0.0003365495  -0.0000544371   0.0004411100   0.0055405335
       -0.0032026631  -0.0009842846  -0.0021721449  -0.0074002443  -0.0010407532
       -0.0019008361   0.0014925439  -0.0003559183   0.0006892105  -0.0001926093
        0.0001583730  -0.0003813993  -0.0000509646  -0.0001410864  -0.0002403648
       -0.0000113428   0.0003017305  -0.0004132979  -0.0000075124  -0.0001383951
        0.0003518969  -0.0000859141  -0.0003891702  -0.0001911273   0.0000879856
       -0.0000967498   0.0000518346   0.0000663941   0.0000438106   0.0000073494
       -0.0000895273   0.0000076371  -0.0000191165   0.0000139516   0.0000178828
       -0.0000012584  -0.0000051884  -0.0000026411  -0.0000055674   0.0000182365
       -0.0000138518   0.0000063221  -0.0000292291  -0.0000037212  -0.0000352597
        0.0000388242  -0.0000007622  -0.0001184269  -0.0000054614  -0.0001895756
       -0.0000456384   0.0000257687   0.0001697511  -0.0001172676  -0.0001371274
        0.0000237870  -0.0001430211   0.0000044455   0.0000818274   0.0001095736
       -0.0000049325  -0.0001913859   0.0000285204  -0.0000212297   0.0002052711
       -0.0003229665   0.0003305744   0.0006666334  -0.0002234704   0.0002487179
        0.0101610436  -0.0132224188   0.0002685488  -0.1009746144  -0.1585576549
        0.0139610663   0.0270566938  -0.0502378324  -0.0319127055   0.0006545373
       -0.0019592959   0.0013039316  -0.0000665747  -0.0001607217  -0.0000444753
        0.0000156531  -0.0014677441   0.0005346782  -0.0001406724  -0.0000787768
       -0.0003153707  -0.0000803473  -0.0001164490   0.0001224398  -0.0000411518
        0.0000322728   0.0000570213  -0.0000331977   0.0000329374   0.0000055497
        0.0000072293   0.0000309220   0.0000296492  -0.0000005547   0.0000114710
       -0.0000127497   0.0000082572   0.0000138627  -0.0000156593   0.0000137666
        0.0000125574  -0.0000192560   0.0000187715   0.0000137449  -0.0000143737
        0.0000426219   0.0000260846  -0.0000350848   0.0000602387   0.0000414892
       -0.0000374137   0.0000752453   0.0001737212   0.0000566582  -0.0000304733
        0.0000096868  -0.0000012484  -0.0000048440   0.0000183559  -0.0000240415
        0.0000151379  -0.0000006284  -0.0000337722  -0.0001537211  -0.0000717647
       -0.0002007927
       -0.0290480350   0.0642216430  -0.0961819308  -0.0575325176   0.0180733990
        0.4792126915  -0.0441694558  -0.0361361875  -0.1573340258  -0.0091656890
       -0.0024601573  -0.0042207121   0.0002089194  -0.0005676394   0.0018856955
       -0.0000760012  -0.0002179178  -0.0007269614   0.0032338204  -0.0021847880
       -0.0020804476  -0.0050093407  -0.0084580487  -0.0294268672  -0.0007265166
        0.0003597191  -0.0004669022   0.0003511715   0.0002246612  -0.0004331193
       -0.0000031887  -0.0000567278  -0.0000075836  -0.0000937677  -0.0000031002
       -0.0001133018   0.0000268403  -0.0000323570   0.0000270061   0.0000172694
        0.0001160836  -0.0000196244  -0.0002012369  -0.0001582070  -0.0001000684
        0.0001103731  -0.0000147946  -0.0000254722   0.0000429451  -0.0000175837
        0.0000750533  -0.0000280094   0.0000505443  -0.0000708168  -0.0000058404
       -0.0000073219  -0.0000002034   0.0000034277   0.0000083064  -0.0000317581
        0.0000265689  -0.0000046359   0.0000257206   0.0000062198   0.0000016648
       -0.0000133530   0.0000256834   0.0000049240   0.0000020012   0.0000902691
        0.0000613052  -0.0000828513  -0.0000253412   0.0001434718   0.0000586752
       -0.0000545194   0.0000018626  -0.0000173582   0.0000155831   0.0000332795
       -0.0000075309  -0.0000664914  -0.0000332724   0.0000190574  -0.0000540920
        0.0000313074  -0.0000383954  -0.0003830097   0.0000182177  -0.0000723294
        0.0099479855  -0.0188851736   0.0114809703   0.0198535250   0.0139759161
       -0.0441288921   0.1107266224  -0.0289758070  -0.1574290676   0.0019972369
        0.0007471789   0.0008746516   0.0004268803   0.0001203309   0.0000891494
        0.0001196432   0.0003666942   0.0001653550  -0.0005733330  -0.0003424836
       -0.0007950176   0.0002008123   0.0002160138  -0.0003246808   0.0000412753
       -0.0000341003  -0.0000231566   0.0000013200  -0.0000432982   0.0000101689
       -0.0000437189  -0.0000300196   0.0000053037   0.0000122496  -0.0000147286
        0.0000260356  -0.0000160360  -0.0000106664   0.0000234273  -0.0000196023
       -0.0000043817   0.0000127244  -0.0000248762   0.0000068621  -0.0000003520
       -0.0000395028  -0.0000002120   0.0000106024  -0.0000372775  -0.0000136842
        0.0000597843  -0.0000324934  -0.0000580938   0.0000960059  -0.0000499829
        0.0000226524  -0.0000082333  -0.0000310319   0.0000300493   0.0000279386
        0.0000072149   0.0000368973   0.0000364054   0.0000170509  -0.0001075959
       -0.0000434105
       -0.0160104434   0.0089885553  -0.0243478036  -0.0853008989  -0.0195578581
       -0.0441694558   0.6451736432  -0.0016898414  -0.0054678705  -0.3183519131
        0.0051278421   0.0246116556  -0.0304982743  -0.0261303222  -0.0834877800
       -0.0506246452   0.0083647301   0.0277359336   0.0551925218   0.0077265151
        0.0312063964  -0.1389130904   0.0180009203   0.0589397361  -0.0323588353
        0.0074488043   0.0206195400   0.0002343965   0.0029504818   0.0020194312
        0.0004179179  -0.0002488466  -0.0001130649  -0.0008605787  -0.0006394798
       -0.0000188873   0.0011451380  -0.0009784284  -0.0000177657  -0.0003950982
        0.0014668488  -0.0002295094  -0.0006533322  -0.0009136068  -0.0004919784
       -0.0001110904   0.0001034809   0.0001243995   0.0001669483   0.0000107622
       -0.0002541656   0.0000157586  -0.0000671403   0.0000515320   0.0000306752
        0.0000226790  -0.0000064522  -0.0000196541   0.0000013227  -0.0000082393
        0.0000004660   0.0000262050  -0.0000231719  -0.0000858212   0.0000261315
        0.0000127845  -0.0000079800  -0.0000037759  -0.0000062848   0.0000247186
       -0.0000170486  -0.0000107088  -0.0010854185   0.0012292212  -0.0007852978
       -0.0004467373  -0.0014207865   0.0001103684   0.0010616166   0.0009387407
       -0.0001076687  -0.0006709770   0.0005175626   0.0001441758   0.0010172115
       -0.0005104234   0.0003265332  -0.0018699041  -0.0032028559  -0.0017885053
       -0.0004293313   0.0001700741  -0.0009943682  -0.0116735088  -0.0115316245
       -0.0180689332   0.0063178582   0.0054080881   0.0156832995  -0.0199262813
        0.0001083510   0.0030488067  -0.0001292251  -0.0008431089  -0.0024324786
       -0.0002349909   0.0006148195   0.0004883366  -0.0004173613  -0.0008552133
       -0.0028936282  -0.0000022794  -0.0009488092   0.0001616096   0.0000228141
        0.0000331281   0.0000422963   0.0000301959   0.0000074330  -0.0000034455
       -0.0000110364  -0.0000185148   0.0002153684   0.0000057212   0.0000057408
       -0.0000079534   0.0000125757   0.0000099530   0.0000031713   0.0000020331
       -0.0000069686  -0.0000023486  -0.0000053880  -0.0000006470   0.0000031716
       -0.0000008171  -0.0000057473   0.0000000794   0.0000043875  -0.0000208552
        0.0000119767  -0.0000235317   0.0000203116   0.0000189435  -0.0000473506
        0.0000419786   0.0002061214   0.0000213795   0.0000037259  -0.0000624774
        0.0000149502  -0.0000163666   0.0000127825   0.0002528664   0.0002538618
        0.0000017933
        0.0164502894   0.0005138067   0.0250503730  -0.0178001600  -0.0672874436
       -0.0361361875  -0.0016898414   0.1834305438   0.1193265693  -0.0188467015
       -0.0508777091  -0.0127418779  -0.0072552556   0.0013241077   0.0053328767
        0.0066978116  -0.0053435834  -0.0001261585  -0.0037115954  -0.0028677665
       -0.0173518731   0.0280940766  -0.0643958026  -0.0487906840   0.0097931548
        0.0025385560  -0.0000295231  -0.0009435339  -0.0030121792  -0.0030405595
       -0.0014240011  -0.0004771074   0.0001603641   0.0004965853   0.0005718437
        0.0001054189  -0.0009726260   0.0008576546   0.0000044406   0.0003463779
       -0.0013194712   0.0002478628   0.0004591275   0.0006565072  -0.0002228803
        0.0002837071  -0.0001735474   0.0000236858  -0.0001161865   0.0000064995
       -0.0000842052   0.0000379988   0.0000879788  -0.0000638383  -0.0000103723
        0.0000111540  -0.0000283504   0.0000249429   0.0000105096  -0.0000137824
       -0.0000088135   0.0000026919   0.0000148137   0.0000261522  -0.0000513705
        0.0000474907  -0.0000038011  -0.0000350411  -0.0000019108   0.0000032130
        0.0000620560  -0.0000184001   0.0002924592  -0.0001961392   0.0002421175
        0.0002122190   0.0009075142  -0.0001323223  -0.0007149671  -0.0006947446
       -0.0000865186   0.0005119375  -0.0004618139   0.0000457599  -0.0003898960
       -0.0000496945  -0.0001266095  -0.0003921278   0.0011155930   0.0019776003
       -0.0002521690   0.0010641565   0.0000875868  -0.0123270336  -0.0076784892
       -0.0198994454  -0.0019981604  -0.0009766482  -0.0061680281   0.0069048849
        0.0010748845  -0.0008984845  -0.0008668971   0.0067906206  -0.0034905229
        0.0002000438  -0.0001078840   0.0001721846  -0.0007227076   0.0063389338
       -0.0037161273  -0.0004882472  -0.0009550892   0.0005829298   0.0000114178
       -0.0000425131  -0.0000390150  -0.0000245256  -0.0000128906  -0.0000523337
       -0.0000041316   0.0000002896   0.0000613212   0.0000095145  -0.0000141428
        0.0000141223  -0.0000071376  -0.0000003883   0.0000062066  -0.0000088353
        0.0000083423   0.0000005288  -0.0000100380   0.0000190072  -0.0000059111
       -0.0000063072   0.0000167798   0.0000006252  -0.0000030433   0.0000254610
        0.0000176684   0.0000012956  -0.0000556095   0.0000329727  -0.0000298712
        0.0000148677   0.0000423931  -0.0000223408   0.0000255912   0.0000051594
        0.0000155755   0.0000347597   0.0000632219   0.0001785398  -0.0004236416
       -0.0004007446
       -0.0188290052   0.0091291180  -0.0189049250  -0.0402210507  -0.0345821674
       -0.1573340258  -0.0054678705   0.1193265693   0.5533956872  -0.0482889999
       -0.0116899312  -0.0887695909  -0.0268253997   0.0053451264   0.0183496392
        0.0260597667  -0.0006195296  -0.0087664240  -0.0196748062  -0.0177378302
       -0.0591239186   0.1153766920  -0.0510082255  -0.2071567179   0.0115266417
       -0.0004424217   0.0010885909  -0.0014242404  -0.0006327455  -0.0019268190
        0.0000113890  -0.0000539926  -0.0005367260   0.0001088599   0.0001203415
        0.0000985398  -0.0004347865   0.0003040855  -0.0000661593  -0.0000029448
       -0.0005680498   0.0001315703   0.0000415884   0.0000644060  -0.0002394584
        0.0000849670   0.0000083281   0.0000444997  -0.0000746561   0.0000003591
       -0.0001687210   0.0000574647   0.0000349780  -0.0000256598  -0.0000057958
        0.0000107596  -0.0000218250   0.0000103213  -0.0000013818  -0.0000193993
       -0.0000163372   0.0000036195   0.0000031516  -0.0000125641  -0.0000480353
        0.0000348618   0.0000109968  -0.0000389955  -0.0000138268   0.0000169288
        0.0000288832  -0.0000329056   0.0002645109  -0.0002042890  -0.0000152649
        0.0000585231   0.0007044636  -0.0000295413  -0.0005930610  -0.0004074248
       -0.0000297512   0.0001700003  -0.0003641251   0.0000601412  -0.0003977311
        0.0003314220  -0.0001726905  -0.0016578007   0.0016233646   0.0004218222
        0.0007811350   0.0009171408   0.0015010109  -0.0043994467  -0.0035255707
       -0.0005459811  -0.0056243237  -0.0083697088  -0.0238084294   0.0236883270
       -0.0008484408  -0.0015034307  -0.0029747434  -0.0037487481  -0.0033087787
        0.0006414993  -0.0001480123   0.0005511820  -0.0022763621  -0.0037524904
       -0.0033194363   0.0006122883   0.0014554380  -0.0000557825   0.0000051078
       -0.0000509706   0.0000082898  -0.0000242583  -0.0000249072  -0.0000435187
       -0.0000486537  -0.0000380465   0.0001318960   0.0000182168  -0.0000141046
        0.0000170687   0.0000010589  -0.0000074216   0.0000091573  -0.0000051500
       -0.0000079138  -0.0000013429  -0.0000143674   0.0000083824  -0.0000009903
       -0.0000072708   0.0000006279   0.0000008056  -0.0000095029   0.0000101299
        0.0000185818  -0.0000293549   0.0000104336   0.0000945837  -0.0000591616
        0.0000134759   0.0001379929  -0.0000604825   0.0000254878  -0.0000124032
       -0.0000064631   0.0000356457   0.0000228077  -0.0000796927  -0.0005771064
       -0.0001674363
        0.0008060756  -0.0006226825   0.0001816185  -0.0208230151  -0.0026663960
       -0.0091656890  -0.3183519131  -0.0188467015  -0.0482889999   0.6475358782
        0.0034369316  -0.0044348835  -0.1434350468  -0.0174895438  -0.0526509474
        0.0592300913  -0.0061891223  -0.0216308177  -0.0439499061  -0.0086643863
       -0.0284683660  -0.0430419045   0.0222612419   0.0724713959   0.0020609042
        0.0010502512   0.0020450993  -0.0005446644  -0.0004420008  -0.0013800282
       -0.0001467296   0.0002384207   0.0000384364   0.0004663876   0.0002176241
        0.0000829559  -0.0003491342   0.0003753455  -0.0000776836   0.0000750329
       -0.0004810730   0.0000939873   0.0000930223   0.0002594575  -0.0001725324
        0.0001538190  -0.0000517344   0.0000472997  -0.0000504239  -0.0000024357
       -0.0000826411   0.0000469707   0.0000043786   0.0000069015  -0.0000045935
        0.0000113927  -0.0000115502   0.0000017308   0.0000016833  -0.0000069749
       -0.0000127684   0.0000039508  -0.0000005198   0.0000005237  -0.0000091646
        0.0000161822   0.0000337275  -0.0000142752  -0.0000269117  -0.0000194357
        0.0000125019   0.0000047078   0.0001698200  -0.0001867101  -0.0000791908
        0.0000372540   0.0004452452  -0.0000851803  -0.0004059470  -0.0002915372
       -0.0000518423   0.0003399090  -0.0002386900   0.0000011843  -0.0004097610
        0.0001737071  -0.0001797420  -0.0008623085   0.0007870489   0.0010315251
       -0.0004692023  -0.0001184287   0.0001579325  -0.0005224317  -0.0000100261
       -0.0007091254   0.0009957235   0.0005524898   0.0020165550  -0.1204065443
        0.0343894973   0.1118550655  -0.0169903643  -0.0082358241  -0.0255788030
       -0.0008967437   0.0010792723   0.0033292051  -0.0001056938  -0.0004469776
       -0.0006207360  -0.0000936364  -0.0003851224   0.0002109109   0.0000077346
       -0.0000108735   0.0000085055   0.0000312771   0.0000107590  -0.0000191065
        0.0000141309  -0.0000126432   0.0000620951   0.0000006767   0.0000015331
       -0.0000033699  -0.0000017892   0.0000001498   0.0000022782  -0.0000065597
       -0.0000019006  -0.0000018931  -0.0000060130   0.0000015291   0.0000001305
       -0.0000055458   0.0000036186   0.0000009201  -0.0000129776  -0.0000051123
        0.0000011544  -0.0000021407  -0.0000017891  -0.0000078491   0.0000229306
        0.0000070834   0.0000726962   0.0000092280  -0.0000173965  -0.0000007954
       -0.0000119965  -0.0000009910   0.0000124422  -0.0001936573   0.0001184251
       -0.0000150063
       -0.0002681493  -0.0002624588  -0.0002347031  -0.0071891288   0.0015851990
       -0.0024601573   0.0051278421  -0.0508777091  -0.0116899312   0.0034369316
        0.1623854194   0.1550713193  -0.0407865578  -0.0685534351  -0.0661109433
        0.0112309292  -0.0050524243  -0.0201728264  -0.0097060543  -0.0060605909
       -0.0032301179   0.0052595421   0.0031578849   0.0077236679   0.0013467196
        0.0064318925  -0.0027735358   0.0011775761  -0.0003375783  -0.0002266131
        0.0000206618  -0.0001216029   0.0000508452   0.0001384610   0.0000978129
       -0.0000050707  -0.0002067088   0.0001642129   0.0000365468   0.0001422801
       -0.0002613983   0.0000470065   0.0001215049   0.0004662464   0.0000652541
        0.0000605212  -0.0000459078  -0.0000472882  -0.0000090859  -0.0000110445
        0.0001234382  -0.0000232532   0.0000184954  -0.0000124383  -0.0000081114
       -0.0000122613   0.0000063118   0.0000048568  -0.0000015950   0.0000073839
        0.0000038123  -0.0000176953   0.0000073217   0.0000257804   0.0000023006
       -0.0000028947  -0.0000018029   0.0000048793   0.0000048014  -0.0000054041
       -0.0000150416   0.0000003580  -0.0000487043   0.0001983376   0.0001132879
       -0.0000679185   0.0001528208  -0.0000253089  -0.0001536739  -0.0001320667
        0.0000297793   0.0001401061  -0.0001001115  -0.0000532197  -0.0002533445
        0.0000153662  -0.0000952179  -0.0012477665   0.0001017959   0.0005636424
        0.0001467846  -0.0000551232   0.0001963804  -0.0010227670  -0.0009267785
       -0.0012815587  -0.0007417270  -0.0000231739   0.0002439234   0.0338482405
       -0.0489625753  -0.0514079212  -0.0009832366   0.0004377022  -0.0012530307
        0.0008926513   0.0068359596  -0.0034093757  -0.0002402624  -0.0001228527
        0.0002285347  -0.0001921113  -0.0001381472   0.0001069025   0.0000038925
        0.0000152523  -0.0000078485  -0.0000073819  -0.0000024962   0.0000178315
        0.0000144742   0.0000257760  -0.0000746910  -0.0000008470   0.0000054599
        0.0000004146  -0.0000028409   0.0000008574   0.0000017219  -0.0000016270
        0.0000000934   0.0000026677   0.0000014675  -0.0000081063  -0.0000026114
       -0.0000016365  -0.0000062058  -0.0000037135   0.0000018257  -0.0000068481
       -0.0000049053   0.0000029232  -0.0000047788  -0.0000080430  -0.0000245619
        0.0000328842  -0.0000854960  -0.0000042125   0.0000043360   0.0000082402
       -0.0000017927   0.0000153914  -0.0000158412   0.0000508846  -0.0000363691
        0.0000377210
       -0.0027903902   0.0015040377  -0.0034322191  -0.0239107852  -0.0041272257
       -0.0042207121   0.0246116556  -0.0127418779  -0.0887695909  -0.0044348835
        0.1550713193   0.6222571896  -0.1289361008  -0.0675635120  -0.2609539969
        0.0350524699  -0.0199700819  -0.0616359579  -0.0307425176  -0.0028493043
       -0.0156884093   0.0199998835   0.0093559997   0.0273571692   0.0028319989
       -0.0032015485  -0.0025659766  -0.0003610565  -0.0000163239  -0.0005749378
        0.0000258873   0.0000659520   0.0001097721   0.0001366152   0.0001252482
       -0.0000587936  -0.0001130265   0.0000692066   0.0000437220   0.0000001217
       -0.0001251207   0.0000469837  -0.0000324106   0.0001065895  -0.0000477739
        0.0000725766  -0.0000660253  -0.0000294148  -0.0000010239  -0.0000078899
        0.0000823010  -0.0000186408   0.0000346289  -0.0000259181  -0.0000076755
       -0.0000106486   0.0000078618   0.0000092613  -0.0000014827   0.0000026023
        0.0000005988  -0.0000056834   0.0000125081   0.0000235451  -0.0000144595
        0.0000026814  -0.0000075377   0.0000300738   0.0000255501  -0.0000230661
       -0.0000326153   0.0000054005   0.0001813550  -0.0003357379   0.0001811180
        0.0000784905   0.0001371923  -0.0000711057  -0.0001432852  -0.0000399075
        0.0000016786   0.0000608449  -0.0001318215  -0.0000706974  -0.0001146064
        0.0002431275  -0.0000946853   0.0008132698   0.0002920665   0.0009715464
        0.0002512954  -0.0001003352  -0.0000288877  -0.0020879372  -0.0012915492
       -0.0025853038  -0.0027083038   0.0002975718   0.0005470994   0.1126347081
       -0.0506876464  -0.2060806006  -0.0027689819  -0.0008554887  -0.0024212262
        0.0028683455  -0.0034373484  -0.0027058965  -0.0006796539   0.0001739840
        0.0005141488   0.0002443981   0.0001952822   0.0000574528   0.0000038663
       -0.0000122307  -0.0000345577  -0.0000112568  -0.0000111508  -0.0000017896
       -0.0000167046  -0.0000141469  -0.0000397293  -0.0000061745  -0.0000014666