      -----------------------------------------------------------      
     |                   =====================                   |     
     |                           x T B                           |     
     |                   =====================                   |     
     |                         S. Grimme                         |     
     |          Mulliken Center for Theoretical Chemistry        |     
     |                    University of Bonn                     |     
      -----------------------------------------------------------      

   * xtb version 6.7.1 (edcfbbe) compiled by 'albert@albert-system' on 2024-07-22

   xtb is free software: you can redistribute it and/or modify it under
   the terms of the GNU Lesser General Public License as published by
   the Free Software Foundation, either version 3 of the License, or
   (at your option) any later version.
   
   xtb is distributed in the hope that it will be useful,
   but WITHOUT ANY WARRANTY; without even the implied warranty of
   MERCHANTABILITY or FITNESS FOR A PARTICULAR PURPOSE.  See the
   GNU Lesser General Public License for more details.
   
   Cite this work as:
   * C. Bannwarth, E. Caldeweyher, S. Ehlert, A. Hansen, P. Pracht,
     J. Seibert, S. Spicher, S. Grimme, WIREs Comput. Mol. Sci., 2020, 11,
     e01493. DOI: 10.1002/wcms.1493
   
   for GFN2-xTB:
   * C. Bannwarth, S. Ehlert and S. Grimme., J. Chem. Theory Comput., 2019,
     15, 1652-1671. DOI: 10.1021/acs.jctc.8b01176
   for GFN1-xTB:
   * S. Grimme, C. Bannwarth, P. Shushkov, J. Chem. Theory Comput., 2017,
     13, 1989-2009. DOI: 10.1021/acs.jctc.7b00118
   for GFN0-xTB:
   * P. Pracht, E. Caldeweyher, S. Ehlert, S. Grimme, ChemRxiv, 2019, preprint.
     DOI: 10.26434/chemrxiv.8326202.v1
   for GFN-FF:
   * S. Spicher and S. Grimme, Angew. Chem. Int. Ed., 2020, 59, 15665-15673.
     DOI: 10.1002/anie.202004239
   
   for ALPB and GBSA implicit solvation:
   * S. Ehlert, M. Stahn, S. Spicher, S. Grimme, J. Chem. Theory Comput.,
     2021, 17, 4250-4261. DOI: 10.1021/acs.jctc.1c00471
   
   for ddCOSMO and CPCM-X implicit solvation:
   * M. Stahn, S. Ehlert, S. Grimme, J. Phys. Chem. A,
     2023, XX, XXXX-XXXX. DOI: 10.1021/acs.jpca.3c04382
   
   for DFT-D4:
   * E. Caldeweyher, C. Bannwarth and S. Grimme, J. Chem. Phys., 2017,
     147, 034112. DOI: 10.1063/1.4993215
   * E. Caldeweyher, S. Ehlert, A. Hansen, H. Neugebauer, S. Spicher,
     C. Bannwarth and S. Grimme, J. Chem. Phys., 2019, 150, 154122.
     DOI: 10.1063/1.5090222
   * E. Caldeweyher, J.-M. Mewes, S. Ehlert and S. Grimme, Phys. Chem. Chem. Phys.
     2020, 22, 8499-8512. DOI: 10.1039/D0CP00502A
   
   for sTDA-xTB:
   * S. Grimme and C. Bannwarth, J. Chem. Phys., 2016, 145, 054103.
     DOI: 10.1063/1.4959605
   
   in the mass-spec context:
   * V. Asgeirsson, C. Bauer and S. Grimme, Chem. Sci., 2017, 8, 4879.
     DOI: 10.1039/c7sc00601b
   * J. Koopman and S. Grimme, ACS Omega 2019, 4, 12, 15120-15133.
     DOI: 10.1021/acsomega.9b02011
   
   for metadynamics refer to:
   * S. Grimme, J. Chem. Theory Comput., 2019, 155, 2847-2862
     DOI: 10.1021/acs.jctc.9b00143
   
   for SPH calculations refer to:
   * S. Spicher and S. Grimme, J. Chem. Theory Comput., 2021, 17, 1701-1714
     DOI: 10.1021/acs.jctc.0c01306
   
   for ONIOM refer to:
   * C. Plett, A. Katbashev, S. Ehlert, S. Grimme, M. Bursch,
     Phys. Chem. Chem. Phys., 2023, 25, 17860-17868. DOI: 10.1039/D3CP02178E
   
   for DIPRO refer to:
   * J. Kohn, N. Gildemeister, S. Grimme, D. Fazzi, A. Hansen,
     J. Chem. Phys., 2023, just accepted.
   
   for PTB refer to:
   * S. Grimme, M. Mueller, A. Hansen, J. Chem. Phys., 2023, 158, 124111.
     DOI: 10.1063/5.0137838
   
   with help from (in alphabetical order)
   P. Atkinson, C. Bannwarth, F. Bohle, G. Brandenburg, E. Caldeweyher
   M. Checinski, S. Dohm, S. Ehlert, S. Ehrlich, I. Gerasimov, C. Hölzer
   A. Katbashev, J. Kohn, J. Koopman, C. Lavigne, S. Lehtola, F. März, M. Müller,
   F. Musil, H. Neugebauer, J. Pisarek, C. Plett, P. Pracht, F. Pultar,
   J. Seibert, P. Shushkov, S. Spicher, M. Stahn, M. Steiner, T. Strunk,
   J. Stückrath, T. Rose, and J. Unsleber
   
 * started run on 2025/08/25 at 03:11:41.439     
   ID    Z sym.   atoms
    1    6 C      1, 3, 5-10, 12-17, 19-26, 28-32, 34-39, 41-48, 50
    2    7 N      2, 4, 11, 27, 33, 49
    3    8 O      18, 40
    4    1 H      51-78

           -------------------------------------------------
          |                Calculation Setup                |
           -------------------------------------------------

          program call               : xtb data2507/toluene/2PXZP/2PXZP_toluene_S0_finalOpt.xtbopt.xyz --gfn 2 --uhf 2 --gbsa toluene --ohess vtight --parallel 40 --molden --ceasefiles --namespace data2507/toluene/2PXZP/2PXZP_toluene_T1_preOpt
          calculation namespace      : data2507/toluene/2PXZP/2PXZP_toluene_T1_preOpt
          coordinate file            : data2507/toluene/2PXZP/2PXZP_toluene_S0_finalOpt.xtbopt.xyz
          omp threads                :                    40


           -------------------------------------------------
          |                 G F N 2 - x T B                 |
           -------------------------------------------------

        Reference                      10.1021/acs.jctc.8b01176
      * Hamiltonian:
        H0-scaling (s, p, d)           1.850000    2.230000    2.230000
        zeta-weighting                 0.500000
      * Dispersion:
        s8                             2.700000
        a1                             0.520000
        a2                             5.000000
        s9                             5.000000
      * Repulsion:
        kExp                           1.500000    1.000000
        rExp                           1.000000
      * Coulomb:
        alpha                          2.000000
        third order                    shell-resolved
        anisotropic                    true
        a3                             3.000000
        a5                             4.000000
        cn-shift                       1.200000
        cn-exp                         4.000000
        max-rad                        5.000000

      * Solvation model:               GBSA
        Solvent                        toluene
        Parameter file                 internal GFN2-xTB/GBSA
        Dielectric constant                7.0000E+00
        Reference state                gsolv [1 M gas/solution]
        Free energy shift                  4.5239E-03 Eh       2.8388E+00 kcal/mol
        Temperature                        2.9815E+02 K
        Density                            8.6700E-01 kg/L
        Solvent mass                       9.2140E+01 g/mol
        Interaction kernel             Still
        Born radius scaling (c1)           1.5686E+00
        Born radii integrator          GBOBC
        Born offset                        0.0000E+00 a0       0.0000E+00 AA
        H-bond correction              false
        Ion screening                  false
        Surface tension                    1.0000E-05 Eh       1.5569E+01 dyn/cm
        Grid points                               230 per atom

          ...................................................
          :                      SETUP                      :
          :.................................................:
          :  # basis functions                 228          :
          :  # atomic orbitals                 228          :
          :  # shells                          128          :
          :  # electrons                       238          :
          :  max. iterations                   250          :
          :  Hamiltonian                  GFN2-xTB          :
          :  restarted?                      false          :
          :  GBSA solvation                   true          :
          :  PC potential                    false          :
          :  electronic temp.          300.0000000     K    :
          :  accuracy                    1.0000000          :
          :  -> integral cutoff          0.2500000E+02      :
          :  -> integral neglect         0.1000000E-07      :
          :  -> SCF convergence          0.1000000E-05 Eh   :
          :  -> wf. convergence          0.1000000E-03 e    :
          :  Broyden damping             0.4000000          :
          :  net charge                          0          :
          :  unpaired electrons                  2          :
          ...................................................

 iter      E             dE          RMSdq      gap      omega  full diag
   1   -131.9309558 -0.131931E+03  0.411E+00    0.63       0.0  T
   2   -131.7355233  0.195433E+00  0.286E+00    0.21       1.0  T
   3   -131.5197172  0.215806E+00  0.225E+00    0.30       1.0  T
   4   -132.1023291 -0.582612E+00  0.891E-01    0.54       1.0  T
   5   -132.0993853  0.294377E-02  0.659E-01    0.47       1.0  T
   6   -132.1460610 -0.466757E-01  0.392E-01    0.38       1.0  T
   7   -132.1592784 -0.132174E-01  0.209E-01    0.44       1.0  T
   8   -132.1320817  0.271967E-01  0.434E-01    0.39       1.0  T
   9   -132.1568958 -0.248141E-01  0.204E-01    0.40       1.0  T
  10   -132.1626690 -0.577320E-02  0.558E-02    0.40       1.0  T
  11   -132.1627279 -0.589053E-04  0.354E-02    0.40       1.0  T
  12   -132.1628310 -0.103046E-03  0.285E-02    0.40       1.0  T
  13   -132.1628855 -0.545462E-04  0.207E-02    0.40       1.0  T
  14   -132.1629502 -0.646238E-04  0.398E-03    0.40       2.8  T
  15   -132.1629516 -0.146151E-05  0.203E-03    0.40       5.6  T
  16   -132.1629520 -0.351976E-06  0.970E-04    0.40      11.7  T
  17   -132.1629520 -0.116979E-07  0.895E-04    0.40      12.7  T

   *** convergence criteria satisfied after 17 iterations ***

         #    Occupation            Energy/Eh            Energy/eV
      -------------------------------------------------------------
         1        2.0000           -0.7438935             -20.2424
       ...           ...                  ...                  ...
       114        2.0000           -0.3965407             -10.7904
       115        2.0000           -0.3847318             -10.4691
       116        2.0000           -0.3760810             -10.2337
       117        1.8628           -0.3547600              -9.6535
       118        1.7604           -0.3541100              -9.6358
       119        1.3768           -0.3525352              -9.5930
       120        0.9995           -0.2693144              -7.3284 (HOMO)
       121        0.0004           -0.2546685              -6.9299 (LUMO)
       122        0.0000           -0.2498719              -6.7994
       123        0.0000           -0.2493920              -6.7863
       124                         -0.2402636              -6.5379
       125                         -0.2399953              -6.5306
       ...                                ...                  ...
       228                          0.7060230              19.2119
      -------------------------------------------------------------
                  HL-Gap            0.0146460 Eh            0.3985 eV
             Fermi-level           -0.3075047 Eh           -8.3676 eV
 
 transition dipole moment (au) for excitation:         119         120
     X       Y       Z   
   0.2537  -0.8240  -0.0157  total (au/Debye):    0.862   2.192
 dE (eV)             :    2.265
 oscillator strength :  0.58347E-01

 SCC (total)                   0 d,  0 h,  0 min,  0.371 sec
 SCC setup                      ...        0 min,  0.008 sec (  2.229%)
 Dispersion                     ...        0 min,  0.004 sec (  1.000%)
 classical contributions        ...        0 min,  0.000 sec (  0.082%)
 integral evaluation            ...        0 min,  0.009 sec (  2.345%)
 iterations                     ...        0 min,  0.317 sec ( 85.451%)
 molecular gradient             ...        0 min,  0.011 sec (  2.929%)
 printout                       ...        0 min,  0.022 sec (  5.941%)

         :::::::::::::::::::::::::::::::::::::::::::::::::::::
         ::                     SUMMARY                     ::
         :::::::::::::::::::::::::::::::::::::::::::::::::::::
         :: total energy            -129.976899817645 Eh    ::
         :: total w/o Gsasa/hb      -129.927964681007 Eh    ::
         :: gradient norm              0.080777479493 Eh/a0 ::
         :: HOMO-LUMO gap              0.398536942966 eV    ::
         ::.................................................::
         :: SCC energy              -132.163975147456 Eh    ::
         :: -> isotropic ES            0.082510479170 Eh    ::
         :: -> anisotropic ES          0.005322398384 Eh    ::
         :: -> anisotropic XC          0.064061270353 Eh    ::
         :: -> dispersion             -0.107177207269 Eh    ::
         :: -> Gsolv                  -0.062248357493 Eh    ::
         ::    -> Gelec               -0.013313220854 Eh    ::
         ::    -> Gsasa               -0.053459016510 Eh    ::
         ::    -> Ghb                  0.000000000000 Eh    ::
         ::    -> Gshift               0.004523879872 Eh    ::
         :: repulsion energy           2.187075329811 Eh    ::
         :: add. restraining           0.000000000000 Eh    ::
         :: total charge              -0.000000000034 e     ::
         :::::::::::::::::::::::::::::::::::::::::::::::::::::

      ----------------------------------------------------------- 
     |                   =====================                   |
     |                        A N C O P T                        |
     |                   =====================                   |
     |               Approximate Normal Coordinate               |
     |                Rational Function Optimizer                |
      ----------------------------------------------------------- 

Optimization log is written to '/dev/null'
      ----------------------------------------------------------- 
     |                   =====================                   |
     |                        A N C O P T                        |
     |                   =====================                   |
     |               Approximate Normal Coordinate               |
     |                Rational Function Optimizer                |
      ----------------------------------------------------------- 

          ...................................................
          :                      SETUP                      :
          :.................................................:
          :   optimization level         verytight          :
          :   max. optcycles                  1560          :
          :   ANC micro-cycles                  20          :
          :   degrees of freedom               228          :
          :.................................................:
          :   RF solver                   davidson          :
          :   write xtbopt.log                true          :
          :   linear?                        false          :
          :   energy convergence         0.1000000E-06 Eh   :
          :   grad. convergence          0.2000000E-03 Eh/α :
          :   maxmium RF displ.          1.0000000          :
          :   Hlow (freq-cutoff)         0.1000000E-01      :
          :   Hmax (freq-cutoff)         5.0000000          :
          :   S6 in model hess.         20.0000000          :
          ...................................................

generating ANC from exact Hessian ...
Using Lindh-Hessian (1995)
 Shifting diagonal of input Hessian by   9.912523768220310E-003
 Lowest  eigenvalues of input Hessian
    0.000000    0.000000    0.000000    0.000000    0.000000    0.000000
    0.010000    0.010009    0.010045    0.010157    0.010225    0.010681
    0.011289    0.011470    0.011655    0.011881    0.012120    0.012326
 Highest eigenvalues
    2.196898    2.198784    2.212709    2.212748    2.251603    2.325305
 

........................................................................
.............................. CYCLE    1 ..............................
........................................................................

 iter      E             dE          RMSdq      gap      omega  full diag
   1   -132.1629520 -0.132163E+03  0.856E-04    0.40       0.0  T
   2   -132.1629401  0.118882E-04  0.815E-03    0.40       1.4  T
   3   -132.1629520 -0.119331E-04  0.646E-04    0.40      17.5  T
   4   -132.1629521 -0.518142E-07  0.353E-04    0.40      32.1  T
   5   -132.1629521 -0.210618E-07  0.914E-05    0.40     123.9  T
     SCC iter.                  ...        0 min,  0.048 sec
     gradient                   ...        0 min,  0.010 sec
 * total energy  :  -129.9768999 Eh     change       -0.1204184E-06 Eh
   gradient norm :     0.0807625 Eh/α   predicted     0.0000000E+00 (-100.00%)
   displ. norm   :     0.0982697 α      lambda       -0.3990430E-02
   maximum displ.:     0.0343578 α      in ANC's #51, #46, #43, ...

........................................................................
.............................. CYCLE    2 ..............................
........................................................................

 iter      E             dE          RMSdq      gap      omega  full diag
   1   -132.1546471 -0.132155E+03  0.828E-02    0.47       0.0  T
   2   -132.1132064  0.414408E-01  0.497E-01    0.41       1.0  T
   3   -132.1553650 -0.421587E-01  0.461E-02    0.44       1.0  T
   4   -132.1552871  0.779323E-04  0.444E-02    0.45       1.0  T
   5   -132.1548084  0.478664E-03  0.624E-02    0.45       1.0  T
   6   -132.1553287 -0.520293E-03  0.332E-02    0.44       1.0  T
   7   -132.1555326 -0.203867E-03  0.447E-03    0.45       2.5  T
   8   -132.1555343 -0.168301E-05  0.256E-03    0.45       4.4  T
   9   -132.1555351 -0.857107E-06  0.100E-03    0.45      11.3  T
  10   -132.1555352 -0.101362E-06  0.270E-04    0.45      42.0  T
  11   -132.1555352 -0.562025E-08  0.807E-05    0.45     140.3  T
     SCC iter.                  ...        0 min,  0.100 sec
     gradient                   ...        0 min,  0.010 sec
 * total energy  :  -129.9797216 Eh     change       -0.2821619E-02 Eh
   gradient norm :     0.0371226 Eh/α   predicted    -0.2014499E-02 ( -28.60%)
   displ. norm   :     0.0786767 α      lambda       -0.1402315E-02
   maximum displ.:     0.0231912 α      in ANC's #29, #46, #51, ...

........................................................................
.............................. CYCLE    3 ..............................
........................................................................

 iter      E             dE          RMSdq      gap      omega  full diag
   1   -132.1545334 -0.132155E+03  0.451E-02    0.50       0.0  T
   2   -132.1520971  0.243638E-02  0.124E-01    0.48       1.0  T
   3   -132.1534299 -0.133284E-02  0.822E-02    0.48       1.0  T
   4   -132.1537889 -0.359042E-03  0.697E-02    0.48       1.0  T
   5   -132.1543530 -0.564018E-03  0.398E-02    0.49       1.0  T
   6   -132.1546154 -0.262412E-03  0.835E-03    0.48       1.4  T
   7   -132.1546244 -0.899989E-05  0.298E-03    0.49       3.8  T
   8   -132.1546252 -0.840327E-06  0.114E-03    0.49       9.9  T
   9   -132.1546252  0.130138E-07  0.106E-03    0.49      10.6  T
  10   -132.1546254 -0.181771E-06  0.146E-04    0.49      77.7  T
  11   -132.1546254 -0.434511E-09  0.115E-04    0.49      98.4  T
     SCC iter.                  ...        0 min,  0.100 sec
     gradient                   ...        0 min,  0.010 sec
 * total energy  :  -129.9804727 Eh     change       -0.7511609E-03 Eh
   gradient norm :     0.0052446 Eh/α   predicted    -0.7055230E-03 (  -6.08%)
   displ. norm   :     0.0340939 α      lambda       -0.4311398E-04
   maximum displ.:     0.0154015 α      in ANC's #9, #16, #2, ...

........................................................................
.............................. CYCLE    4 ..............................
........................................................................

 iter      E             dE          RMSdq      gap      omega  full diag
   1   -132.1555051 -0.132156E+03  0.171E-02    0.49       0.0  T
   2   -132.1533151  0.218995E-02  0.111E-01    0.49       1.0  T
   3   -132.1555142 -0.219911E-02  0.117E-02    0.49       1.0  T
   4   -132.1553881  0.126118E-03  0.280E-02    0.49       1.0  T
   5   -132.1555180 -0.129867E-03  0.887E-03    0.49       1.3  T
   6   -132.1555318 -0.138028E-04  0.188E-03    0.49       6.0  T
   7   -132.1555323 -0.495826E-06  0.591E-04    0.49      19.1  T
   8   -132.1555323 -0.494556E-07  0.122E-04    0.49      92.9  T
     SCC iter.                  ...        0 min,  0.072 sec
     gradient                   ...        0 min,  0.010 sec
 * total energy  :  -129.9805077 Eh     change       -0.3498871E-04 Eh
   gradient norm :     0.0024409 Eh/α   predicted    -0.2380339E-04 ( -31.97%)
   displ. norm   :     0.0592323 α      lambda       -0.3434918E-04
   maximum displ.:     0.0293548 α      in ANC's #9, #2, #16, ...

........................................................................
.............................. CYCLE    5 ..............................
........................................................................

 iter      E             dE          RMSdq      gap      omega  full diag
   1   -132.1561879 -0.132156E+03  0.213E-02    0.49       0.0  T
   2   -132.1531252  0.306275E-02  0.132E-01    0.50       1.0  T
   3   -132.1562075 -0.308227E-02  0.130E-02    0.49       1.0  T
   4   -132.1560227  0.184787E-03  0.334E-02    0.49       1.0  T
   5   -132.1561980 -0.175355E-03  0.124E-02    0.49       1.0  T
   6   -132.1562265 -0.284300E-04  0.228E-03    0.49       5.0  T
   7   -132.1562272 -0.734186E-06  0.720E-04    0.49      15.7  T
   8   -132.1562273 -0.833983E-07  0.147E-04    0.49      77.0  T
     SCC iter.                  ...        0 min,  0.073 sec
     gradient                   ...        0 min,  0.011 sec
 * total energy  :  -129.9805295 Eh     change       -0.2175172E-04 Eh
   gradient norm :     0.0014138 Eh/α   predicted    -0.1723601E-04 ( -20.76%)
   displ. norm   :     0.0756163 α      lambda       -0.1213474E-04
   maximum displ.:     0.0395518 α      in ANC's #9, #2, #16, ...

........................................................................
.............................. CYCLE    6 ..............................
........................................................................

 iter      E             dE          RMSdq      gap      omega  full diag
   1   -132.1562347 -0.132156E+03  0.164E-02    0.49       0.0  T
   2   -132.1554133  0.821465E-03  0.690E-02    0.50       1.0  T
   3   -132.1562062 -0.792920E-03  0.164E-02    0.49       1.0  T
   4   -132.1561310  0.751637E-04  0.246E-02    0.49       1.0  T
   5   -132.1562270 -0.959638E-04  0.943E-03    0.49       1.2  T
   6   -132.1562432 -0.161821E-04  0.188E-03    0.49       6.0  T
   7   -132.1562437 -0.571838E-06  0.325E-04    0.49      34.8  T
   8   -132.1562438 -0.936845E-08  0.112E-04    0.49     100.9  T
     SCC iter.                  ...        0 min,  0.073 sec
     gradient                   ...        0 min,  0.011 sec
 * total energy  :  -129.9805428 Eh     change       -0.1334613E-04 Eh
   gradient norm :     0.0020858 Eh/α   predicted    -0.6126629E-05 ( -54.09%)
   displ. norm   :     0.0698207 α      lambda       -0.1573240E-04
   maximum displ.:     0.0356033 α      in ANC's #9, #2, #8, ...

........................................................................
.............................. CYCLE    7 ..............................
........................................................................

 iter      E             dE          RMSdq      gap      omega  full diag
   1   -132.1560081 -0.132156E+03  0.130E-02    0.49       0.0  T
   2   -132.1559580  0.501199E-04  0.183E-02    0.49       1.0  T
   3   -132.1558341  0.123910E-03  0.318E-02    0.49       1.0  T
   4   -132.1558107  0.233647E-04  0.326E-02    0.49       1.0  T
   5   -132.1560067 -0.195907E-03  0.350E-03    0.49       3.2  T
   6   -132.1560088 -0.214024E-05  0.626E-04    0.49      18.1  T
   7   -132.1560089 -0.627945E-07  0.132E-04    0.49      86.0  T
   8   -132.1560089  0.350070E-09  0.110E-04    0.49     103.1  T
     SCC iter.                  ...        0 min,  0.077 sec
     gradient                   ...        0 min,  0.011 sec
 * total energy  :  -129.9805565 Eh     change       -0.1365436E-04 Eh
   gradient norm :     0.0018261 Eh/α   predicted    -0.7904975E-05 ( -42.11%)
   displ. norm   :     0.2198597 α      lambda       -0.2768888E-04
   maximum displ.:     0.1120916 α      in ANC's #2, #9, #5, ...

........................................................................
.............................. CYCLE    8 ..............................
........................................................................

 iter      E             dE          RMSdq      gap      omega  full diag
   1   -132.1554155 -0.132155E+03  0.402E-02    0.49       0.0  T
   2   -132.1545390  0.876472E-03  0.738E-02    0.49       1.0  T
   3   -132.1544596  0.794327E-04  0.763E-02    0.49       1.0  T
   4   -132.1531212  0.133843E-02  0.111E-01    0.49       1.0  T
   5   -132.1554124 -0.229126E-02  0.898E-03    0.49       1.3  T
   6   -132.1554260 -0.135847E-04  0.264E-03    0.49       4.3  T
   7   -132.1554269 -0.925840E-06  0.108E-03    0.49      10.5  T
   8   -132.1554271 -0.155444E-06  0.383E-04    0.49      29.6  T
   9   -132.1554271  0.413633E-08  0.297E-04    0.49      38.1  T
     SCC iter.                  ...        0 min,  0.086 sec
     gradient                   ...        0 min,  0.011 sec
 * total energy  :  -129.9805815 Eh     change       -0.2504561E-04 Eh
   gradient norm :     0.0015958 Eh/α   predicted    -0.1414212E-04 ( -43.53%)
   displ. norm   :     0.0901723 α      lambda       -0.7623728E-05
   maximum displ.:     0.0526234 α      in ANC's #2, #9, #5, ...

........................................................................
.............................. CYCLE    9 ..............................
........................................................................

 iter      E             dE          RMSdq      gap      omega  full diag
   1   -132.1559131 -0.132156E+03  0.148E-02    0.49       0.0  T
   2   -132.1558928  0.203438E-04  0.138E-02    0.49       1.0  T
   3   -132.1553266  0.566166E-03  0.577E-02    0.49       1.0  T
   4   -132.1558015 -0.474874E-03  0.245E-02    0.49       1.0  T
   5   -132.1559114 -0.109955E-03  0.332E-03    0.49       3.4  T
   6   -132.1559134 -0.196909E-05  0.616E-04    0.49      18.4  T
   7   -132.1559134 -0.371334E-07  0.298E-04    0.49      38.0  T
   8   -132.1559134 -0.103784E-07  0.955E-05    0.49     118.5  T
     SCC iter.                  ...        0 min,  0.074 sec
     gradient                   ...        0 min,  0.011 sec
 * total energy  :  -129.9805911 Eh     change       -0.9618179E-05 Eh
   gradient norm :     0.0009373 Eh/α   predicted    -0.3826364E-05 ( -60.22%)
   displ. norm   :     0.1058753 α      lambda       -0.1131811E-04
   maximum displ.:     0.0654383 α      in ANC's #2, #5, #9, ...

........................................................................
.............................. CYCLE   10 ..............................
........................................................................

 iter      E             dE          RMSdq      gap      omega  full diag
   1   -132.1566240 -0.132157E+03  0.190E-02    0.49       0.0  T
   2   -132.1559350  0.689000E-03  0.634E-02    0.49       1.0  T
   3   -132.1565771 -0.642165E-03  0.200E-02    0.49       1.0  T
   4   -132.1565287  0.483952E-04  0.235E-02    0.49       1.0  T
   5   -132.1566238 -0.950594E-04  0.627E-03    0.49       1.8  T
   6   -132.1566311 -0.726463E-05  0.992E-04    0.49      11.4  T
   7   -132.1566311 -0.827169E-07  0.568E-04    0.49      19.9  T
   8   -132.1566312 -0.454494E-07  0.169E-04    0.49      67.1  T
     SCC iter.                  ...        0 min,  0.074 sec
     gradient                   ...        0 min,  0.011 sec
 * total energy  :  -129.9806048 Eh     change       -0.1367077E-04 Eh
   gradient norm :     0.0007408 Eh/α   predicted    -0.5691374E-05 ( -58.37%)
   displ. norm   :     0.1290674 α      lambda       -0.1054770E-04
   maximum displ.:     0.0813501 α      in ANC's #2, #5, #9, ...

........................................................................
.............................. CYCLE   11 ..............................
........................................................................

 iter      E             dE          RMSdq      gap      omega  full diag
   1   -132.1567723 -0.132157E+03  0.223E-02    0.49       0.0  T
   2   -132.1562906  0.481715E-03  0.538E-02    0.49       1.0  T
   3   -132.1565893 -0.298699E-03  0.344E-02    0.49       1.0  T
   4   -132.1566971 -0.107871E-03  0.207E-02    0.49       1.0  T
   5   -132.1567741 -0.769738E-04  0.418E-03    0.49       2.7  T
   6   -132.1567768 -0.268263E-05  0.156E-03    0.49       7.2  T
   7   -132.1567771 -0.321885E-06  0.714E-04    0.49      15.9  T
   8   -132.1567772 -0.784736E-07  0.132E-04    0.49      86.0  T
     SCC iter.                  ...        0 min,  0.077 sec
     gradient                   ...        0 min,  0.011 sec
 * total energy  :  -129.9806174 Eh     change       -0.1263897E-04 Eh
   gradient norm :     0.0013187 Eh/α   predicted    -0.5315179E-05 ( -57.95%)
   displ. norm   :     0.1112793 α      lambda       -0.7761862E-05
   maximum displ.:     0.0726571 α      in ANC's #2, #5, #16, ...

........................................................................
.............................. CYCLE   12 ..............................
........................................................................

 iter      E             dE          RMSdq      gap      omega  full diag
   1   -132.1568339 -0.132157E+03  0.183E-02    0.49       0.0  T
   2   -132.1567250  0.108877E-03  0.272E-02    0.49       1.0  T
   3   -132.1564509  0.274136E-03  0.473E-02    0.49       1.0  T
   4   -132.1567738 -0.322939E-03  0.179E-02    0.49       1.0  T
   5   -132.1568333 -0.595204E-04  0.306E-03    0.49       3.7  T
   6   -132.1568349 -0.155307E-05  0.823E-04    0.49      13.8  T
   7   -132.1568350 -0.102603E-06  0.226E-04    0.49      50.2  T
   8   -132.1568350 -0.443319E-08  0.115E-04    0.49      98.4  T
     SCC iter.                  ...        0 min,  0.075 sec
     gradient                   ...        0 min,  0.011 sec
 * total energy  :  -129.9806273 Eh     change       -0.9890834E-05 Eh
   gradient norm :     0.0011649 Eh/α   predicted    -0.3904743E-05 ( -60.52%)
   displ. norm   :     0.0995753 α      lambda       -0.7089912E-05
   maximum displ.:     0.0671605 α      in ANC's #2, #5, #3, ...

........................................................................
.............................. CYCLE   13 ..............................
........................................................................

 iter      E             dE          RMSdq      gap      omega  full diag
   1   -132.1567010 -0.132157E+03  0.156E-02    0.49       0.0  T
   2   -132.1566897  0.112550E-04  0.121E-02    0.49       1.0  T
   3   -132.1557712  0.918503E-03  0.723E-02    0.49       1.0  T
   4   -132.1566990 -0.927734E-03  0.351E-03    0.49       3.2  T
   5   -132.1566934  0.551099E-05  0.639E-03    0.49       1.8  T
   6   -132.1567011 -0.763733E-05  0.729E-04    0.49      15.5  T
   7   -132.1567012 -0.846922E-07  0.178E-04    0.49      63.6  T
   8   -132.1567012 -0.236344E-08  0.836E-05    0.49     135.5  T
     SCC iter.                  ...        0 min,  0.076 sec
     gradient                   ...        0 min,  0.011 sec
 * total energy  :  -129.9806365 Eh     change       -0.9198922E-05 Eh
   gradient norm :     0.0006382 Eh/α   predicted    -0.3564351E-05 ( -61.25%)
   displ. norm   :     0.0988876 α      lambda       -0.6997842E-05
   maximum displ.:     0.0681261 α      in ANC's #2, #5, #3, ...

........................................................................
.............................. CYCLE   14 ..............................
........................................................................

 iter      E             dE          RMSdq      gap      omega  full diag
   1   -132.1565247 -0.132157E+03  0.148E-02    0.49       0.0  T
   2   -132.1564501  0.746145E-04  0.221E-02    0.49       1.0  T
   3   -132.1562736  0.176497E-03  0.384E-02    0.49       1.0  T
   4   -132.1565235 -0.249900E-03  0.345E-03    0.49       3.3  T
   5   -132.1565168  0.674125E-05  0.675E-03    0.49       1.7  T
   6   -132.1565254 -0.864594E-05  0.685E-04    0.49      16.5  T
   7   -132.1565255 -0.697695E-07  0.223E-04    0.49      50.7  T
   8   -132.1565255 -0.555320E-08  0.960E-05    0.49     117.9  T
     SCC iter.                  ...        0 min,  0.076 sec
     gradient                   ...        0 min,  0.011 sec
 * total energy  :  -129.9806457 Eh     change       -0.9208577E-05 Eh
   gradient norm :     0.0003898 Eh/α   predicted    -0.3518567E-05 ( -61.79%)
   displ. norm   :     0.1068904 α      lambda       -0.7490602E-05
   maximum displ.:     0.0737955 α      in ANC's #2, #5, #3, ...

........................................................................
.............................. CYCLE   15 ..............................
........................................................................

 iter      E             dE          RMSdq      gap      omega  full diag
   1   -132.1563130 -0.132156E+03  0.152E-02    0.49       0.0  T
   2   -132.1562431  0.698669E-04  0.216E-02    0.49       1.0  T
   3   -132.1560145  0.228649E-03  0.418E-02    0.49       1.0  T
   4   -132.1563060 -0.291501E-03  0.642E-03    0.49       1.8  T
   5   -132.1563099 -0.398594E-05  0.448E-03    0.49       2.5  T
   6   -132.1563136 -0.368028E-05  0.624E-04    0.49      18.1  T
   7   -132.1563137 -0.491915E-07  0.291E-04    0.49      39.0  T
   8   -132.1563137 -0.113244E-07  0.837E-05    0.49     135.3  T
     SCC iter.                  ...        0 min,  0.076 sec
     gradient                   ...        0 min,  0.011 sec
 * total energy  :  -129.9806558 Eh     change       -0.1010733E-04 Eh
   gradient norm :     0.0007839 Eh/α   predicted    -0.3768511E-05 ( -62.72%)
   displ. norm   :     0.1318475 α      lambda       -0.9271671E-05
   maximum displ.:     0.0900344 α      in ANC's #2, #5, #3, ...

........................................................................
.............................. CYCLE   16 ..............................
........................................................................

 iter      E             dE          RMSdq      gap      omega  full diag
   1   -132.1561470 -0.132156E+03  0.186E-02    0.49       0.0  T
   2   -132.1561360  0.110331E-04  0.133E-02    0.49       1.0  T
   3   -132.1548252  0.131079E-02  0.862E-02    0.49       1.0  T
   4   -132.1561439 -0.131874E-02  0.418E-03    0.49       2.7  T
   5   -132.1561418  0.206299E-05  0.536E-03    0.49       2.1  T
   6   -132.1561471 -0.527367E-05  0.647E-04    0.49      17.5  T
   7   -132.1561472 -0.382511E-07  0.344E-04    0.49      32.9  T
   8   -132.1561472 -0.163216E-07  0.837E-05    0.49     135.3  T
     SCC iter.                  ...        0 min,  0.075 sec
     gradient                   ...        0 min,  0.011 sec
 * total energy  :  -129.9806685 Eh     change       -0.1263466E-04 Eh
   gradient norm :     0.0010819 Eh/α   predicted    -0.4673791E-05 ( -63.01%)
   displ. norm   :     0.1727242 α      lambda       -0.1187478E-04
   maximum displ.:     0.1169837 α      in ANC's #2, #5, #3, ...

........................................................................
.............................. CYCLE   17 ..............................
........................................................................

 iter      E             dE          RMSdq      gap      omega  full diag
   1   -132.1560164 -0.132156E+03  0.247E-02    0.49       0.0  T
   2   -132.1559920  0.243665E-04  0.188E-02    0.49       1.0  T
   3   -132.1535171  0.247485E-02  0.119E-01    0.48       1.0  T
   4   -132.1558913 -0.237412E-02  0.256E-02    0.49       1.0  T
   5   -132.1560159 -0.124697E-03  0.260E-03    0.49       4.3  T
   6   -132.1560167 -0.721011E-06  0.810E-04    0.49      14.0  T
   7   -132.1560167 -0.510823E-07  0.411E-04    0.49      27.6  T
     SCC iter.                  ...        0 min,  0.079 sec
     gradient                   ...        0 min,  0.012 sec
 * total energy  :  -129.9806843 Eh     change       -0.1585566E-04 Eh
   gradient norm :     0.0010922 Eh/α   predicted    -0.6017667E-05 ( -62.05%)
   displ. norm   :     0.2015066 α      lambda       -0.1268507E-04
   maximum displ.:     0.1370367 α      in ANC's #2, #5, #3, ...

........................................................................
.............................. CYCLE   18 ..............................
........................................................................

 iter      E             dE          RMSdq      gap      omega  full diag
   1   -132.1559893 -0.132156E+03  0.291E-02    0.49       0.0  T
   2   -132.1559566  0.326913E-04  0.221E-02    0.49       1.0  T
   3   -132.1523068  0.364986E-02  0.144E-01    0.49       1.0  T
   4   -132.1559826 -0.367582E-02  0.712E-03    0.49       1.6  T
   5   -132.1559753  0.729613E-05  0.864E-03    0.49       1.3  T
   6   -132.1559897 -0.144041E-04  0.947E-04    0.49      12.0  T
   7   -132.1559898 -0.824557E-07  0.577E-04    0.49      19.6  T
   8   -132.1559898 -0.479916E-07  0.176E-04    0.49      64.2  T
     SCC iter.                  ...        0 min,  0.078 sec
     gradient                   ...        0 min,  0.011 sec
 * total energy  :  -129.9807009 Eh     change       -0.1655899E-04 Eh
   gradient norm :     0.0008303 Eh/α   predicted    -0.6457510E-05 ( -61.00%)
   displ. norm   :     0.1855515 α      lambda       -0.1018106E-04
   maximum displ.:     0.1283394 α      in ANC's #2, #5, #3, ...

........................................................................
.............................. CYCLE   19 ..............................
........................................................................

 iter      E             dE          RMSdq      gap      omega  full diag
   1   -132.1561733 -0.132156E+03  0.266E-02    0.49       0.0  T
   2   -132.1559297  0.243596E-03  0.406E-02    0.49       1.0  T
   3   -132.1554834  0.446312E-03  0.636E-02    0.49       1.0  T
   4   -132.1561676 -0.684187E-03  0.699E-03    0.49       1.6  T
   5   -132.1561596  0.800825E-05  0.940E-03    0.49       1.2  T
   6   -132.1561756 -0.160206E-04  0.142E-03    0.49       8.0  T
   7   -132.1561758 -0.174823E-06  0.900E-04    0.49      12.6  T
   8   -132.1561759 -0.127125E-06  0.182E-04    0.49      62.3  T
     SCC iter.                  ...        0 min,  0.076 sec
     gradient                   ...        0 min,  0.011 sec
 * total energy  :  -129.9807141 Eh     change       -0.1319795E-04 Eh
   gradient norm :     0.0004869 Eh/α   predicted    -0.5170130E-05 ( -60.83%)
   displ. norm   :     0.1352314 α      lambda       -0.6770415E-05
   maximum displ.:     0.0963968 α      in ANC's #2, #5, #3, ...

........................................................................
.............................. CYCLE   20 ..............................
........................................................................

 iter      E             dE          RMSdq      gap      omega  full diag
   1   -132.1564097 -0.132156E+03  0.188E-02    0.49       0.0  T
   2   -132.1563019  0.107818E-03  0.273E-02    0.49       1.0  T
   3   -132.1560230  0.278893E-03  0.475E-02    0.49       1.0  T
   4   -132.1563755 -0.352420E-03  0.140E-02    0.49       1.0  T
   5   -132.1564064 -0.309605E-04  0.483E-03    0.49       2.3  T
   6   -132.1564108 -0.438482E-05  0.770E-04    0.49      14.7  T
   7   -132.1564108 -0.536626E-07  0.449E-04    0.49      25.2  T
   8   -132.1564109 -0.289512E-07  0.121E-04    0.49      93.2  T
     SCC iter.                  ...        0 min,  0.075 sec
     gradient                   ...        0 min,  0.011 sec
 * total energy  :  -129.9807232 Eh     change       -0.9091717E-05 Eh
   gradient norm :     0.0002740 Eh/α   predicted    -0.3413644E-05 ( -62.45%)
   displ. norm   :     0.0916983 α      lambda       -0.4755823E-05
   maximum displ.:     0.0677833 α      in ANC's #2, #5, #3, ...
 * RMSD in coord.:     0.2140463 α      energy gain  -0.3823359E-02 Eh

generating ANC from exact Hessian ...
Using Lindh-Hessian (1995)
 Shifting diagonal of input Hessian by   9.910478745061074E-003
 Lowest  eigenvalues of input Hessian
    0.000000    0.000000    0.000000    0.000000    0.000000    0.000000
    0.010000    0.010008    0.010049    0.010153    0.010215    0.010688
    0.011294    0.011481    0.011658    0.011879    0.012102    0.012361
 Highest eigenvalues
    2.196017    2.197445    2.222784    2.225248    2.246861    2.304257
 

........................................................................
.............................. CYCLE   21 ..............................
........................................................................

 iter      E             dE          RMSdq      gap      omega  full diag
   1   -132.1566286 -0.132157E+03  0.122E-02    0.49       0.0  T
   2   -132.1566145  0.141634E-04  0.116E-02    0.49       1.0  T
   3   -132.1562100  0.404465E-03  0.487E-02    0.49       1.0  T
   4   -132.1566246 -0.414571E-03  0.501E-03    0.49       2.3  T
   5   -132.1566257 -0.108559E-05  0.402E-03    0.49       2.8  T
   6   -132.1566288 -0.311633E-05  0.433E-04    0.49      26.1  T
   7   -132.1566288 -0.219160E-07  0.187E-04    0.49      60.7  T
   8   -132.1566288 -0.409216E-08  0.608E-05    0.49     186.2  T
     SCC iter.                  ...        0 min,  0.076 sec
     gradient                   ...        0 min,  0.011 sec
 * total energy  :  -129.9807298 Eh     change       -0.6603481E-05 Eh
   gradient norm :     0.0002774 Eh/α   predicted     0.0000000E+00 (-100.00%)
   displ. norm   :     0.0189674 α      lambda       -0.6280308E-07
   maximum displ.:     0.0155653 α      in ANC's #2, #5, #9, ...

........................................................................
.............................. CYCLE   22 ..............................
........................................................................

 iter      E             dE          RMSdq      gap      omega  full diag
   1   -132.1566228 -0.132157E+03  0.293E-03    0.49       0.0  T
   2   -132.1566169  0.597763E-05  0.604E-03    0.49       1.9  T
   3   -132.1566178 -0.976742E-06  0.556E-03    0.49       2.0  T
   4   -132.1566201 -0.224658E-05  0.383E-03    0.49       3.0  T
   5   -132.1566229 -0.280983E-05  0.193E-04    0.49      58.8  T
   6   -132.1566229 -0.287602E-08  0.838E-05    0.49     135.1  T
   7   -132.1566229 -0.753857E-09  0.368E-05    0.49     308.1  T
     SCC iter.                  ...        0 min,  0.067 sec
     gradient                   ...        0 min,  0.011 sec
 * total energy  :  -129.9807324 Eh     change       -0.2600080E-05 Eh
   gradient norm :     0.0002177 Eh/α   predicted    -0.9055243E-06 ( -65.17%)
   displ. norm   :     0.0491392 α      lambda       -0.4364210E-05
   maximum displ.:     0.0342423 α      in ANC's #2, #5, #9, ...

........................................................................
.............................. CYCLE   23 ..............................
........................................................................

 iter      E             dE          RMSdq      gap      omega  full diag
   1   -132.1566215 -0.132157E+03  0.799E-03    0.49       0.0  T
   2   -132.1566029  0.186407E-04  0.112E-02    0.49       1.0  T
   3   -132.1565422  0.606744E-04  0.215E-02    0.49       1.0  T
   4   -132.1566031 -0.608610E-04  0.983E-03    0.49       1.2  T
   5   -132.1566215 -0.184552E-04  0.122E-03    0.49       9.3  T
   6   -132.1566217 -0.177117E-06  0.385E-04    0.49      29.4  T
   7   -132.1566217 -0.223020E-07  0.104E-04    0.49     109.0  T
     SCC iter.                  ...        0 min,  0.067 sec
     gradient                   ...        0 min,  0.011 sec
 * total energy  :  -129.9807385 Eh     change       -0.6088274E-05 Eh
   gradient norm :     0.0001584 Eh/α   predicted    -0.2184856E-05 ( -64.11%)
   displ. norm   :     0.1008967 α      lambda       -0.7777097E-05
   maximum displ.:     0.0681313 α      in ANC's #2, #5, #9, ...

........................................................................
.............................. CYCLE   24 ..............................
........................................................................

 iter      E             dE          RMSdq      gap      omega  full diag
   1   -132.1565999 -0.132157E+03  0.162E-02    0.49       0.0  T
   2   -132.1565783  0.215538E-04  0.144E-02    0.49       1.0  T
   3   -132.1558812  0.697145E-03  0.633E-02    0.49       1.0  T
   4   -132.1565188 -0.637560E-03  0.208E-02    0.49       1.0  T
   5   -132.1565990 -0.802727E-04  0.285E-03    0.49       4.0  T
   6   -132.1566001 -0.105347E-05  0.907E-04    0.49      12.5  T
   7   -132.1566002 -0.133765E-06  0.203E-04    0.49      55.7  T
   8   -132.1566002 -0.289066E-08  0.100E-04    0.49     113.1  T
     SCC iter.                  ...        0 min,  0.075 sec
     gradient                   ...        0 min,  0.011 sec
 * total energy  :  -129.9807487 Eh     change       -0.1021202E-04 Eh
   gradient norm :     0.0003007 Eh/α   predicted    -0.3916751E-05 ( -61.65%)
   displ. norm   :     0.1274591 α      lambda       -0.7897367E-05
   maximum displ.:     0.0868786 α      in ANC's #2, #5, #9, ...

........................................................................
.............................. CYCLE   25 ..............................
........................................................................

 iter      E             dE          RMSdq      gap      omega  full diag
   1   -132.1565796 -0.132157E+03  0.199E-02    0.49       0.0  T
   2   -132.1565489  0.306971E-04  0.174E-02    0.49       1.0  T
   3   -132.1557164  0.832444E-03  0.693E-02    0.49       1.0  T
   4   -132.1562038 -0.487344E-03  0.451E-02    0.49       1.0  T
   5   -132.1565800 -0.376206E-03  0.999E-04    0.49      11.3  T
   6   -132.1565801 -0.847301E-07  0.573E-04    0.49      19.8  T
   7   -132.1565801 -0.306161E-07  0.228E-04    0.49      49.6  T
     SCC iter.                  ...        0 min,  0.066 sec
     gradient                   ...        0 min,  0.011 sec
 * total energy  :  -129.9807587 Eh     change       -0.1004619E-04 Eh
   gradient norm :     0.0003960 Eh/α   predicted    -0.3982713E-05 ( -60.36%)
   displ. norm   :     0.1042599 α      lambda       -0.5452805E-05
   maximum displ.:     0.0730397 α      in ANC's #2, #5, #9, ...

........................................................................
.............................. CYCLE   26 ..............................
........................................................................

 iter      E             dE          RMSdq      gap      omega  full diag
   1   -132.1566180 -0.132157E+03  0.156E-02    0.49       0.0  T
   2   -132.1565620  0.560341E-04  0.200E-02    0.49       1.0  T
   3   -132.1562672  0.294806E-03  0.450E-02    0.49       1.0  T
   4   -132.1563298 -0.626194E-04  0.392E-02    0.49       1.0  T
   5   -132.1566182 -0.288467E-03  0.157E-03    0.49       7.2  T
   6   -132.1566186 -0.391824E-06  0.470E-04    0.49      24.1  T
   7   -132.1566187 -0.328893E-07  0.110E-04    0.49     102.9  T
     SCC iter.                  ...        0 min,  0.066 sec
     gradient                   ...        0 min,  0.011 sec
 * total energy  :  -129.9807660 Eh     change       -0.7281808E-05 Eh
   gradient norm :     0.0003802 Eh/α   predicted    -0.2740668E-05 ( -62.36%)
   displ. norm   :     0.0762730 α      lambda       -0.4230842E-05
   maximum displ.:     0.0554247 α      in ANC's #2, #5, #6, ...

........................................................................
.............................. CYCLE   27 ..............................
........................................................................

 iter      E             dE          RMSdq      gap      omega  full diag
   1   -132.1566760 -0.132157E+03  0.110E-02    0.49       0.0  T
   2   -132.1566243  0.516324E-04  0.183E-02    0.49       1.0  T
   3   -132.1565686  0.557041E-04  0.252E-02    0.49       1.0  T
   4   -132.1566706 -0.102001E-03  0.577E-03    0.49       2.0  T
   5   -132.1566745 -0.388485E-05  0.321E-03    0.49       3.5  T
   6   -132.1566764 -0.190145E-05  0.652E-04    0.49      17.4  T
   7   -132.1566765 -0.638806E-07  0.196E-04    0.49      57.7  T
   8   -132.1566765 -0.325434E-08  0.102E-04    0.49     110.6  T
     SCC iter.                  ...        0 min,  0.077 sec
     gradient                   ...        0 min,  0.013 sec
 * total energy  :  -129.9807719 Eh     change       -0.5918374E-05 Eh
   gradient norm :     0.0003000 Eh/α   predicted    -0.2126629E-05 ( -64.07%)
   displ. norm   :     0.0672040 α      lambda       -0.4340488E-05
   maximum displ.:     0.0504062 α      in ANC's #2, #5, #6, ...

........................................................................
.............................. CYCLE   28 ..............................
........................................................................

 iter      E             dE          RMSdq      gap      omega  full diag
   1   -132.1567165 -0.132157E+03  0.995E-03    0.49       0.0  T
   2   -132.1565991  0.117344E-03  0.265E-02    0.49       1.0  T
   3   -132.1566881 -0.889868E-04  0.138E-02    0.49       1.0  T
   4   -132.1567073 -0.191812E-04  0.768E-03    0.49       1.5  T
   5   -132.1567144 -0.707903E-05  0.411E-03    0.49       2.8  T
   6   -132.1567175 -0.318944E-05  0.645E-04    0.49      17.6  T
   7   -132.1567176 -0.669264E-07  0.127E-04    0.49      89.3  T
   8   -132.1567176 -0.976115E-09  0.575E-05    0.49     197.0  T
     SCC iter.                  ...        0 min,  0.078 sec
     gradient                   ...        0 min,  0.011 sec
 * total energy  :  -129.9807780 Eh     change       -0.6055775E-05 Eh
   gradient norm :     0.0002041 Eh/α   predicted    -0.2175058E-05 ( -64.08%)
   displ. norm   :     0.0736539 α      lambda       -0.4903049E-05
   maximum displ.:     0.0560655 α      in ANC's #2, #5, #6, ...

........................................................................
.............................. CYCLE   29 ..............................
........................................................................

 iter      E             dE          RMSdq      gap      omega  full diag
   1   -132.1567129 -0.132157E+03  0.114E-02    0.49       0.0  T
   2   -132.1566465  0.664025E-04  0.206E-02    0.49       1.0  T
   3   -132.1566215  0.249530E-04  0.234E-02    0.49       1.0  T
   4   -132.1567089 -0.873461E-04  0.509E-03    0.49       2.2  T
   5   -132.1567080  0.832655E-06  0.552E-03    0.49       2.0  T
   6   -132.1567135 -0.545707E-05  0.660E-04    0.49      17.2  T
   7   -132.1567135 -0.675183E-07  0.171E-04    0.49      66.3  T
   8   -132.1567136 -0.198756E-08  0.840E-05    0.49     134.8  T
     SCC iter.                  ...        0 min,  0.075 sec
     gradient                   ...        0 min,  0.011 sec
 * total energy  :  -129.9807847 Eh     change       -0.6742267E-05 Eh
   gradient norm :     0.0001660 Eh/α   predicted    -0.2460183E-05 ( -63.51%)
   displ. norm   :     0.0779819 α      lambda       -0.4929595E-05
   maximum displ.:     0.0598635 α      in ANC's #2, #5, #6, ...

........................................................................
.............................. CYCLE   30 ..............................
........................................................................

 iter      E             dE          RMSdq      gap      omega  full diag
   1   -132.1567089 -0.132157E+03  0.127E-02    0.49       0.0  T
   2   -132.1566439  0.650122E-04  0.207E-02    0.49       1.0  T
   3   -132.1565659  0.779743E-04  0.290E-02    0.49       1.0  T
   4   -132.1567011 -0.135178E-03  0.668E-03    0.49       1.7  T
   5   -132.1567067 -0.558478E-05  0.412E-03    0.49       2.8  T
   6   -132.1567095 -0.285071E-05  0.549E-04    0.49      20.6  T
   7   -132.1567096 -0.403673E-07  0.196E-04    0.49      57.9  T
   8   -132.1567096 -0.363414E-08  0.777E-05    0.49     145.7  T
     SCC iter.                  ...        0 min,  0.075 sec
     gradient                   ...        0 min,  0.011 sec
 * total energy  :  -129.9807914 Eh     change       -0.6679047E-05 Eh
   gradient norm :     0.0002234 Eh/α   predicted    -0.2471792E-05 ( -62.99%)
   displ. norm   :     0.0740564 α      lambda       -0.4400391E-05
   maximum displ.:     0.0570893 α      in ANC's #2, #5, #6, ...

........................................................................
.............................. CYCLE   31 ..............................
........................................................................

 iter      E             dE          RMSdq      gap      omega  full diag
   1   -132.1566950 -0.132157E+03  0.126E-02    0.49       0.0  T
   2   -132.1566732  0.217853E-04  0.134E-02    0.49       1.0  T
   3   -132.1563546  0.318605E-03  0.439E-02    0.49       1.0  T
   4   -132.1566184 -0.263841E-03  0.201E-02    0.49       1.0  T
   5   -132.1566951 -0.766934E-04  0.107E-03    0.49      10.6  T
   6   -132.1566952 -0.111356E-06  0.345E-04    0.49      32.8  T
   7   -132.1566952 -0.868630E-08  0.165E-04    0.49      68.7  T
     SCC iter.                  ...        0 min,  0.066 sec
     gradient                   ...        0 min,  0.011 sec
 * total energy  :  -129.9807975 Eh     change       -0.6076113E-05 Eh
   gradient norm :     0.0002923 Eh/α   predicted    -0.2205978E-05 ( -63.69%)
   displ. norm   :     0.0686378 α      lambda       -0.4064212E-05
   maximum displ.:     0.0529441 α      in ANC's #2, #5, #6, ...

........................................................................
.............................. CYCLE   32 ..............................
........................................................................

 iter      E             dE          RMSdq      gap      omega  full diag
   1   -132.1566810 -0.132157E+03  0.122E-02    0.49       0.0  T
   2   -132.1566737  0.728031E-05  0.954E-03    0.49       1.2  T
   3   -132.1561921  0.481579E-03  0.523E-02    0.49       1.0  T
   4   -132.1566391 -0.446928E-03  0.150E-02    0.49       1.0  T
   5   -132.1566810 -0.419404E-04  0.871E-04    0.49      13.0  T
   6   -132.1566811 -0.921873E-07  0.379E-04    0.49      29.9  T
   7   -132.1566811 -0.160580E-07  0.171E-04    0.49      66.3  T
     SCC iter.                  ...        0 min,  0.067 sec
     gradient                   ...        0 min,  0.011 sec
 * total energy  :  -129.9808033 Eh     change       -0.5781825E-05 Eh
   gradient norm :     0.0003078 Eh/α   predicted    -0.2040464E-05 ( -64.71%)
   displ. norm   :     0.0685178 α      lambda       -0.4274752E-05
   maximum displ.:     0.0525941 α      in ANC's #2, #6, #5, ...

........................................................................
.............................. CYCLE   33 ..............................
........................................................................

 iter      E             dE          RMSdq      gap      omega  full diag
   1   -132.1566787 -0.132157E+03  0.126E-02    0.49       0.0  T
   2   -132.1566692  0.950437E-05  0.103E-02    0.49       1.1  T
   3   -132.1561947  0.474484E-03  0.521E-02    0.49       1.0  T
   4   -132.1566278 -0.433080E-03  0.165E-02    0.49       1.0  T
   5   -132.1566786 -0.508039E-04  0.117E-03    0.49       9.7  T
   6   -132.1566789 -0.246074E-06  0.272E-04    0.49      41.6  T
   7   -132.1566789 -0.350173E-08  0.185E-04    0.49      61.3  T
     SCC iter.                  ...        0 min,  0.067 sec
     gradient                   ...        0 min,  0.011 sec
 * total energy  :  -129.9808093 Eh     change       -0.6086467E-05 Eh
   gradient norm :     0.0002881 Eh/α   predicted    -0.2145420E-05 ( -64.75%)
   displ. norm   :     0.0748959 α      lambda       -0.4727855E-05
   maximum displ.:     0.0573889 α      in ANC's #2, #6, #12, ...

........................................................................
.............................. CYCLE   34 ..............................
........................................................................

 iter      E             dE          RMSdq      gap      omega  full diag
   1   -132.1566641 -0.132157E+03  0.140E-02    0.49       0.0  T
   2   -132.1566406  0.235311E-04  0.141E-02    0.49       1.0  T
   3   -132.1562002  0.440427E-03  0.514E-02    0.49       1.0  T
   4   -132.1566239 -0.423793E-03  0.147E-02    0.49       1.0  T
   5   -132.1566636 -0.396190E-04  0.210E-03    0.49       5.4  T
   6   -132.1566644 -0.821444E-06  0.359E-04    0.49      31.6  T
   7   -132.1566644  0.437637E-08  0.318E-04    0.49      35.6  T
     SCC iter.                  ...        0 min,  0.066 sec
     gradient                   ...        0 min,  0.011 sec
 * total energy  :  -129.9808159 Eh     change       -0.6556640E-05 Eh
   gradient norm :     0.0002216 Eh/α   predicted    -0.2371783E-05 ( -63.83%)
   displ. norm   :     0.0771332 α      lambda       -0.4543410E-05
   maximum displ.:     0.0597646 α      in ANC's #2, #7, #12, ...

........................................................................
.............................. CYCLE   35 ..............................
........................................................................

 iter      E             dE          RMSdq      gap      omega  full diag
   1   -132.1566362 -0.132157E+03  0.146E-02    0.49       0.0  T
   2   -132.1565696  0.665450E-04  0.211E-02    0.49       1.0  T
   3   -132.1563752  0.194388E-03  0.391E-02    0.49       1.0  T
   4   -132.1565605 -0.185274E-03  0.201E-02    0.49       1.0  T
   5   -132.1566363 -0.757625E-04  0.177E-03    0.49       6.4  T
   6   -132.1566369 -0.583486E-06  0.362E-04    0.49      31.2  T
   7   -132.1566369  0.259502E-08  0.317E-04    0.49      35.7  T
     SCC iter.                  ...        0 min,  0.066 sec
     gradient                   ...        0 min,  0.011 sec
 * total energy  :  -129.9808220 Eh     change       -0.6131616E-05 Eh
   gradient norm :     0.0001556 Eh/α   predicted    -0.2278301E-05 ( -62.84%)
   displ. norm   :     0.0645291 α      lambda       -0.3402143E-05
   maximum displ.:     0.0513677 α      in ANC's #2, #7, #12, ...

........................................................................
.............................. CYCLE   36 ..............................
........................................................................

 iter      E             dE          RMSdq      gap      omega  full diag
   1   -132.1566519 -0.132157E+03  0.119E-02    0.49       0.0  T
   2   -132.1566361  0.158363E-04  0.117E-02    0.49       1.0  T
   3   -132.1562970  0.339072E-03  0.450E-02    0.49       1.0  T
   4   -132.1566256 -0.328560E-03  0.119E-02    0.49       1.0  T
   5   -132.1566518 -0.262308E-04  0.128E-03    0.49       8.9  T
   6   -132.1566521 -0.297938E-06  0.289E-04    0.49      39.2  T
   7   -132.1566521 -0.339338E-08  0.206E-04    0.49      54.9  T
     SCC iter.                  ...        0 min,  0.065 sec
     gradient                   ...        0 min,  0.011 sec
 * total energy  :  -129.9808267 Eh     change       -0.4628819E-05 Eh
   gradient norm :     0.0001395 Eh/α   predicted    -0.1704646E-05 ( -63.17%)
   displ. norm   :     0.0469849 α      lambda       -0.2383998E-05
   maximum displ.:     0.0386523 α      in ANC's #2, #7, #12, ...

........................................................................
.............................. CYCLE   37 ..............................
........................................................................

 iter      E             dE          RMSdq      gap      omega  full diag
   1   -132.1566742 -0.132157E+03  0.838E-03    0.49       0.0  T
   2   -132.1566738  0.397196E-06  0.516E-03    0.49       2.2  T
   3   -132.1565758  0.980746E-04  0.228E-02    0.49       1.0  T
   4   -132.1566736 -0.977972E-04  0.198E-03    0.49       5.7  T
   5   -132.1566740 -0.405129E-06  0.128E-03    0.49       8.8  T
   6   -132.1566743 -0.286953E-06  0.995E-05    0.49     113.8  T
   7   -132.1566743 -0.183746E-09  0.701E-05    0.49     161.4  T
     SCC iter.                  ...        0 min,  0.067 sec
     gradient                   ...        0 min,  0.011 sec
 * total energy  :  -129.9808300 Eh     change       -0.3381797E-05 Eh
   gradient norm :     0.0001550 Eh/α   predicted    -0.1198142E-05 ( -64.57%)
   displ. norm   :     0.0367296 α      lambda       -0.2013575E-05
   maximum displ.:     0.0305925 α      in ANC's #2, #7, #4, ...

........................................................................
.............................. CYCLE   38 ..............................
........................................................................

 iter      E             dE          RMSdq      gap      omega  full diag
   1   -132.1566990 -0.132157E+03  0.624E-03    0.49       0.0  T
   2   -132.1566945  0.454396E-05  0.633E-03    0.49       1.8  T
   3   -132.1566050  0.894890E-04  0.231E-02    0.49       1.0  T
   4   -132.1566982 -0.932402E-04  0.212E-03    0.49       5.3  T
   5   -132.1566987 -0.454989E-06  0.148E-03    0.49       7.6  T
   6   -132.1566990 -0.382202E-06  0.201E-04    0.49      56.4  T
   7   -132.1566991 -0.585825E-08  0.549E-05    0.49     206.2  T
     SCC iter.                  ...        0 min,  0.067 sec
     gradient                   ...        0 min,  0.011 sec
 * total energy  :  -129.9808330 Eh     change       -0.2929861E-05 Eh
   gradient norm :     0.0001692 Eh/α   predicted    -0.1011347E-05 ( -65.48%)
   displ. norm   :     0.0375561 α      lambda       -0.2228119E-05
   maximum displ.:     0.0304665 α      in ANC's #2, #9, #4, ...

........................................................................
.............................. CYCLE   39 ..............................
........................................................................

 iter      E             dE          RMSdq      gap      omega  full diag
   1   -132.1567245 -0.132157E+03  0.620E-03    0.49       0.0  T
   2   -132.1567167  0.775462E-05  0.763E-03    0.49       1.5  T
   3   -132.1566642  0.525418E-04  0.186E-02    0.49       1.0  T
   4   -132.1567123 -0.481659E-04  0.814E-03    0.49       1.4  T
   5   -132.1567241 -0.118162E-04  0.148E-03    0.49       7.6  T
   6   -132.1567245 -0.386185E-06  0.305E-04    0.49      37.1  T
   7   -132.1567245 -0.154322E-07  0.537E-05    0.49     211.0  T
     SCC iter.                  ...        0 min,  0.067 sec
     gradient                   ...        0 min,  0.011 sec
 * total energy  :  -129.9808362 Eh     change       -0.3243531E-05 Eh
   gradient norm :     0.0001853 Eh/α   predicted    -0.1116534E-05 ( -65.58%)
   displ. norm   :     0.0478888 α      lambda       -0.2921786E-05
   maximum displ.:     0.0370977 α      in ANC's #2, #9, #4, ...

........................................................................
.............................. CYCLE   40 ..............................
........................................................................

 iter      E             dE          RMSdq      gap      omega  full diag
   1   -132.1567326 -0.132157E+03  0.773E-03    0.49       0.0  T
   2   -132.1567203  0.122997E-04  0.959E-03    0.49       1.2  T
   3   -132.1566434  0.769637E-04  0.226E-02    0.49       1.0  T
   4   -132.1566960 -0.526291E-04  0.141E-02    0.49       1.0  T
   5   -132.1567321 -0.361530E-04  0.187E-03    0.49       6.1  T
   6   -132.1567327 -0.599267E-06  0.416E-04    0.49      27.2  T
   7   -132.1567328 -0.288779E-07  0.703E-05    0.49     161.1  T
     SCC iter.                  ...        0 min,  0.066 sec
     gradient                   ...        0 min,  0.011 sec
 * total energy  :  -129.9808404 Eh     change       -0.4202349E-05 Eh
   gradient norm :     0.0001566 Eh/α   predicted    -0.1464317E-05 ( -65.15%)
   displ. norm   :     0.0642997 α      lambda       -0.3760505E-05
   maximum displ.:     0.0483381 α      in ANC's #2, #9, #4, ...

........................................................................
.............................. CYCLE   41 ..............................
........................................................................

 iter      E             dE          RMSdq      gap      omega  full diag
   1   -132.1567443 -0.132157E+03  0.101E-02    0.49       0.0  T
   2   -132.1567205  0.237871E-04  0.132E-02    0.49       1.0  T
   3   -132.1566045  0.115988E-03  0.284E-02    0.49       1.0  T
   4   -132.1566853 -0.808225E-04  0.179E-02    0.49       1.0  T
   5   -132.1567433 -0.579333E-04  0.267E-03    0.49       4.2  T
   6   -132.1567445 -0.123453E-05  0.615E-04    0.49      18.4  T
   7   -132.1567446 -0.629875E-07  0.108E-04    0.49     104.7  T
   8   -132.1567446 -0.746354E-09  0.488E-05    0.49     232.1  T
     SCC iter.                  ...        0 min,  0.075 sec
     gradient                   ...        0 min,  0.011 sec
 * total energy  :  -129.9808457 Eh     change       -0.5321870E-05 Eh
   gradient norm :     0.0001357 Eh/α   predicted    -0.1886403E-05 ( -64.55%)
   displ. norm   :     0.0782541 α      lambda       -0.4243923E-05
   maximum displ.:     0.0583652 α      in ANC's #2, #9, #4, ...

........................................................................
.............................. CYCLE   42 ..............................
........................................................................

 iter      E             dE          RMSdq      gap      omega  full diag
   1   -132.1567731 -0.132157E+03  0.120E-02    0.49       0.0  T
   2   -132.1567382  0.349208E-04  0.159E-02    0.49       1.0  T
   3   -132.1565788  0.159458E-03  0.335E-02    0.49       1.0  T
   4   -132.1567137 -0.134930E-03  0.181E-02    0.49       1.0  T
   5   -132.1567716 -0.579478E-04  0.322E-03    0.49       3.5  T
   6   -132.1567734 -0.178044E-05  0.823E-04    0.49      13.8  T
   7   -132.1567735 -0.113545E-06  0.142E-04    0.49      79.7  T
   8   -132.1567735 -0.174876E-08  0.510E-05    0.49     222.1  T
     SCC iter.                  ...        0 min,  0.077 sec
     gradient                   ...        0 min,  0.011 sec
 * total energy  :  -129.9808517 Eh     change       -0.5933185E-05 Eh
   gradient norm :     0.0001286 Eh/α   predicted    -0.2129676E-05 ( -64.11%)
   displ. norm   :     0.0804356 α      lambda       -0.4009511E-05
   maximum displ.:     0.0603353 α      in ANC's #2, #9, #4, ...
 * RMSD in coord.:     0.1470165 α      energy gain  -0.1285014E-03 Eh

generating ANC from exact Hessian ...
Using Lindh-Hessian (1995)
 Shifting diagonal of input Hessian by   9.910255016382033E-003
 Lowest  eigenvalues of input Hessian
    0.000000    0.000000    0.000000    0.000000    0.000000    0.000000
    0.010000    0.010008    0.010050    0.010153    0.010210    0.010692
    0.011291    0.011480    0.011660    0.011871    0.012098    0.012367
 Highest eigenvalues
    2.196066    2.197487    2.222925    2.225254    2.246762    2.304635
 

........................................................................
.............................. CYCLE   43 ..............................
........................................................................

 iter      E             dE          RMSdq      gap      omega  full diag
   1   -132.1568050 -0.132157E+03  0.119E-02    0.49       0.0  T
   2   -132.1567669  0.381534E-04  0.164E-02    0.49       1.0  T
   3   -132.1566273  0.139599E-03  0.321E-02    0.49       1.0  T
   4   -132.1567471 -0.119839E-03  0.178E-02    0.49       1.0  T
   5   -132.1568036 -0.564700E-04  0.319E-03    0.49       3.5  T
   6   -132.1568053 -0.175375E-05  0.816E-04    0.49      13.9  T
   7   -132.1568054 -0.111798E-06  0.139E-04    0.49      81.6  T
   8   -132.1568054 -0.173893E-08  0.456E-05    0.49     248.3  T
     SCC iter.                  ...        0 min,  0.071 sec
     gradient                   ...        0 min,  0.011 sec
 * total energy  :  -129.9808573 Eh     change       -0.5614079E-05 Eh
   gradient norm :     0.0001300 Eh/α   predicted     0.0000000E+00 (-100.00%)
   displ. norm   :     0.0153949 α      lambda       -0.2867123E-07
   maximum displ.:     0.0138093 α      in ANC's #2, #9, #5, ...

........................................................................
.............................. CYCLE   44 ..............................
........................................................................

 iter      E             dE          RMSdq      gap      omega  full diag
   1   -132.1568120 -0.132157E+03  0.239E-03    0.49       0.0  T
   2   -132.1568119  0.130756E-06  0.164E-03    0.49       6.9  T
   3   -132.1567963  0.156290E-04  0.925E-03    0.49       1.2  T
   4   -132.1568107 -0.144483E-04  0.269E-03    0.49       4.2  T
   5   -132.1568120 -0.130645E-05  0.232E-04    0.49      48.7  T
   6   -132.1568120 -0.838787E-08  0.472E-05    0.49     240.0  T
   7   -132.1568120 -0.159332E-09  0.255E-05    0.49     444.5  T
     SCC iter.                  ...        0 min,  0.062 sec
     gradient                   ...        0 min,  0.011 sec
 * total energy  :  -129.9808589 Eh     change       -0.1631608E-05 Eh
   gradient norm :     0.0001154 Eh/α   predicted    -0.5597878E-06 ( -65.69%)
   displ. norm   :     0.0272875 α      lambda       -0.1827031E-05
   maximum displ.:     0.0213730 α      in ANC's #2, #9, #5, ...

........................................................................
.............................. CYCLE   45 ..............................
........................................................................

 iter      E             dE          RMSdq      gap      omega  full diag
   1   -132.1568199 -0.132157E+03  0.462E-03    0.49       0.0  T
   2   -132.1568198  0.109508E-06  0.282E-03    0.49       4.0  T
   3   -132.1567907  0.291351E-04  0.125E-02    0.49       1.0  T
   4   -132.1568194 -0.287268E-04  0.172E-03    0.49       6.6  T
   5   -132.1568199 -0.445403E-06  0.675E-04    0.49      16.8  T
   6   -132.1568199 -0.797237E-07  0.763E-05    0.49     148.4  T
     SCC iter.                  ...        0 min,  0.054 sec
     gradient                   ...        0 min,  0.011 sec
 * total energy  :  -129.9808616 Eh     change       -0.2660598E-05 Eh
   gradient norm :     0.0001134 Eh/α   predicted    -0.9328466E-06 ( -64.94%)
   displ. norm   :     0.0434172 α      lambda       -0.2658592E-05
   maximum displ.:     0.0327789 α      in ANC's #2, #9, #5, ...

........................................................................
.............................. CYCLE   46 ..............................
........................................................................

 iter      E             dE          RMSdq      gap      omega  full diag
   1   -132.1568184 -0.132157E+03  0.755E-03    0.49       0.0  T
   2   -132.1568165  0.192904E-05  0.549E-03    0.49       2.1  T
   3   -132.1566776  0.138878E-03  0.275E-02    0.49       1.0  T
   4   -132.1567993 -0.121625E-03  0.104E-02    0.49       1.1  T
   5   -132.1568185 -0.192134E-04  0.309E-04    0.49      36.6  T
   6   -132.1568185 -0.129234E-07  0.108E-04    0.49     105.1  T
   7   -132.1568185 -0.712873E-09  0.525E-05    0.49     215.8  T
     SCC iter.                  ...        0 min,  0.062 sec
     gradient                   ...        0 min,  0.011 sec
 * total energy  :  -129.9808653 Eh     change       -0.3678160E-05 Eh
   gradient norm :     0.0001040 Eh/α   predicted    -0.1330724E-05 ( -63.82%)
   displ. norm   :     0.0525232 α      lambda       -0.2801834E-05
   maximum displ.:     0.0397168 α      in ANC's #2, #9, #5, ...

........................................................................
.............................. CYCLE   47 ..............................
........................................................................

 iter      E             dE          RMSdq      gap      omega  full diag
   1   -132.1568227 -0.132157E+03  0.915E-03    0.49       0.0  T
   2   -132.1568167  0.602705E-05  0.794E-03    0.49       1.4  T
   3   -132.1565593  0.257430E-03  0.384E-02    0.49       1.0  T
   4   -132.1567909 -0.231651E-03  0.131E-02    0.49       1.0  T
   5   -132.1568228 -0.318649E-04  0.413E-04    0.49      27.4  T
   6   -132.1568228 -0.191025E-07  0.209E-04    0.49      54.1  T
   7   -132.1568228 -0.341095E-08  0.108E-04    0.49     104.5  T
     SCC iter.                  ...        0 min,  0.062 sec
     gradient                   ...        0 min,  0.011 sec
 * total energy  :  -129.9808691 Eh     change       -0.3857533E-05 Eh
   gradient norm :     0.0001132 Eh/α   predicted    -0.1403178E-05 ( -63.62%)
   displ. norm   :     0.0497245 α      lambda       -0.2435407E-05
   maximum displ.:     0.0380971 α      in ANC's #2, #5, #7, ...

........................................................................
.............................. CYCLE   48 ..............................
........................................................................

 iter      E             dE          RMSdq      gap      omega  full diag
   1   -132.1568288 -0.132157E+03  0.863E-03    0.49       0.0  T
   2   -132.1568268  0.194846E-05  0.603E-03    0.49       1.9  T
   3   -132.1566274  0.199440E-03  0.330E-02    0.49       1.0  T
   4   -132.1568039 -0.176542E-03  0.117E-02    0.49       1.0  T
   5   -132.1568288 -0.248752E-04  0.342E-04    0.49      33.1  T
   6   -132.1568288 -0.134758E-07  0.164E-04    0.49      69.1  T
   7   -132.1568288 -0.153645E-08  0.918E-05    0.49     123.3  T
     SCC iter.                  ...        0 min,  0.062 sec
     gradient                   ...        0 min,  0.011 sec
 * total energy  :  -129.9808725 Eh     change       -0.3419816E-05 Eh
   gradient norm :     0.0001216 Eh/α   predicted    -0.1222800E-05 ( -64.24%)
   displ. norm   :     0.0446801 α      lambda       -0.2192753E-05
   maximum displ.:     0.0344925 α      in ANC's #2, #5, #7, ...

........................................................................
.............................. CYCLE   49 ..............................
........................................................................

 iter      E             dE          RMSdq      gap      omega  full diag
   1   -132.1568398 -0.132157E+03  0.776E-03    0.49       0.0  T
   2   -132.1568366  0.323189E-05  0.626E-03    0.49       1.8  T
   3   -132.1566148  0.221725E-03  0.355E-02    0.49       1.0  T
   4   -132.1568302 -0.215364E-03  0.719E-03    0.49       1.6  T
   5   -132.1568398 -0.960291E-05  0.427E-04    0.49      26.5  T
   6   -132.1568398 -0.298189E-07  0.133E-04    0.49      85.2  T
   7   -132.1568398 -0.196286E-08  0.587E-05    0.49     192.7  T
     SCC iter.                  ...        0 min,  0.062 sec
     gradient                   ...        0 min,  0.011 sec
 * total energy  :  -129.9808757 Eh     change       -0.3174088E-05 Eh
   gradient norm :     0.0001287 Eh/α   predicted    -0.1101171E-05 ( -65.31%)
   displ. norm   :     0.0449539 α      lambda       -0.2337057E-05
   maximum displ.:     0.0344386 α      in ANC's #2, #5, #7, ...

........................................................................
.............................. CYCLE   50 ..............................
........................................................................

 iter      E             dE          RMSdq      gap      omega  full diag
   1   -132.1568472 -0.132157E+03  0.781E-03    0.49       0.0  T
   2   -132.1568464  0.788178E-06  0.507E-03    0.49       2.2  T
   3   -132.1565960  0.250343E-03  0.375E-02    0.49       1.0  T
   4   -132.1568471 -0.251095E-03  0.572E-04    0.49      19.8  T
   5   -132.1568468  0.285987E-06  0.134E-03    0.49       8.5  T
   6   -132.1568472 -0.334237E-06  0.162E-04    0.49      69.9  T
   7   -132.1568472 -0.349092E-08  0.709E-05    0.49     159.7  T
     SCC iter.                  ...        0 min,  0.062 sec
     gradient                   ...        0 min,  0.011 sec
 * total energy  :  -129.9808791 Eh     change       -0.3405333E-05 Eh
   gradient norm :     0.0001261 Eh/α   predicted    -0.1173114E-05 ( -65.55%)
   displ. norm   :     0.0535549 α      lambda       -0.2871541E-05
   maximum displ.:     0.0404747 α      in ANC's #2, #5, #7, ...

........................................................................
.............................. CYCLE   51 ..............................
........................................................................

 iter      E             dE          RMSdq      gap      omega  full diag
   1   -132.1568475 -0.132157E+03  0.931E-03    0.49       0.0  T
   2   -132.1568471  0.321998E-06  0.564E-03    0.49       2.0  T
   3   -132.1566921  0.155008E-03  0.293E-02    0.49       1.0  T
   4   -132.1568447 -0.152534E-03  0.393E-03    0.49       2.9  T
   5   -132.1568474 -0.273094E-05  0.663E-04    0.49      17.1  T
   6   -132.1568475 -0.795334E-07  0.157E-04    0.49      72.2  T
   7   -132.1568475 -0.196587E-08  0.898E-05    0.49     126.1  T
     SCC iter.                  ...        0 min,  0.062 sec
     gradient                   ...        0 min,  0.011 sec
 * total energy  :  -129.9808833 Eh     change       -0.4176418E-05 Eh
   gradient norm :     0.0001223 Eh/α   predicted    -0.1438065E-05 ( -65.57%)
   displ. norm   :     0.0668344 α      lambda       -0.3535635E-05
   maximum displ.:     0.0500728 α      in ANC's #2, #5, #7, ...

........................................................................
.............................. CYCLE   52 ..............................
........................................................................

 iter      E             dE          RMSdq      gap      omega  full diag
   1   -132.1568442 -0.132157E+03  0.115E-02    0.49       0.0  T
   2   -132.1568433  0.912111E-06  0.715E-03    0.49       1.6  T
   3   -132.1564685  0.374811E-03  0.458E-02    0.49       1.0  T
   4   -132.1568387 -0.370223E-03  0.549E-03    0.49       2.1  T
   5   -132.1568441 -0.539815E-05  0.849E-04    0.49      13.3  T
   6   -132.1568442 -0.129220E-06  0.208E-04    0.49      54.4  T
   7   -132.1568442 -0.415292E-08  0.111E-04    0.49     102.4  T
     SCC iter.                  ...        0 min,  0.062 sec
     gradient                   ...        0 min,  0.011 sec
 * total energy  :  -129.9808884 Eh     change       -0.5064126E-05 Eh
   gradient norm :     0.0001153 Eh/α   predicted    -0.1772173E-05 ( -65.01%)
   displ. norm   :     0.0771336 α      lambda       -0.3849342E-05
   maximum displ.:     0.0578628 α      in ANC's #2, #5, #7, ...

........................................................................
.............................. CYCLE   53 ..............................
........................................................................

 iter      E             dE          RMSdq      gap      omega  full diag
   1   -132.1568364 -0.132157E+03  0.131E-02    0.49       0.0  T
[...]
    49   7 N       50   6 C                                       1.3293242
     1   6 C       51   1 H                                       1.0884414
     1   6 C       52   1 H                                       1.0926142
     1   6 C       53   1 H                                       1.0917279
     3   6 C       54   1 H                                       1.0711580 (min)
     8   6 C       55   1 H                                       1.0789813
     9   6 C       56   1 H                                       1.0809206
    13   6 C       57   1 H                                       1.0782684
    14   6 C       58   1 H                                       1.0789419
    15   6 C       59   1 H                                       1.0783330
    16   6 C       60   1 H                                       1.0784013
    20   6 C       61   1 H                                       1.0783759
    21   6 C       62   1 H                                       1.0783342
    22   6 C       63   1 H                                       1.0789184
    23   6 C       64   1 H                                       1.0783098
    25   6 C       65   1 H                                       1.0808580
    26   6 C       66   1 H                                       1.0788386
    30   6 C       67   1 H                                       1.0786520
    31   6 C       68   1 H                                       1.0804201
    35   6 C       69   1 H                                       1.0783153
    36   6 C       70   1 H                                       1.0789184
    37   6 C       71   1 H                                       1.0783685
    38   6 C       72   1 H                                       1.0784131
    42   6 C       73   1 H                                       1.0784217
    43   6 C       74   1 H                                       1.0783808
    44   6 C       75   1 H                                       1.0789653
    45   6 C       76   1 H                                       1.0783006
    47   6 C       77   1 H                                       1.0805197
    48   6 C       78   1 H                                       1.0788386

 * 4 distinct bonds (by element types)

   Z      Z             #   av. dist./Å        max./Å        min./Å
   1 H    6 C          28     1.0799263     1.0926142     1.0711580
   6 C    6 C          39     1.3928989     1.4317359     1.3710718
   6 C    7 N          15     1.3715173     1.4370985     1.3112667
   6 C    8 O           4     1.3693886     1.3699534     1.3688020

           -------------------------------------------------
          |               Frequency Printout                |
           -------------------------------------------------
 projected vibrational frequencies (cm⁻¹)
eigval :       -0.00    -0.00    -0.00     0.00     0.00     0.00
eigval :        7.62    11.33    14.32    20.50    23.72    30.06
eigval :       40.90    52.57    54.52    55.75    61.97    66.16
eigval :       66.69    75.01    93.12   111.88   113.83   120.61
eigval :      126.09   141.29   151.13   186.15   189.15   193.48
eigval :      217.36   242.13   244.77   251.86   253.13   255.66
eigval :      267.87   275.76   287.52   315.40   337.56   348.36
eigval :      364.20   367.90   376.29   380.28   382.23   392.29
eigval :      400.55   407.22   417.35   423.16   428.54   431.48
eigval :      432.28   452.04   457.97   466.38   479.20   501.08
eigval :      501.60   505.38   524.92   526.76   533.40   543.58
eigval :      557.52   563.16   573.32   584.48   586.45   586.59
eigval :      600.68   608.84   622.22   624.56   647.74   650.10
eigval :      664.12   664.67   665.72   667.53   669.14   681.45
eigval :      682.83   691.53   700.15   710.56   716.13   777.00
eigval :      779.16   779.35   780.25   789.66   797.32   803.45
eigval :      812.53   820.28   850.31   854.21   854.34   859.34
eigval :      862.56   868.31   868.64   869.68   869.82   893.12
eigval :      900.40   900.94   901.75   901.93   904.66   909.07
eigval :      913.36   915.33   915.56   917.42   918.40   918.57
eigval :      919.26   919.83   921.79   937.14  1001.66  1003.70
eigval :     1029.21  1077.64  1082.82  1084.76  1085.32  1086.22
eigval :     1103.97  1109.02  1109.70  1111.22  1114.11  1118.04
eigval :     1118.96  1124.83  1134.87  1153.43  1166.74  1167.73
eigval :     1171.17  1171.28  1175.29  1183.11  1187.02  1203.63
eigval :     1204.45  1207.97  1210.68  1218.05  1232.03  1236.81
eigval :     1237.44  1251.87  1253.48  1255.01  1260.40  1276.78
eigval :     1291.12  1301.22  1306.68  1308.05  1314.08  1315.35
eigval :     1316.86  1329.77  1330.96  1342.13  1345.62  1364.41
eigval :     1386.19  1393.44  1407.37  1413.89  1416.05  1419.95
eigval :     1423.56  1438.92  1439.38  1444.06  1447.88  1450.59
eigval :     1454.31  1456.16  1466.14  1470.13  1475.46  1483.20
eigval :     1490.25  1493.24  1519.63  1534.45  1555.40  1557.91
eigval :     1562.26  1564.22  1565.67  1570.57  1575.34  1583.83
eigval :     1585.34  1589.42  2969.43  2987.15  3035.75  3070.01
eigval :     3072.10  3076.31  3079.44  3093.16  3093.23  3093.42
eigval :     3093.81  3096.37  3099.92  3101.08  3101.31  3101.61
eigval :     3102.24  3102.49  3103.73  3109.66  3110.12  3110.31
eigval :     3110.66  3113.15  3113.44  3113.85  3114.19  3167.53
 reduced masses (amu)
   1: 11.78   2: 11.89   3: 11.91   4: 11.95   5: 11.96   6: 11.93   7: 11.12   8: 11.04
   9: 11.80  10: 11.23  11: 11.19  12: 11.39  13: 11.42  14:  2.62  15: 11.33  16:  9.90
  17: 10.42  18: 10.97  19: 11.34  20: 10.99  21: 11.18  22: 10.28  23:  9.96  24: 11.25
  25: 10.94  26: 11.59  27: 11.62  28: 10.96  29: 11.73  30: 11.65  31: 10.87  32: 10.61
  33: 10.57  34: 11.00  35: 11.58  36: 11.13  37: 11.93  38: 11.52  39: 11.87  40: 11.32
  41: 11.34  42: 11.65  43: 11.69  44: 11.76  45:  9.23  46: 11.15  47:  9.73  48: 10.59
  49: 10.96  50: 11.23  51: 10.65  52: 10.84  53: 10.86  54:  9.87  55: 10.03  56: 10.99
  57: 11.07  58: 11.00  59: 10.73  60: 10.08  61: 10.09  62: 11.90  63: 10.75  64: 10.82
  65: 12.04  66: 11.56  67: 12.32  68: 11.34  69: 12.17  70: 11.35  71: 11.22  72: 12.03
  73: 11.55  74: 11.47  75: 11.72  76: 11.68  77: 11.67  78: 11.95  79: 11.55  80: 11.63
  81: 11.63  82: 11.78  83: 11.81  84: 11.46  85: 11.15  86: 10.77  87: 11.44  88:  4.74
  89: 11.94  90:  3.30  91:  3.29  92:  3.27  93:  3.25  94: 12.56  95: 12.48  96:  5.05
  97:  5.26  98: 12.29  99:  4.11 100: 12.40 101: 12.43 102:  6.84 103:  8.47 104:  3.37
 105:  3.37 106:  3.38 107:  3.35 108: 11.73 109:  3.67 110:  3.81 111:  3.79 112:  3.87
 113:  4.21 114:  5.17 115:  9.94 116:  3.82 117:  8.67 118:  3.73 119:  4.39 120:  9.01
 121:  3.83 122:  4.46 123:  4.30 124: 11.75 125:  8.83 126:  8.80 127:  6.18 128:  8.52
 129:  5.59 130:  5.89 131:  5.47 132:  5.93 133:  3.75 134:  8.21 135:  7.85 136:  7.87
 137:  3.36 138:  8.20 139:  8.40 140:  3.55 141:  5.90 142:  6.95 143:  2.98 144:  3.43
 145:  1.69 146:  1.79 147:  2.42 148:  5.66 149:  5.08 150:  7.52 151:  7.53 152:  7.82
 153:  8.76 154:  8.19 155:  9.47 156:  5.29 157:  5.08 158:  3.81 159:  4.63 160:  4.80
 161:  4.41 162: 11.42 163: 10.77 164: 10.70 165: 10.77 166: 11.18 167: 11.80 168: 11.61
 169: 11.44 170: 11.35 171: 11.24 172: 11.51 173: 11.33 174: 12.19 175:  8.91 176:  6.91
 177: 10.28 178:  9.94 179:  9.78 180: 10.01 181: 10.73 182:  9.70 183:  9.70 184:  9.92
 185: 11.68 186: 10.05 187:  4.80 188:  5.65 189:  3.57 190:  9.90 191: 10.35 192: 11.13
 193: 11.29 194: 11.50 195: 11.65 196: 11.85 197: 11.43 198: 11.45 199: 11.50 200: 11.62
 201: 11.50 202: 11.55 203: 11.59 204: 11.65 205: 11.63 206: 11.67 207:  1.89 208:  1.52
 209:  1.72 210:  1.81 211:  1.80 212:  1.81 213:  1.80 214:  1.77 215:  1.77 216:  1.78
 217:  1.77 218:  1.85 219:  1.85 220:  1.82 221:  1.82 222:  1.85 223:  1.81 224:  1.81
 225:  1.84 226:  1.85 227:  1.85 228:  1.85 229:  1.85 230:  1.90 231:  1.90 232:  1.91
 233:  1.91 234:  1.85
 IR intensities (km·mol⁻¹)
   1:  0.88   2:  1.49   3:  0.57   4:  7.80   5:  5.36   6:  1.99   7: 11.52   8:  0.81
   9:  0.36  10:  0.76  11:  0.56  12:  1.88  13:  1.15  14:  0.62  15:  0.87  16:  2.36
  17:  0.08  18:  1.78  19:  1.89  20:  0.42  21:  4.26  22:  2.09  23:  0.61  24: 20.98
  25:  1.12  26: 14.28  27:  1.14  28:  3.39  29:  4.21  30:  1.51  31:  8.27  32:  3.02
  33: 34.55  34:  5.32  35:  4.06  36:  0.99  37:  4.64  38:  4.55  39:  1.10  40:  2.65
  41:  3.35  42:  3.90  43:  7.23  44: 10.01  45:  5.09  46:  3.18  47: 16.54  48:  1.66
  49:183.16  50:112.11  51:  8.55  52:  3.00  53: 38.50  54: 12.73  55:  8.71  56:  3.33
  57:  1.84  58:  6.27  59:  1.59  60: 13.68  61:  8.21  62: 19.22  63:  0.02  64: 15.24
  65:  1.54  66:  8.73  67:370.39  68: 30.12  69: 18.85  70:  3.57  71:  3.30  72: 51.51
  73: 16.71  74:  1.72  75: 95.20  76: 53.41  77:  0.74  78:  2.98  79:  5.22  80:  2.55
  81:  0.38  82:  2.24  83:  3.29  84: 54.94  85:  2.66  86: 15.08  87:  2.57  88:  1.45
  89: 69.10  90: 49.04  91: 92.10  92: 16.67  93:  0.32  94:200.77  95: 86.00  96:  6.23
  97:  8.32  98:228.50  99: 61.51 100: 34.94 101: 20.21 102:370.99 103:435.97 104: 11.93
 105: 12.62 106:  6.59 107:  6.65 108: 53.30 109:  2.19 110: 24.72 111:  4.47 112:  0.28
 113: 13.35 114: 16.69 115: 42.14 116: 31.46 117: 27.27 118: 12.38 119: 10.33 120: 38.71
 121:  3.47 122:  7.79 123:  7.81 124: 13.93 125: 87.73 126: 67.47 127: 16.42 128: 79.40
 129: 65.80 130:  6.30 131:  5.61 132:  4.64 133:  0.72 134:341.72 135:  6.75 136:  6.41
 137:103.39 138:****** 139:139.23 140: 53.83 141:241.83 142:249.68 143:****** 144:657.59
 145:  1.75 146:  0.25 147: 74.46 148:****** 149: 54.99 150: 58.97 151: 66.75 152:267.67
 153:****** 154: 99.25 155:100.79 156: 35.72 157: 43.62 158: 20.57 159:512.55 160:218.87
 161: 15.79 162: 64.09 163:104.34 164: 22.14 165:459.52 166:397.68 167:247.84 168: 19.47
 169:231.97 170: 39.19 171: 17.44 172:****** 173: 66.97 174: 36.15 175:126.62 176: 59.75
 177:416.79 178: 36.20 179:216.50 180:  9.77 181:415.46 182: 63.53 183: 87.44 184:320.29
 185: 52.28 186:348.68 187: 95.44 188:172.25 189:569.55 190:****** 191:162.31 192: 29.85
 193: 58.18 194: 46.02 195: 10.15 196: 11.93 197: 19.12 198: 14.08 199:  6.94 200:106.99
 201: 17.27 202:****** 203:418.39 204: 78.82 205:421.81 206: 34.90 207: 49.41 208:158.66
 209:  4.61 210: 72.75 211: 17.79 212: 49.42 213: 18.52 214:  7.92 215: 21.81 216:  7.32
 217:  8.41 218: 22.20 219: 74.16 220: 43.41 221: 49.71 222: 38.27 223: 51.07 224: 72.15
 225:  2.08 226: 21.08 227:175.60 228:  2.62 229:241.05 230:284.57 231:260.50 232: 65.80
 233: 85.45 234: 95.56
 Raman intensities (Ä⁴*amu⁻¹)
   1:  0.00   2:  0.00   3:  0.00   4:  0.00   5:  0.00   6:  0.00   7:  0.00   8:  0.00
   9:  0.00  10:  0.00  11:  0.00  12:  0.00  13:  0.00  14:  0.00  15:  0.00  16:  0.00
  17:  0.00  18:  0.00  19:  0.00  20:  0.00  21:  0.00  22:  0.00  23:  0.00  24:  0.00
  25:  0.00  26:  0.00  27:  0.00  28:  0.00  29:  0.00  30:  0.00  31:  0.00  32:  0.00
  33:  0.00  34:  0.00  35:  0.00  36:  0.00  37:  0.00  38:  0.00  39:  0.00  40:  0.00
  41:  0.00  42:  0.00  43:  0.00  44:  0.00  45:  0.00  46:  0.00  47:  0.00  48:  0.00
  49:  0.00  50:  0.00  51:  0.00  52:  0.00  53:  0.00  54:  0.00  55:  0.00  56:  0.00
  57:  0.00  58:  0.00  59:  0.00  60:  0.00  61:  0.00  62:  0.00  63:  0.00  64:  0.00
  65:  0.00  66:  0.00  67:  0.00  68:  0.00  69:  0.00  70:  0.00  71:  0.00  72:  0.00
  73:  0.00  74:  0.00  75:  0.00  76:  0.00  77:  0.00  78:  0.00  79:  0.00  80:  0.00
  81:  0.00  82:  0.00  83:  0.00  84:  0.00  85:  0.00  86:  0.00  87:  0.00  88:  0.00
  89:  0.00  90:  0.00  91:  0.00  92:  0.00  93:  0.00  94:  0.00  95:  0.00  96:  0.00
  97:  0.00  98:  0.00  99:  0.00 100:  0.00 101:  0.00 102:  0.00 103:  0.00 104:  0.00
 105:  0.00 106:  0.00 107:  0.00 108:  0.00 109:  0.00 110:  0.00 111:  0.00 112:  0.00
 113:  0.00 114:  0.00 115:  0.00 116:  0.00 117:  0.00 118:  0.00 119:  0.00 120:  0.00
 121:  0.00 122:  0.00 123:  0.00 124:  0.00 125:  0.00 126:  0.00 127:  0.00 128:  0.00
 129:  0.00 130:  0.00 131:  0.00 132:  0.00 133:  0.00 134:  0.00 135:  0.00 136:  0.00
 137:  0.00 138:  0.00 139:  0.00 140:  0.00 141:  0.00 142:  0.00 143:  0.00 144:  0.00
 145:  0.00 146:  0.00 147:  0.00 148:  0.00 149:  0.00 150:  0.00 151:  0.00 152:  0.00
 153:  0.00 154:  0.00 155:  0.00 156:  0.00 157:  0.00 158:  0.00 159:  0.00 160:  0.00
 161:  0.00 162:  0.00 163:  0.00 164:  0.00 165:  0.00 166:  0.00 167:  0.00 168:  0.00
 169:  0.00 170:  0.00 171:  0.00 172:  0.00 173:  0.00 174:  0.00 175:  0.00 176:  0.00
 177:  0.00 178:  0.00 179:  0.00 180:  0.00 181:  0.00 182:  0.00 183:  0.00 184:  0.00
 185:  0.00 186:  0.00 187:  0.00 188:  0.00 189:  0.00 190:  0.00 191:  0.00 192:  0.00
 193:  0.00 194:  0.00 195:  0.00 196:  0.00 197:  0.00 198:  0.00 199:  0.00 200:  0.00
 201:  0.00 202:  0.00 203:  0.00 204:  0.00 205:  0.00 206:  0.00 207:  0.00 208:  0.00
 209:  0.00 210:  0.00 211:  0.00 212:  0.00 213:  0.00 214:  0.00 215:  0.00 216:  0.00
 217:  0.00 218:  0.00 219:  0.00 220:  0.00 221:  0.00 222:  0.00 223:  0.00 224:  0.00
 225:  0.00 226:  0.00 227:  0.00 228:  0.00 229:  0.00 230:  0.00 231:  0.00 232:  0.00
 233:  0.00 234:  0.00
 output can be read by thermo (or use thermo option).
 writing <g98.out> molden fake output.
 recommended (thermochemical) frequency scaling factor: 1.0
           -------------------------------------------------
          |             Thermodynamic Functions             |
           -------------------------------------------------

Molecule has no symmetry elements
It seems to be the C1 point group
c1  symmetry found (for desy threshold:  0.10E+00) used in thermo

          ...................................................
          :                      SETUP                      :
          :.................................................:
          :  # frequencies                         228      :
          :  # imaginary freq.                       0      :
          :  linear?                             false      :
          :  only rotor calc.                    false      :
          :  symmetry                               c1      :
          :  rotational number                       1      :
          :  scaling factor                  1.0000000      :
          :  rotor cutoff                   50.0000000 cm⁻¹ :
          :  imag. cutoff                  -20.0000000 cm⁻¹ :
          :.................................................:

    mode    ω/cm⁻¹     T·S(HO)/kcal·mol⁻¹    T·S(FR)/kcal·mol⁻¹   T·S(vib)
   ------------------------------------------------------------------------
       1      7.62    -2.54941 (  0.05%)    -1.61377 ( 99.95%)    -1.61427
       2     11.33    -2.31436 (  0.26%)    -1.49624 ( 99.74%)    -1.49839
       3     14.32    -2.17590 (  0.67%)    -1.42699 ( 99.33%)    -1.43199
       4     20.50    -1.96331 (  2.75%)    -1.32064 ( 97.25%)    -1.33831
       5     23.72    -1.87708 (  4.82%)    -1.27749 ( 95.18%)    -1.30638
       6     30.06    -1.73689 ( 11.55%)    -1.20729 ( 88.45%)    -1.26847
       7     40.90    -1.55481 ( 30.93%)    -1.11604 ( 69.07%)    -1.25176
       8     52.57    -1.40681 ( 54.99%)    -1.04172 ( 45.01%)    -1.24247
       9     54.52    -1.38532 ( 58.57%)    -1.03092 ( 41.43%)    -1.23847
      10     55.75    -1.37211 ( 60.72%)    -1.02427 ( 39.28%)    -1.23549
      11     61.97    -1.30992 ( 70.23%)    -0.99297 ( 29.77%)    -1.21557
      12     66.16    -1.27143 ( 75.41%)    -0.97357 ( 24.59%)    -1.19817
      13     66.69    -1.26680 ( 75.99%)    -0.97124 ( 24.01%)    -1.19582
      14     75.01    -1.19775 ( 83.52%)    -0.93638 ( 16.48%)    -1.15466
      15     93.12    -1.07137 ( 92.33%)    -0.87232 (  7.67%)    -1.05609
      16    111.88    -0.96483 ( 96.16%)    -0.81796 (  3.84%)    -0.95919
      17    113.83    -0.95484 ( 96.41%)    -0.81284 (  3.59%)    -0.94974
      18    120.61    -0.92147 ( 97.13%)    -0.79570 (  2.87%)    -0.91786
      19    126.09    -0.89590 ( 97.59%)    -0.78254 (  2.41%)    -0.89316
      20    141.29    -0.83075 ( 98.46%)    -0.74882 (  1.54%)    -0.82948
      21    151.13    -0.79247 ( 98.82%)    -0.72887 (  1.18%)    -0.79171
      22    186.15    -0.67554 ( 99.48%)    -0.66712 (  0.52%)    -0.67550
      23    189.15    -0.66670 ( 99.51%)    -0.66239 (  0.49%)    -0.66668
      24    193.48    -0.65421 ( 99.56%)    -0.65569 (  0.44%)    -0.65421
      25    217.36    -0.59062 ( 99.72%)    -0.62121 (  0.28%)    -0.59071
      26    242.13    -0.53285 ( 99.82%)    -0.58924 (  0.18%)    -0.53295
      27    244.77    -0.52710 ( 99.83%)    -0.58602 (  0.17%)    -0.52720
      28    251.86    -0.51209 ( 99.84%)    -0.57758 (  0.16%)    -0.51219
      29    253.13    -0.50945 ( 99.85%)    -0.57608 (  0.15%)    -0.50955
      30    255.66    -0.50423 ( 99.85%)    -0.57313 (  0.15%)    -0.50433
      31    267.87    -0.48000 ( 99.88%)    -0.55931 (  0.12%)    -0.48009
      32    275.76    -0.46507 ( 99.89%)    -0.55072 (  0.11%)    -0.46516
      33    287.52    -0.44380 ( 99.91%)    -0.53834 (  0.09%)    -0.44388
   ------------------------------------------------------------------------

   temp. (K)  partition function   enthalpy   heat capacity  entropy
                                   cal/mol     cal/K/mol   cal/K/mol   J/K/mol
 298.15  VIB  0.393E+19            23212.971    145.793    145.421
         ROT  0.142E+09              888.752      2.981     40.284
         INT  0.558E+27            24101.723    148.774    185.705
         TR   0.160E+29             1481.254      4.968     45.271
         TOT                       25582.9770   153.7420   230.9756   966.4017

       T/K    H(0)-H(T)+PV         H(T)/Eh          T*S/Eh         G(T)/Eh
   ------------------------------------------------------------------------
    298.15    0.407691E-01    0.621888E+00    0.109744E+00    0.512145E+00
   ------------------------------------------------------------------------

         :::::::::::::::::::::::::::::::::::::::::::::::::::::
         ::                  THERMODYNAMIC                  ::
         :::::::::::::::::::::::::::::::::::::::::::::::::::::
         :: total free energy        -129.468819156511 Eh   ::
         ::.................................................::
         :: total energy             -129.980963678285 Eh   ::
         :: zero point energy           0.581119393187 Eh   ::
         :: G(RRHO) w/o ZPVE           -0.068974871413 Eh   ::
         :: G(RRHO) contrib.            0.512144521774 Eh   ::
         :::::::::::::::::::::::::::::::::::::::::::::::::::::

optimized geometry written to: xtbopt.xyz


           -------------------------------------------------
          | TOTAL ENERGY             -129.980963678285 Eh   |
          | TOTAL ENTHALPY           -129.359075216193 Eh   |
          | TOTAL FREE ENERGY        -129.468819156511 Eh   |
          | GRADIENT NORM               0.000068326846 Eh/α |
          | HOMO-LUMO GAP               0.489256977304 eV   |
           -------------------------------------------------

------------------------------------------------------------------------
 * finished run on 2025/08/25 at 03:11:54.052     
------------------------------------------------------------------------
 total:
 * wall-time:     0 d,  0 h,  0 min, 12.612 sec
 *  cpu-time:     0 d,  0 h,  8 min,  3.643 sec
 * ratio c/w:    38.347 speedup
 SCF:
 * wall-time:     0 d,  0 h,  0 min,  0.372 sec
 *  cpu-time:     0 d,  0 h,  0 min, 13.583 sec
 * ratio c/w:    36.559 speedup
 ANC optimizer:
 * wall-time:     0 d,  0 h,  0 min,  8.122 sec
 *  cpu-time:     0 d,  0 h,  5 min, 24.865 sec
 * ratio c/w:    39.997 speedup
 analytical hessian:
 * wall-time:     0 d,  0 h,  0 min,  3.916 sec
 *  cpu-time:     0 d,  0 h,  2 min, 18.126 sec
 * ratio c/w:    35.270 speedup

