101
 energy: -154.294202465997 gnorm: 0.000100770246 xtb: 6.7.1 (edcfbbe)
C            4.47432705040576        5.12408360077644        0.21720151973528
C            4.33756022890595        3.66165251094588        0.67852448553873
C            5.61888885203262        3.19911159983652        1.39585547510604
C            3.18296483450651        3.56108678118431        1.65500883745469
C            3.22193555366569        4.30355947294501        2.82834380951800
C            2.23467590786543        4.21180828699342        3.79037992280419
C            1.18906372957197        3.32795335876172        3.60080148957191
C            1.12679281880334        2.57968475940077        2.44432501823765
C            2.09372703390877        2.71210314845465        1.44584592774038
N            1.99589023083181        1.96152247727979        0.27215601243815
C            0.93464702653379        1.06225762793149        0.11516137028106
C           -0.38413595897431        1.50986965984632        0.00856448067002
F           -0.62615940183684        2.83158789147197        0.04922896086284
C           -1.45341938777493        0.63192413846432       -0.13303527847420
N           -2.77959763841190        1.08157832814934       -0.22381652523837
C           -3.65175368496222        0.68859621702518        0.79139911253559
C           -3.12398709543011        0.26132203281439        2.01201475402944
C           -3.94917215455017       -0.16250934007783        3.03173302450275
C           -5.32000053841152       -0.14772968475153        2.85158748895643
C           -5.84352101676530        0.32828406119577        1.66444002250828
C           -5.03386012959638        0.76570792920435        0.62446741331773
C           -5.65891680350648        1.30272965511190       -0.64622861924536
C           -6.60390880123093        2.46128377437092       -0.28041669260630
C           -6.43873970232685        0.15838931233564       -1.31907225727932
C           -4.61582893325370        1.80595737173564       -1.62584772294934
C           -5.02892862872381        2.38849788047053       -2.81716052359866
C           -4.13171865659203        2.81588042727600       -3.77726905161980
C           -2.77767570846250        2.63948163383127       -3.56337007844898
C           -2.34001997280551        2.05881303646404       -2.39141842886746
C           -3.24394429061461        1.65944943374428       -1.40642943184334
C           -1.18975659064240       -0.75093098756618       -0.19006613336372
C           -2.26792587563086       -1.63117431490373       -0.44041704347451
N           -3.14745363823172       -2.32335868075874       -0.68535986216287
C            0.11605112018867       -1.23866463476019       -0.07063973103116
N            0.40516276726542       -2.60881528293613       -0.12473406787854
C            0.08803171463558       -3.44533051258348        0.95032793476059
C           -0.82442818451666       -3.03099948831714        1.92090762192110
C           -1.14876149395156       -3.84413075280296        2.98657573362623
C           -0.54999531113160       -5.08333349626210        3.11117217145613
C            0.37728814039831       -5.48177121707943        2.16784444530802
C            0.71551869306973       -4.68735364108958        1.07937665414166
C            1.78442817973389       -5.17118127252767        0.11733173420029
C            1.39630321011400       -6.56709890998748       -0.40229965303752
C            3.12536900678590       -5.22720333949313        0.87151452993891
C            1.94546804221376       -4.24009122824940       -1.06563044234976
C            2.80742580091112       -4.57236958627889       -2.10273537330374
C            2.96204320875504       -3.76573940759688       -3.21395007093222
C            2.21284190902051       -2.60859680147318       -3.32356113210185
C            1.35850184540917       -2.25237028989301       -2.30254067949433
C            1.25208554865948       -3.03450108517490       -1.15060895593463
C            1.16887825865571       -0.32296556507150        0.08673216979139
C            2.48425646549203       -0.80840920671745        0.26916695576407
N            3.53978571741728       -1.20938094798170        0.46446641051778
C            2.98368772408291        2.00856193040520       -0.71415976923226
C            2.80016248600497        1.31495984417240       -1.91235653660389
C            3.76715422781630        1.32240937570276       -2.89455826583964
C            4.92981900673149        2.04602550723064       -2.70613556063535
C            5.08599784775676        2.78168113374905       -1.54742244335561
C            4.12683050519743        2.79050337623401       -0.54265460947879
H            4.65276430151927        5.78268025231772        1.06234746232226
H            3.55936489131924        5.44225229953065       -0.27903230070426
H            5.29968573710658        5.23670410119025       -0.47991013991890
H            5.51716450124882        2.15818052728515        1.69708813052577
H            5.80605261814892        3.79774984646825        2.28290829078556
H            6.48073174606295        3.28308654752130        0.73989664907414
H            4.05050517066763        4.97248225142473        3.00307918766260
H            2.29252900273987        4.80987081543712        4.68661373131062
H            0.42231460835239        3.21264415196444        4.35173479528092
H            0.31605749346295        1.87639271650184        2.33050656156407
H           -2.05466206538975        0.27378308946780        2.17120637396927
H           -3.51925929240485       -0.49799307297265        3.96349141856115
H           -5.97819724639667       -0.48999537611887        3.63509286998857
H           -6.91585737606394        0.35061706077226        1.54658922515713
H           -7.36680631502913        2.13571562889180        0.42056171715760
H           -7.10409722752622        2.85033376232590       -1.16229887931119
H           -6.03745101515708        3.26942525080512        0.17864450382072
H           -5.76545846486887       -0.66907513500580       -1.53540558780180
H           -7.22762948462136       -0.20424202777361       -0.66568713068068
H           -6.88851448306590        0.49115260081509       -2.25067324701676
H           -6.08398611209400        2.50524711997547       -3.01110884200113
H           -4.48858558425607        3.26831283460431       -4.68962502844982
H           -2.05825386988741        2.94633702768068       -4.30738650036608
H           -1.27990782396849        1.91289625688793       -2.25289769686988
H           -1.29406281545711       -2.06275977993027        1.85813547628711
H           -1.86611174752280       -3.50182439821864        3.71668958660976
H           -0.79202866696590       -5.72961794390149        3.94066601759457
H            0.85871042095885       -6.43915804142410        2.29331286853547
H            2.13207047723472       -6.93873412544618       -1.10908937710928
H            1.32597381381903       -7.28234996285129        0.41157809881191
H            0.43138907967733       -6.51897887861121       -0.90340492203375
H            3.04782753961072       -5.85893268504675        1.75247469497808
H            3.90825689637145       -5.62245905364078        0.22986667512595
H            3.41421349644814       -4.22607410515894        1.18638502574529
H            3.38445103490119       -5.48207672096111       -2.04199318398046
H            3.64958158076078       -4.04803950616043       -3.99616558213370
H            2.28737357324688       -1.98573556034931       -4.20194784159934
H            0.75156305630934       -1.36387225419232       -2.40466000388006
H            1.88714825147593        0.76822087538635       -2.09113568645632
H            3.60560389655572        0.76643654515273       -3.80525724103855
H            5.70026961673352        2.05305958283092       -3.46143366623017
H            5.98493140126976        3.36595518435494       -1.42503571656894
