      -----------------------------------------------------------      
     |                   =====================                   |     
     |                           x T B                           |     
     |                   =====================                   |     
     |                         S. Grimme                         |     
     |          Mulliken Center for Theoretical Chemistry        |     
     |                    University of Bonn                     |     
      -----------------------------------------------------------      

   * xtb version 6.7.1 (edcfbbe) compiled by 'albert@albert-system' on 2024-07-22

   xtb is free software: you can redistribute it and/or modify it under
   the terms of the GNU Lesser General Public License as published by
   the Free Software Foundation, either version 3 of the License, or
   (at your option) any later version.
   
   xtb is distributed in the hope that it will be useful,
   but WITHOUT ANY WARRANTY; without even the implied warranty of
   MERCHANTABILITY or FITNESS FOR A PARTICULAR PURPOSE.  See the
   GNU Lesser General Public License for more details.
   
   Cite this work as:
   * C. Bannwarth, E. Caldeweyher, S. Ehlert, A. Hansen, P. Pracht,
     J. Seibert, S. Spicher, S. Grimme, WIREs Comput. Mol. Sci., 2020, 11,
     e01493. DOI: 10.1002/wcms.1493
   
   for GFN2-xTB:
   * C. Bannwarth, S. Ehlert and S. Grimme., J. Chem. Theory Comput., 2019,
     15, 1652-1671. DOI: 10.1021/acs.jctc.8b01176
   for GFN1-xTB:
   * S. Grimme, C. Bannwarth, P. Shushkov, J. Chem. Theory Comput., 2017,
     13, 1989-2009. DOI: 10.1021/acs.jctc.7b00118
   for GFN0-xTB:
   * P. Pracht, E. Caldeweyher, S. Ehlert, S. Grimme, ChemRxiv, 2019, preprint.
     DOI: 10.26434/chemrxiv.8326202.v1
   for GFN-FF:
   * S. Spicher and S. Grimme, Angew. Chem. Int. Ed., 2020, 59, 15665-15673.
     DOI: 10.1002/anie.202004239
   
   for ALPB and GBSA implicit solvation:
   * S. Ehlert, M. Stahn, S. Spicher, S. Grimme, J. Chem. Theory Comput.,
     2021, 17, 4250-4261. DOI: 10.1021/acs.jctc.1c00471
   
   for ddCOSMO and CPCM-X implicit solvation:
   * M. Stahn, S. Ehlert, S. Grimme, J. Phys. Chem. A,
     2023, XX, XXXX-XXXX. DOI: 10.1021/acs.jpca.3c04382
   
   for DFT-D4:
   * E. Caldeweyher, C. Bannwarth and S. Grimme, J. Chem. Phys., 2017,
     147, 034112. DOI: 10.1063/1.4993215
   * E. Caldeweyher, S. Ehlert, A. Hansen, H. Neugebauer, S. Spicher,
     C. Bannwarth and S. Grimme, J. Chem. Phys., 2019, 150, 154122.
     DOI: 10.1063/1.5090222
   * E. Caldeweyher, J.-M. Mewes, S. Ehlert and S. Grimme, Phys. Chem. Chem. Phys.
     2020, 22, 8499-8512. DOI: 10.1039/D0CP00502A
   
   for sTDA-xTB:
   * S. Grimme and C. Bannwarth, J. Chem. Phys., 2016, 145, 054103.
     DOI: 10.1063/1.4959605
   
   in the mass-spec context:
   * V. Asgeirsson, C. Bauer and S. Grimme, Chem. Sci., 2017, 8, 4879.
     DOI: 10.1039/c7sc00601b
   * J. Koopman and S. Grimme, ACS Omega 2019, 4, 12, 15120-15133.
     DOI: 10.1021/acsomega.9b02011
   
   for metadynamics refer to:
   * S. Grimme, J. Chem. Theory Comput., 2019, 155, 2847-2862
     DOI: 10.1021/acs.jctc.9b00143
   
   for SPH calculations refer to:
   * S. Spicher and S. Grimme, J. Chem. Theory Comput., 2021, 17, 1701-1714
     DOI: 10.1021/acs.jctc.0c01306
   
   for ONIOM refer to:
   * C. Plett, A. Katbashev, S. Ehlert, S. Grimme, M. Bursch,
     Phys. Chem. Chem. Phys., 2023, 25, 17860-17868. DOI: 10.1039/D3CP02178E
   
   for DIPRO refer to:
   * J. Kohn, N. Gildemeister, S. Grimme, D. Fazzi, A. Hansen,
     J. Chem. Phys., 2023, just accepted.
   
   for PTB refer to:
   * S. Grimme, M. Mueller, A. Hansen, J. Chem. Phys., 2023, 158, 124111.
     DOI: 10.1063/5.0137838
   
   with help from (in alphabetical order)
   P. Atkinson, C. Bannwarth, F. Bohle, G. Brandenburg, E. Caldeweyher
   M. Checinski, S. Dohm, S. Ehlert, S. Ehrlich, I. Gerasimov, C. Hölzer
   A. Katbashev, J. Kohn, J. Koopman, C. Lavigne, S. Lehtola, F. März, M. Müller,
   F. Musil, H. Neugebauer, J. Pisarek, C. Plett, P. Pracht, F. Pultar,
   J. Seibert, P. Shushkov, S. Spicher, M. Stahn, M. Steiner, T. Strunk,
   J. Stückrath, T. Rose, and J. Unsleber
   
 * started run on 2025/07/17 at 21:35:23.175     
   ID    Z sym.   atoms
    1    6 C      1-6, 8-13, 15-27, 29-34, 36
    2    8 O      7
    3    7 N      14, 28, 35
    4    1 H      37-55

           -------------------------------------------------
          |                Calculation Setup                |
           -------------------------------------------------

          program call               : xtb data2507/toluene/1PXZ-BP/1PXZ-BP_toluene_S0_crest.xyz --gfn 2 --gbsa toluene --ohess vtight --parallel 40 --molden --ceasefiles --namespace data2507/toluene/1PXZ-BP/1PXZ-BP_toluene_S0_finalOpt
          calculation namespace      : data2507/toluene/1PXZ-BP/1PXZ-BP_toluene_S0_finalOpt
          coordinate file            : data2507/toluene/1PXZ-BP/1PXZ-BP_toluene_S0_crest.xyz
          omp threads                :                    40


           -------------------------------------------------
          |                 G F N 2 - x T B                 |
           -------------------------------------------------

        Reference                      10.1021/acs.jctc.8b01176
      * Hamiltonian:
        H0-scaling (s, p, d)           1.850000    2.230000    2.230000
        zeta-weighting                 0.500000
      * Dispersion:
        s8                             2.700000
        a1                             0.520000
        a2                             5.000000
        s9                             5.000000
      * Repulsion:
        kExp                           1.500000    1.000000
        rExp                           1.000000
      * Coulomb:
        alpha                          2.000000
        third order                    shell-resolved
        anisotropic                    true
        a3                             3.000000
        a5                             4.000000
        cn-shift                       1.200000
        cn-exp                         4.000000
        max-rad                        5.000000

      * Solvation model:               GBSA
        Solvent                        toluene
        Parameter file                 internal GFN2-xTB/GBSA
        Dielectric constant                7.0000E+00
        Reference state                gsolv [1 M gas/solution]
        Free energy shift                  4.5239E-03 Eh       2.8388E+00 kcal/mol
        Temperature                        2.9815E+02 K
        Density                            8.6700E-01 kg/L
        Solvent mass                       9.2140E+01 g/mol
        Interaction kernel             Still
        Born radius scaling (c1)           1.5686E+00
        Born radii integrator          GBOBC
        Born offset                        0.0000E+00 a0       0.0000E+00 AA
        H-bond correction              false
        Ion screening                  false
        Surface tension                    1.0000E-05 Eh       1.5569E+01 dyn/cm
        Grid points                               230 per atom

          ...................................................
          :                      SETUP                      :
          :.................................................:
          :  # basis functions                 163          :
          :  # atomic orbitals                 163          :
          :  # shells                           91          :
          :  # electrons                       168          :
          :  max. iterations                   250          :
          :  Hamiltonian                  GFN2-xTB          :
          :  restarted?                      false          :
          :  GBSA solvation                   true          :
          :  PC potential                    false          :
          :  electronic temp.          300.0000000     K    :
          :  accuracy                    1.0000000          :
          :  -> integral cutoff          0.2500000E+02      :
          :  -> integral neglect         0.1000000E-07      :
          :  -> SCF convergence          0.1000000E-05 Eh   :
          :  -> wf. convergence          0.1000000E-03 e    :
          :  Broyden damping             0.4000000          :
          :  net charge                          0          :
          :  unpaired electrons                  0          :
          ...................................................

 iter      E             dE          RMSdq      gap      omega  full diag
   1    -92.6848961 -0.926849E+02  0.437E+00    0.94       0.0  T
   2    -92.7342716 -0.493755E-01  0.265E+00    1.34       1.0  T
   3    -92.6710106  0.632610E-01  0.133E+00    0.75       1.0  T
   4    -92.7578127 -0.868021E-01  0.256E-01    1.07       1.0  T
   5    -92.7603167 -0.250405E-02  0.107E-01    1.02       1.0  T
   6    -92.7608557 -0.539013E-03  0.359E-02    1.04       1.0  T
   7    -92.7608802 -0.244760E-04  0.170E-02    1.04       1.0  T
   8    -92.7608845 -0.426090E-05  0.751E-03    1.04       1.8  T
   9    -92.7608851 -0.672891E-06  0.220E-03    1.04       6.1  T
  10    -92.7608852 -0.680753E-07  0.750E-04    1.04      18.0  T
  11    -92.7608852 -0.128546E-07  0.450E-04    1.04      30.0  T

   *** convergence criteria satisfied after 11 iterations ***

         #    Occupation            Energy/Eh            Energy/eV
      -------------------------------------------------------------
         1        2.0000           -0.7316021             -19.9079
       ...           ...                  ...                  ...
        78        2.0000           -0.4141527             -11.2697
        79        2.0000           -0.4060764             -11.0499
        80        2.0000           -0.3986000             -10.8465
        81        2.0000           -0.3955548             -10.7636
        82        2.0000           -0.3911341             -10.6433
        83        2.0000           -0.3560559              -9.6888
        84        2.0000           -0.3447484              -9.3811 (HOMO)
        85                         -0.3064275              -8.3383 (LUMO)
        86                         -0.2717201              -7.3939
        87                         -0.2604516              -7.0872
        88                         -0.2396672              -6.5217
        89                         -0.2312617              -6.2930
       ...                                ...                  ...
       163                          0.7108113              19.3422
      -------------------------------------------------------------
                  HL-Gap            0.0383209 Eh            1.0428 eV
             Fermi-level           -0.3255880 Eh           -8.8597 eV

 SCC (total)                   0 d,  0 h,  0 min,  0.108 sec
 SCC setup                      ...        0 min,  0.001 sec (  1.370%)
 Dispersion                     ...        0 min,  0.002 sec (  2.057%)
 classical contributions        ...        0 min,  0.001 sec (  0.611%)
 integral evaluation            ...        0 min,  0.006 sec (  5.462%)
 iterations                     ...        0 min,  0.089 sec ( 82.753%)
 molecular gradient             ...        0 min,  0.008 sec (  7.036%)
 printout                       ...        0 min,  0.001 sec (  0.619%)

         :::::::::::::::::::::::::::::::::::::::::::::::::::::
         ::                     SUMMARY                     ::
         :::::::::::::::::::::::::::::::::::::::::::::::::::::
         :: total energy             -91.139568136899 Eh    ::
         :: total w/o Gsasa/hb       -91.105278141570 Eh    ::
         :: gradient norm              0.004546439459 Eh/a0 ::
         :: HOMO-LUMO gap              1.042763939858 eV    ::
         ::.................................................::
         :: SCC energy               -92.761300467679 Eh    ::
         :: -> isotropic ES            0.038166423311 Eh    ::
         :: -> anisotropic ES          0.005934400401 Eh    ::
         :: -> anisotropic XC          0.053430054343 Eh    ::
         :: -> dispersion             -0.076784655669 Eh    ::
         :: -> Gsolv                  -0.038182848242 Eh    ::
         ::    -> Gelec               -0.003892852913 Eh    ::
         ::    -> Gsasa               -0.038813875200 Eh    ::
         ::    -> Ghb                  0.000000000000 Eh    ::
         ::    -> Gshift               0.004523879872 Eh    ::
         :: repulsion energy           1.621732330780 Eh    ::
         :: add. restraining           0.000000000000 Eh    ::
         :: total charge               0.000000000000 e     ::
         :::::::::::::::::::::::::::::::::::::::::::::::::::::

      ----------------------------------------------------------- 
     |                   =====================                   |
     |                        A N C O P T                        |
     |                   =====================                   |
     |               Approximate Normal Coordinate               |
     |                Rational Function Optimizer                |
      ----------------------------------------------------------- 

Optimization log is written to '/dev/null'
      ----------------------------------------------------------- 
     |                   =====================                   |
     |                        A N C O P T                        |
     |                   =====================                   |
     |               Approximate Normal Coordinate               |
     |                Rational Function Optimizer                |
      ----------------------------------------------------------- 

          ...................................................
          :                      SETUP                      :
          :.................................................:
          :   optimization level         verytight          :
          :   max. optcycles                  1100          :
          :   ANC micro-cycles                  20          :
          :   degrees of freedom               159          :
          :.................................................:
          :   RF solver                   davidson          :
          :   write xtbopt.log                true          :
          :   linear?                        false          :
          :   energy convergence         0.1000000E-06 Eh   :
          :   grad. convergence          0.2000000E-03 Eh/α :
          :   maxmium RF displ.          1.0000000          :
          :   Hlow (freq-cutoff)         0.1000000E-01      :
          :   Hmax (freq-cutoff)         5.0000000          :
          :   S6 in model hess.         20.0000000          :
          ...................................................

generating ANC from exact Hessian ...
Using Lindh-Hessian (1995)
 Shifting diagonal of input Hessian by   9.812155962082488E-003
 Lowest  eigenvalues of input Hessian
    0.000000    0.000000    0.000000    0.000000    0.000000    0.000000
    0.010000    0.010131    0.010566    0.011379    0.011548    0.011811
    0.012765    0.013281    0.013652    0.014033    0.015260    0.017256
 Highest eigenvalues
    2.077885    2.090485    2.141477    2.200963    2.220592    2.245324
 

........................................................................
.............................. CYCLE    1 ..............................
........................................................................

 iter      E             dE          RMSdq      gap      omega  full diag
   1    -92.7608852 -0.927609E+02  0.148E-04    1.04       0.0  T
   2    -92.7608852 -0.369425E-09  0.102E-04    1.04     132.6  T
   3    -92.7608852 -0.326821E-09  0.560E-05    1.04     241.0  T
     SCC iter.                  ...        0 min,  0.018 sec
     gradient                   ...        0 min,  0.006 sec
 * total energy  :   -91.1395681 Eh     change       -0.2429204E-08 Eh
   gradient norm :     0.0045425 Eh/α   predicted     0.0000000E+00 (-100.00%)
   displ. norm   :     0.0250101 α      lambda       -0.3585604E-04
   maximum displ.:     0.0126674 α      in ANC's #13, #32, #22, ...

........................................................................
.............................. CYCLE    2 ..............................
........................................................................

 iter      E             dE          RMSdq      gap      omega  full diag
   1    -92.7576706 -0.927577E+02  0.934E-03    1.04       0.0  T
   2    -92.7576717 -0.110851E-05  0.645E-03    1.04       2.1  T
   3    -92.7576722 -0.476762E-06  0.356E-03    1.04       3.8  T
   4    -92.7576723 -0.149457E-06  0.928E-04    1.04      14.5  T
   5    -92.7576723 -0.212111E-07  0.295E-04    1.04      45.8  T
     SCC iter.                  ...        0 min,  0.028 sec
     gradient                   ...        0 min,  0.006 sec
 * total energy  :   -91.1395961 Eh     change       -0.2797575E-04 Eh
   gradient norm :     0.0020355 Eh/α   predicted    -0.2051864E-04 ( -26.66%)
   displ. norm   :     0.0219457 α      lambda       -0.1175874E-04
   maximum displ.:     0.0124189 α      in ANC's #13, #10, #9, ...

........................................................................
.............................. CYCLE    3 ..............................
........................................................................

 iter      E             dE          RMSdq      gap      omega  full diag
   1    -92.7560978 -0.927561E+02  0.663E-03    1.05       0.0  T
   2    -92.7560985 -0.628310E-06  0.464E-03    1.04       2.9  T
   3    -92.7560988 -0.297945E-06  0.250E-03    1.04       5.4  T
   4    -92.7560988 -0.533136E-07  0.705E-04    1.04      19.1  T
   5    -92.7560988 -0.118731E-07  0.218E-04    1.04      61.7  T
     SCC iter.                  ...        0 min,  0.028 sec
     gradient                   ...        0 min,  0.006 sec
 * total energy  :   -91.1396028 Eh     change       -0.6720228E-05 Eh
   gradient norm :     0.0006241 Eh/α   predicted    -0.5882493E-05 ( -12.47%)
   displ. norm   :     0.0155320 α      lambda       -0.1354272E-05
   maximum displ.:     0.0076904 α      in ANC's #10, #9, #13, ...

........................................................................
.............................. CYCLE    4 ..............................
........................................................................

 iter      E             dE          RMSdq      gap      omega  full diag
   1    -92.7560759 -0.927561E+02  0.416E-03    1.04       0.0  T
   2    -92.7560759 -0.615980E-07  0.256E-03    1.04       5.3  T
   3    -92.7560759  0.358083E-07  0.140E-03    1.04       9.7  T
   4    -92.7560760 -0.710575E-07  0.181E-04    1.04      74.5  T
   5    -92.7560760 -0.115804E-08  0.824E-05    1.04     163.7  T
     SCC iter.                  ...        0 min,  0.028 sec
     gradient                   ...        0 min,  0.006 sec
 * total energy  :   -91.1396042 Eh     change       -0.1359011E-05 Eh
   gradient norm :     0.0003756 Eh/α   predicted    -0.7009063E-06 ( -48.43%)
   displ. norm   :     0.0150904 α      lambda       -0.7987319E-06
   maximum displ.:     0.0074202 α      in ANC's #2, #4, #10, ...

........................................................................
.............................. CYCLE    5 ..............................
........................................................................

 iter      E             dE          RMSdq      gap      omega  full diag
   1    -92.7563839 -0.927564E+02  0.401E-03    1.04       0.0  T
   2    -92.7563839 -0.866993E-08  0.237E-03    1.04       5.7  T
   3    -92.7563839  0.213798E-07  0.577E-04    1.04      23.4  T
   4    -92.7563839 -0.247409E-07  0.880E-05    1.04     153.2  T
     SCC iter.                  ...        0 min,  0.022 sec
     gradient                   ...        0 min,  0.006 sec
 * total energy  :   -91.1396050 Eh     change       -0.8076377E-06 Eh
   gradient norm :     0.0002853 Eh/α   predicted    -0.3997657E-06 ( -50.50%)
   displ. norm   :     0.0150904 α      lambda        0.0000000E+00
   maximum displ.:     0.0074202 α      in ANC's #2, #4, #10, ...

........................................................................
.............................. CYCLE    6 ..............................
........................................................................

 iter      E             dE          RMSdq      gap      omega  full diag
   1    -92.7566891 -0.927567E+02  0.401E-03    1.04       0.0  T
   2    -92.7566892 -0.846244E-08  0.237E-03    1.04       5.7  T
   3    -92.7566891  0.230761E-07  0.591E-04    1.04      22.8  T
   4    -92.7566892 -0.265939E-07  0.860E-05    1.04     156.8  T
     SCC iter.                  ...        0 min,  0.022 sec
     gradient                   ...        0 min,  0.006 sec
 * total energy  :   -91.1396050 Eh     change       -0.2457588E-07 Eh
   gradient norm :     0.0005892 Eh/α   predicted     0.1107225E-08 (-104.51%)
   displ. norm   :     0.0051513 α      lambda       -0.4783562E-06
   maximum displ.:     0.0029350 α      in ANC's #4, #2, #13, ...

........................................................................
.............................. CYCLE    7 ..............................
........................................................................

 iter      E             dE          RMSdq      gap      omega  full diag
   1    -92.7564040 -0.927564E+02  0.162E-03    1.04       0.0  T
   2    -92.7564040 -0.327350E-08  0.962E-04    1.04      14.0  T
   3    -92.7564040  0.596309E-08  0.369E-04    1.04      36.6  T
     SCC iter.                  ...        0 min,  0.017 sec
     gradient                   ...        0 min,  0.006 sec
 * total energy  :   -91.1396056 Eh     change       -0.5678260E-06 Eh
   gradient norm :     0.0004005 Eh/α   predicted    -0.2419031E-06 ( -57.40%)
   displ. norm   :     0.1198084 α      lambda       -0.9309965E-05
   maximum displ.:     0.0643741 α      in ANC's #2, #4, #6, ...

........................................................................
.............................. CYCLE    8 ..............................
........................................................................

 iter      E             dE          RMSdq      gap      omega  full diag
   1    -92.7511637 -0.927512E+02  0.348E-02    1.04       0.0  T
   2    -92.7511650 -0.126768E-05  0.206E-02    1.04       1.0  T
   3    -92.7511624  0.258664E-05  0.766E-03    1.04       1.8  T
   4    -92.7511655 -0.314494E-05  0.962E-04    1.04      14.0  T
   5    -92.7511656 -0.224214E-07  0.457E-04    1.04      29.5  T
   6    -92.7511656 -0.327599E-08  0.230E-04    1.04      58.6  T
     SCC iter.                  ...        0 min,  0.033 sec
     gradient                   ...        0 min,  0.006 sec
 * total energy  :   -91.1395606 Eh     change        0.4499614E-04 Eh
   gradient norm :     0.0054855 Eh/α   predicted    -0.4687898E-05 (-110.42%)
   displ. norm   :     0.0586100 α      lambda       -0.5802030E-04
   maximum displ.:     0.0294940 α      in ANC's #2, #4, #3, ...

........................................................................
.............................. CYCLE    9 ..............................
........................................................................

 iter      E             dE          RMSdq      gap      omega  full diag
   1    -92.7542783 -0.927543E+02  0.180E-02    1.04       0.0  T
   2    -92.7542788 -0.415841E-06  0.107E-02    1.04       1.3  T
   3    -92.7542780  0.788330E-06  0.432E-03    1.04       3.1  T
   4    -92.7542789 -0.976259E-06  0.542E-04    1.04      24.9  T
   5    -92.7542790 -0.724985E-08  0.255E-04    1.04      52.9  T
     SCC iter.                  ...        0 min,  0.028 sec
     gradient                   ...        0 min,  0.006 sec
 * total energy  :   -91.1396003 Eh     change       -0.3972154E-04 Eh
   gradient norm :     0.0021726 Eh/α   predicted    -0.2911151E-04 ( -26.71%)
   displ. norm   :     0.0294407 α      lambda       -0.1279348E-04
   maximum displ.:     0.0134825 α      in ANC's #2, #4, #3, ...

........................................................................
.............................. CYCLE   10 ..............................
........................................................................

 iter      E             dE          RMSdq      gap      omega  full diag
   1    -92.7561106 -0.927561E+02  0.958E-03    1.04       0.0  T
   2    -92.7561107 -0.149803E-06  0.573E-03    1.04       2.4  T
   3    -92.7561105  0.236696E-06  0.247E-03    1.04       5.4  T
   4    -92.7561108 -0.302744E-06  0.322E-04    1.04      41.8  T
   5    -92.7561108 -0.260067E-08  0.149E-04    1.04      90.4  T
     SCC iter.                  ...        0 min,  0.028 sec
     gradient                   ...        0 min,  0.006 sec
 * total energy  :   -91.1396069 Eh     change       -0.6531531E-05 Eh
   gradient norm :     0.0002517 Eh/α   predicted    -0.6406704E-05 (  -1.91%)
   displ. norm   :     0.0082792 α      lambda       -0.1944096E-06
   maximum displ.:     0.0056082 α      in ANC's #4, #2, #10, ...

........................................................................
.............................. CYCLE   11 ..............................
........................................................................

 iter      E             dE          RMSdq      gap      omega  full diag
   1    -92.7561825 -0.927562E+02  0.219E-03    1.04       0.0  T
   2    -92.7561825 -0.128850E-08  0.128E-03    1.04      10.5  T
   3    -92.7561825  0.228688E-08  0.245E-04    1.04      55.0  T
   4    -92.7561825 -0.285837E-08  0.358E-05    1.04     376.5  T
     SCC iter.                  ...        0 min,  0.022 sec
     gradient                   ...        0 min,  0.006 sec
 * total energy  :   -91.1396071 Eh     change       -0.2740086E-06 Eh
   gradient norm :     0.0001861 Eh/α   predicted    -0.9809382E-07 ( -64.20%)
   displ. norm   :     0.0173175 α      lambda       -0.3925953E-06
   maximum displ.:     0.0114518 α      in ANC's #4, #2, #9, ...

........................................................................
.............................. CYCLE   12 ..............................
........................................................................

 iter      E             dE          RMSdq      gap      omega  full diag
   1    -92.7563400 -0.927563E+02  0.444E-03    1.04       0.0  T
   2    -92.7563400 -0.533863E-08  0.260E-03    1.04       5.2  T
   3    -92.7563400  0.116521E-07  0.517E-04    1.04      26.1  T
   4    -92.7563400 -0.141709E-07  0.771E-05    1.04     174.9  T
     SCC iter.                  ...        0 min,  0.022 sec
     gradient                   ...        0 min,  0.006 sec
 * total energy  :   -91.1396076 Eh     change       -0.5060702E-06 Eh
   gradient norm :     0.0000811 Eh/α   predicted    -0.2005288E-06 ( -60.38%)
   displ. norm   :     0.0263489 α      lambda       -0.4411312E-06
   maximum displ.:     0.0175311 α      in ANC's #4, #2, #9, ...

........................................................................
.............................. CYCLE   13 ..............................
........................................................................

 iter      E             dE          RMSdq      gap      omega  full diag
   1    -92.7563481 -0.927563E+02  0.673E-03    1.04       0.0  T
   2    -92.7563481 -0.727873E-08  0.394E-03    1.04       3.4  T
   3    -92.7563481  0.789395E-08  0.465E-04    1.04      29.0  T
   4    -92.7563481 -0.111132E-07  0.110E-04    1.04     122.2  T
     SCC iter.                  ...        0 min,  0.022 sec
     gradient                   ...        0 min,  0.006 sec
 * total energy  :   -91.1396082 Eh     change       -0.5503597E-06 Eh
   gradient norm :     0.0001121 Eh/α   predicted    -0.2219424E-06 ( -59.67%)
   displ. norm   :     0.0287773 α      lambda       -0.3793868E-06
   maximum displ.:     0.0194375 α      in ANC's #4, #2, #6, ...

........................................................................
.............................. CYCLE   14 ..............................
........................................................................

 iter      E             dE          RMSdq      gap      omega  full diag
   1    -92.7563723 -0.927564E+02  0.734E-03    1.04       0.0  T
   2    -92.7563723 -0.655136E-08  0.430E-03    1.04       3.1  T
   3    -92.7563723  0.226856E-08  0.332E-04    1.04      40.6  T
   4    -92.7563723 -0.508062E-08  0.115E-04    1.04     117.7  T
     SCC iter.                  ...        0 min,  0.022 sec
     gradient                   ...        0 min,  0.006 sec
 * total energy  :   -91.1396086 Eh     change       -0.4493617E-06 Eh
   gradient norm :     0.0001112 Eh/α   predicted    -0.1947029E-06 ( -56.67%)
   displ. norm   :     0.0245065 α      lambda       -0.2552011E-06
   maximum displ.:     0.0168355 α      in ANC's #4, #2, #6, ...

........................................................................
.............................. CYCLE   15 ..............................
........................................................................

 iter      E             dE          RMSdq      gap      omega  full diag
   1    -92.7563008 -0.927563E+02  0.627E-03    1.04       0.0  T
   2    -92.7563008 -0.489896E-08  0.367E-03    1.04       3.7  T
   3    -92.7563008  0.947864E-09  0.255E-04    1.04      52.8  T
   4    -92.7563008 -0.293731E-08  0.981E-05    1.04     137.4  T
     SCC iter.                  ...        0 min,  0.022 sec
     gradient                   ...        0 min,  0.006 sec
 * total energy  :   -91.1396089 Eh     change       -0.3081673E-06 Eh
   gradient norm :     0.0000981 Eh/α   predicted    -0.1282114E-06 ( -58.40%)
   displ. norm   :     0.0239243 α      lambda       -0.1949947E-06
   maximum displ.:     0.0165953 α      in ANC's #4, #2, #6, ...

........................................................................
.............................. CYCLE   16 ..............................
........................................................................

 iter      E             dE          RMSdq      gap      omega  full diag
   1    -92.7562748 -0.927563E+02  0.612E-03    1.04       0.0  T
   2    -92.7562748 -0.454142E-08  0.359E-03    1.04       3.8  T
   3    -92.7562748  0.802032E-09  0.241E-04    1.04      55.9  T
   4    -92.7562748 -0.261053E-08  0.908E-05    1.04     148.6  T
     SCC iter.                  ...        0 min,  0.022 sec
     gradient                   ...        0 min,  0.006 sec
 * total energy  :   -91.1396092 Eh     change       -0.2268615E-06 Eh
   gradient norm :     0.0001102 Eh/α   predicted    -0.9928839E-07 ( -56.23%)
   displ. norm   :     0.0210235 α      lambda       -0.1242267E-06
   maximum displ.:     0.0146567 α      in ANC's #4, #2, #6, ...

........................................................................
.............................. CYCLE   17 ..............................
........................................................................

 iter      E             dE          RMSdq      gap      omega  full diag
   1    -92.7562562 -0.927563E+02  0.537E-03    1.04       0.0  T
   2    -92.7562562 -0.335167E-08  0.314E-03    1.04       4.3  T
   3    -92.7562562  0.828933E-09  0.208E-04    1.04      64.8  T
   4    -92.7562562 -0.219704E-08  0.789E-05    1.04     170.8  T
     SCC iter.                  ...        0 min,  0.022 sec
     gradient                   ...        0 min,  0.006 sec
 * total energy  :   -91.1396093 Eh     change       -0.1345202E-06 Eh
   gradient norm :     0.0001203 Eh/α   predicted    -0.6366122E-07 ( -52.68%)
   displ. norm   :     0.0134585 α      lambda       -0.5911316E-07
   maximum displ.:     0.0091907 α      in ANC's #4, #2, #1, ...

........................................................................
.............................. CYCLE   18 ..............................
........................................................................

 iter      E             dE          RMSdq      gap      omega  full diag
   1    -92.7562750 -0.927563E+02  0.344E-03    1.04       0.0  T
   2    -92.7562750 -0.123535E-08  0.201E-03    1.04       6.7  T
   3    -92.7562750  0.258694E-09  0.122E-04    1.04     110.7  T
   4    -92.7562750 -0.775231E-09  0.485E-05    1.04     277.9  T
     SCC iter.                  ...        0 min,  0.022 sec
     gradient                   ...        0 min,  0.006 sec
 * total energy  :   -91.1396094 Eh     change       -0.6658924E-07 Eh
   gradient norm :     0.0000931 Eh/α   predicted    -0.3186890E-07 ( -52.14%)
   displ. norm   :     0.0134585 α      lambda        0.0000000E+00
   maximum displ.:     0.0091907 α      in ANC's #4, #2, #1, ...

   *** GEOMETRY OPTIMIZATION CONVERGED AFTER 18 ITERATIONS ***

------------------------------------------------------------------------
 total energy gain   :        -0.0000412 Eh       -0.0259 kcal/mol
 total RMSD          :         0.0334983 a0        0.0177 Å
 total power (kW/mol):        -0.0060139 (step)   -0.1694 (real)
------------------------------------------------------------------------

 ANCopt (total)                0 d,  0 h,  0 min,  0.639 sec
 optimizer setup                ...        0 min,  0.000 sec (  0.032%)
 model hessian                  ...        0 min,  0.018 sec (  2.741%)
 ANC generation                 ...        0 min,  0.003 sec (  0.462%)
 coordinate transformation      ...        0 min,  0.002 sec (  0.308%)
 single point calculation       ...        0 min,  0.608 sec ( 95.110%)
 optimization log               ...        0 min,  0.003 sec (  0.517%)
 hessian update                 ...        0 min,  0.002 sec (  0.308%)
 rational function              ...        0 min,  0.002 sec (  0.268%)

================
 final structure:
================
55
 xtb: 6.7.1 (edcfbbe)
C           -5.14352912491468        3.15909296875606       -2.03829059339256
C           -3.76446550364173        3.17144604469304       -2.09679430948357
C           -3.02304662109706        2.24682850068444       -1.37657988420706
C           -3.64927464908872        1.30020091760924       -0.57453724003746
C           -5.05022930636976        1.27408867935481       -0.55133565400086
C           -5.78551537377778        2.19920193801547       -1.26899975715578
O           -5.75898083217616        0.33313634918772        0.15929229414214
C           -5.03746268140470       -0.60144491234948        0.86543156987543
C           -5.76154074820083       -1.54268389465548        1.57363038608613
C           -5.10871190972270       -2.49828099526832        2.33902216717710
C           -3.72988274291965       -2.49063982473717        2.40231901493032
C           -2.99954388285649       -1.55058286949197        1.69076317187268
C           -3.63605644175916       -0.60652828564629        0.89357801509956
N           -2.93193166939465        0.35419266940386        0.16246909266814
C           -1.52014108970176        0.37949133511490        0.17740179017991
C           -0.84450017334747        1.48559103867915        0.70043345381509
C            0.52859432158393        1.49484359822360        0.70256982771832
C            1.25905547273538        0.41198620542656        0.20102884437900
C            0.59039502487378       -0.71611602733792       -0.31655509652272
C           -0.80689147337185       -0.69618587486133       -0.32447053582361
C            1.35502287304875       -1.84777470796966       -0.82469310765216
C            0.74543641092678       -3.00500971912370       -1.32411422969765
C            1.49105112219315       -4.06244722339672       -1.79937419151732
C            2.88023988608599       -4.00424082825350       -1.79344302354993
C            3.50712839556116       -2.88194345187499       -1.30305866855059
C            2.76362037115508       -1.80271785067248       -0.81591391951044
C            3.45418150503824       -0.64136009674453       -0.29717115863718
N            4.77407477885993       -0.62440203888959       -0.30428232057887
C            5.39554379208117        0.45979344561006        0.18518323048736
C            6.80577882959342        0.51926276950212        0.19560742360062
C            7.43488771587881        1.62428038589408        0.69437160790739
C            6.69458113868689        2.71032372025760        1.20090857131686
C            5.32906882725377        2.68612770082077        1.20602255488670
C            4.64535957253145        1.56018549589849        0.69798562648383
N            3.30388318692219        1.53344935013538        0.69919476277262
C            2.70320623078401        0.46094198191094        0.21529502045550
H           -5.72555511652511        3.87888543897656       -2.59198548003486
H           -3.25003521619816        3.89854451063699       -2.70630637725678
H           -1.94662049871819        2.25852760133049       -1.44326277773724
H           -6.86179603170377        2.14739416289015       -1.21647511766564
H           -6.83826032574923       -1.50563279807460        1.51765840887532
H           -5.68216371636958       -3.23005506932570        2.88588711930754
H           -3.20669963465117       -3.21399800333041        3.00884632261233
H           -1.92341012881771       -1.54724555673517        1.76320500657729
H           -1.40596681532255        2.31688597131335        1.09922025952226
H            1.07909147047575        2.33332403198886        1.09912098292798
H           -1.36612984848400       -1.52393527316612       -0.72951993031229
H           -0.32909154282766       -3.08832071636134       -1.34157225072714
H            0.99015681753121       -4.94121342056322       -2.17808326982060
H            3.46112738906832       -4.83330007404048       -2.16844532911579
H            4.58288173814121       -2.80392906336980       -1.27916917081162
H            7.35430297466138       -0.32321871735157       -0.19708535307718
H            8.51360746908130        1.67439637798252        0.70436188554551
H            7.22205764651198        3.56918314076843        1.58885623545625
H            4.74343658184744        3.50732705922581        1.59013001919775
 
 Bond Distances (Angstroems)
 ---------------------------
C1-C2=1.3804         C1-C6=1.3876         C1-H37=1.0786        C2-C1=1.3804         C2-C3=1.3868         C2-H38=1.0793        
C3-C2=1.3868         C3-C4=1.3898         C3-H39=1.0786        C4-C3=1.3898         C4-C5=1.4014         C4-N14=1.3974        
C5-C4=1.4014         C5-C6=1.3826         C5-O7=1.3758         C6-C1=1.3876         C6-C5=1.3826         C6-H40=1.0788        
O7-C5=1.3758         O7-C8=1.3757         C8-O7=1.3757         C8-C9=1.3827         C8-C13=1.4017        C9-C8=1.3827         
C9-C10=1.3875        C9-H41=1.0788        C10-C9=1.3875        C10-C11=1.3803       C10-H42=1.0786       C11-C10=1.3803       
C11-C12=1.3869       C11-H43=1.0793       C12-C11=1.3869       C12-C13=1.3899       C12-H44=1.0786       C13-C8=1.4017        
C13-C12=1.3899       C13-N14=1.3976       N14-C4=1.3974        N14-C13=1.3976       N14-C15=1.4121       C15-N14=1.4121       
C15-C16=1.3977       C15-C20=1.3848       C16-C15=1.3977       C16-C17=1.3731       C16-H45=1.0795       C17-C16=1.3731       
C17-C18=1.3992       C17-H46=1.0786       C18-C17=1.3992       C18-C19=1.4098       C18-C36=1.4451       C19-C18=1.4098       
C19-C20=1.3975       C19-C21=1.4572       C20-C15=1.3848       C20-C19=1.3975       C20-H47=1.0780       C21-C19=1.4572       
C21-C22=1.4001       C21-C26=1.4093       C22-C21=1.4001       C22-C23=1.3784       C22-H48=1.0779       C23-C22=1.3784       
C23-C24=1.3904       C23-H49=1.0801       C24-C23=1.3904       C24-C25=1.3759       C24-H50=1.0795       C25-C24=1.3759       
C25-C26=1.3982       C25-H51=1.0788       C26-C21=1.4093       C26-C25=1.3982       C26-C27=1.4473       C27-C26=1.4473       
C27-N28=1.3200       C27-C36=1.4289       N28-C27=1.3200       N28-C29=1.3421       C29-N28=1.3421       C29-C30=1.4115       
C29-C34=1.4271       C30-C29=1.4115       C30-C31=1.3659       C30-H52=1.0793       C31-C30=1.3659       C31-C32=1.4086       
C31-H53=1.0799       C32-C31=1.4086       C32-C33=1.3657       C32-H54=1.0800       C33-C32=1.3657       C33-C34=1.4118       
C33-H55=1.0793       C34-C29=1.4271       C34-C33=1.4118       C34-N35=1.3417       N35-C34=1.3417       N35-C36=1.3211       
C36-C18=1.4451       C36-C27=1.4289       C36-N35=1.3211       H37-C1=1.0786        H38-C2=1.0793        H39-C3=1.0786        
H40-C6=1.0788        H41-C9=1.0788        H42-C10=1.0786       H43-C11=1.0793       H44-C12=1.0786       H45-C16=1.0795       
H46-C17=1.0786       H47-C20=1.0780       H48-C22=1.0779       H49-C23=1.0801       H50-C24=1.0795       H51-C25=1.0788       
H52-C30=1.0793       H53-C31=1.0799       H54-C32=1.0800       H55-C33=1.0793       
 C  H  Rav=1.0790 sigma=0.0006  Rmin=1.0779  Rmax=1.0801    19
 C  C  Rav=1.3983 sigma=0.0218  Rmin=1.3657  Rmax=1.4572    34
 N  C  Rav=1.3617 sigma=0.0364  Rmin=1.3200  Rmax=1.4121     7
 O  C  Rav=1.3757 sigma=0.0000  Rmin=1.3757  Rmax=1.3758     2
 
 selected bond angles (degree)
 --------------------
C6-C1-C2=119.47                H37-C1-C2=120.75               H37-C1-C6=119.77               C3-C2-C1=120.41                
H38-C2-C1=120.41               H38-C2-C3=119.18               C4-C3-C2=120.86                H39-C3-C2=119.62               
H39-C3-C4=119.52               C5-C4-C3=118.21                N14-C4-C3=122.29               N14-C4-C5=119.46               
C6-C5-C4=120.70                O7-C5-C4=122.43                O7-C5-C6=116.86                C5-C6-C1=120.31                
H40-C6-C1=121.45               H40-C6-C5=118.24               C8-O7-C5=117.36                C9-C8-O7=116.79                
C13-C8-O7=122.49               C13-C8-C9=120.72               C10-C9-C8=120.33               H41-C9-C8=118.21               
H41-C9-C10=121.46              C11-C10-C9=119.44              H42-C10-C9=119.79              H42-C10-C11=120.77             
 
 selected dihedral angles (degree)
 ---------------------------------
C3-C2-C1-C6=358.96            C3-C2-C1-H37=179.67           H38-C2-C1-C6=178.75           H38-C2-C1-H37=359.46          
C4-C3-C2-C1=359.40            C4-C3-C2-H38=179.62           H39-C3-C2-C1=179.08           H39-C3-C2-H38=359.29          
C5-C4-C3-C2=  2.28            C5-C4-C3-H39=182.61           N14-C4-C3-C2=179.93           N14-C4-C3-H39=  0.26          
C6-C5-C4-C3=357.60            C6-C5-C4-N14=179.89           O7-C5-C4-C3=176.73            O7-C5-C4-N14=359.02           
C5-C6-C1-C2=  0.92            C5-C6-C1-H37=180.22           H40-C6-C1-C2=181.27           H40-C6-C1-H37=  0.57          
C1-C6-C5-C4=  0.82            C1-C6-C5-O7=181.64            H40-C6-C5-C4=180.48           H40-C6-C5-O7=  1.30           
C8-O7-C5-C4=  0.15            C8-O7-C5-C6=179.31            C9-C8-O7-C5=180.10            C13-C8-O7-C5=  0.93           
C10-C9-C8-O7=181.66           C10-C9-C8-C13=  0.85          H41-C9-C8-O7=  1.24           H41-C9-C8-C13=180.43          
C11-C10-C9-C8=  0.87          C11-C10-C9-H41=181.31         H42-C10-C9-C8=180.16          H42-C10-C9-H41=  0.60         
           -------------------------------------------------
          |                Final Singlepoint                |
           -------------------------------------------------

          ...................................................
          :                      SETUP                      :
          :.................................................:
          :  # basis functions                 163          :
          :  # atomic orbitals                 163          :
          :  # shells                           91          :
          :  # electrons                       168          :
          :  max. iterations                   250          :
          :  Hamiltonian                  GFN2-xTB          :
          :  restarted?                      false          :
          :  GBSA solvation                   true          :
          :  PC potential                    false          :
          :  electronic temp.          300.0000000     K    :
          :  accuracy                    1.0000000          :
          :  -> integral cutoff          0.2500000E+02      :
          :  -> integral neglect         0.1000000E-07      :
          :  -> SCF convergence          0.1000000E-05 Eh   :
          :  -> wf. convergence          0.1000000E-03 e    :
          :  Broyden damping             0.4000000          :
          :  net charge                          0          :
          :  unpaired electrons                  0          :
          ...................................................

 iter      E             dE          RMSdq      gap      omega  full diag
   1    -92.7562750 -0.927563E+02  0.148E-05    1.04       0.0  T
   2    -92.7562750 -0.429168E-11  0.908E-06    1.04    1485.1  T
   3    -92.7562750 -0.252953E-11  0.484E-06    1.04    2784.2  T

   *** convergence criteria satisfied after 3 iterations ***

         #    Occupation            Energy/Eh            Energy/eV
      -------------------------------------------------------------
         1        2.0000           -0.7306820             -19.8829
       ...           ...                  ...                  ...
        78        2.0000           -0.4141067             -11.2684
        79        2.0000           -0.4060904             -11.0503
        80        2.0000           -0.3986017             -10.8465
        81        2.0000           -0.3955854             -10.7644
        82        2.0000           -0.3911934             -10.6449
        83        2.0000           -0.3561396              -9.6911
        84        2.0000           -0.3449131              -9.3856 (HOMO)
        85                         -0.3066404              -8.3441 (LUMO)
        86                         -0.2719162              -7.3992
        87                         -0.2606105              -7.0916
        88                         -0.2396803              -6.5220
        89                         -0.2313511              -6.2954
       ...                                ...                  ...
       163                          0.7086068              19.2822
      -------------------------------------------------------------
                  HL-Gap            0.0382728 Eh            1.0415 eV
             Fermi-level           -0.3257767 Eh           -8.8648 eV

 SCC (total)                   0 d,  0 h,  0 min,  0.027 sec
 SCC setup                      ...        0 min,  0.000 sec (  1.639%)
 Dispersion                     ...        0 min,  0.001 sec (  2.055%)
 classical contributions        ...        0 min,  0.000 sec (  0.142%)
 integral evaluation            ...        0 min,  0.002 sec (  8.657%)
 iterations                     ...        0 min,  0.017 sec ( 63.267%)
 molecular gradient             ...        0 min,  0.006 sec ( 22.701%)
 printout                       ...        0 min,  0.000 sec (  1.186%)

         :::::::::::::::::::::::::::::::::::::::::::::::::::::
         ::                     SUMMARY                     ::
         :::::::::::::::::::::::::::::::::::::::::::::::::::::
         :: total energy             -91.139609367264 Eh    ::
         :: total w/o Gsasa/hb       -91.105283737449 Eh    ::
         :: gradient norm              0.000093069396 Eh/a0 ::
         :: HOMO-LUMO gap              1.041454744806 eV    ::
         ::.................................................::
         :: SCC energy               -92.756688221899 Eh    ::
         :: -> isotropic ES            0.038405515481 Eh    ::
         :: -> anisotropic ES          0.005897155947 Eh    ::
         :: -> anisotropic XC          0.053591435791 Eh    ::
         :: -> dispersion             -0.076699587574 Eh    ::
         :: -> Gsolv                  -0.038257860955 Eh    ::
         ::    -> Gelec               -0.003932231140 Eh    ::
         ::    -> Gsasa               -0.038849509687 Eh    ::
         ::    -> Ghb                  0.000000000000 Eh    ::
         ::    -> Gshift               0.004523879872 Eh    ::
         :: repulsion energy           1.617078854635 Eh    ::
         :: add. restraining           0.000000000000 Eh    ::
         :: total charge               0.000000000000 e     ::
         :::::::::::::::::::::::::::::::::::::::::::::::::::::

           ------------------------------------------------- 
          |                Numerical Hessian                |
           ------------------------------------------------- 
step length          :   0.00500
SCC accuracy         :   0.30000
Hessian scale factor :   1.00000
frozen atoms in %    :   0.00000    0
RMS gradient         :   0.00009
estimated CPU  time     14.66 min
estimated wall time      0.38 min

writing file <hessian>.

 projected vibrational frequencies (cm⁻¹)
eigval :       -0.00    -0.00     0.00     0.00     0.00     0.00
eigval :        8.48    12.68    19.36    33.12    38.84    57.76
eigval :       79.07    95.31   105.89   117.11   137.87   147.37
eigval :      174.56   209.29   221.20   244.69   246.17   264.70
eigval :      278.72   282.57   313.91   335.58   356.61   378.40
eigval :      381.24   391.01   406.27   413.67   416.24   427.84
eigval :      436.72   440.09   445.95   463.08   507.79   514.73
eigval :      518.28   521.46   527.31   539.81   551.56   576.58
eigval :      580.56   585.34   606.78   615.75   620.78   656.69
eigval :      659.28   663.15   667.90   688.31   693.83   708.95
eigval :      733.91   761.92   762.59   767.93   776.39   776.48
eigval :      779.04   809.36   830.48   833.74   852.83   860.36
eigval :      862.54   865.22   868.75   873.73   880.02   895.40
eigval :      896.77   911.80   912.52   913.42   915.52   916.98
eigval :      924.18   924.65   925.58   926.74   979.41  1041.00
eigval :     1054.16  1062.47  1089.13  1089.30  1092.33  1105.65
eigval :     1119.04  1138.88  1142.33  1146.24  1167.44  1168.59
eigval :     1172.68  1177.82  1182.28  1197.49  1202.85  1218.29
eigval :     1229.77  1237.15  1242.13  1257.98  1259.28  1277.52
eigval :     1280.43  1303.78  1308.92  1314.49  1318.84  1331.47
eigval :     1337.81  1342.24  1350.93  1369.02  1398.94  1409.77
eigval :     1421.68  1427.57  1437.10  1442.75  1459.73  1477.67
eigval :     1479.70  1489.42  1499.60  1501.43  1532.24  1547.06
eigval :     1563.03  1565.61  1576.14  1578.76  1587.19  1592.84
eigval :     1601.59  1604.21  3079.53  3080.36  3086.04  3086.91
eigval :     3087.05  3089.56  3091.20  3095.20  3095.21  3095.26
eigval :     3099.60  3103.32  3103.95  3104.20  3106.85  3108.19
eigval :     3108.96  3109.10  3114.41
           -------------------------------------------------
          |                Property Printout                |
           -------------------------------------------------

    * Orbital Energies and Occupations

         #    Occupation            Energy/Eh            Energy/eV
      -------------------------------------------------------------
         1        2.0000           -0.7306820             -19.8829
       ...           ...                  ...                  ...
        72        2.0000           -0.4313032             -11.7364
        73        2.0000           -0.4272897             -11.6271
        74        2.0000           -0.4237126             -11.5298
        75        2.0000           -0.4230799             -11.5126
        76        2.0000           -0.4169967             -11.3471
        77        2.0000           -0.4169150             -11.3448
        78        2.0000           -0.4141067             -11.2684
        79        2.0000           -0.4060904             -11.0503
        80        2.0000           -0.3986017             -10.8465
        81        2.0000           -0.3955855             -10.7644
        82        2.0000           -0.3911934             -10.6449
        83        2.0000           -0.3561397              -9.6911
        84        2.0000           -0.3449131              -9.3856 (HOMO)
        85                         -0.3066404              -8.3441 (LUMO)
        86                         -0.2719162              -7.3992
        87                         -0.2606105              -7.0916
        88                         -0.2396802              -6.5220
        89                         -0.2313511              -6.2954
        90                         -0.2307290              -6.2785
        91                         -0.2224184              -6.0523
        92                         -0.2167626              -5.8984
        93                         -0.2084411              -5.6720
        94                         -0.2037305              -5.5438
        95                         -0.1958726              -5.3300
       ...                                ...                  ...
       163                          0.7086067              19.2822
      -------------------------------------------------------------
                  HL-Gap            0.0382727 Eh            1.0415 eV
             Fermi-level           -0.3257767 Eh           -8.8648 eV

     #   Z          covCN         q      C6AA      α(0)
     1   6 C        2.919    -0.041    29.016     8.833
     2   6 C        2.919    -0.039    28.967     8.826
     3   6 C        2.924    -0.060    29.500     8.907
     4   6 C        2.921     0.042    27.048     8.529
     5   6 C        2.882     0.122    25.312     8.248
     6   6 C        2.919    -0.058    29.440     8.898
     7   8 O        1.708    -0.272    18.508     5.809
     8   6 C        2.882     0.122    25.310     8.248
     9   6 C        2.919    -0.058    29.439     8.897
    10   6 C        2.919    -0.041    29.018     8.834
    11   6 C        2.919    -0.039    28.969     8.826
    12   6 C        2.924    -0.061    29.512     8.909
    13   6 C        2.921     0.042    27.052     8.529
    14   7 N        2.751    -0.072    22.635     7.066
    15   6 C        2.919     0.067    26.489     8.440
    16   6 C        2.918    -0.040    29.005     8.832
    17   6 C        2.923    -0.028    28.691     8.784
    18   6 C        2.987    -0.009    28.240     8.717
    19   6 C        2.975     0.007    27.857     8.658
    20   6 C        2.925    -0.047    29.169     8.857
    21   6 C        2.976     0.005    27.897     8.664
    22   6 C        2.922    -0.033    28.825     8.804
    23   6 C        2.918    -0.026    28.640     8.776
    24   6 C        2.916    -0.027    28.674     8.781
    25   6 C        2.924    -0.027    28.683     8.783
    26   6 C        2.987    -0.006    28.154     8.704
    27   6 C        2.959     0.085    26.097     8.379
    28   7 N        1.848    -0.261    27.642     7.792
    29   6 C        2.965     0.083    26.157     8.389
    30   6 C        2.916    -0.043    29.079     8.843
    31   6 C        2.916    -0.027    28.678     8.782
    32   6 C        2.916    -0.027    28.674     8.781
    33   6 C        2.916    -0.044    29.085     8.844
    34   6 C        2.965     0.083    26.153     8.388
    35   7 N        1.848    -0.262    27.671     7.796
    36   6 C        2.959     0.085    26.106     8.381
    37   1 H        0.926     0.042     2.420     2.433
    38   1 H        0.926     0.041     2.432     2.439
    39   1 H        0.926     0.039     2.459     2.452
    40   1 H        0.926     0.048     2.347     2.396
    41   1 H        0.926     0.048     2.347     2.396
    42   1 H        0.926     0.042     2.420     2.433
    43   1 H        0.926     0.041     2.432     2.439
    44   1 H        0.926     0.039     2.460     2.453
    45   1 H        0.926     0.050     2.325     2.384
    46   1 H        0.926     0.063     2.165     2.301
    47   1 H        0.926     0.052     2.298     2.370
    48   1 H        0.926     0.046     2.374     2.409
    49   1 H        0.926     0.045     2.382     2.414
    50   1 H        0.926     0.045     2.387     2.416
    51   1 H        0.926     0.057     2.239     2.340
    52   1 H        0.926     0.053     2.285     2.364
    53   1 H        0.926     0.050     2.319     2.381
    54   1 H        0.926     0.050     2.319     2.381
    55   1 H        0.926     0.053     2.285     2.364

 Mol. C6AA /au·bohr⁶  :      47578.433856
 Mol. C8AA /au·bohr⁸  :    1217927.850205
 Mol. α(0) /au        :        352.095694


MOs/occ written to file <molden.input>


molecular dipole:
                 x           y           z       tot (Debye)
 q only:        0.484      -0.291      -0.131
   full:        0.556      -0.252      -0.111       1.575
molecular quadrupole (traceless):
                xx          xy          yy          xz          yz          zz
 q only:       -5.693       3.800       9.298       1.747       2.514      -3.605
  q+dip:        2.355       5.705       9.484       2.521       4.626     -11.840
   full:       -4.524       5.945       7.686       2.714       2.061      -3.161

           -------------------------------------------------
          |                Geometry Summary                 |
           -------------------------------------------------

      molecular mass/u    :      461.5139376
   center of mass at/Å    :        0.0000686      -0.0001831       0.0012627
  moments of inertia/u·Å² :        0.2467596E+04   0.8516402E+04   0.9702908E+04
rotational constants/cm⁻¹ :        0.6831601E-02   0.1979431E-02   0.1737379E-02

 * 59 selected distances

     #   Z          #   Z                                           value/Å
     1   6 C        2   6 C                                       1.3803594
     2   6 C        3   6 C                                       1.3868413
     3   6 C        4   6 C                                       1.3897979
     4   6 C        5   6 C                                       1.4013902
     1   6 C        6   6 C                                       1.3875683
     5   6 C        6   6 C                                       1.3825781
     5   6 C        7   8 O                                       1.3757589
     7   8 O        8   6 C                                       1.3757411
     8   6 C        9   6 C                                       1.3826662
     9   6 C       10   6 C                                       1.3875072
    10   6 C       11   6 C                                       1.3803025
    11   6 C       12   6 C                                       1.3868720
     8   6 C       13   6 C                                       1.4016982
    12   6 C       13   6 C                                       1.3899251
     4   6 C       14   7 N                                       1.3973873
    13   6 C       14   7 N                                       1.3976040
    14   7 N       15   6 C                                       1.4120963
    15   6 C       16   6 C                                       1.3976801
    16   6 C       17   6 C                                       1.3731275
    17   6 C       18   6 C                                       1.3991774
    18   6 C       19   6 C                                       1.4098280
    15   6 C       20   6 C                                       1.3848042
    19   6 C       20   6 C                                       1.3974512
    21   6 C       22   6 C                                       1.4000751
    22   6 C       23   6 C                                       1.3784004
    23   6 C       24   6 C                                       1.3904204
    24   6 C       25   6 C                                       1.3758698
    21   6 C       26   6 C                                       1.4093454
    25   6 C       26   6 C                                       1.3981568
    27   6 C       28   7 N                                       1.3200215
    28   7 N       29   6 C                                       1.3421179
    29   6 C       30   6 C                                       1.4115270
    30   6 C       31   6 C                                       1.3658726
    31   6 C       32   6 C                                       1.4085894
    32   6 C       33   6 C                                       1.3657364
    29   6 C       34   6 C                                       1.4270969
    33   6 C       34   6 C                                       1.4118449
    34   6 C       35   7 N                                       1.3417435
    27   6 C       36   6 C                                       1.4288652 (max)
    35   7 N       36   6 C                                       1.3210769
     1   6 C       37   1 H                                       1.0786258
     2   6 C       38   1 H                                       1.0792664
     3   6 C       39   1 H                                       1.0785531
     6   6 C       40   1 H                                       1.0788064
     9   6 C       41   1 H                                       1.0788100
    10   6 C       42   1 H                                       1.0786110
    11   6 C       43   1 H                                       1.0792790
    12   6 C       44   1 H                                       1.0785745
    16   6 C       45   1 H                                       1.0795032
    17   6 C       46   1 H                                       1.0785868
    20   6 C       47   1 H                                       1.0779526
    22   6 C       48   1 H                                       1.0778943 (min)
    23   6 C       49   1 H                                       1.0800676
    24   6 C       50   1 H                                       1.0795353
    25   6 C       51   1 H                                       1.0788431
    30   6 C       52   1 H                                       1.0792876
    31   6 C       53   1 H                                       1.0799296
    32   6 C       54   1 H                                       1.0799882
    33   6 C       55   1 H                                       1.0792925

 * 4 distinct bonds (by element types)

   Z      Z             #   av. dist./Å        max./Å        min./Å
   1 H    6 C          19     1.0790214     1.0800676     1.0778943
   6 C    6 C          31     1.3932702     1.4288652     1.3657364
   6 C    7 N           7     1.3617211     1.4120963     1.3200215
   6 C    8 O           2     1.3757500     1.3757589     1.3757411

           -------------------------------------------------
          |               Frequency Printout                |
           -------------------------------------------------
 projected vibrational frequencies (cm⁻¹)
eigval :       -0.00    -0.00     0.00     0.00     0.00     0.00
eigval :        8.48    12.68    19.36    33.12    38.84    57.76
eigval :       79.07    95.31   105.89   117.11   137.87   147.37
eigval :      174.56   209.29   221.20   244.69   246.17   264.70
eigval :      278.72   282.57   313.91   335.58   356.61   378.40
eigval :      381.24   391.01   406.27   413.67   416.24   427.84
eigval :      436.72   440.09   445.95   463.08   507.79   514.73
eigval :      518.28   521.46   527.31   539.81   551.56   576.58
eigval :      580.56   585.34   606.78   615.75   620.78   656.69
eigval :      659.28   663.15   667.90   688.31   693.83   708.95
eigval :      733.91   761.92   762.59   767.93   776.39   776.48
eigval :      779.04   809.36   830.48   833.74   852.83   860.36
eigval :      862.54   865.22   868.75   873.73   880.02   895.40
eigval :      896.77   911.80   912.52   913.42   915.52   916.98
eigval :      924.18   924.65   925.58   926.74   979.41  1041.00
eigval :     1054.16  1062.47  1089.13  1089.30  1092.33  1105.65
eigval :     1119.04  1138.88  1142.33  1146.24  1167.44  1168.59
eigval :     1172.68  1177.82  1182.28  1197.49  1202.85  1218.29
eigval :     1229.77  1237.15  1242.13  1257.98  1259.28  1277.52
eigval :     1280.43  1303.78  1308.92  1314.49  1318.84  1331.47
eigval :     1337.81  1342.24  1350.93  1369.02  1398.94  1409.77
eigval :     1421.68  1427.57  1437.10  1442.75  1459.73  1477.67
eigval :     1479.70  1489.42  1499.60  1501.43  1532.24  1547.06
eigval :     1563.03  1565.61  1576.14  1578.76  1587.19  1592.84
eigval :     1601.59  1604.21  3079.53  3080.36  3086.04  3086.91
eigval :     3087.05  3089.56  3091.20  3095.20  3095.21  3095.26
eigval :     3099.60  3103.32  3103.95  3104.20  3106.85  3108.19
eigval :     3108.96  3109.10  3114.41
 reduced masses (amu)
   1: 11.36   2: 11.75   3: 11.83   4: 11.64   5: 11.73   6: 11.76   7: 10.97   8: 11.11
   9: 11.44  10: 10.79  11: 11.61  12: 10.73  13: 10.68  14: 10.03  15: 11.28  16: 10.19
  17: 11.24  18: 11.18  19: 11.06  20: 11.17  21: 12.05  22: 10.78  23: 10.90  24: 11.32
  25: 11.31  26: 10.64  27: 11.41  28: 11.17  29: 11.55  30: 10.07  31: 11.24  32: 11.30
  33: 10.28  34: 10.95  35: 10.47  36:  9.83  37: 10.90  38: 10.75  39: 10.18  40: 11.63
  41: 10.23  42: 11.12  43: 10.35  44: 10.56  45: 11.02  46: 11.75  47: 11.97  48: 11.47
  49: 11.55  50: 12.06  51: 11.29  52: 11.84  53: 10.81  54: 11.68  55: 11.76  56: 11.60
  57: 10.72  58: 11.37  59: 11.49  60: 11.87  61: 11.47  62: 11.97  63:  4.62  64:  9.26
  65:  3.22  66:  3.42  67:  6.27  68: 12.00  69:  4.86  70: 11.48  71: 12.48  72:  3.53
  73: 11.54  74:  3.35  75:  3.68  76:  3.85  77:  3.45  78:  3.80  79:  3.86  80:  3.77
  81:  3.09  82:  3.09  83:  9.67  84:  6.02  85:  3.62  86:  3.91  87: 11.02  88:  3.33
  89: 11.53  90:  8.57  91:  6.24  92: 10.84  93:  5.98  94:  5.76  95:  6.05  96:  8.70
  97:  8.17  98:  5.09  99:  3.74 100:  3.69 101:  3.66 102:  2.41 103:  1.95 104:  1.86
 105:  3.53 106:  7.04 107:  7.69 108:  5.83 109:  5.02 110:  7.25 111:  4.76 112:  8.78
 113:  5.04 114:  8.67 115:  8.51 116: 11.44 117: 11.03 118:  9.99 119: 10.05 120: 10.37
 121:  9.82 122: 11.04 123: 10.98 124: 11.31 125: 11.29 126: 10.31 127:  9.38 128: 10.32
 129: 10.00 130: 10.01 131: 10.14 132: 10.68 133: 10.54 134: 10.98 135: 12.62 136: 10.53
 137: 11.69 138: 11.85 139: 11.63 140: 11.50 141: 11.49 142: 11.57 143: 11.60 144: 11.58
 145: 11.72 146: 11.47 147:  1.77 148:  1.76 149:  1.81 150:  1.77 151:  1.77 152:  1.84
 153:  1.81 154:  1.82 155:  1.86 156:  1.81 157:  1.91 158:  1.85 159:  1.85 160:  1.85
 161:  1.87 162:  1.91 163:  1.89 164:  1.88 165:  1.81
 IR intensities (km·mol⁻¹)
   1:  0.00   2:  0.02   3:  0.01   4:  0.00   5:  0.01   6:  0.01   7:  0.38   8:  0.14
   9:  0.22  10:  0.23  11:  0.59  12:  0.94  13:  1.77  14:  2.90  15:  0.13  16:  4.43
  17:  0.98  18:  1.65  19:  0.61  20:  4.92  21:  0.60  22:  0.44  23: 10.90  24:  0.54
  25:  1.48  26:  0.75  27:  3.99  28:  6.78  29:  3.08  30:  5.41  31:  1.02  32:  0.44
  33: 11.75  34:  6.21  35:  1.70  36:  5.87  37:  4.51  38:  4.83  39:  0.57  40:  2.42
  41:  5.77  42:  3.51  43:  0.58  44:  1.49  45:  5.90  46:  5.14  47:  1.63  48:  0.86
  49:  1.74  50: 14.78  51:  4.29  52:  0.20  53: 19.45  54:  4.37  55:  0.85  56:  7.26
  57:  0.23  58:  1.29  59:  3.52  60:  2.79  61:  0.24  62: 12.36  63:  8.10  64: 16.50
  65: 18.46  66: 75.67  67: 18.77  68: 15.52  69:  4.61  70: 26.21  71: 23.90  72:  1.03
  73:  3.21  74:  1.16  75:  1.75  76:  0.05  77:  4.72  78:  0.49  79:  3.07  80:  0.15
  81:  0.38  82:  0.32  83: 36.39  84: 17.74  85:  0.37  86:  0.95  87:  2.56  88:  0.01
  89: 12.11  90:  0.62  91:  0.53  92: 30.24  93:  6.83  94:  5.41  95:  4.45  96:  5.00
  97: 81.94  98: 41.34  99:  4.81 100: 11.08 101:  2.19 102:  3.21 103:  0.86 104:  0.83
 105: 17.80 106: 41.12 107:176.05 108:  5.85 109:  3.10 110:  0.30 111: 39.56 112: 44.96
 113:  1.16 114: 55.42 115: 59.14 116:496.81 117:382.79 118:  7.32 119: 25.27 120:291.42
 121:136.92 122: 52.95 123: 12.54 124:302.93 125:  1.73 126: 46.54 127:  5.68 128: 28.84
 129: 24.59 130:  5.46 131: 24.75 132: 17.06 133:878.65 134:  3.64 135: 65.51 136: 67.80
 137:  2.60 138: 39.43 139:  1.84 140: 16.93 141:327.05 142: 37.68 143: 48.04 144: 21.48
 145: 10.84 146:  2.13 147: 13.12 148:  3.90 149: 30.37 150:  9.56 151:  5.93 152: 79.25
 153: 27.44 154: 52.37 155: 79.37 156: 26.50 157: 90.23 158: 17.93 159:  2.00 160:188.62
 161: 33.32 162: 83.59 163:  9.75 164: 20.59 165: 58.54
 Raman intensities (Ä⁴*amu⁻¹)
   1:  0.00   2:  0.00   3:  0.00   4:  0.00   5:  0.00   6:  0.00   7:  0.00   8:  0.00
   9:  0.00  10:  0.00  11:  0.00  12:  0.00  13:  0.00  14:  0.00  15:  0.00  16:  0.00
  17:  0.00  18:  0.00  19:  0.00  20:  0.00  21:  0.00  22:  0.00  23:  0.00  24:  0.00
  25:  0.00  26:  0.00  27:  0.00  28:  0.00  29:  0.00  30:  0.00  31:  0.00  32:  0.00
  33:  0.00  34:  0.00  35:  0.00  36:  0.00  37:  0.00  38:  0.00  39:  0.00  40:  0.00
  41:  0.00  42:  0.00  43:  0.00  44:  0.00  45:  0.00  46:  0.00  47:  0.00  48:  0.00
  49:  0.00  50:  0.00  51:  0.00  52:  0.00  53:  0.00  54:  0.00  55:  0.00  56:  0.00
  57:  0.00  58:  0.00  59:  0.00  60:  0.00  61:  0.00  62:  0.00  63:  0.00  64:  0.00
  65:  0.00  66:  0.00  67:  0.00  68:  0.00  69:  0.00  70:  0.00  71:  0.00  72:  0.00
  73:  0.00  74:  0.00  75:  0.00  76:  0.00  77:  0.00  78:  0.00  79:  0.00  80:  0.00
  81:  0.00  82:  0.00  83:  0.00  84:  0.00  85:  0.00  86:  0.00  87:  0.00  88:  0.00
  89:  0.00  90:  0.00  91:  0.00  92:  0.00  93:  0.00  94:  0.00  95:  0.00  96:  0.00
  97:  0.00  98:  0.00  99:  0.00 100:  0.00 101:  0.00 102:  0.00 103:  0.00 104:  0.00
 105:  0.00 106:  0.00 107:  0.00 108:  0.00 109:  0.00 110:  0.00 111:  0.00 112:  0.00
 113:  0.00 114:  0.00 115:  0.00 116:  0.00 117:  0.00 118:  0.00 119:  0.00 120:  0.00
 121:  0.00 122:  0.00 123:  0.00 124:  0.00 125:  0.00 126:  0.00 127:  0.00 128:  0.00
 129:  0.00 130:  0.00 131:  0.00 132:  0.00 133:  0.00 134:  0.00 135:  0.00 136:  0.00
 137:  0.00 138:  0.00 139:  0.00 140:  0.00 141:  0.00 142:  0.00 143:  0.00 144:  0.00
 145:  0.00 146:  0.00 147:  0.00 148:  0.00 149:  0.00 150:  0.00 151:  0.00 152:  0.00
 153:  0.00 154:  0.00 155:  0.00 156:  0.00 157:  0.00 158:  0.00 159:  0.00 160:  0.00
 161:  0.00 162:  0.00 163:  0.00 164:  0.00 165:  0.00
 output can be read by thermo (or use thermo option).
 writing <g98.out> molden fake output.
 recommended (thermochemical) frequency scaling factor: 1.0
           -------------------------------------------------
          |             Thermodynamic Functions             |
           -------------------------------------------------

Molecule has no symmetry elements
It seems to be the C1 point group
c1  symmetry found (for desy threshold:  0.10E+00) used in thermo

          ...................................................
          :                      SETUP                      :
          :.................................................:
          :  # frequencies                         159      :
          :  # imaginary freq.                       0      :
          :  linear?                             false      :
          :  only rotor calc.                    false      :
          :  symmetry                               c1      :
          :  rotational number                       1      :
          :  scaling factor                  1.0000000      :
          :  rotor cutoff                   50.0000000 cm⁻¹ :
          :  imag. cutoff                  -20.0000000 cm⁻¹ :
          :.................................................:

    mode    ω/cm⁻¹     T·S(HO)/kcal·mol⁻¹    T·S(FR)/kcal·mol⁻¹   T·S(vib)
   ------------------------------------------------------------------------
       1      8.48    -2.48589 (  0.08%)    -1.58196 ( 99.92%)    -1.58271
       2     12.68    -2.24796 (  0.41%)    -1.46299 ( 99.59%)    -1.46623
       3     19.36    -1.99723 (  2.20%)    -1.33759 ( 97.80%)    -1.35209
       4     33.12    -1.67954 ( 16.14%)    -1.17855 ( 83.86%)    -1.25943
       5     38.84    -1.58535 ( 26.70%)    -1.13134 ( 73.30%)    -1.25254
       6     57.76    -1.35134 ( 64.03%)    -1.01382 ( 35.97%)    -1.22994
       7     79.07    -1.16693 ( 86.21%)    -0.92079 ( 13.79%)    -1.13300
       8     95.31    -1.05784 ( 92.96%)    -0.86543 (  7.04%)    -1.04430
       9    105.89    -0.99666 ( 95.26%)    -0.83424 (  4.74%)    -0.98897
      10    117.11    -0.93842 ( 96.78%)    -0.80441 (  3.22%)    -0.93411
      11    137.87    -0.84474 ( 98.30%)    -0.75608 (  1.70%)    -0.84323
      12    147.37    -0.80675 ( 98.69%)    -0.73632 (  1.31%)    -0.80583
      13    174.56    -0.71131 ( 99.33%)    -0.68616 (  0.67%)    -0.71115
      14    209.29    -0.61118 ( 99.68%)    -0.63242 (  0.32%)    -0.61124
      15    221.20    -0.58116 ( 99.74%)    -0.61602 (  0.26%)    -0.58125
      16    244.69    -0.52729 ( 99.83%)    -0.58613 (  0.17%)    -0.52739
      17    246.17    -0.52410 ( 99.83%)    -0.58434 (  0.17%)    -0.52420
      18    264.70    -0.48616 ( 99.87%)    -0.56284 (  0.13%)    -0.48626
      19    278.72    -0.45960 ( 99.90%)    -0.54755 (  0.10%)    -0.45969
      20    282.57    -0.45260 ( 99.90%)    -0.54348 (  0.10%)    -0.45269
   ------------------------------------------------------------------------

   temp. (K)  partition function   enthalpy   heat capacity  entropy
                                   cal/mol     cal/K/mol   cal/K/mol   J/K/mol
 298.15  VIB  0.196E+12            14917.303     98.980     90.757
         ROT  0.345E+08              888.752      2.981     37.472
         INT  0.677E+19            15806.056    101.961    128.230
         TR   0.959E+28             1481.254      4.968     44.257
         TOT                       17287.3096   106.9290   172.4861   721.6818

       T/K    H(0)-H(T)+PV         H(T)/Eh          T*S/Eh         G(T)/Eh
   ------------------------------------------------------------------------
    298.15    0.275491E-01    0.436920E+00    0.819537E-01    0.354967E+00
   ------------------------------------------------------------------------

         :::::::::::::::::::::::::::::::::::::::::::::::::::::
         ::                  THERMODYNAMIC                  ::
         :::::::::::::::::::::::::::::::::::::::::::::::::::::
         :: total free energy         -90.784642855406 Eh   ::
         ::.................................................::
         :: total energy              -91.139609365624 Eh   ::
         :: zero point energy           0.409371139667 Eh   ::
         :: G(RRHO) w/o ZPVE           -0.054404629449 Eh   ::
         :: G(RRHO) contrib.            0.354966510218 Eh   ::
         :::::::::::::::::::::::::::::::::::::::::::::::::::::

optimized geometry written to: xtbopt.xyz


           -------------------------------------------------
          | TOTAL ENERGY              -91.139609365624 Eh   |
          | TOTAL ENTHALPY            -90.702689144471 Eh   |
          | TOTAL FREE ENERGY         -90.784642855406 Eh   |
          | GRADIENT NORM               0.000093081641 Eh/α |
          | HOMO-LUMO GAP               1.041453417635 eV   |
           -------------------------------------------------

------------------------------------------------------------------------
 * finished run on 2025/07/17 at 21:35:25.636     
------------------------------------------------------------------------
 total:
 * wall-time:     0 d,  0 h,  0 min,  2.460 sec
 *  cpu-time:     0 d,  0 h,  1 min, 31.004 sec
 * ratio c/w:    36.988 speedup
 SCF:
 * wall-time:     0 d,  0 h,  0 min,  0.108 sec
 *  cpu-time:     0 d,  0 h,  0 min,  4.077 sec
 * ratio c/w:    37.582 speedup
 ANC optimizer:
 * wall-time:     0 d,  0 h,  0 min,  0.667 sec
 *  cpu-time:     0 d,  0 h,  0 min, 26.686 sec
 * ratio c/w:    39.999 speedup
 analytical hessian:
 * wall-time:     0 d,  0 h,  0 min,  1.568 sec
 *  cpu-time:     0 d,  0 h,  0 min, 56.105 sec
 * ratio c/w:    35.788 speedup

