44
 energy: -76.614943470891 gnorm: 0.000038488819 xtb: 6.7.1 (edcfbbe)
O            4.29713788330639       -1.22482410458113       -2.61781902827195
S            3.89868424826141        0.00177677160689       -1.96445182569390
O            4.29644036928762        1.22973252096786       -2.61569734701316
C            4.35045919591246        0.00032168853597       -0.22940191565228
C            5.60989582768074        0.00009352529190        0.32092729132578
C            5.72163839399037       -0.00129471503542        1.70696943900707
C            4.58340168227577       -0.00241123022633        2.49900965510009
C            3.31764595490352       -0.00213633903553        1.93288895695180
C            3.19360440341096       -0.00074050861558        0.54797800766611
C            1.95193978668840       -0.00017875479245       -0.22694875811034
C            0.65544844207030       -0.00058950123925        0.27396819995696
C           -0.41413318811798        0.00030029918697       -0.61463808388679
N           -1.74233635511501        0.00013927951836       -0.09621236410259
C           -2.37112847892504        1.23621901283048        0.05273113220253
C           -1.70104639199019        2.40409572727073       -0.31780220431829
C           -2.28848801616141        3.65017275737064       -0.18492396657059
C           -3.57133497503391        3.76797144982933        0.31574529144560
C           -4.25090140849938        2.62266732093467        0.69210344869414
C           -3.66007206767799        1.37489057689309        0.57412758362223
S           -4.61527221462993       -0.00014776756000        1.15807979261756
C           -3.65942345876505       -1.37510360574629        0.57499284030890
C           -4.24965930464949       -2.62308859165780        0.69372373982004
C           -3.56964753735123       -3.76826835082616        0.31779330334711
C           -2.28703166131538       -3.65012553186299       -0.18339031333826
C           -1.70019295680470       -2.40384826835981       -0.31704254189035
C           -2.37062587170575       -1.23612046821964        0.05332726065863
C           -0.20363296586934        0.00148968509932       -1.99179407559211
C            1.08945354069049        0.00189095055099       -2.49642637976709
C            2.13921512850849        0.00108497811532       -1.60781401143878
H            6.47960812847819        0.00094692826143       -0.31717910012429
H            6.69884813219706       -0.00150024517838        2.16408509902920
H            4.68341916239025       -0.00349959533088        3.57373448899661
H            2.44227899271701       -0.00300584282447        2.56229448366802
H            0.46366753248050       -0.00151891177516        1.33517904249301
H           -0.70020526222061        2.33854167642981       -0.71424835058253
H           -1.73277182369655        4.52769393098111       -0.47859915525253
H           -4.04041995944550        4.73371914064243        0.41908153092526
H           -5.25086306383451        2.68190586594107        1.09533388193872
H           -5.24952022983240       -2.68257625438738        1.09716657352626
H           -4.03825622319425       -4.73418036849426        0.42175832553299
H           -1.73105377866176       -4.52753214533340       -0.47691171486969
H           -0.69957379564028       -2.33799503916690       -0.71400783947740
H           -1.05184019815484        0.00217207233304       -2.65921731181495
H            1.27664538203521        0.00285998164897       -3.55847508107016
