 Entering Gaussian System
 *********************************************
 Gaussian 98:
 frequency output generated by the xtb code
 *********************************************
                         Standard orientation:
 --------------------------------------------------------------------
  Center     Atomic     Atomic              Coordinates (Angstroms)
  Number     Number      Type              X           Y           Z
 --------------------------------------------------------------------
    1          9             0       -0.867355   -6.355085    0.771032
    2          6             0       -0.411214   -5.107716    0.992416
    3          9             0       -0.637213   -4.857594    2.295155
    4          9             0        0.936831   -5.194661    0.872267
    5          6             0       -1.000613   -4.085443    0.072689
    6          6             0       -1.345538   -4.452638   -1.228087
    7          6             0       -1.862849   -3.482426   -2.081368
    8          6             0       -2.025268   -2.183803   -1.656169
    9          6             0       -1.673108   -1.813954   -0.345374
   10          7             0       -1.795035   -0.502237    0.086027
   11          6             0       -0.785475    0.230337    0.767634
   12          6             0        0.555467   -0.141698    0.973395
   13          6             0        1.253526   -1.127078    0.230394
   14          6             0        2.575034   -1.402830    0.477130
   15          6             0        3.276978   -0.713708    1.473148
   16          8             0        4.577158   -0.904971    1.804444
   17          6             0        5.430450   -1.640231    0.943126
   18          6             0        5.666640   -0.912510   -0.383754
   19          6             0        6.255969    0.483227   -0.161613
   20          6             0        5.824622    1.469593   -1.255701
   21          7             0        4.414428    1.752250   -1.186022
   22          6             0        3.422404    1.191824   -1.954436
   23          6             0        3.512107    0.313638   -3.028599
   24          6             0        2.339756   -0.084521   -3.641931
   25          6             0        1.098250    0.376477   -3.209273
   26          6             0        0.999092    1.252555   -2.145296
   27          6             0        2.161939    1.664027   -1.511101
   28          6             0        2.424063    2.549160   -0.412273
   29          6             0        1.609625    3.304621    0.418898
   30          6             0        2.205327    4.077078    1.397887
   31          6             0        3.589831    4.099186    1.551799
   32          6             0        4.419397    3.349256    0.739818
   33          6             0        3.829017    2.569386   -0.246642
   34          6             0        2.600532    0.276395    2.213780
   35          6             0        1.292257    0.564221    1.964678
   36          7             0       -1.246273    1.442272    1.133142
   37          6             0       -2.475927    1.548636    0.663462
   38          6             0       -3.328090    2.690025    0.712316
   39          6             0       -2.877589    3.898384    1.249352
   40          6             0       -3.688947    5.014932    1.236228
   41          6             0       -4.952576    4.925624    0.671714
   42          6             0       -5.413033    3.728166    0.149972
   43          6             0       -4.628063    2.571268    0.168028
   44          6             0       -5.106585    1.278882   -0.307864
   45          6             0       -6.432695    1.093362   -0.686791
   46          6             0       -6.925421   -0.137308   -1.085031
   47          6             0       -6.088052   -1.252744   -1.084665
   48          6             0       -4.773118   -1.120215   -0.728652
   49          6             0       -4.228918    0.137537   -0.358123
   50          6             0       -2.897497    0.328623    0.025397
   51          6             0       -1.153463   -2.787135    0.520515
   52          1             0       -1.214436   -5.470186   -1.557718
   53          1             0       -2.127750   -3.752766   -3.091627
   54          1             0       -2.409761   -1.430514   -2.326899
   55          1             0        0.768017   -1.633447   -0.586595
   56          1             0        3.057310   -2.165144   -0.114365
   57          1             0        6.364536   -1.725426    1.504409
   58          1             0        5.033121   -2.646762    0.767551
   59          1             0        4.708694   -0.818018   -0.896244
   60          1             0        6.326856   -1.520581   -1.002691
   61          1             0        7.344864    0.435873   -0.130507
   62          1             0        5.904782    0.864155    0.799297
   63          1             0        6.051821    1.062339   -2.242631
   64          1             0        6.372750    2.409364   -1.137941
   65          1             0        4.463040   -0.052844   -3.385098
   66          1             0        2.386448   -0.766953   -4.478069
   67          1             0        0.205987    0.045689   -3.720226
   68          1             0        0.039746    1.617139   -1.808813
   69          1             0        0.536714    3.271335    0.308586
   70          1             0        1.592791    4.673557    2.057739
   71          1             0        4.024962    4.714546    2.326018
   72          1             0        5.489739    3.377844    0.875263
   73          1             0        3.151322    0.803647    2.976863
   74          1             0        0.777751    1.327425    2.524684
   75          1             0       -1.881898    3.928404    1.663790
   76          1             0       -3.340473    5.948426    1.651784
   77          1             0       -5.590940    5.796647    0.639202
   78          1             0       -6.401644    3.711125   -0.279733
   79          1             0       -7.119418    1.924009   -0.659187
   80          1             0       -7.961015   -0.235932   -1.372759
   81          1             0       -6.478469   -2.222618   -1.356003
   82          1             0       -4.143762   -1.993682   -0.694463
   83          1             0       -0.888241   -2.520618    1.532077
 --------------------------------------------------------------------
     1 basis functions        1 primitive gaussians
     1 alpha electrons        1 beta electrons
 
 Harmonic frequencies (cm**-1), IR intensities (km*mol⁻¹),
 Raman scattering activities (A**4/amu), Raman depolarization ratios,
 reduced masses (AMU), force constants (mDyne/A) and normal coordinates:
                      1                      2                      3
                        a                      a                      a 
 Frequencies --     8.3097                12.0380                15.8306
 Red. masses --    11.4110                12.3391                11.8844
 Frc consts  --     0.0000                 0.0000                 0.0000
 IR Inten    --     0.9773                 5.5450                 2.1705
 Raman Activ --     0.0000                 0.0000                 0.0000
 Depolar     --     0.0000                 0.0000                 0.0000
 Atom AN      X      Y      Z        X      Y      Z        X      Y      Z
   1   9     0.11   0.03  -0.04     0.01   0.01  -0.25     0.02   0.08   0.16
   2   6     0.04   0.04  -0.03     0.01   0.00  -0.15     0.00   0.07   0.11
   3   9     0.05   0.02  -0.03     0.02  -0.07  -0.18    -0.04   0.14   0.12
   4   9     0.05   0.12  -0.05     0.02   0.00  -0.20     0.01   0.10   0.17
   5   6    -0.01   0.02  -0.01     0.01   0.04  -0.11     0.02   0.04   0.06
   6   6    -0.06   0.01   0.00     0.02   0.09  -0.13     0.06   0.01   0.06
   7   6    -0.11  -0.01   0.02     0.02   0.13  -0.09     0.08  -0.02   0.02
   8   6    -0.11  -0.01   0.02     0.01   0.11  -0.03     0.05  -0.01  -0.01
   9   6    -0.06   0.01  -0.00     0.01   0.05  -0.02    -0.00   0.02  -0.01
  10   7    -0.06   0.01  -0.01    -0.00   0.04   0.03    -0.02   0.03  -0.04
  11   6    -0.05   0.03  -0.05    -0.01   0.04   0.04    -0.03   0.03  -0.01
  12   6    -0.04   0.03  -0.05    -0.01   0.06   0.05    -0.03   0.03  -0.02
  13   6    -0.04   0.04  -0.06     0.01   0.04   0.09    -0.03   0.05  -0.04
  14   6    -0.05   0.02  -0.05     0.01   0.05   0.12    -0.03   0.04  -0.05
  15   6    -0.06  -0.00  -0.03    -0.01   0.09   0.11    -0.03   0.02  -0.03
  16   8    -0.08  -0.03   0.00    -0.01   0.13   0.15    -0.04   0.01  -0.03
  17   6    -0.06  -0.05   0.02    -0.00   0.06   0.19    -0.04  -0.02  -0.01
  18   6     0.01  -0.04   0.04     0.03  -0.03   0.15     0.00  -0.03  -0.01
  19   6     0.05  -0.06   0.09     0.02  -0.01   0.07     0.03  -0.04  -0.00
  20   6     0.13  -0.03   0.09     0.02  -0.08   0.00     0.07  -0.03  -0.01
  21   7     0.14  -0.00   0.04     0.02  -0.09  -0.03     0.07  -0.03  -0.05
  22   6     0.16   0.03  -0.03     0.03  -0.14   0.00     0.09  -0.02  -0.08
  23   6     0.20   0.07  -0.06     0.04  -0.21   0.06     0.11  -0.00  -0.09
  24   6     0.22   0.10  -0.12     0.05  -0.26   0.08     0.13   0.00  -0.12
  25   6     0.20   0.09  -0.15     0.04  -0.23   0.04     0.12  -0.02  -0.13
  26   6     0.16   0.05  -0.12     0.03  -0.16  -0.02     0.09  -0.04  -0.12
  27   6     0.14   0.02  -0.06     0.02  -0.12  -0.04     0.07  -0.04  -0.09
  28   6     0.10  -0.02  -0.02     0.01  -0.04  -0.09     0.05  -0.06  -0.07
  29   6     0.07  -0.04  -0.03     0.00   0.00  -0.14     0.02  -0.08  -0.07
  30   6     0.03  -0.08   0.03    -0.01   0.07  -0.19     0.00  -0.09  -0.05
  31   6     0.03  -0.09   0.08    -0.01   0.09  -0.19    -0.00  -0.08  -0.02
  32   6     0.06  -0.07   0.09     0.00   0.04  -0.13     0.02  -0.06  -0.02
  33   6     0.09  -0.03   0.04     0.01  -0.03  -0.08     0.04  -0.05  -0.04
  34   6    -0.05   0.00  -0.03    -0.02   0.11   0.06    -0.03   0.00  -0.01
  35   6    -0.05   0.02  -0.04    -0.02   0.10   0.04    -0.03   0.01  -0.01
  36   7    -0.04   0.04  -0.07    -0.02   0.04   0.04    -0.05   0.01   0.03
  37   6    -0.06   0.02  -0.04    -0.02   0.03   0.04    -0.05   0.00   0.03
  38   6    -0.06   0.02  -0.05    -0.04   0.02   0.05    -0.08  -0.02   0.10
  39   6    -0.05   0.04  -0.12    -0.05   0.02   0.06    -0.11  -0.05   0.20
  40   6    -0.05   0.04  -0.14    -0.06   0.01   0.07    -0.14  -0.08   0.30
  41   6    -0.07   0.01  -0.09    -0.07  -0.01   0.08    -0.15  -0.07   0.31
  42   6    -0.09  -0.02  -0.01    -0.06  -0.01   0.08    -0.11  -0.04   0.20
  43   6    -0.08  -0.02   0.01    -0.04   0.00   0.06    -0.07  -0.01   0.09
  44   6    -0.09  -0.04   0.09    -0.02  -0.00   0.06    -0.03   0.02  -0.03
  45   6    -0.11  -0.07   0.17    -0.02  -0.02   0.07    -0.01   0.03  -0.11
  46   6    -0.12  -0.09   0.25    -0.01  -0.02   0.07     0.02   0.05  -0.21
  47   6    -0.10  -0.08   0.23     0.01  -0.01   0.06     0.03   0.05  -0.23
  48   6    -0.09  -0.05   0.15     0.01   0.00   0.04     0.01   0.04  -0.15
  49   6    -0.08  -0.03   0.08    -0.01   0.01   0.05    -0.02   0.03  -0.06
  50   6    -0.07  -0.00   0.01    -0.01   0.03   0.04    -0.03   0.02  -0.02
  51   6    -0.01   0.02  -0.02     0.01   0.02  -0.05    -0.02   0.05   0.03
  52   1    -0.02   0.00   0.00     0.01   0.03  -0.05     0.03   0.00   0.02
  53   1    -0.05  -0.00   0.01     0.01   0.05  -0.03     0.03  -0.01   0.01
  54   1    -0.05  -0.00   0.01     0.00   0.04  -0.00     0.02  -0.01  -0.01
  55   1    -0.01   0.02  -0.02     0.01   0.00   0.03    -0.01   0.02  -0.02
  56   1    -0.01   0.01  -0.02     0.01   0.01   0.04    -0.01   0.01  -0.02
  57   1    -0.03  -0.03   0.02    -0.00   0.02   0.06    -0.01  -0.01   0.00
  58   1    -0.03  -0.01  -0.00    -0.00   0.01   0.07    -0.02  -0.00  -0.00
  59   1     0.01   0.00   0.00     0.01  -0.02   0.03     0.01  -0.00  -0.01
  60   1     0.00  -0.01   0.02     0.01  -0.02   0.06     0.00  -0.01   0.00
  61   1     0.01  -0.03   0.04     0.00  -0.00   0.02     0.01  -0.02   0.00
  62   1     0.01  -0.02   0.02     0.00   0.01   0.01     0.01  -0.01  -0.00
  63   1     0.05  -0.00   0.03     0.01  -0.04   0.01     0.03  -0.01  -0.00
  64   1     0.04  -0.01   0.04     0.01  -0.02  -0.01     0.02  -0.01   0.00
  65   1     0.06   0.02  -0.01     0.01  -0.07   0.03     0.04   0.00  -0.02
  66   1     0.07   0.04  -0.04     0.02  -0.09   0.04     0.04   0.01  -0.04
  67   1     0.06   0.03  -0.06     0.01  -0.08   0.02     0.04  -0.01  -0.04
  68   1     0.04   0.01  -0.04     0.01  -0.04  -0.01     0.02  -0.02  -0.04
  69   1     0.02  -0.01  -0.02     0.00  -0.00  -0.04     0.01  -0.02  -0.03
  70   1     0.00  -0.03   0.01    -0.00   0.03  -0.07    -0.00  -0.03  -0.01
  71   1    -0.00  -0.04   0.04    -0.00   0.04  -0.06    -0.01  -0.03  -0.00
  72   1     0.02  -0.02   0.04    -0.00   0.02  -0.04     0.00  -0.02   0.00
  73   1    -0.02  -0.00  -0.00    -0.01   0.04   0.01    -0.01  -0.00  -0.00
  74   1    -0.01   0.01  -0.01    -0.01   0.03   0.00    -0.01  -0.00   0.00
  75   1    -0.01   0.02  -0.05    -0.01   0.01   0.01    -0.03  -0.02   0.06
  76   1    -0.01   0.02  -0.06    -0.02   0.00   0.02    -0.05  -0.03   0.11
  77   1    -0.02   0.00  -0.03    -0.02  -0.00   0.03    -0.05  -0.03   0.11
  78   1    -0.03  -0.01   0.01    -0.02  -0.01   0.03    -0.03  -0.01   0.06
  79   1    -0.04  -0.02   0.05    -0.01  -0.01   0.02    -0.01   0.01  -0.03
  80   1    -0.04  -0.03   0.09    -0.00  -0.01   0.02     0.01   0.02  -0.08
  81   1    -0.03  -0.03   0.08     0.00  -0.00   0.02     0.01   0.02  -0.09
  82   1    -0.02  -0.01   0.04     0.01   0.00   0.01     0.00   0.01  -0.05
  83   1     0.01   0.01  -0.01     0.00  -0.01  -0.01    -0.02   0.02   0.01
                      4                      5                      6
                        a                      a                      a 
 Frequencies --    18.6213                21.3791                22.4819
 Red. masses --    18.6721                11.4346                14.7459
 Frc consts  --     0.0000                 0.0000                 0.0000
 IR Inten    --     0.6552                 0.4382                 2.5337
 Raman Activ --     0.0000                 0.0000                 0.0000
 Depolar     --     0.0000                 0.0000                 0.0000
 Atom AN      X      Y      Z        X      Y      Z        X      Y      Z
   1   9    -0.50   0.07   0.31     0.10   0.06   0.05     0.27   0.10   0.06
   2   6    -0.04  -0.03  -0.00     0.08   0.06  -0.00     0.22   0.09  -0.03
   3   9     0.42   0.22   0.03     0.15   0.11  -0.00     0.44   0.15  -0.01
   4   9    -0.11  -0.47  -0.39     0.10   0.07  -0.05     0.27   0.13  -0.20
   5   6    -0.01   0.00   0.01     0.05   0.03  -0.01     0.12   0.06   0.00
   6   6     0.00  -0.00   0.01     0.07   0.02  -0.01     0.11   0.05   0.01
   7   6     0.02  -0.01  -0.00     0.05  -0.00  -0.02     0.03   0.02   0.03
   8   6     0.02  -0.00  -0.01     0.01  -0.00  -0.03    -0.02   0.02   0.04
   9   6     0.01   0.00  -0.01    -0.01   0.01  -0.03    -0.01   0.03   0.03
  10   7     0.01   0.00  -0.02    -0.03   0.02  -0.05    -0.02   0.03   0.03
  11   6     0.00   0.01  -0.02    -0.03   0.03  -0.05    -0.02   0.02   0.04
  12   6     0.00   0.01  -0.01    -0.03   0.04  -0.05    -0.02   0.01   0.03
  13   6     0.01  -0.00   0.00    -0.04   0.03  -0.04    -0.03   0.04  -0.02
  14   6     0.00   0.00   0.01    -0.04   0.01  -0.03    -0.04  -0.00  -0.02
  15   6     0.00   0.01   0.01    -0.04   0.00  -0.02    -0.04  -0.06   0.02
  16   8    -0.00   0.01   0.02    -0.06  -0.02  -0.01    -0.05  -0.11   0.02
  17   6     0.01   0.02   0.02    -0.07  -0.08   0.02    -0.05  -0.09  -0.00
  18   6     0.01   0.02   0.02    -0.03  -0.14  -0.00    -0.05  -0.07   0.01
  19   6     0.01   0.02   0.03     0.02  -0.15  -0.05    -0.07  -0.06   0.02
  20   6     0.03   0.03   0.03     0.01  -0.16  -0.05    -0.09  -0.06   0.03
  21   7     0.03   0.03   0.01     0.03  -0.09   0.02    -0.10  -0.09   0.03
  22   6     0.03   0.02   0.00    -0.04  -0.04   0.07    -0.08  -0.07  -0.00
  23   6     0.05   0.02   0.00    -0.15  -0.08   0.09    -0.06  -0.05  -0.01
  24   6     0.05   0.02  -0.01    -0.20  -0.01   0.15    -0.05  -0.04  -0.04
  25   6     0.05   0.01  -0.02    -0.15   0.10   0.18    -0.06  -0.05  -0.05
  26   6     0.03   0.01  -0.02    -0.05   0.14   0.16    -0.08  -0.06  -0.04
  27   6     0.03   0.02  -0.01     0.01   0.06   0.10    -0.09  -0.08  -0.01
  28   6     0.01   0.02  -0.01     0.11   0.07   0.07    -0.10  -0.09   0.00
  29   6     0.00   0.01  -0.01     0.19   0.14   0.09    -0.12  -0.11   0.00
  30   6    -0.01   0.02  -0.01     0.28   0.12   0.05    -0.13  -0.13   0.03
  31   6    -0.01   0.02   0.00     0.29   0.03  -0.01    -0.14  -0.13   0.06
  32   6     0.00   0.03   0.01     0.21  -0.04  -0.02    -0.12  -0.12   0.06
  33   6     0.01   0.02   0.01     0.12  -0.02   0.02    -0.11  -0.10   0.03
  34   6    -0.00   0.02  -0.01    -0.03   0.02  -0.04    -0.03  -0.08   0.06
  35   6    -0.00   0.01  -0.01    -0.03   0.04  -0.06    -0.02  -0.05   0.06
  36   7    -0.00   0.00  -0.02    -0.05   0.03  -0.06    -0.02   0.02   0.04
  37   6    -0.00  -0.00  -0.01    -0.05   0.01  -0.04    -0.01   0.03   0.02
  38   6    -0.01  -0.01  -0.00    -0.07  -0.01  -0.03     0.01   0.05   0.00
  39   6    -0.01  -0.01  -0.00    -0.09  -0.00  -0.03     0.02   0.04   0.00
  40   6    -0.02  -0.01   0.01    -0.12  -0.02  -0.00     0.04   0.06  -0.03
  41   6    -0.03  -0.02   0.02    -0.13  -0.05   0.01     0.05   0.08  -0.07
  42   6    -0.02  -0.02   0.02    -0.11  -0.05   0.01     0.04   0.08  -0.07
  43   6    -0.01  -0.02   0.01    -0.08  -0.03  -0.02     0.02   0.06  -0.03
  44   6    -0.01  -0.02   0.01    -0.06  -0.04  -0.03     0.01   0.07  -0.03
  45   6    -0.01  -0.03   0.02    -0.05  -0.06  -0.03     0.01   0.08  -0.04
  46   6    -0.00  -0.03   0.02    -0.03  -0.07  -0.04    -0.00   0.08  -0.04
  47   6     0.01  -0.02   0.00    -0.01  -0.05  -0.04    -0.02   0.07  -0.01
  48   6     0.01  -0.01  -0.01    -0.01  -0.03  -0.04    -0.02   0.06   0.00
  49   6     0.00  -0.01  -0.01    -0.04  -0.02  -0.04    -0.01   0.05  -0.00
  50   6     0.00  -0.00  -0.01    -0.04   0.00  -0.04    -0.01   0.04   0.02
  51   6    -0.01   0.00   0.00     0.01   0.03  -0.02     0.06   0.05   0.01
  52   1     0.00  -0.00   0.01     0.03   0.01  -0.00     0.05   0.02   0.00
  53   1     0.01  -0.00  -0.00     0.02  -0.01  -0.01     0.01   0.00   0.01
  54   1     0.01  -0.00  -0.01     0.00  -0.01  -0.01    -0.02  -0.00   0.01
  55   1     0.00  -0.00   0.00    -0.01   0.01  -0.02    -0.01   0.03  -0.02
  56   1     0.00  -0.00   0.00    -0.02  -0.00  -0.00    -0.01   0.01  -0.01
  57   1     0.00   0.01   0.01    -0.02  -0.03   0.01    -0.02  -0.03  -0.00
  58   1     0.00   0.00   0.00    -0.03  -0.02   0.02    -0.02  -0.02  -0.00
  59   1     0.00   0.01   0.01    -0.01  -0.03  -0.00    -0.01  -0.02  -0.00
  60   1     0.00   0.01   0.01    -0.01  -0.05   0.01    -0.01  -0.02   0.00
  61   1     0.00   0.01   0.01     0.01  -0.05  -0.03    -0.02  -0.01   0.01
  62   1     0.00   0.01   0.01     0.02  -0.04  -0.01    -0.02  -0.02   0.01
  63   1     0.01   0.01   0.01    -0.02  -0.06  -0.02    -0.02  -0.01   0.01
  64   1     0.01   0.01   0.01     0.02  -0.05  -0.03    -0.03  -0.02   0.01
  65   1     0.01   0.01   0.00    -0.05  -0.05   0.02    -0.02  -0.01   0.00
  66   1     0.02   0.01  -0.00    -0.08  -0.01   0.05    -0.01  -0.01  -0.01
  67   1     0.02   0.00  -0.01    -0.06   0.04   0.06    -0.01  -0.01  -0.02
  68   1     0.01   0.00  -0.01    -0.00   0.06   0.05    -0.02  -0.02  -0.02
  69   1     0.00   0.00  -0.01     0.05   0.06   0.04    -0.03  -0.03  -0.00
  70   1    -0.00   0.00  -0.00     0.10   0.05   0.02    -0.04  -0.04   0.01
  71   1    -0.01   0.01   0.00     0.11   0.01  -0.01    -0.04  -0.04   0.02
  72   1     0.00   0.01   0.01     0.06  -0.03  -0.02    -0.04  -0.04   0.02
  73   1    -0.00   0.01  -0.00    -0.01   0.01  -0.01    -0.01  -0.04   0.03
  74   1    -0.00   0.01  -0.01    -0.01   0.02  -0.02    -0.00  -0.02   0.03
  75   1    -0.00   0.00  -0.00    -0.03   0.00  -0.01     0.00   0.01   0.01
  76   1    -0.01  -0.00   0.00    -0.04  -0.01   0.00     0.01   0.02  -0.01
  77   1    -0.01  -0.01   0.01    -0.04  -0.02   0.01     0.02   0.03  -0.03
  78   1    -0.01  -0.01   0.01    -0.03  -0.02   0.01     0.02   0.03  -0.03
  79   1    -0.00  -0.01   0.01    -0.02  -0.02  -0.01     0.01   0.03  -0.02
  80   1    -0.00  -0.01   0.01    -0.01  -0.02  -0.01     0.00   0.03  -0.02
  81   1     0.00  -0.01  -0.00     0.00  -0.02  -0.01    -0.01   0.02  -0.00
  82   1     0.00  -0.00  -0.01     0.00  -0.01  -0.01    -0.01   0.01   0.01
  83   1    -0.00   0.00   0.00    -0.00   0.01  -0.01     0.02   0.02   0.00
                      7                      8                      9
                        a                      a                      a 
 Frequencies --    29.9099                35.8710                45.0878
 Red. masses --    11.7662                11.9591                11.1458
 Frc consts  --     0.0000                 0.0000                 0.0000
 IR Inten    --     0.1448                 0.9825                 0.8100
 Raman Activ --     0.0000                 0.0000                 0.0000
 Depolar     --     0.0000                 0.0000                 0.0000
 Atom AN      X      Y      Z        X      Y      Z        X      Y      Z
   1   9     0.01   0.06   0.08    -0.18   0.08  -0.02    -0.01   0.07   0.09
   2   6    -0.00   0.06   0.03    -0.08   0.04   0.02    -0.00   0.06   0.03
   3   9    -0.06   0.13   0.02    -0.20   0.07   0.00    -0.03   0.15   0.01
   4   9     0.00   0.08   0.10    -0.09  -0.06   0.14    -0.00   0.06   0.07
   5   6     0.02   0.02  -0.02     0.05   0.07  -0.02     0.02   0.03  -0.03
   6   6     0.03  -0.02  -0.01     0.16   0.10  -0.06     0.09   0.00  -0.04
   7   6     0.04  -0.05  -0.05     0.25   0.12  -0.09     0.11  -0.02  -0.08
   8   6     0.05  -0.03  -0.10     0.22   0.11  -0.08     0.05  -0.02  -0.10
   9   6     0.04   0.01  -0.11     0.11   0.09  -0.04    -0.02   0.01  -0.09
  10   7     0.06   0.03  -0.16     0.09   0.08  -0.03    -0.04   0.01  -0.11
  11   6     0.07   0.02  -0.17     0.05   0.09   0.01    -0.05  -0.03  -0.04
  12   6     0.06  -0.01  -0.16     0.05   0.08   0.03    -0.05  -0.05  -0.03
  13   6     0.04  -0.04  -0.12     0.04   0.08   0.02    -0.02   0.01  -0.08
  14   6     0.02  -0.11  -0.06     0.03   0.06   0.03    -0.01   0.04  -0.11
  15   6     0.01  -0.14  -0.03     0.04   0.04   0.04    -0.02   0.02  -0.08
  16   8    -0.02  -0.25   0.04     0.05   0.04   0.03    -0.01   0.08  -0.13
  17   6     0.01  -0.14   0.01     0.01  -0.00   0.03     0.01   0.08  -0.11
  18   6     0.01  -0.06   0.06     0.00  -0.05   0.00     0.04   0.10  -0.09
  19   6    -0.08  -0.04   0.15     0.00  -0.04  -0.06     0.05   0.09  -0.06
  20   6    -0.06  -0.02   0.16    -0.06  -0.07  -0.05     0.05   0.12  -0.04
  21   7    -0.06  -0.02   0.13    -0.07  -0.10  -0.01     0.05   0.10  -0.04
  22   6    -0.03  -0.02   0.09    -0.07  -0.04  -0.04     0.05  -0.01   0.04
  23   6    -0.00  -0.07   0.13    -0.09  -0.00  -0.07     0.06  -0.02   0.05
  24   6     0.02  -0.06   0.09    -0.10   0.06  -0.10     0.05  -0.16   0.15
  25   6     0.01   0.00  -0.01    -0.09   0.08  -0.10     0.04  -0.27   0.22
  26   6    -0.02   0.06  -0.05    -0.07   0.04  -0.06     0.03  -0.24   0.20
  27   6    -0.04   0.04  -0.00    -0.06  -0.02  -0.03     0.03  -0.11   0.11
  28   6    -0.07   0.08  -0.03    -0.05  -0.07   0.01     0.02  -0.08   0.09
  29   6    -0.09   0.16  -0.12    -0.03  -0.09   0.03     0.01  -0.17   0.15
  30   6    -0.12   0.19  -0.12    -0.02  -0.16   0.08     0.00  -0.13   0.12
  31   6    -0.13   0.14  -0.04    -0.02  -0.21   0.10     0.01  -0.00   0.03
  32   6    -0.11   0.07   0.05    -0.04  -0.18   0.06     0.03   0.08  -0.03
  33   6    -0.08   0.04   0.05    -0.05  -0.12   0.02     0.03   0.04   0.00
  34   6     0.03  -0.09  -0.08     0.04   0.04   0.06    -0.06  -0.07  -0.01
  35   6     0.06  -0.02  -0.14     0.04   0.05   0.05    -0.07  -0.10   0.02
  36   7     0.09   0.02  -0.17     0.02   0.08   0.02    -0.05  -0.05   0.00
  37   6     0.07   0.02  -0.11     0.02   0.05  -0.00    -0.03  -0.02  -0.02
  38   6     0.05   0.01  -0.03    -0.01   0.02  -0.01    -0.01  -0.00  -0.00
  39   6     0.07   0.00  -0.03    -0.04   0.05  -0.05     0.01  -0.00  -0.02
  40   6     0.05  -0.02   0.06    -0.08   0.03  -0.08     0.04   0.01  -0.04
  41   6     0.00  -0.03   0.16    -0.08  -0.02  -0.08     0.04   0.04  -0.05
  42   6    -0.01  -0.02   0.16    -0.05  -0.05  -0.03     0.01   0.04  -0.02
  43   6     0.02  -0.01   0.07    -0.02  -0.03   0.01    -0.02   0.02   0.01
  44   6     0.01  -0.00   0.07     0.01  -0.05   0.05    -0.05   0.02   0.04
  45   6    -0.02  -0.02   0.17    -0.01  -0.12   0.16    -0.09   0.01   0.20
  46   6    -0.02  -0.02   0.17     0.03  -0.15   0.17    -0.11   0.02   0.18
  47   6     0.01   0.00   0.05     0.11  -0.09   0.05    -0.07   0.05  -0.02
  48   6     0.03   0.02  -0.05     0.13  -0.02  -0.04    -0.04   0.05  -0.15
  49   6     0.03   0.02  -0.04     0.07  -0.01  -0.02    -0.03   0.03  -0.08
  50   6     0.05   0.02  -0.10     0.06   0.05  -0.03    -0.03   0.02  -0.09
  51   6     0.02   0.04  -0.07     0.03   0.07  -0.02    -0.04   0.03  -0.05
  52   1     0.01  -0.01   0.01     0.05   0.03  -0.02     0.04   0.00  -0.01
  53   1     0.01  -0.02  -0.01     0.10   0.04  -0.03     0.05  -0.01  -0.02
  54   1     0.02  -0.02  -0.04     0.08   0.04  -0.03     0.02  -0.01  -0.04
  55   1     0.02  -0.01  -0.04     0.01   0.03   0.00    -0.00   0.01  -0.03
  56   1     0.00  -0.04  -0.01     0.01   0.02   0.01     0.00   0.03  -0.05
  57   1     0.00  -0.05   0.01     0.01   0.00   0.00    -0.00   0.02  -0.02
  58   1     0.01  -0.04  -0.02    -0.00  -0.00   0.02     0.00   0.03  -0.04
  59   1     0.01  -0.02   0.01     0.00  -0.02  -0.00     0.02   0.03  -0.03
  60   1     0.02   0.00   0.01    -0.00  -0.02   0.01     0.01   0.03  -0.02
  61   1    -0.02   0.00   0.06     0.00  -0.01  -0.03     0.02   0.03  -0.02
  62   1    -0.04  -0.03   0.04     0.01  -0.01  -0.01     0.02   0.02  -0.02
  63   1    -0.01   0.00   0.05    -0.03  -0.02  -0.02     0.02   0.04  -0.02
  64   1    -0.02  -0.00   0.06    -0.02  -0.02  -0.03     0.01   0.04  -0.01
  65   1     0.00  -0.03   0.06    -0.03  -0.01  -0.02     0.02   0.02  -0.00
  66   1     0.01  -0.03   0.04    -0.03   0.03  -0.04     0.02  -0.05   0.05
  67   1     0.01   0.00  -0.01    -0.03   0.04  -0.03     0.01  -0.11   0.09
  68   1    -0.01   0.03  -0.04    -0.02   0.02  -0.02     0.01  -0.09   0.07
  69   1    -0.03   0.05  -0.05    -0.01  -0.01   0.01     0.00  -0.08   0.06
  70   1    -0.04   0.07  -0.06    -0.00  -0.05   0.03    -0.00  -0.06   0.05
  71   1    -0.04   0.05  -0.01    -0.00  -0.08   0.04     0.00   0.01   0.00
  72   1    -0.03   0.01   0.03    -0.01  -0.06   0.02     0.01   0.05  -0.03
  73   1     0.01  -0.03  -0.02     0.01   0.00   0.02    -0.02  -0.03   0.01
  74   1     0.02   0.01  -0.05     0.01   0.01   0.02    -0.03  -0.05   0.02
  75   1     0.03   0.00  -0.03    -0.01   0.03  -0.02     0.00  -0.01  -0.01
  76   1     0.02  -0.01   0.02    -0.03   0.02  -0.03     0.02   0.00  -0.02
  77   1    -0.01  -0.01   0.07    -0.03  -0.01  -0.03     0.02   0.02  -0.02
  78   1    -0.01  -0.01   0.07    -0.01  -0.03  -0.01     0.01   0.02  -0.01
  79   1    -0.01  -0.01   0.07    -0.02  -0.05   0.07    -0.03  -0.00   0.10
  80   1    -0.01  -0.01   0.07     0.00  -0.06   0.08    -0.04   0.00   0.09
  81   1     0.00   0.00   0.01     0.04  -0.03   0.01    -0.02   0.02  -0.02
  82   1     0.02   0.01  -0.04     0.05   0.00  -0.04    -0.00   0.02  -0.09
  83   1     0.00   0.02  -0.02    -0.01   0.01   0.00    -0.03   0.02  -0.01
                     10                     11                     12
                        a                      a                      a 
 Frequencies --    52.3168                56.3473                69.4704
 Red. masses --    11.5276                11.0208                10.9686
 Frc consts  --     0.0000                 0.0000                 0.0000
 IR Inten    --     0.4812                 0.6988                 3.5169
 Raman Activ --     0.0000                 0.0000                 0.0000
 Depolar     --     0.0000                 0.0000                 0.0000
 Atom AN      X      Y      Z        X      Y      Z        X      Y      Z
   1   9    -0.06   0.02  -0.06    -0.06   0.04  -0.04    -0.02  -0.02   0.01
   2   6    -0.00  -0.01   0.01    -0.04   0.03  -0.02    -0.00  -0.02   0.01
   3   9    -0.04  -0.06   0.01    -0.04   0.01  -0.01    -0.02  -0.02   0.01
   4   9    -0.00  -0.08   0.06    -0.05   0.03  -0.03    -0.00  -0.05   0.03
   5   6     0.06   0.04   0.02    -0.04   0.05   0.01     0.02  -0.02   0.00
   6   6     0.17   0.10  -0.03    -0.17   0.05   0.04     0.03  -0.02  -0.00
   7   6     0.20   0.12  -0.01    -0.18   0.06   0.07     0.03  -0.02  -0.00
   8   6     0.12   0.09   0.04    -0.08   0.07   0.06     0.00  -0.02   0.00
   9   6     0.02   0.04   0.08     0.04   0.07   0.04    -0.01  -0.02   0.00
  10   7    -0.02   0.02   0.13     0.06   0.07   0.04    -0.04  -0.03   0.02
  11   6    -0.04   0.02   0.15     0.06   0.11  -0.02    -0.04  -0.04   0.05
  12   6    -0.03   0.01   0.08     0.07   0.11  -0.05    -0.01   0.03  -0.05
  13   6    -0.09   0.04  -0.02     0.03   0.11  -0.10     0.01   0.06  -0.08
  14   6    -0.10  -0.04  -0.08     0.03   0.07  -0.15     0.03   0.12  -0.13
  15   6    -0.04  -0.16  -0.04     0.06   0.01  -0.13     0.04   0.14  -0.16
  16   8    -0.06  -0.31  -0.08     0.06  -0.06  -0.16     0.04   0.18  -0.16
  17   6    -0.10  -0.19  -0.19     0.03  -0.06  -0.16     0.03   0.02  -0.02
  18   6    -0.12  -0.04  -0.11     0.09  -0.01  -0.12     0.20  -0.08  -0.04
  19   6    -0.09  -0.07   0.03     0.06  -0.01  -0.04     0.16  -0.06  -0.04
  20   6     0.03   0.01   0.06     0.00   0.05   0.04    -0.00  -0.02   0.06
  21   7     0.04   0.09  -0.02    -0.01  -0.01   0.08    -0.02  -0.14   0.17
  22   6     0.05   0.05  -0.00     0.01  -0.04   0.08    -0.01  -0.07   0.09
  23   6     0.07   0.04   0.00     0.03  -0.07   0.11     0.01  -0.12   0.13
  24   6     0.08   0.00   0.01     0.04  -0.14   0.13     0.02  -0.06   0.06
  25   6     0.07  -0.03   0.01     0.03  -0.16   0.12     0.02   0.05  -0.05
  26   6     0.05  -0.02   0.00     0.01  -0.11   0.08     0.01   0.09  -0.08
  27   6     0.04   0.02  -0.01    -0.00  -0.06   0.07    -0.00   0.02  -0.01
  28   6     0.03   0.06  -0.03    -0.03  -0.04   0.06    -0.02   0.03  -0.01
  29   6     0.01   0.07  -0.06    -0.05  -0.05   0.05    -0.03   0.13  -0.10
  30   6    -0.00   0.13  -0.10    -0.07  -0.06   0.07    -0.05   0.10  -0.07
  31   6    -0.00   0.17  -0.11    -0.07  -0.05   0.09    -0.06  -0.03   0.06
  32   6     0.01   0.15  -0.07    -0.05  -0.03   0.09    -0.05  -0.12   0.14
  33   6     0.03   0.09  -0.04    -0.03  -0.02   0.07    -0.03  -0.07   0.10
  34   6     0.03  -0.16   0.04     0.11   0.01  -0.09     0.04   0.16  -0.17
  35   6     0.04  -0.07   0.09     0.11   0.06  -0.06     0.02   0.10  -0.12
  36   7    -0.07   0.00   0.19     0.05   0.13  -0.06    -0.08  -0.09   0.15
  37   6    -0.05  -0.00   0.15     0.03   0.08  -0.03    -0.07  -0.08   0.15
  38   6    -0.06  -0.00   0.09    -0.02   0.04  -0.04    -0.05  -0.06   0.14
  39   6    -0.10   0.01   0.08    -0.08   0.06  -0.03    -0.06  -0.09   0.21
  40   6    -0.08   0.03  -0.05    -0.14   0.02   0.00     0.01  -0.04   0.07
  41   6    -0.02   0.03  -0.18    -0.15  -0.04   0.03     0.11   0.04  -0.17
  42   6     0.00   0.01  -0.16    -0.09  -0.06   0.01     0.11   0.06  -0.21
  43   6    -0.02  -0.01  -0.01    -0.02  -0.01  -0.04     0.01   0.00  -0.01
  44   6    -0.01  -0.02   0.01     0.03  -0.02  -0.06    -0.02   0.01   0.01
  45   6    -0.00  -0.04  -0.01     0.08  -0.05  -0.21    -0.04   0.03   0.08
  46   6     0.03  -0.05  -0.01     0.12  -0.08  -0.16    -0.07   0.05   0.06
  47   6     0.05  -0.03  -0.01     0.10  -0.10   0.09    -0.06   0.05  -0.04
  48   6     0.04  -0.02   0.02     0.06  -0.07   0.21    -0.05   0.02  -0.08
  49   6     0.00  -0.01   0.05     0.04  -0.02   0.08    -0.04  -0.01  -0.01
  50   6    -0.02   0.01   0.11     0.04   0.04   0.04    -0.05  -0.04   0.05
  51   6    -0.01   0.01   0.08     0.07   0.06   0.00    -0.00  -0.02   0.00
  52   1     0.07   0.03  -0.02    -0.07   0.01   0.01     0.01  -0.00  -0.00
  53   1     0.08   0.05  -0.01    -0.08   0.02   0.03     0.01  -0.01  -0.00
  54   1     0.04   0.03   0.02    -0.03   0.02   0.03     0.00  -0.01  -0.00
  55   1    -0.04   0.04  -0.02    -0.00   0.04  -0.03    -0.00   0.01  -0.01
  56   1    -0.04  -0.00  -0.04    -0.00   0.02  -0.05     0.01   0.04  -0.04
  57   1    -0.02  -0.08  -0.07     0.01  -0.04  -0.04    -0.01  -0.01   0.02
  58   1    -0.04  -0.05  -0.09    -0.00  -0.01  -0.06    -0.01   0.01   0.00
  59   1    -0.04   0.01  -0.02     0.03  -0.00  -0.05     0.07  -0.03  -0.05
  60   1    -0.04   0.01  -0.06     0.03   0.00  -0.03     0.08  -0.03   0.02
  61   1    -0.03  -0.03   0.03     0.02   0.00  -0.02     0.05  -0.00  -0.05
  62   1    -0.05  -0.03   0.01     0.03  -0.02  -0.00     0.07  -0.03   0.00
  63   1     0.02   0.02   0.01     0.00   0.04   0.00    -0.01   0.02   0.00
  64   1     0.02  -0.01   0.04    -0.01   0.02   0.03    -0.02   0.00   0.02
  65   1     0.02   0.02   0.00     0.01  -0.02   0.03     0.00  -0.06   0.06
  66   1     0.03  -0.00   0.00     0.02  -0.05   0.05     0.01  -0.03   0.03
  67   1     0.02  -0.02   0.01     0.01  -0.06   0.04     0.01   0.03  -0.03
  68   1     0.01  -0.01   0.00    -0.00  -0.04   0.02     0.00   0.05  -0.05
  69   1     0.00   0.01  -0.01    -0.01  -0.02   0.01    -0.01   0.07  -0.06
  70   1    -0.00   0.04  -0.04    -0.03  -0.02   0.02    -0.01   0.05  -0.04
  71   1    -0.00   0.06  -0.04    -0.03  -0.02   0.03    -0.02  -0.02   0.03
  72   1     0.00   0.05  -0.02    -0.02  -0.01   0.03    -0.02  -0.06   0.07
  73   1     0.02  -0.07   0.02     0.04  -0.01  -0.02     0.02   0.06  -0.06
  74   1     0.03  -0.02   0.04     0.04   0.02  -0.01     0.01   0.03  -0.04
  75   1    -0.04   0.01   0.05    -0.02   0.03  -0.01    -0.03  -0.04   0.10
  76   1    -0.03   0.01  -0.02    -0.05   0.01   0.01     0.00  -0.02   0.03
  77   1     0.00   0.01  -0.08    -0.06  -0.02   0.02     0.05   0.03  -0.09
  78   1     0.01   0.00  -0.08    -0.03  -0.03   0.01     0.05   0.04  -0.12
  79   1    -0.00  -0.02  -0.00     0.02  -0.01  -0.11    -0.01   0.01   0.05
  80   1     0.01  -0.02  -0.01     0.04  -0.03  -0.08    -0.02   0.02   0.03
  81   1     0.02  -0.01  -0.01     0.03  -0.04   0.05    -0.02   0.02  -0.03
  82   1     0.01  -0.00   0.01     0.01  -0.02   0.12    -0.02   0.00  -0.04
  83   1    -0.03  -0.01   0.03     0.05   0.02  -0.01    -0.00  -0.01   0.00
                     13                     14                     15
                        a                      a                      a 
 Frequencies --    74.9337                92.5822                97.3287
 Red. masses --    11.2435                10.6987                10.6647
 Frc consts  --     0.0000                 0.0000                 0.0000
 IR Inten    --     1.8117                 3.3138                13.0883
 Raman Activ --     0.0000                 0.0000                 0.0000
 Depolar     --     0.0000                 0.0000                 0.0000
 Atom AN      X      Y      Z        X      Y      Z        X      Y      Z
   1   9     0.01   0.07   0.10    -0.05   0.02  -0.02    -0.09   0.05   0.01
   2   6    -0.03   0.09  -0.01     0.03  -0.01   0.01     0.01   0.02  -0.00
   3   9    -0.03   0.21  -0.03    -0.06   0.01  -0.01    -0.10   0.10  -0.04
   4   9    -0.04   0.16  -0.03     0.04  -0.14   0.13     0.02  -0.12   0.15
   5   6    -0.07   0.02  -0.05     0.13   0.01  -0.03     0.12   0.02  -0.07
   6   6    -0.24  -0.04   0.01     0.30   0.04  -0.09     0.11   0.01  -0.06
   7   6    -0.23  -0.04  -0.01     0.21   0.01  -0.07     0.02  -0.01  -0.03
   8   6    -0.07  -0.00  -0.08    -0.00  -0.03  -0.02    -0.06  -0.03  -0.01
   9   6     0.05   0.04  -0.12    -0.05  -0.03  -0.01     0.00  -0.01  -0.04
  10   7     0.10   0.05  -0.14    -0.06  -0.03  -0.01    -0.03  -0.03  -0.01
  11   6     0.04   0.00  -0.01    -0.01  -0.02  -0.09    -0.04  -0.04   0.01
  12   6     0.04  -0.00   0.01    -0.02  -0.02  -0.09    -0.04  -0.06   0.03
  13   6     0.06   0.04  -0.02    -0.02  -0.10   0.01     0.03   0.13  -0.15
  14   6     0.04   0.01   0.01    -0.03  -0.10   0.06     0.05   0.18  -0.19
  15   6     0.01  -0.05   0.08    -0.03  -0.01  -0.01    -0.02   0.02  -0.03
  16   8     0.01  -0.07   0.10    -0.04   0.00   0.03    -0.01   0.10  -0.05
  17   6     0.03  -0.00   0.05    -0.01   0.02   0.03     0.04   0.05   0.04
  18   6    -0.01   0.02   0.06    -0.06   0.02   0.03     0.21  -0.01   0.04
  19   6    -0.04   0.03   0.05    -0.05   0.02   0.02     0.11   0.04   0.02
  20   6    -0.00  -0.02  -0.02     0.00   0.01  -0.01    -0.00  -0.02   0.01
  21   7     0.00   0.01  -0.05     0.01   0.05  -0.04    -0.02  -0.12   0.07
  22   6    -0.01   0.01  -0.03     0.00   0.03  -0.03    -0.02  -0.08   0.05
  23   6    -0.02   0.03  -0.05     0.00   0.02  -0.02    -0.03  -0.04   0.01
  24   6    -0.03   0.04  -0.05    -0.00  -0.02   0.02    -0.03   0.07  -0.06
  25   6    -0.02   0.03  -0.02    -0.00  -0.04   0.03    -0.02   0.11  -0.08
  26   6    -0.01   0.00   0.00    -0.00  -0.02   0.02    -0.02   0.04  -0.02
  27   6    -0.00  -0.01  -0.01     0.00   0.02  -0.01    -0.02  -0.06   0.05
  28   6     0.01  -0.01  -0.00     0.00   0.01  -0.01    -0.01  -0.07   0.05
  29   6     0.02  -0.03   0.02     0.00  -0.02   0.02     0.00  -0.01   0.00
  30   6     0.04  -0.01  -0.01     0.00  -0.06   0.05     0.02   0.10  -0.09
  31   6     0.04   0.03  -0.06     0.00  -0.06   0.05     0.02   0.13  -0.13
  32   6     0.03   0.04  -0.08     0.00  -0.01   0.01     0.01   0.03  -0.05
  33   6     0.01   0.01  -0.04     0.00   0.02  -0.02    -0.01  -0.06   0.03
  34   6    -0.01  -0.11   0.13    -0.02   0.08  -0.12    -0.12  -0.22   0.20
  35   6    -0.00  -0.08   0.10    -0.01   0.07  -0.16    -0.13  -0.25   0.22
  36   7    -0.00  -0.04   0.09     0.03   0.01  -0.14    -0.01  -0.04   0.01
  37   6     0.01  -0.03   0.05     0.02   0.02  -0.10    -0.01  -0.01  -0.01
  38   6    -0.02  -0.05   0.09     0.01   0.02  -0.05     0.02   0.00  -0.03
  39   6    -0.13  -0.10   0.29    -0.04  -0.05   0.15     0.06   0.01  -0.08
  40   6    -0.12  -0.10   0.22    -0.05  -0.06   0.23     0.07   0.01  -0.05
  41   6     0.02  -0.02  -0.12     0.02   0.02   0.07     0.02  -0.00   0.06
  42   6     0.11   0.02  -0.29     0.07   0.08  -0.12    -0.02  -0.00   0.10
  43   6     0.06  -0.01  -0.12     0.05   0.07  -0.15    -0.00   0.00   0.01
  44   6     0.07  -0.02  -0.10     0.02   0.07  -0.14    -0.01   0.01  -0.00
  45   6     0.04  -0.05   0.01     0.04   0.10  -0.20     0.02   0.04  -0.14
  46   6     0.02  -0.08   0.13    -0.03   0.05   0.04     0.01   0.03  -0.08
  47   6     0.03  -0.07   0.13    -0.12  -0.02   0.34    -0.05  -0.02   0.12
  48   6     0.06  -0.04   0.02    -0.11  -0.03   0.29    -0.07  -0.04   0.19
  49   6     0.07  -0.01  -0.08    -0.04   0.01   0.04    -0.04  -0.02   0.08
  50   6     0.07   0.02  -0.08    -0.02   0.00  -0.03    -0.03  -0.02   0.02
  51   6     0.07   0.06  -0.12    -0.03  -0.02  -0.00     0.09   0.02  -0.07
  52   1    -0.11  -0.02   0.02     0.13   0.02  -0.04     0.04   0.01  -0.02
  53   1    -0.10  -0.02   0.01     0.08   0.00  -0.03    -0.00  -0.01  -0.01
  54   1    -0.02  -0.00  -0.03    -0.03  -0.02   0.00    -0.05  -0.02   0.01
  55   1     0.02   0.03  -0.02    -0.00  -0.05   0.01     0.02   0.07  -0.07
  56   1     0.02   0.01  -0.00    -0.01  -0.05   0.04     0.03   0.10  -0.10
  57   1     0.01   0.01   0.01    -0.00   0.02   0.01    -0.00   0.01   0.04
  58   1     0.02  -0.00   0.01     0.01   0.00   0.01     0.00   0.02   0.01
  59   1    -0.01   0.00   0.02    -0.02   0.01   0.02     0.08  -0.02  -0.04
  60   1    -0.00   0.01   0.01    -0.03   0.01  -0.00     0.10  -0.01   0.05
  61   1    -0.01   0.01   0.03    -0.01  -0.00   0.01     0.03   0.04  -0.00
  62   1    -0.03   0.02   0.00    -0.02   0.01   0.00     0.03   0.01   0.01
  63   1     0.00  -0.02   0.00     0.00  -0.00   0.00    -0.01  -0.01   0.00
  64   1     0.00  -0.01  -0.02     0.01  -0.00  -0.00    -0.02   0.00  -0.01
  65   1    -0.01   0.01  -0.02     0.00   0.01  -0.01    -0.01  -0.02   0.00
  66   1    -0.01   0.02  -0.02    -0.00  -0.01   0.01    -0.01   0.04  -0.03
  67   1    -0.01   0.01  -0.00    -0.00  -0.02   0.02    -0.01   0.06  -0.04
  68   1    -0.00  -0.00   0.01    -0.00  -0.01   0.01    -0.00   0.02  -0.01
  69   1     0.00  -0.01   0.02     0.00  -0.01   0.01    -0.00  -0.01   0.01
  70   1     0.01  -0.00   0.00    -0.00  -0.03   0.02     0.01   0.05  -0.04
  71   1     0.02   0.02  -0.03     0.00  -0.03   0.02     0.01   0.06  -0.06
  72   1     0.01   0.02  -0.03     0.00  -0.00  -0.00     0.00   0.01  -0.02
  73   1    -0.01  -0.05   0.05    -0.00   0.05  -0.05    -0.05  -0.11   0.10
  74   1    -0.01  -0.04   0.04    -0.00   0.04  -0.07    -0.06  -0.12   0.11
  75   1    -0.06  -0.04   0.14    -0.02  -0.03   0.07     0.02   0.00  -0.04
  76   1    -0.06  -0.04   0.11    -0.03  -0.03   0.12     0.03   0.01  -0.03
  77   1     0.02   0.00  -0.07     0.01   0.01   0.03     0.00  -0.00   0.04
  78   1     0.07   0.02  -0.16     0.03   0.04  -0.06    -0.02  -0.00   0.06
  79   1     0.01  -0.02   0.01     0.03   0.05  -0.12     0.02   0.02  -0.08
  80   1    -0.00  -0.03   0.06    -0.01   0.02   0.01     0.01   0.01  -0.05
  81   1     0.01  -0.03   0.07    -0.06  -0.02   0.17    -0.02  -0.01   0.06
  82   1     0.02  -0.01   0.01    -0.04  -0.01   0.14    -0.03  -0.02   0.09
  83   1     0.05   0.03  -0.05    -0.04  -0.01   0.01     0.03   0.01  -0.02
                     16                     17                     18
                        a                      a                      a 
 Frequencies --   107.2237               108.4781               111.0127
 Red. masses --    11.8021                11.7440                10.9301
 Frc consts  --     0.0000                 0.0000                 0.0000
 IR Inten    --     2.5078                 4.0359                 2.8906
 Raman Activ --     0.0000                 0.0000                 0.0000
 Depolar     --     0.0000                 0.0000                 0.0000
 Atom AN      X      Y      Z        X      Y      Z        X      Y      Z
   1   9     0.03  -0.09  -0.10    -0.03  -0.07  -0.14    -0.04  -0.01  -0.10
   2   6     0.01  -0.08   0.02     0.04  -0.10   0.02     0.03  -0.05   0.01
   3   9     0.10  -0.28   0.07     0.04  -0.28   0.05     0.00  -0.15   0.02
   4   9     0.01  -0.05  -0.08     0.04  -0.20   0.03     0.04  -0.17   0.07
   5   6    -0.04  -0.02   0.11     0.07  -0.01   0.08     0.09   0.01   0.04
   6   6    -0.02  -0.02   0.10    -0.01  -0.04   0.11     0.01  -0.01   0.06
   7   6     0.03  -0.02   0.07    -0.03  -0.05   0.10    -0.04  -0.03   0.07
   8   6     0.06  -0.02   0.06     0.01  -0.04   0.08    -0.02  -0.02   0.06
   9   6     0.01  -0.01   0.07     0.06  -0.01   0.06     0.05   0.00   0.04
  10   7     0.02   0.02  -0.01     0.02   0.02  -0.01     0.01   0.02   0.01
  11   6    -0.01   0.04   0.01    -0.00   0.05  -0.02     0.03   0.06  -0.08
  12   6    -0.02   0.01   0.06    -0.00   0.05  -0.01     0.05   0.12  -0.17
  13   6    -0.04   0.01   0.06     0.02   0.17  -0.13     0.05   0.13  -0.19
  14   6    -0.02   0.03   0.01     0.01   0.14  -0.13     0.03   0.08  -0.14
  15   6    -0.00   0.03  -0.01    -0.03  -0.00   0.01     0.01   0.02  -0.07
  16   8     0.02   0.08  -0.08    -0.05  -0.04   0.03    -0.06  -0.13   0.10
  17   6    -0.03  -0.02  -0.05    -0.02   0.02   0.00     0.02  -0.06   0.13
  18   6     0.02  -0.07  -0.07     0.00   0.07   0.03     0.12  -0.01   0.17
  19   6     0.10  -0.10  -0.09    -0.07   0.09   0.06    -0.13   0.08   0.24
  20   6    -0.00  -0.02   0.02     0.01   0.03  -0.02    -0.02  -0.06   0.06
  21   7    -0.01  -0.09   0.12     0.01   0.08  -0.10    -0.01  -0.01  -0.05
  22   6    -0.00  -0.07   0.09     0.00   0.06  -0.08    -0.03  -0.02  -0.02
  23   6     0.02   0.08  -0.03    -0.03  -0.13   0.08    -0.05   0.09  -0.12
  24   6     0.04   0.16  -0.11    -0.04  -0.21   0.15    -0.06   0.12  -0.11
  25   6     0.03   0.06  -0.05    -0.02  -0.05   0.04    -0.06   0.01   0.00
  26   6    -0.00  -0.09   0.08     0.01   0.14  -0.12    -0.04  -0.11   0.10
  27   6    -0.01  -0.14   0.13     0.02   0.16  -0.15    -0.03  -0.11   0.07
  28   6    -0.02  -0.13   0.13     0.03   0.16  -0.15    -0.01  -0.12   0.08
  29   6    -0.03  -0.05   0.05     0.03   0.09  -0.08     0.00  -0.17   0.14
  30   6    -0.03   0.12  -0.08     0.03  -0.09   0.06     0.03  -0.08   0.05
  31   6    -0.03   0.17  -0.12     0.03  -0.17   0.11     0.04   0.07  -0.10
  32   6    -0.02   0.06  -0.01     0.02  -0.07   0.02     0.03   0.09  -0.14
  33   6    -0.02  -0.08   0.10     0.02   0.08  -0.10    -0.00  -0.02  -0.03
  34   6    -0.01  -0.00   0.04    -0.07  -0.13   0.14     0.04   0.09  -0.15
  35   6    -0.02  -0.01   0.07    -0.06  -0.08   0.12     0.06   0.15  -0.20
  36   7     0.01   0.08  -0.10    -0.01   0.06  -0.06     0.00   0.04  -0.04
  37   6     0.04   0.09  -0.18     0.01   0.04  -0.09    -0.04  -0.01   0.06
  38   6     0.03   0.08  -0.15     0.00   0.04  -0.07    -0.04  -0.01   0.08
  39   6    -0.05   0.04   0.00    -0.02   0.02   0.01    -0.03  -0.01   0.06
  40   6    -0.13  -0.02   0.16    -0.06  -0.00   0.09     0.01   0.02  -0.02
  41   6    -0.11  -0.00   0.11    -0.04   0.01   0.05     0.03   0.03  -0.08
  42   6    -0.02   0.04  -0.07    -0.01   0.04  -0.04     0.01   0.02  -0.03
  43   6     0.03   0.07  -0.16     0.01   0.05  -0.07    -0.03  -0.00   0.06
  44   6     0.04   0.06  -0.14     0.01   0.04  -0.06    -0.03  -0.00   0.06
  45   6    -0.01   0.02   0.06    -0.02   0.03   0.06    -0.03   0.02   0.06
  46   6    -0.05  -0.01   0.19    -0.05   0.03   0.10    -0.02   0.04  -0.03
  47   6    -0.01   0.02   0.08    -0.02   0.04   0.00    -0.01   0.05  -0.11
  48   6     0.04   0.07  -0.12     0.00   0.05  -0.10    -0.03   0.02  -0.05
  49   6     0.05   0.07  -0.17     0.02   0.04  -0.10    -0.03  -0.00   0.04
  50   6     0.05   0.07  -0.16     0.02   0.03  -0.08    -0.03  -0.02   0.06
  51   6    -0.04  -0.02   0.11     0.12   0.01   0.06     0.13   0.03   0.02
  52   1    -0.01  -0.01   0.03    -0.02  -0.01   0.04    -0.01  -0.00   0.02
  53   1     0.02  -0.01   0.02    -0.02  -0.02   0.04    -0.03  -0.01   0.03
  54   1     0.04  -0.00   0.01     0.00  -0.02   0.02    -0.02  -0.01   0.02
  55   1    -0.01   0.00   0.02     0.01   0.08  -0.06     0.02   0.04  -0.06
  56   1    -0.01   0.01  -0.00     0.01   0.07  -0.06     0.01   0.02  -0.03
  57   1    -0.01  -0.02  -0.02    -0.01   0.00   0.00    -0.01  -0.02   0.06
  58   1    -0.03   0.00  -0.01    -0.00   0.01  -0.02     0.02  -0.02   0.02
  59   1     0.01  -0.01  -0.02     0.01   0.01  -0.00     0.05  -0.04   0.00
  60   1    -0.01  -0.04  -0.02     0.02   0.03   0.01     0.09   0.03   0.08
  61   1     0.03  -0.04  -0.07    -0.02   0.04   0.05    -0.04   0.07   0.15
  62   1     0.07  -0.04  -0.01    -0.05   0.03   0.00    -0.12   0.03   0.04
  63   1    -0.01   0.02  -0.01     0.01  -0.01   0.00     0.01  -0.06   0.04
  64   1    -0.01  -0.00   0.02     0.01   0.01  -0.02     0.00  -0.02  -0.01
  65   1     0.01   0.04  -0.02    -0.01  -0.07   0.04    -0.01   0.05  -0.06
  66   1     0.02   0.09  -0.07    -0.02  -0.11   0.09    -0.02   0.07  -0.06
  67   1     0.01   0.04  -0.03    -0.01  -0.03   0.02    -0.02   0.01   0.00
  68   1    -0.00  -0.04   0.03     0.01   0.07  -0.05    -0.01  -0.05   0.05
  69   1    -0.01  -0.03   0.02     0.01   0.04  -0.03    -0.00  -0.07   0.07
  70   1    -0.01   0.06  -0.05     0.01  -0.05   0.04     0.01  -0.03   0.03
  71   1    -0.01   0.09  -0.07     0.01  -0.09   0.07     0.02   0.05  -0.05
  72   1    -0.01   0.03  -0.01     0.01  -0.04   0.01     0.01   0.06  -0.07
  73   1     0.00  -0.00   0.01    -0.03  -0.07   0.07     0.01   0.02  -0.04
  74   1    -0.00  -0.01   0.03    -0.02  -0.05   0.06     0.02   0.05  -0.07
  75   1    -0.02   0.01   0.01    -0.01   0.00   0.01    -0.01  -0.00   0.02
  76   1    -0.06  -0.02   0.09    -0.02  -0.01   0.05     0.01   0.01  -0.01
  77   1    -0.05  -0.01   0.06    -0.02   0.00   0.03     0.02   0.02  -0.04
  78   1     0.00   0.01  -0.04     0.00   0.01  -0.02     0.01   0.01  -0.02
  79   1    -0.01   0.00   0.04    -0.01   0.01   0.04    -0.01   0.00   0.03
  80   1    -0.03  -0.01   0.11    -0.02   0.00   0.06    -0.01   0.02  -0.02
  81   1    -0.01   0.00   0.04    -0.01   0.01   0.00    -0.00   0.02  -0.06
  82   1     0.02   0.02  -0.06     0.00   0.02  -0.05    -0.01   0.00  -0.03
  83   1    -0.02  -0.01   0.03     0.05   0.01   0.01     0.05   0.01   0.00
                     19                     20                     21
                        a                      a                      a 
 Frequencies --   131.8287               146.3541               150.3117
 Red. masses --    11.3969                 9.8118                10.9498
 Frc consts  --     0.0000                 0.0000                 0.0000
 IR Inten    --     4.0510                 1.7146                 2.1800
 Raman Activ --     0.0000                 0.0000                 0.0000
 Depolar     --     0.0000                 0.0000                 0.0000
 Atom AN      X      Y      Z        X      Y      Z        X      Y      Z
   1   9    -0.06   0.06  -0.07     0.02  -0.03   0.04     0.05  -0.08   0.11
   2   6     0.09  -0.01  -0.03    -0.03  -0.01   0.00    -0.04  -0.02  -0.00
   3   9    -0.08   0.07  -0.08     0.01  -0.00   0.01    -0.01   0.05  -0.01
   4   9     0.12  -0.27   0.23    -0.03   0.06  -0.05    -0.04   0.09  -0.06
   5   6     0.23   0.02  -0.09    -0.06  -0.02   0.01    -0.08  -0.07  -0.02
   6   6     0.01  -0.04  -0.01    -0.03  -0.02  -0.00    -0.06  -0.05  -0.03
   7   6    -0.17  -0.08   0.04     0.04   0.00  -0.02     0.05  -0.01  -0.06
   8   6    -0.13  -0.07   0.02     0.05   0.01  -0.03     0.11   0.00  -0.06
   9   6     0.10   0.00  -0.06     0.00  -0.01  -0.01     0.04  -0.03  -0.03
  10   7     0.05  -0.00  -0.06     0.00  -0.01   0.00     0.03  -0.04   0.01
  11   6     0.01   0.03  -0.02    -0.03  -0.03   0.06    -0.05  -0.06   0.15
  12   6     0.02   0.10   0.01    -0.02   0.00   0.03    -0.03   0.06   0.09
  13   6     0.03   0.11   0.01    -0.01   0.07  -0.04    -0.04   0.16  -0.02
  14   6     0.00   0.08   0.09    -0.00   0.10  -0.09    -0.02   0.21  -0.10
  15   6    -0.02   0.08   0.10    -0.02   0.04  -0.04    -0.03   0.18  -0.08
  16   8    -0.02   0.04   0.06    -0.04  -0.00  -0.01    -0.07   0.06  -0.06
  17   6    -0.16  -0.03  -0.04    -0.03  -0.03   0.02    -0.19  -0.12  -0.02
  18   6    -0.33  -0.07  -0.10     0.08  -0.01   0.05    -0.07  -0.15  -0.01
  19   6    -0.02  -0.19  -0.17    -0.08   0.04   0.13    -0.16  -0.13   0.10
  20   6    -0.01  -0.03  -0.02    -0.01  -0.02   0.04    -0.01  -0.09   0.08
  21   7     0.01   0.03   0.03    -0.01   0.01  -0.04     0.01   0.06  -0.03
  22   6     0.02   0.04   0.01    -0.00   0.10  -0.11     0.01   0.02   0.01
  23   6     0.05   0.09  -0.03    -0.01   0.26  -0.24     0.00  -0.05   0.05
  24   6     0.06   0.03  -0.01    -0.03   0.10  -0.09     0.00  -0.03   0.04
  25   6     0.04  -0.07   0.06    -0.06  -0.23   0.19     0.01   0.05  -0.03
  26   6     0.01  -0.08   0.06    -0.04  -0.23   0.19     0.01   0.08  -0.05
  27   6     0.01  -0.01   0.03    -0.01   0.01  -0.02     0.01   0.04  -0.02
  28   6    -0.00   0.00   0.03     0.00   0.04  -0.05     0.00   0.03  -0.02
  29   6    -0.02   0.05  -0.03     0.04   0.24  -0.20    -0.02  -0.11   0.09
  30   6    -0.04   0.07  -0.04     0.05   0.19  -0.16    -0.04  -0.12   0.11
  31   6    -0.04   0.02   0.03     0.03  -0.13   0.08    -0.03   0.05  -0.02
  32   6    -0.03  -0.01   0.07     0.00  -0.26   0.17    -0.01   0.16  -0.10
  33   6    -0.00  -0.00   0.05    -0.01  -0.08   0.03     0.00   0.09  -0.06
  34   6    -0.01   0.11   0.07    -0.01   0.02  -0.00     0.02   0.20  -0.07
  35   6    -0.01   0.11   0.03    -0.02   0.01   0.03    -0.02   0.13   0.03
  36   7    -0.03  -0.00   0.01    -0.04  -0.04   0.09    -0.09  -0.09   0.19
  37   6    -0.02  -0.04  -0.00     0.00  -0.01  -0.00    -0.00  -0.05  -0.01
  38   6    -0.00  -0.03   0.01     0.02  -0.00  -0.03     0.05  -0.02  -0.08
  39   6     0.05  -0.04  -0.01     0.05  -0.01  -0.04     0.14  -0.05  -0.09
  40   6     0.08  -0.02  -0.01     0.05  -0.01  -0.00     0.15  -0.04   0.01
  41   6     0.06  -0.00   0.01     0.02  -0.01   0.06     0.09  -0.04   0.14
  42   6     0.02   0.00   0.04     0.01  -0.00   0.04     0.05  -0.00   0.09
  43   6    -0.00  -0.01   0.03     0.02   0.00  -0.03     0.05   0.00  -0.07
  44   6     0.00  -0.01   0.02     0.02   0.01  -0.05     0.06   0.01  -0.11
  45   6    -0.01   0.01   0.03     0.03  -0.00  -0.05     0.06  -0.01  -0.09
  46   6    -0.02   0.03  -0.01     0.02  -0.02   0.03     0.03  -0.05   0.07
  47   6    -0.03   0.03  -0.05     0.01  -0.03   0.07     0.01  -0.07   0.15
  48   6    -0.03  -0.00  -0.04     0.02  -0.01   0.01     0.05  -0.03   0.01
  49   6    -0.00  -0.02  -0.02     0.02   0.00  -0.04     0.05  -0.01  -0.10
  50   6     0.01  -0.03  -0.03     0.02   0.00  -0.03     0.05  -0.02  -0.08
  51   6     0.30   0.04  -0.13    -0.04  -0.02   0.00    -0.03  -0.06  -0.03
  52   1    -0.02  -0.02   0.00    -0.01  -0.01  -0.00    -0.03  -0.02  -0.01
  53   1    -0.11  -0.04   0.03     0.02   0.00  -0.01     0.03   0.01  -0.02
  54   1    -0.08  -0.03   0.02     0.03   0.01  -0.01     0.05   0.01  -0.02
  55   1     0.02   0.04  -0.01    -0.01   0.03  -0.01    -0.02   0.05  -0.00
  56   1    -0.00   0.01   0.04     0.00   0.04  -0.04    -0.01   0.07  -0.04
  57   1    -0.02  -0.01  -0.05    -0.02  -0.02   0.02    -0.06  -0.08  -0.01
  58   1    -0.06  -0.01   0.02    -0.02  -0.00  -0.00    -0.10  -0.02  -0.00
  59   1    -0.12   0.03   0.03     0.04  -0.03  -0.03     0.00  -0.05  -0.04
  60   1    -0.17  -0.05  -0.07     0.06   0.01   0.04     0.01  -0.04   0.02
  61   1    -0.01  -0.12  -0.11    -0.02   0.04   0.09    -0.05  -0.03   0.08
  62   1     0.07  -0.05  -0.02    -0.08   0.00   0.02    -0.09  -0.05   0.02
  63   1    -0.01   0.03  -0.03     0.01  -0.03   0.02     0.01  -0.03   0.02
  64   1     0.01  -0.02   0.03     0.00  -0.01   0.00     0.02  -0.04   0.04
  65   1     0.02   0.05  -0.02     0.00   0.13  -0.12    -0.00  -0.03   0.03
  66   1     0.02   0.02  -0.01    -0.01   0.05  -0.05     0.00  -0.02   0.02
  67   1     0.01  -0.04   0.03    -0.02  -0.13   0.11     0.00   0.02  -0.02
  68   1    -0.00  -0.04   0.03    -0.02  -0.12   0.10     0.00   0.04  -0.03
  69   1    -0.00   0.02  -0.02     0.01   0.13  -0.10    -0.01  -0.06   0.05
  70   1    -0.01   0.03  -0.03     0.02   0.11  -0.09    -0.02  -0.07   0.06
  71   1    -0.02   0.01   0.01     0.01  -0.07   0.05    -0.01   0.02  -0.01
  72   1    -0.01  -0.01   0.03    -0.00  -0.13   0.09    -0.00   0.08  -0.05
  73   1    -0.01   0.03   0.02    -0.00  -0.00   0.00     0.02   0.06  -0.03
  74   1    -0.01   0.03   0.00    -0.01  -0.00   0.01    -0.01   0.03   0.02
  75   1     0.02  -0.02  -0.01     0.02  -0.01  -0.02     0.05  -0.03  -0.04
  76   1     0.03  -0.01  -0.01     0.02  -0.00  -0.00     0.06  -0.01  -0.00
  77   1     0.02   0.00   0.00     0.00  -0.01   0.03     0.02  -0.01   0.08
  78   1     0.00   0.01   0.02    -0.00   0.00   0.02    -0.00   0.01   0.06
  79   1     0.00   0.00   0.02     0.01   0.00  -0.03     0.02   0.00  -0.05
  80   1    -0.01   0.01  -0.00     0.00  -0.01   0.01     0.01  -0.02   0.04
  81   1    -0.01   0.01  -0.02    -0.00  -0.01   0.04    -0.01  -0.03   0.08
  82   1    -0.01  -0.00  -0.01     0.01  -0.00   0.01     0.02  -0.01   0.01
  83   1     0.13   0.02  -0.05    -0.02  -0.01   0.00    -0.01  -0.02  -0.01
                     22                     23                     24
                        a                      a                      a 
 Frequencies --   159.1076               183.8890               188.0505
 Red. masses --    11.7193                10.6315                12.8675
 Frc consts  --     0.0000                 0.0000                 0.0000
 IR Inten    --     2.5322                 7.6462                 1.8530
 Raman Activ --     0.0000                 0.0000                 0.0000
 Depolar     --     0.0000                 0.0000                 0.0000
 Atom AN      X      Y      Z        X      Y      Z        X      Y      Z
   1   9     0.01  -0.06  -0.01    -0.01   0.02  -0.03     0.12  -0.20   0.27
   2   6    -0.07  -0.02   0.05    -0.00   0.00   0.01    -0.04  -0.07  -0.04
   3   9     0.08  -0.22   0.12     0.02  -0.05   0.03    -0.09   0.19  -0.10
   4   9    -0.10   0.14  -0.17    -0.01   0.01  -0.01    -0.04   0.06  -0.04
   5   6    -0.16  -0.01   0.12    -0.00   0.02   0.02    -0.07  -0.15  -0.10
   6   6    -0.02  -0.03   0.09    -0.04  -0.01   0.04    -0.04  -0.01  -0.15
   7   6     0.16  -0.03  -0.02     0.01  -0.01   0.01     0.06   0.12  -0.07
   8   6     0.18  -0.01  -0.08     0.06   0.00  -0.03     0.07   0.08   0.07
   9   6     0.02   0.01  -0.05     0.05   0.02  -0.03     0.02  -0.07   0.12
  10   7     0.03   0.05  -0.14     0.02   0.02  -0.04    -0.03  -0.11   0.25
  11   6     0.05   0.07  -0.21    -0.04  -0.01   0.09     0.05   0.06  -0.01
  12   6     0.03   0.07  -0.18    -0.01   0.07  -0.02     0.08   0.13   0.00
  13   6     0.06   0.11  -0.20    -0.04   0.07  -0.05     0.10   0.18  -0.04
  14   6     0.04   0.11  -0.09    -0.07  -0.02  -0.02     0.09   0.15  -0.04
  15   6    -0.07   0.05   0.04    -0.05  -0.07   0.01     0.08   0.02   0.06
  16   8    -0.10   0.08   0.09    -0.09  -0.22   0.10     0.06  -0.14   0.10
  17   6    -0.11   0.07   0.06     0.01   0.11  -0.09     0.02  -0.02  -0.04
  18   6    -0.23  -0.00  -0.00    -0.18   0.36   0.02    -0.10   0.08  -0.01
  19   6     0.02  -0.09  -0.12     0.05   0.25   0.03     0.01   0.03  -0.01
  20   6    -0.01  -0.01  -0.04     0.01   0.17  -0.01    -0.00   0.03  -0.01
  21   7     0.00   0.00   0.02    -0.04  -0.09   0.03    -0.01  -0.02   0.01
  22   6     0.00   0.01   0.02    -0.03  -0.13   0.06    -0.01  -0.02   0.01
  23   6     0.02   0.02   0.01    -0.01  -0.15   0.07    -0.00  -0.02   0.01
  24   6     0.03   0.00   0.01     0.01  -0.04  -0.03     0.00  -0.01  -0.01
  25   6     0.02  -0.02   0.01     0.02   0.07  -0.13     0.00   0.00  -0.02
  26   6     0.01  -0.02   0.01    -0.00  -0.02  -0.05    -0.00  -0.01  -0.00
  27   6     0.00  -0.01   0.02    -0.03  -0.13   0.07    -0.01  -0.03   0.02
  28   6    -0.00  -0.01   0.02    -0.02  -0.13   0.08    -0.01  -0.03   0.02
  29   6    -0.01  -0.00   0.00     0.06   0.01   0.03     0.01  -0.00   0.01
  30   6    -0.02   0.02  -0.01     0.13   0.07  -0.06     0.03   0.02  -0.02
  31   6    -0.02   0.02   0.00     0.13  -0.03  -0.03     0.03  -0.00  -0.01
  32   6    -0.01   0.01   0.02     0.06  -0.16   0.02     0.01  -0.04   0.01
  33   6    -0.00  -0.00   0.03    -0.02  -0.14   0.06    -0.01  -0.03   0.02
  34   6    -0.14  -0.05   0.10     0.02   0.04  -0.07     0.07  -0.02   0.10
  35   6    -0.10  -0.02  -0.03     0.04   0.11  -0.08     0.09   0.06   0.04
  36   7     0.07   0.05  -0.15    -0.13  -0.07   0.22     0.06   0.12  -0.24
  37   6    -0.00  -0.01   0.03    -0.06  -0.05   0.06    -0.01  -0.01  -0.10
  38   6    -0.02  -0.04   0.13    -0.02  -0.03  -0.00     0.01  -0.01  -0.11
  39   6     0.03  -0.05   0.13     0.05  -0.03  -0.06     0.00  -0.04  -0.04
  40   6     0.11   0.00  -0.00     0.09  -0.01  -0.06    -0.04  -0.07   0.09
  41   6     0.14   0.04  -0.09     0.03  -0.01   0.07    -0.01  -0.04   0.03
  42   6     0.06   0.03   0.01    -0.02   0.00   0.08     0.03   0.00  -0.10
  43   6    -0.01  -0.02   0.11    -0.01   0.00  -0.03     0.01  -0.01  -0.08
  44   6    -0.02  -0.02   0.11     0.01   0.02  -0.10    -0.02  -0.03   0.01
  45   6     0.03  -0.02  -0.04     0.01   0.01  -0.11    -0.04   0.05   0.07
  46   6     0.08  -0.03  -0.10    -0.02  -0.02   0.04    -0.12   0.10   0.02
  47   6     0.05  -0.05   0.03    -0.03  -0.03   0.12    -0.15   0.08  -0.10
  48   6     0.02  -0.05   0.15     0.01   0.00  -0.03    -0.15  -0.02  -0.04
  49   6    -0.02  -0.03   0.14     0.01   0.02  -0.10    -0.06  -0.08   0.07
  50   6    -0.02  -0.01   0.05     0.01   0.00  -0.06    -0.06  -0.12   0.13
  51   6    -0.12   0.02   0.05     0.05   0.03  -0.01    -0.01  -0.17   0.01
  52   1    -0.01  -0.01   0.04    -0.03  -0.01   0.02    -0.02   0.00  -0.07
  53   1     0.09  -0.02  -0.02     0.00  -0.01   0.00     0.03   0.07  -0.04
  54   1     0.09  -0.00  -0.04     0.03   0.00  -0.01     0.04   0.05   0.04
  55   1     0.03   0.04  -0.07    -0.02   0.03  -0.02     0.02   0.06  -0.02
  56   1     0.03   0.04  -0.02    -0.03  -0.01  -0.00     0.02   0.05  -0.03
  57   1    -0.02   0.04  -0.00     0.01   0.04  -0.04     0.02  -0.01  -0.03
  58   1    -0.03   0.01   0.04     0.05   0.02  -0.08     0.01  -0.00  -0.03
  59   1    -0.09   0.04   0.05    -0.09   0.16   0.08    -0.04   0.05   0.03
  60   1    -0.13  -0.03  -0.03    -0.12   0.11  -0.07    -0.06   0.02  -0.04
  61   1     0.01  -0.08  -0.09     0.01   0.03  -0.01     0.00  -0.01  -0.02
  62   1     0.07  -0.01  -0.02     0.04   0.09   0.01     0.02   0.01   0.00
  63   1    -0.02   0.01  -0.02     0.02   0.04   0.00     0.00   0.01  -0.00
  64   1     0.01  -0.01   0.00    -0.04   0.08  -0.02    -0.01   0.01  -0.00
  65   1     0.01   0.01   0.00     0.00  -0.06   0.04     0.00  -0.01   0.00
  66   1     0.01   0.00   0.00     0.01  -0.00  -0.02     0.00  -0.00  -0.00
  67   1     0.01  -0.01   0.00     0.01   0.06  -0.07     0.00   0.01  -0.01
  68   1     0.00  -0.01   0.00    -0.00   0.00  -0.03    -0.00  -0.00  -0.00
  69   1    -0.00  -0.00  -0.00     0.01   0.03   0.01     0.00   0.00   0.01
  70   1    -0.01   0.01  -0.01     0.05   0.06  -0.04     0.01   0.02  -0.01
  71   1    -0.01   0.01  -0.00     0.05  -0.00  -0.02     0.01   0.00  -0.01
  72   1    -0.00   0.00   0.01     0.02  -0.07  -0.00     0.00  -0.02   0.00
  73   1    -0.06  -0.04   0.06     0.02   0.01  -0.03     0.01  -0.03   0.05
  74   1    -0.06  -0.03  -0.00     0.03   0.05  -0.04     0.03   0.01   0.02
  75   1     0.00  -0.03   0.05     0.02  -0.02  -0.03     0.00  -0.02  -0.01
  76   1     0.04   0.00  -0.01     0.04   0.00  -0.03    -0.02  -0.03   0.06
  77   1     0.06   0.03  -0.06     0.01  -0.00   0.04    -0.01  -0.01   0.02
  78   1     0.02   0.02  -0.01    -0.02   0.01   0.05     0.01   0.01  -0.05
  79   1     0.01  -0.00  -0.04     0.01   0.01  -0.05     0.00   0.02   0.03
  80   1     0.03  -0.00  -0.07    -0.01  -0.01   0.03    -0.04   0.04   0.01
  81   1     0.02  -0.01   0.00    -0.02  -0.02   0.07    -0.05   0.04  -0.06
  82   1     0.01  -0.01   0.06     0.01   0.00  -0.01    -0.05  -0.02  -0.04
  83   1    -0.05   0.02   0.02     0.02   0.02  -0.01     0.01  -0.08   0.01
                     25                     26                     27
                        a                      a                      a 
 Frequencies --   197.1304               206.5749               207.8415
 Red. masses --    11.5229                11.9562                10.8593
 Frc consts  --     0.0000                 0.0000                 0.0000
 IR Inten    --     2.1509                 4.8780                 0.8821
 Raman Activ --     0.0000                 0.0000                 0.0000
 Depolar     --     0.0000                 0.0000                 0.0000
 Atom AN      X      Y      Z        X      Y      Z        X      Y      Z
   1   9    -0.03   0.03  -0.04    -0.14   0.23  -0.19     0.07  -0.13   0.08
   2   6    -0.03   0.01   0.03    -0.02   0.11   0.02     0.00  -0.07   0.01
   3   9     0.04  -0.12   0.08     0.04  -0.04   0.07     0.01  -0.06   0.00
   4   9    -0.04   0.07  -0.06    -0.03   0.11  -0.03     0.01  -0.07   0.00
   5   6    -0.04   0.03   0.06     0.01   0.15   0.09    -0.01  -0.09  -0.03
   6   6    -0.03  -0.02   0.07     0.03   0.15   0.08    -0.00  -0.15  -0.01
   7   6     0.08  -0.04  -0.01    -0.02   0.09   0.06     0.06  -0.16  -0.06
   8   6     0.12  -0.01  -0.08    -0.05   0.08   0.06     0.09  -0.12  -0.13
   9   6     0.08   0.03  -0.09     0.00   0.06   0.04     0.06  -0.02  -0.15
  10   7     0.05   0.04  -0.13     0.02   0.04  -0.01     0.07   0.03  -0.18
  11   6     0.02   0.02   0.02     0.03   0.08  -0.06     0.04   0.04  -0.07
  12   6     0.07   0.09   0.02     0.01   0.05   0.09     0.01   0.02   0.10
  13   6     0.12   0.08   0.05    -0.02  -0.01   0.14     0.01  -0.01   0.16
  14   6     0.11   0.00   0.08    -0.02  -0.00   0.11     0.02   0.03   0.12
  15   6     0.16  -0.07   0.09     0.03   0.03   0.04     0.06   0.08   0.05
  16   8     0.19  -0.16   0.10     0.08   0.05  -0.11     0.12   0.09  -0.14
  17   6     0.19  -0.07   0.04    -0.04  -0.05  -0.13    -0.08  -0.07  -0.18
  18   6     0.10  -0.10   0.00     0.08  -0.01  -0.08     0.02  -0.00  -0.12
  19   6     0.11  -0.08  -0.10    -0.10   0.04   0.09    -0.21   0.05   0.13
  20   6     0.02  -0.05  -0.06    -0.03   0.03   0.06    -0.07   0.05   0.09
  21   7     0.04   0.02  -0.01    -0.04  -0.00  -0.00    -0.09   0.00   0.00
  22   6     0.03   0.05  -0.03    -0.03  -0.02   0.01    -0.06  -0.03   0.03
  23   6    -0.01   0.06  -0.04     0.01  -0.02   0.02     0.03  -0.03   0.05
  24   6    -0.03   0.03   0.02     0.03  -0.02  -0.02     0.09  -0.05  -0.04
  25   6    -0.03  -0.01   0.07     0.03  -0.01  -0.05     0.07  -0.04  -0.11
  26   6     0.00   0.03   0.04    -0.01  -0.02  -0.04    -0.02  -0.06  -0.09
  27   6     0.03   0.05  -0.03    -0.03  -0.02   0.01    -0.08  -0.03   0.02
  28   6     0.03   0.05  -0.04    -0.03  -0.01   0.02    -0.07  -0.02   0.04
  29   6    -0.03  -0.03  -0.03     0.02   0.03   0.04     0.04   0.06   0.09
  30   6    -0.09  -0.04   0.01     0.07   0.02   0.01     0.15   0.06   0.03
  31   6    -0.09   0.01   0.01     0.07  -0.01  -0.00     0.15  -0.01   0.00
  32   6    -0.04   0.08  -0.00     0.03  -0.04  -0.01     0.05  -0.08  -0.03
  33   6     0.03   0.05  -0.02    -0.03  -0.02   0.00    -0.07  -0.03   0.01
  34   6     0.15  -0.05   0.06     0.03   0.01   0.08     0.05   0.06   0.07
  35   6     0.15   0.02   0.03     0.02   0.02   0.10     0.02   0.01   0.11
  36   7    -0.12  -0.06   0.14    -0.00   0.09  -0.20     0.02   0.03  -0.06
  37   6    -0.10  -0.08   0.07    -0.04  -0.06  -0.12    -0.00   0.04  -0.01
  38   6    -0.10  -0.07   0.03    -0.03  -0.12  -0.06    -0.04   0.03   0.09
  39   6    -0.06  -0.05  -0.05     0.12  -0.23   0.02    -0.12   0.08   0.07
  40   6    -0.01  -0.01  -0.12     0.23  -0.17   0.07    -0.12   0.09  -0.06
  41   6    -0.06  -0.02  -0.00     0.24  -0.07   0.03    -0.09   0.07  -0.10
  42   6    -0.10  -0.03   0.07     0.09  -0.01  -0.01    -0.08   0.02   0.02
  43   6    -0.09  -0.02   0.00    -0.04  -0.09  -0.04    -0.05   0.03   0.11
  44   6    -0.07   0.01  -0.08    -0.06  -0.11  -0.02    -0.03   0.04   0.11
  45   6    -0.06   0.12  -0.16    -0.07  -0.08  -0.01    -0.00   0.08   0.01
  46   6    -0.19   0.13  -0.00    -0.10  -0.07  -0.04    -0.00   0.11  -0.07
  47   6    -0.26   0.08   0.14    -0.11  -0.07  -0.07    -0.03   0.08   0.04
  48   6    -0.21   0.03  -0.01    -0.11  -0.11  -0.04    -0.05   0.05   0.12
  49   6    -0.08  -0.01  -0.07    -0.07  -0.12  -0.01    -0.02   0.04   0.09
  50   6    -0.04  -0.04  -0.05    -0.05  -0.08  -0.03     0.02   0.03  -0.04
  51   6     0.04   0.06  -0.02    -0.01   0.13   0.10     0.02  -0.04  -0.12
  52   1    -0.03  -0.02   0.04     0.02   0.04   0.03    -0.01  -0.05   0.01
  53   1     0.04  -0.03  -0.00    -0.01   0.02   0.02     0.02  -0.06  -0.02
  54   1     0.05  -0.01  -0.04    -0.02   0.03   0.02     0.03  -0.05  -0.06
  55   1     0.04   0.02   0.01    -0.01  -0.01   0.05     0.00  -0.02   0.05
  56   1     0.02  -0.01   0.02    -0.01  -0.00   0.03     0.00   0.01   0.03
  57   1     0.06  -0.00   0.00    -0.02  -0.06  -0.04    -0.02  -0.08  -0.06
  58   1     0.07  -0.03   0.02    -0.05   0.00  -0.05    -0.08   0.01  -0.06
  59   1     0.02  -0.04   0.01     0.04  -0.03  -0.07     0.03  -0.03  -0.08
  60   1     0.02  -0.04  -0.00     0.07   0.02   0.00     0.06   0.04  -0.01
  61   1     0.03  -0.02  -0.07    -0.03   0.04   0.08    -0.06   0.05   0.12
  62   1     0.06  -0.02  -0.02    -0.09  -0.01   0.01    -0.15  -0.02   0.02
  63   1    -0.01  -0.01  -0.02     0.01   0.01   0.02     0.01   0.02   0.03
  64   1     0.02  -0.02  -0.02    -0.02   0.01   0.03    -0.03   0.02   0.04
  65   1    -0.01   0.02  -0.02     0.01  -0.00   0.01     0.02   0.00   0.03
  66   1    -0.01   0.01   0.01     0.01  -0.01  -0.00     0.04  -0.01  -0.01
  67   1    -0.01  -0.02   0.04     0.01  -0.00  -0.02     0.03  -0.01  -0.05
  68   1     0.01   0.01   0.02    -0.01  -0.01  -0.02    -0.02  -0.03  -0.05
  69   1    -0.01  -0.02  -0.02     0.00   0.02   0.02     0.01   0.04   0.05
  70   1    -0.03  -0.03   0.01     0.03   0.02   0.00     0.06   0.03   0.01
  71   1    -0.04   0.00   0.01     0.03  -0.00  -0.00     0.06  -0.01  -0.01
  72   1    -0.01   0.04   0.01     0.01  -0.02  -0.01     0.02  -0.05  -0.03
  73   1     0.04  -0.02   0.02     0.01   0.00   0.02     0.01   0.02   0.02
  74   1     0.06   0.02   0.01     0.01   0.01   0.03     0.01  -0.00   0.04
  75   1    -0.01  -0.01  -0.02     0.04  -0.11   0.00    -0.04   0.04   0.03
  76   1     0.02   0.00  -0.07     0.08  -0.06   0.03    -0.03   0.03  -0.03
  77   1    -0.02  -0.00   0.00     0.09  -0.00   0.01    -0.02   0.02  -0.06
  78   1    -0.04  -0.01   0.04     0.02   0.03   0.00    -0.02  -0.01   0.00
  79   1     0.01   0.06  -0.08    -0.01  -0.02   0.00     0.00   0.03  -0.01
  80   1    -0.06   0.05   0.00    -0.03  -0.01  -0.02     0.01   0.04  -0.05
  81   1    -0.10   0.02   0.09    -0.03  -0.02  -0.03    -0.01   0.03   0.01
  82   1    -0.07  -0.00  -0.02    -0.04  -0.04  -0.02    -0.02   0.01   0.04
  83   1     0.01   0.03  -0.01    -0.01   0.05   0.03     0.01  -0.01  -0.04
                     28                     29                     30
                        a                      a                      a 
 Frequencies --   218.7598               229.1357               243.4537
 Red. masses --    10.6266                10.8554                11.0111
 Frc consts  --     0.0000                 0.0000                 0.0000
 IR Inten    --     2.0293                 3.4152                 4.1058
 Raman Activ --     0.0000                 0.0000                 0.0000
 Depolar     --     0.0000                 0.0000                 0.0000
 Atom AN      X      Y      Z        X      Y      Z        X      Y      Z
   1   9    -0.05   0.08  -0.05     0.09  -0.11   0.10     0.07  -0.13   0.09
   2   6    -0.01   0.04   0.01     0.03  -0.06  -0.02    -0.00  -0.05  -0.02
   3   9     0.00  -0.00   0.02    -0.02   0.06  -0.05    -0.04   0.02  -0.05
   4   9    -0.02   0.06  -0.02     0.05  -0.10   0.06     0.00  -0.06  -0.01
   5   6    -0.01   0.05   0.03     0.03  -0.05  -0.04    -0.02  -0.07  -0.04
   6   6     0.06   0.07   0.00    -0.27  -0.03   0.03     0.18  -0.04  -0.10
   7   6    -0.02   0.04   0.02     0.04   0.11  -0.01    -0.06  -0.08  -0.01
   8   6    -0.10   0.02   0.05     0.33   0.15  -0.02    -0.24  -0.12   0.04
   9   6    -0.07  -0.00   0.05     0.21   0.04   0.03    -0.14  -0.04   0.01
  10   7    -0.04  -0.02   0.06    -0.01   0.01   0.10     0.00   0.04  -0.08
  11   6    -0.00  -0.08   0.04    -0.03   0.09  -0.01    -0.02   0.10  -0.02
  12   6     0.03  -0.06  -0.08    -0.06   0.03  -0.04    -0.00   0.18   0.07
  13   6     0.10   0.01  -0.12    -0.14  -0.08   0.02    -0.05   0.15   0.07
  14   6     0.11   0.04  -0.10    -0.17  -0.19   0.06    -0.07   0.06   0.03
  15   6     0.07   0.00  -0.03    -0.15  -0.13  -0.01    -0.00  -0.05   0.06
  16   8     0.05   0.02   0.10    -0.13   0.05  -0.08    -0.02  -0.22   0.07
  17   6     0.11   0.02   0.15     0.02   0.05   0.07     0.07  -0.05   0.01
  18   6    -0.07  -0.12   0.03     0.18  -0.07   0.02     0.17  -0.01   0.03
  19   6    -0.11  -0.08  -0.12     0.08   0.00  -0.09     0.17   0.02  -0.10
  20   6    -0.19  -0.05  -0.06    -0.07  -0.02  -0.06    -0.03  -0.00  -0.06
  21   7    -0.17   0.03   0.04    -0.06   0.00   0.03    -0.04  -0.03   0.04
  22   6    -0.14   0.07   0.04    -0.05   0.04   0.01    -0.04   0.03  -0.00
  23   6     0.11   0.08   0.06     0.04   0.05   0.01     0.01   0.05  -0.01
  24   6     0.24  -0.06  -0.07     0.08  -0.01  -0.03     0.04  -0.00  -0.02
  25   6     0.18  -0.16  -0.14     0.06  -0.07  -0.03     0.02  -0.06  -0.00
  26   6    -0.03  -0.14  -0.16    -0.02  -0.05  -0.06    -0.02  -0.03  -0.03
  27   6    -0.16   0.05  -0.00    -0.06   0.05  -0.02    -0.04   0.05  -0.03
  28   6    -0.15   0.09   0.03    -0.06   0.06  -0.01    -0.04   0.06  -0.02
  29   6     0.02   0.14   0.17    -0.00   0.06   0.06    -0.01   0.04   0.03
  30   6     0.17   0.07   0.16     0.04   0.00   0.08     0.02  -0.02   0.07
  31   6     0.19   0.03   0.05     0.05   0.01   0.03     0.02   0.01   0.01
  32   6     0.03   0.00  -0.06     0.00   0.03  -0.04    -0.00   0.04  -0.04
  33   6    -0.13   0.05   0.01    -0.05   0.04  -0.01    -0.03   0.03  -0.01
  34   6     0.01  -0.03  -0.04    -0.10  -0.08  -0.03     0.05  -0.01   0.07
  35   6     0.01  -0.07  -0.06    -0.06   0.01  -0.04     0.07   0.14   0.06
  36   7     0.01  -0.09   0.11    -0.04   0.11  -0.07    -0.08   0.09  -0.05
  37   6     0.02  -0.02   0.05    -0.07   0.00  -0.01    -0.06   0.05  -0.08
  38   6     0.04  -0.00  -0.02    -0.07  -0.01   0.01    -0.10   0.00   0.05
  39   6     0.01   0.03  -0.07     0.01  -0.05   0.04    -0.02  -0.07   0.12
  40   6    -0.05  -0.01  -0.02     0.10   0.00   0.01     0.14   0.04  -0.00
  41   6    -0.07  -0.05   0.03     0.09   0.06   0.01     0.15   0.13  -0.03
  42   6    -0.00  -0.05  -0.02    -0.01   0.08   0.04    -0.03   0.12   0.11
  43   6     0.05  -0.02  -0.05    -0.07   0.03   0.00    -0.12   0.05   0.06
  44   6     0.03  -0.00  -0.05    -0.04   0.02  -0.03    -0.07   0.04  -0.02
  45   6     0.01   0.01  -0.01    -0.02  -0.01  -0.09    -0.05  -0.10  -0.02
  46   6    -0.02   0.01   0.04    -0.02  -0.05   0.02     0.06  -0.16  -0.02
  47   6    -0.02   0.01  -0.00    -0.01  -0.04   0.06     0.13  -0.11   0.01
  48   6    -0.00   0.01  -0.05     0.01   0.01  -0.02     0.11   0.03  -0.02
  49   6     0.02  -0.00  -0.05    -0.03   0.01  -0.00     0.01   0.09  -0.09
  50   6    -0.00   0.00   0.02    -0.04  -0.03   0.05     0.02   0.07  -0.13
  51   6    -0.07   0.02   0.06     0.28  -0.01  -0.05    -0.22  -0.09   0.01
  52   1     0.04   0.02  -0.01    -0.18  -0.02   0.02     0.12   0.01  -0.05
  53   1     0.00   0.01   0.01     0.00   0.05  -0.00    -0.02  -0.02  -0.00
  54   1    -0.04   0.00   0.02     0.15   0.07  -0.01    -0.10  -0.05   0.01
  55   1     0.03  -0.00  -0.04    -0.04  -0.00  -0.01    -0.03   0.05   0.03
  56   1     0.04   0.01  -0.02    -0.05  -0.07   0.03    -0.03   0.02  -0.00
  57   1     0.04   0.07   0.03    -0.01   0.04   0.06     0.01  -0.02   0.02
  58   1     0.07  -0.02   0.09     0.03   0.00   0.02     0.04  -0.01  -0.03
  59   1    -0.03  -0.06   0.03     0.07  -0.06  -0.04     0.06  -0.01  -0.01
  60   1    -0.03  -0.04   0.01     0.09  -0.04   0.06     0.06  -0.02   0.03
  61   1    -0.03  -0.02  -0.07     0.02   0.03  -0.06     0.05   0.02  -0.09
  62   1    -0.00  -0.02  -0.03     0.04   0.00  -0.02     0.10   0.01  -0.01
  63   1    -0.08  -0.01  -0.03    -0.04  -0.01  -0.02    -0.03  -0.00  -0.02
  64   1    -0.03  -0.03  -0.03    -0.01  -0.01  -0.04    -0.01   0.00  -0.04
  65   1     0.06   0.06   0.06     0.02   0.03   0.01     0.01   0.03  -0.00
  66   1     0.11  -0.02  -0.02     0.04  -0.00  -0.01     0.02   0.00  -0.01
  67   1     0.07  -0.07  -0.05     0.02  -0.04  -0.01     0.01  -0.04   0.01
  68   1    -0.04  -0.08  -0.09    -0.02  -0.03  -0.03    -0.01  -0.02  -0.02
  69   1     0.00   0.07   0.09    -0.00   0.03   0.03    -0.00   0.01   0.02
  70   1     0.07   0.02   0.07     0.02  -0.01   0.04     0.01  -0.02   0.03
  71   1     0.08  -0.00   0.01     0.02  -0.00   0.01     0.01   0.00   0.00
  72   1     0.02  -0.03  -0.06     0.00   0.00  -0.03     0.00   0.01  -0.02
  73   1    -0.01  -0.01   0.00    -0.01  -0.03  -0.02     0.02  -0.02   0.03
  74   1    -0.01  -0.03  -0.01    -0.01   0.02  -0.02     0.05   0.05   0.02
  75   1     0.00   0.02  -0.02     0.00  -0.04   0.01    -0.01  -0.06   0.05
  76   1    -0.02  -0.00  -0.00     0.05  -0.00  -0.00     0.07   0.01  -0.02
  77   1    -0.04  -0.03   0.03     0.04   0.03   0.00     0.07   0.06  -0.04
  78   1    -0.00  -0.02  -0.01    -0.01   0.04   0.02    -0.02   0.05   0.05
  79   1     0.01   0.00   0.00    -0.00   0.00  -0.05    -0.04  -0.05  -0.00
  80   1    -0.01   0.00   0.03    -0.01  -0.02   0.01     0.02  -0.07  -0.00
  81   1    -0.01   0.00   0.01    -0.00  -0.02   0.03     0.06  -0.04   0.02
  82   1    -0.01  -0.00  -0.02     0.02   0.01  -0.02     0.05   0.02   0.02
  83   1    -0.03   0.01   0.02     0.12  -0.01  -0.02    -0.09  -0.03   0.01
                     31                     32                     33
                        a                      a                      a 
 Frequencies --   256.3156               272.0033               274.3126
 Red. masses --    10.7286                10.0070                10.2980
 Frc consts  --     0.0000                 0.0000                 0.0000
 IR Inten    --     0.5671                 0.4358                 4.9299
 Raman Activ --     0.0000                 0.0000                 0.0000
 Depolar     --     0.0000                 0.0000                 0.0000
 Atom AN      X      Y      Z        X      Y      Z        X      Y      Z
   1   9    -0.06   0.08  -0.07    -0.01   0.01   0.00     0.00   0.01  -0.02
   2   6    -0.01   0.03   0.02    -0.01   0.01  -0.00     0.01   0.00   0.00
   3   9     0.04  -0.07   0.06    -0.01   0.01  -0.00     0.01   0.00   0.00
   4   9    -0.02   0.06  -0.02    -0.01   0.03  -0.02     0.02  -0.02   0.02
   5   6    -0.00   0.02   0.01    -0.00   0.01   0.01     0.00  -0.00  -0.00
   6   6    -0.01  -0.08   0.04     0.05   0.04  -0.01    -0.05  -0.02   0.02
   7   6     0.05  -0.12  -0.03    -0.02   0.03   0.01     0.01  -0.02  -0.01
   8   6     0.07  -0.08  -0.13    -0.05   0.01   0.05     0.04  -0.00  -0.03
   9   6     0.04   0.01  -0.14     0.01  -0.01   0.03    -0.01   0.00  -0.02
  10   7     0.02   0.00  -0.09     0.08   0.01  -0.02    -0.06  -0.01   0.03
  11   6    -0.05  -0.03   0.09     0.06   0.01  -0.04    -0.03  -0.02   0.02
  12   6    -0.05   0.03   0.13     0.02   0.02  -0.02    -0.01  -0.03   0.00
  13   6    -0.09   0.06   0.06    -0.04  -0.03  -0.00     0.03  -0.01   0.01
  14   6    -0.10   0.02  -0.01    -0.06  -0.02   0.03     0.05   0.01  -0.00
  15   6    -0.06  -0.03  -0.00    -0.10   0.01   0.04     0.07   0.01  -0.02
  16   8    -0.10  -0.19   0.05    -0.11   0.01  -0.02     0.07  -0.01   0.02
[...]
  11   6     0.00  -0.00  -0.00     0.00  -0.00   0.00     0.00  -0.00   0.00
  12   6    -0.00   0.00   0.00     0.00  -0.00  -0.00    -0.00   0.00   0.00
  13   6    -0.00  -0.00  -0.00     0.00   0.00   0.01    -0.00  -0.00  -0.00
  14   6     0.00  -0.00  -0.00     0.03  -0.04  -0.04    -0.00   0.01   0.00
  15   6    -0.00  -0.00  -0.00     0.01   0.00   0.00    -0.00   0.00  -0.00
  16   8    -0.00  -0.00  -0.00    -0.00   0.00  -0.00     0.00   0.00   0.00
  17   6    -0.00  -0.00   0.00    -0.00  -0.00  -0.00    -0.00   0.00   0.00
  18   6     0.00   0.00  -0.00    -0.00   0.00   0.00    -0.00  -0.00  -0.00
  19   6     0.00   0.00   0.00    -0.00  -0.00  -0.00    -0.00   0.00  -0.00
  20   6     0.00   0.00  -0.00     0.00   0.00   0.00     0.00  -0.00   0.00
  21   7    -0.00   0.00  -0.00    -0.00   0.00  -0.00     0.00  -0.00  -0.00
  22   6    -0.00   0.00   0.00     0.00   0.00   0.00    -0.00  -0.00  -0.00
  23   6     0.00  -0.00  -0.00     0.00  -0.00  -0.00    -0.00   0.00   0.00
  24   6     0.00  -0.00  -0.00     0.00  -0.00  -0.00    -0.00   0.00   0.00
  25   6    -0.00  -0.00  -0.00    -0.00  -0.00  -0.00     0.00   0.00   0.00
  26   6    -0.00   0.00   0.00    -0.00   0.00   0.00     0.00  -0.00  -0.00
  27   6     0.00   0.00   0.00     0.00   0.00   0.00     0.00  -0.00  -0.00
  28   6    -0.00  -0.00  -0.00     0.00   0.00   0.00     0.00  -0.00  -0.00
  29   6    -0.02  -0.00  -0.00     0.01   0.00   0.00     0.00   0.00   0.00
  30   6    -0.01   0.01   0.01     0.00  -0.00  -0.00     0.00  -0.00  -0.00
  31   6     0.00   0.00   0.00    -0.00  -0.00  -0.00    -0.00  -0.00  -0.00
  32   6     0.00   0.00   0.00     0.00   0.00   0.00    -0.00  -0.00  -0.00
  33   6     0.00  -0.00  -0.00    -0.00  -0.00   0.00    -0.00   0.00   0.00
  34   6    -0.00  -0.00  -0.00     0.13   0.12   0.18    -0.01  -0.01  -0.01
  35   6    -0.00   0.00   0.00     0.03  -0.05  -0.04    -0.00   0.00   0.00
  36   7    -0.00   0.00   0.00    -0.00   0.00   0.00    -0.00   0.00  -0.00
  37   6    -0.00  -0.00  -0.00    -0.00  -0.00  -0.00     0.00   0.00   0.00
  38   6     0.00   0.00   0.00    -0.00   0.00   0.00     0.00  -0.00   0.00
  39   6    -0.05  -0.00  -0.02    -0.00  -0.00  -0.00     0.01   0.00   0.00
  40   6     0.01   0.02   0.01     0.00   0.00   0.00     0.00   0.00   0.00
  41   6    -0.04   0.06  -0.00    -0.00   0.00  -0.00    -0.00   0.00  -0.00
  42   6    -0.20  -0.00  -0.09    -0.00  -0.00  -0.00    -0.00  -0.00  -0.00
  43   6    -0.00  -0.01  -0.00    -0.00  -0.00  -0.00    -0.00   0.00  -0.00
  44   6    -0.00  -0.00  -0.00     0.00  -0.00  -0.00    -0.00   0.00  -0.00
  45   6     0.08  -0.10  -0.00     0.00  -0.00  -0.00    -0.00   0.00   0.00
  46   6     0.07   0.01   0.02     0.00   0.00   0.00    -0.00  -0.00  -0.00
  47   6     0.01   0.02   0.01    -0.00  -0.00  -0.00     0.00   0.00   0.00
  48   6     0.00  -0.01  -0.00     0.00  -0.00   0.00     0.00  -0.01  -0.00
  49   6    -0.00   0.00   0.00    -0.00   0.00  -0.00     0.00  -0.00  -0.00
  50   6    -0.00  -0.00  -0.00     0.00   0.00   0.00    -0.00  -0.00   0.00
  51   6    -0.00  -0.00  -0.02    -0.01  -0.01  -0.02    -0.00  -0.00  -0.01
  52   1    -0.00   0.00   0.00    -0.00   0.02   0.01    -0.04   0.33   0.11
  53   1     0.00   0.00   0.00    -0.01  -0.01  -0.03    -0.16  -0.17  -0.62
  54   1    -0.00   0.00  -0.00    -0.01   0.03  -0.02    -0.21   0.41  -0.37
  55   1     0.00   0.00   0.00    -0.02  -0.02  -0.03     0.00   0.00   0.00
  56   1    -0.01   0.01   0.01    -0.10   0.16   0.12     0.01  -0.02  -0.02
  57   1    -0.00  -0.00  -0.00    -0.00  -0.00  -0.00     0.00   0.00   0.00
  58   1     0.00   0.00   0.00     0.00   0.00   0.00    -0.00  -0.00  -0.00
  59   1     0.00  -0.00   0.00     0.00  -0.00   0.00     0.00  -0.00   0.00
  60   1    -0.00   0.00   0.00     0.00  -0.00  -0.00    -0.00   0.00   0.00
  61   1    -0.00   0.00   0.00     0.00  -0.00  -0.00     0.00  -0.00   0.00
  62   1     0.00   0.00  -0.00    -0.00  -0.00   0.00     0.00  -0.00  -0.00
  63   1    -0.00   0.00   0.00    -0.00  -0.00  -0.00     0.00  -0.00  -0.00
  64   1    -0.00  -0.00  -0.00    -0.00  -0.00  -0.00     0.00   0.00   0.00
  65   1    -0.00   0.00   0.00    -0.01   0.00   0.00     0.01  -0.00  -0.00
  66   1    -0.00   0.00   0.00    -0.00   0.01   0.01     0.00  -0.01  -0.01
  67   1     0.00   0.00   0.00     0.01   0.00   0.00    -0.01  -0.00  -0.01
  68   1     0.01  -0.00  -0.00     0.00  -0.00  -0.00    -0.01   0.00   0.00
  69   1     0.08   0.00   0.01    -0.04  -0.00  -0.00    -0.01  -0.00  -0.00
  70   1     0.02  -0.02  -0.02    -0.00   0.00   0.00    -0.00   0.00   0.00
  71   1    -0.01  -0.01  -0.01     0.00   0.00   0.01     0.00   0.00   0.00
  72   1    -0.01  -0.00  -0.00    -0.00  -0.00  -0.00     0.00   0.00   0.00
  73   1     0.01   0.01   0.02    -0.45  -0.44  -0.63     0.02   0.02   0.03
  74   1     0.00  -0.00  -0.00    -0.14   0.20   0.15     0.01  -0.01  -0.01
  75   1     0.17   0.01   0.07     0.01   0.00   0.00    -0.02  -0.00  -0.01
  76   1    -0.02  -0.06  -0.03    -0.00  -0.00  -0.00    -0.00  -0.00  -0.00
  77   1     0.13  -0.18   0.01     0.00  -0.00   0.00     0.00  -0.00   0.00
  78   1     0.69   0.02   0.30     0.01   0.00   0.00     0.00   0.00   0.00
  79   1    -0.28   0.34   0.01    -0.01   0.01   0.00     0.01  -0.01  -0.00
  80   1    -0.23  -0.02  -0.06    -0.01  -0.00  -0.00     0.00   0.00   0.00
  81   1    -0.03  -0.07  -0.02     0.00   0.00   0.00    -0.00  -0.00  -0.00
  82   1    -0.02   0.02  -0.00    -0.00   0.00  -0.00    -0.02   0.02   0.00
  83   1     0.02   0.02   0.07     0.02   0.02   0.08     0.01   0.01   0.04
                    238                    239                    240
                        a                      a                      a 
 Frequencies --  3104.4905              3109.3580              3114.1056
 Red. masses --     1.8618                 1.8249                 1.8730
 Frc consts  --     0.0000                 0.0000                 0.0000
 IR Inten    --    64.5816               228.4230                 7.6280
 Raman Activ --     0.0000                 0.0000                 0.0000
 Depolar     --     0.0000                 0.0000                 0.0000
 Atom AN      X      Y      Z        X      Y      Z        X      Y      Z
   1   9     0.00   0.00  -0.00    -0.00  -0.00   0.00     0.00   0.00   0.00
   2   6     0.00  -0.00   0.00    -0.00   0.00  -0.00     0.00  -0.00  -0.00
   3   9     0.00  -0.00  -0.00    -0.00  -0.00   0.00     0.00   0.00  -0.00
   4   9    -0.00   0.00  -0.00     0.00  -0.00   0.00    -0.00   0.00   0.00
   5   6     0.00  -0.00   0.00    -0.00   0.00   0.00     0.00  -0.01   0.00
   6   6    -0.00   0.00   0.00    -0.00   0.00   0.00     0.03  -0.24  -0.08
   7   6    -0.00  -0.00  -0.00     0.00   0.00   0.00    -0.03  -0.03  -0.10
   8   6    -0.00   0.00  -0.00     0.00  -0.00   0.00    -0.01   0.03  -0.02
   9   6    -0.00   0.00   0.00     0.00   0.00   0.00    -0.00   0.00   0.00
  10   7    -0.00  -0.00  -0.00     0.00   0.00   0.00     0.00  -0.00  -0.00
  11   6     0.00  -0.00  -0.00    -0.00   0.00  -0.00     0.00   0.00   0.00
  12   6    -0.00   0.00  -0.00    -0.00   0.00  -0.00    -0.00   0.00  -0.00
  13   6     0.00   0.00   0.00    -0.00  -0.00  -0.00     0.00   0.00   0.00
  14   6    -0.00   0.00   0.00     0.00   0.00   0.00    -0.00   0.00   0.00
  15   6    -0.00  -0.00  -0.00    -0.00   0.00  -0.00    -0.00  -0.00  -0.00
  16   8     0.00  -0.00   0.00    -0.00  -0.00   0.00     0.00  -0.00   0.00
  17   6     0.00  -0.00   0.00    -0.00   0.00  -0.00     0.00   0.00   0.00
  18   6     0.00  -0.00  -0.00    -0.00   0.00   0.00     0.00  -0.00  -0.00
  19   6     0.00  -0.00  -0.00    -0.00   0.00   0.00     0.00  -0.00   0.00
  20   6    -0.00   0.00  -0.00    -0.00  -0.00   0.00    -0.00  -0.00  -0.00
  21   7     0.00   0.00   0.00     0.00   0.00  -0.00    -0.00  -0.00   0.00
  22   6     0.00   0.00   0.00    -0.00  -0.00  -0.00     0.00   0.00   0.00
  23   6     0.00  -0.00  -0.00    -0.00   0.00   0.00     0.00  -0.00  -0.00
  24   6    -0.00  -0.00  -0.00    -0.00   0.00   0.00     0.00  -0.00  -0.00
  25   6    -0.00  -0.00  -0.00     0.00   0.00   0.00    -0.00  -0.00  -0.00
  26   6     0.00  -0.00  -0.00     0.00  -0.00  -0.00    -0.00   0.00   0.00
  27   6    -0.00  -0.00  -0.00     0.00   0.00   0.00    -0.00   0.00  -0.00
  28   6     0.00   0.00   0.00     0.00  -0.00  -0.00    -0.00   0.00   0.00
  29   6     0.03   0.00   0.00     0.00   0.00   0.00    -0.00  -0.00  -0.00
  30   6     0.00  -0.00  -0.00     0.00  -0.00  -0.00     0.00  -0.00  -0.00
  31   6    -0.00  -0.00  -0.00    -0.00  -0.00  -0.00    -0.00  -0.00  -0.00
  32   6    -0.00   0.00  -0.00    -0.00  -0.00  -0.00    -0.00   0.00  -0.00
  33   6    -0.00  -0.00  -0.00    -0.00   0.00   0.00     0.00  -0.00  -0.00
  34   6    -0.00  -0.00  -0.00     0.00  -0.00  -0.00    -0.00  -0.00  -0.00
  35   6     0.00  -0.00  -0.00    -0.00   0.00   0.00     0.00  -0.00  -0.00
  36   7    -0.00   0.00  -0.00     0.00  -0.00   0.00    -0.00   0.00  -0.00
  37   6     0.00  -0.00   0.00     0.00   0.00   0.00     0.00  -0.00   0.00
  38   6     0.01  -0.00   0.00    -0.00  -0.00  -0.00    -0.00   0.00   0.00
  39   6     0.24   0.01   0.10    -0.02  -0.00  -0.01    -0.00  -0.00  -0.00
  40   6     0.03   0.07   0.03    -0.01  -0.02  -0.01    -0.00  -0.00  -0.00
  41   6    -0.02   0.02  -0.00     0.02  -0.03   0.00     0.00  -0.00   0.00
  42   6    -0.02  -0.00  -0.01     0.13   0.00   0.06     0.00   0.00   0.00
  43   6    -0.00  -0.00  -0.00     0.00   0.00   0.00     0.00  -0.00   0.00
  44   6    -0.00  -0.00  -0.00    -0.00  -0.01  -0.00    -0.00   0.00   0.00
  45   6     0.03  -0.03  -0.00     0.14  -0.17  -0.01     0.00  -0.00  -0.00
  46   6     0.01   0.00   0.00     0.06   0.00   0.02     0.00   0.00   0.00
  47   6     0.00   0.00   0.00     0.01   0.02   0.00     0.00   0.00   0.00
  48   6     0.00  -0.00  -0.00     0.01  -0.01   0.00    -0.00   0.01  -0.00
  49   6    -0.00   0.00   0.00     0.00   0.00   0.00     0.00   0.00   0.00
  50   6     0.00   0.00   0.00    -0.00  -0.00  -0.00    -0.00   0.00  -0.00
  51   6     0.00   0.00   0.00    -0.00  -0.00  -0.00     0.00   0.01   0.01
  52   1     0.00  -0.00  -0.00     0.00  -0.00  -0.00    -0.11   0.84   0.27
  53   1     0.00   0.00   0.01    -0.00  -0.00  -0.01     0.08   0.08   0.31
  54   1     0.00  -0.01   0.01    -0.00   0.00  -0.00     0.05  -0.09   0.08
  55   1    -0.01  -0.01  -0.01     0.01   0.01   0.01    -0.01  -0.01  -0.01
  56   1     0.00  -0.00  -0.00     0.00  -0.00  -0.00     0.00  -0.00  -0.00
  57   1    -0.00   0.00  -0.00     0.00  -0.00   0.00    -0.00  -0.00  -0.00
  58   1    -0.00  -0.00   0.00    -0.00  -0.00  -0.00     0.00   0.00   0.00
  59   1    -0.00   0.00  -0.00     0.00   0.00   0.00    -0.00  -0.00  -0.00
  60   1    -0.00   0.00   0.00     0.00  -0.00  -0.00    -0.00   0.00   0.00
  61   1    -0.00   0.00  -0.00     0.00  -0.00   0.00    -0.00   0.00   0.00
  62   1    -0.00   0.00   0.00     0.00  -0.00  -0.00     0.00  -0.00  -0.00
  63   1     0.00  -0.00   0.00     0.00  -0.00  -0.00     0.00   0.00   0.00
  64   1    -0.00   0.00   0.00     0.00   0.00   0.00     0.00   0.00   0.00
  65   1    -0.00   0.00   0.00     0.00  -0.00  -0.00    -0.00   0.00   0.00
  66   1    -0.00   0.00   0.00     0.00  -0.00  -0.00    -0.00   0.00   0.00
  67   1     0.00   0.00   0.00    -0.01  -0.00  -0.00     0.00   0.00   0.00
  68   1    -0.00   0.00   0.00    -0.01   0.00   0.00     0.00  -0.00  -0.00
  69   1    -0.11  -0.00  -0.01    -0.01  -0.00  -0.00     0.00   0.00   0.00
  70   1    -0.01   0.01   0.01    -0.00   0.00   0.00    -0.00   0.00   0.00
  71   1     0.00   0.00   0.01     0.00   0.00   0.00     0.00   0.00   0.00
  72   1     0.00   0.00   0.00     0.01   0.00   0.00     0.00   0.00   0.00
  73   1     0.00   0.00   0.00     0.00   0.00   0.00     0.00   0.00   0.00
  74   1    -0.01   0.01   0.01     0.01  -0.02  -0.01    -0.01   0.01   0.01
  75   1    -0.83  -0.03  -0.34     0.06   0.00   0.02     0.01   0.00   0.00
  76   1    -0.09  -0.23  -0.10     0.02   0.05   0.02     0.00   0.00   0.00
  77   1     0.06  -0.08   0.00    -0.06   0.08  -0.00    -0.00   0.00  -0.00
  78   1     0.06   0.00   0.03    -0.47  -0.02  -0.20    -0.01  -0.00  -0.00
  79   1    -0.09   0.11   0.00    -0.49   0.60   0.02    -0.00   0.01   0.00
  80   1    -0.05  -0.00  -0.01    -0.20  -0.02  -0.05    -0.00  -0.00  -0.00
  81   1    -0.01  -0.01  -0.00    -0.02  -0.06  -0.02    -0.00  -0.00  -0.00
  82   1    -0.00   0.00  -0.00    -0.02   0.03  -0.00     0.01  -0.02   0.00
  83   1    -0.00  -0.00  -0.01     0.00   0.00   0.01    -0.01  -0.01  -0.04
                    241                    242                    243
                        a                      a                      a 
 Frequencies --  3118.5744              3123.9416              3124.5140
 Red. masses --     1.8638                 1.8267                 1.8349
 Frc consts  --     0.0000                 0.0000                 0.0000
 IR Inten    --    27.6520                29.7991                53.8437
 Raman Activ --     0.0000                 0.0000                 0.0000
 Depolar     --     0.0000                 0.0000                 0.0000
 Atom AN      X      Y      Z        X      Y      Z        X      Y      Z
   1   9     0.00   0.00   0.00     0.00   0.00  -0.00    -0.00  -0.00  -0.00
   2   6    -0.00  -0.00   0.00    -0.00  -0.00   0.00    -0.00  -0.00   0.00
   3   9    -0.00   0.00   0.00     0.00   0.00  -0.00     0.00   0.00   0.00
   4   9     0.00   0.00  -0.00    -0.00   0.00  -0.00     0.00   0.00  -0.00
   5   6     0.00   0.00  -0.00     0.00  -0.00  -0.00    -0.00   0.00  -0.00
   6   6     0.00  -0.00  -0.00     0.00  -0.00  -0.00    -0.00   0.01   0.00
   7   6    -0.00  -0.00  -0.00    -0.00  -0.00  -0.01    -0.00   0.00   0.00
   8   6    -0.00   0.00  -0.00    -0.00   0.01  -0.01     0.00  -0.00   0.00
   9   6    -0.00  -0.00  -0.00     0.00   0.00   0.00     0.00  -0.00  -0.00
  10   7     0.00   0.00   0.00    -0.00   0.00  -0.00    -0.00   0.00  -0.00
  11   6    -0.00   0.00   0.00     0.00  -0.00   0.00     0.00  -0.00   0.00
  12   6    -0.01   0.00   0.00     0.00   0.00   0.00     0.01  -0.00   0.00
  13   6     0.01   0.01   0.02     0.03   0.03   0.04     0.12   0.12   0.19
  14   6    -0.00   0.01   0.00    -0.01   0.01   0.01    -0.03   0.05   0.04
  15   6     0.00  -0.00  -0.00    -0.00  -0.00  -0.00    -0.00  -0.00  -0.00
  16   8    -0.00   0.00   0.00     0.00   0.00   0.00     0.00   0.00   0.00
  17   6     0.00   0.00  -0.00     0.00   0.00   0.00    -0.00   0.00   0.00
  18   6    -0.00  -0.00  -0.00     0.00  -0.00  -0.00    -0.00  -0.00  -0.00
  19   6     0.00  -0.00  -0.00     0.00  -0.00  -0.00    -0.00   0.00  -0.00
  20   6     0.00   0.00   0.00     0.00   0.00  -0.00    -0.00   0.00   0.00
  21   7     0.00  -0.00  -0.00     0.00  -0.00   0.00    -0.00   0.00   0.00
  22   6     0.00   0.00   0.00     0.00   0.00   0.00     0.00   0.00   0.00
  23   6     0.00  -0.00  -0.00     0.00  -0.00  -0.00    -0.00   0.00   0.00
  24   6     0.00  -0.00  -0.00     0.00  -0.00  -0.00    -0.00   0.00   0.00
  25   6    -0.00  -0.00  -0.00    -0.00  -0.00  -0.00     0.00  -0.00   0.00
  26   6    -0.00   0.00   0.00    -0.00   0.00   0.00     0.00  -0.00  -0.00
  27   6    -0.00   0.00   0.00    -0.00   0.00   0.00     0.00   0.00   0.00
  28   6    -0.00   0.00   0.00    -0.00   0.00   0.00     0.00  -0.00  -0.00
  29   6    -0.01  -0.00  -0.00    -0.00  -0.00  -0.00     0.00   0.00   0.00
  30   6    -0.00   0.00   0.00    -0.00   0.00   0.00     0.00  -0.00  -0.00
  31   6     0.00   0.00   0.00     0.00   0.00   0.00    -0.00  -0.00  -0.00
  32   6     0.00   0.00   0.00     0.00   0.00   0.00    -0.00  -0.00  -0.00
  33   6    -0.00   0.00   0.00    -0.00  -0.00  -0.00    -0.00   0.00   0.00
  34   6     0.05   0.04   0.06     0.00   0.00   0.00    -0.01  -0.00  -0.01
  35   6    -0.13   0.18   0.13    -0.00   0.00   0.00     0.01  -0.02  -0.02
  36   7     0.00  -0.00  -0.00    -0.00   0.00   0.00    -0.00   0.00   0.00
  37   6     0.00   0.00   0.00    -0.00  -0.00  -0.00     0.00  -0.00   0.00
  38   6     0.00  -0.00  -0.00    -0.00   0.00   0.00    -0.00   0.00  -0.00
  39   6     0.00   0.00   0.00     0.00  -0.00   0.00    -0.00  -0.00  -0.00
  40   6     0.00   0.00   0.00     0.00   0.00   0.00    -0.00  -0.00  -0.00
  41   6    -0.00   0.00  -0.00    -0.00   0.00  -0.00     0.00  -0.00  -0.00
  42   6    -0.00  -0.00  -0.00    -0.00   0.00  -0.00     0.00   0.00   0.00
  43   6    -0.00   0.00  -0.00     0.00  -0.00   0.00     0.00   0.00   0.00
  44   6    -0.00   0.00   0.00    -0.00   0.00  -0.00     0.00  -0.00   0.00
  45   6    -0.00   0.00   0.00    -0.00   0.00  -0.00     0.00  -0.00  -0.00
  46   6    -0.00  -0.00  -0.00    -0.01   0.00  -0.00     0.00  -0.00   0.00
  47   6     0.00   0.00   0.00    -0.02  -0.04  -0.01     0.00   0.01   0.00
  48   6    -0.01   0.01  -0.00     0.16  -0.21   0.01    -0.03   0.04  -0.00
  49   6     0.00   0.00   0.00     0.01  -0.00   0.00    -0.00   0.00  -0.00
  50   6    -0.00  -0.00  -0.00     0.00  -0.00   0.00     0.00   0.00   0.00
  51   6    -0.00  -0.00  -0.00     0.00   0.00   0.00    -0.00  -0.00  -0.02
  52   1    -0.00   0.01   0.00    -0.00   0.01   0.00     0.00  -0.02  -0.01
  53   1     0.00   0.00   0.01     0.00   0.00   0.02    -0.00  -0.00  -0.00
  54   1     0.00  -0.00   0.00     0.01  -0.02   0.02    -0.00   0.01  -0.01
  55   1    -0.05  -0.05  -0.07    -0.09  -0.09  -0.15    -0.42  -0.43  -0.68
  56   1     0.01  -0.02  -0.01     0.02  -0.03  -0.02     0.09  -0.15  -0.12
  57   1    -0.00   0.00  -0.00    -0.00   0.00  -0.00     0.00  -0.00   0.00
  58   1    -0.00  -0.00  -0.00    -0.00  -0.00  -0.00    -0.00  -0.00  -0.00
  59   1     0.00  -0.00  -0.00     0.00  -0.00  -0.00     0.00   0.00   0.00
  60   1     0.00  -0.00  -0.00    -0.00   0.00   0.00    -0.00   0.00   0.00
  61   1     0.00  -0.00  -0.00    -0.00   0.00  -0.00     0.00  -0.00   0.00
  62   1    -0.00   0.00   0.00    -0.00  -0.00   0.00    -0.00  -0.00   0.00
  63   1     0.00   0.00  -0.00     0.00  -0.00   0.00     0.00  -0.00  -0.00
  64   1    -0.00  -0.00  -0.00    -0.00  -0.00   0.00     0.00   0.00   0.00
  65   1    -0.00   0.00   0.00    -0.00   0.00   0.00     0.00  -0.00  -0.00
  66   1    -0.00   0.00   0.00    -0.00   0.00   0.00    -0.00  -0.00  -0.00
  67   1     0.00   0.00   0.00     0.00   0.00   0.00    -0.00  -0.00  -0.00
  68   1     0.00  -0.00  -0.00     0.00  -0.00  -0.00    -0.01   0.00   0.00
  69   1     0.02   0.00   0.00     0.01   0.00   0.00    -0.00  -0.00  -0.00
  70   1     0.00  -0.00  -0.00     0.00  -0.00  -0.00    -0.00   0.00   0.00
  71   1    -0.00  -0.00  -0.00    -0.00  -0.00  -0.00     0.00   0.00   0.00
  72   1    -0.00   0.00  -0.00    -0.00  -0.00  -0.00     0.01   0.00   0.00
  73   1    -0.15  -0.14  -0.21    -0.00  -0.00  -0.00     0.01   0.01   0.02
  74   1     0.43  -0.65  -0.47     0.01  -0.01  -0.01    -0.05   0.07   0.05
  75   1    -0.02  -0.00  -0.01    -0.00  -0.00  -0.00     0.01   0.00   0.01
  76   1    -0.00  -0.01  -0.00    -0.00  -0.00  -0.00     0.00   0.01   0.00
  77   1     0.00  -0.00   0.00     0.00  -0.00   0.00    -0.00   0.00  -0.00
  78   1     0.01   0.00   0.00     0.00   0.00   0.00    -0.01  -0.00  -0.00
  79   1     0.01  -0.01  -0.00     0.01  -0.01  -0.00    -0.01   0.01   0.00
  80   1     0.00   0.00   0.00     0.04   0.00   0.01    -0.02  -0.00  -0.00
  81   1    -0.00  -0.00  -0.00     0.05   0.12   0.03    -0.01  -0.03  -0.01
  82   1     0.02  -0.03   0.00    -0.55   0.75  -0.03     0.11  -0.15   0.01
  83   1     0.00   0.00   0.02    -0.00  -0.00  -0.00     0.01   0.01   0.05
