83
 energy: -137.733712295092 gnorm: 0.000051038168 xtb: 6.7.1 (edcfbbe)
F           -4.50466774701246       -3.67419949742138        3.29611601414452
C           -4.94605014187639       -4.26625566637179        2.17119809452056
F           -4.61698152181769       -5.56346257896925        2.27686855478431
F           -6.29524859165404       -4.22120930550976        2.23995736764347
C           -4.42116257755294       -3.61733054616197        0.92390592431141
C           -4.10546339101923       -4.38648709311500       -0.18946908773906
C           -3.65247991117287       -3.75869225866481       -1.33793525101280
C           -3.52366316747984       -2.38197894062783       -1.38158081336991
C           -3.84750017306452       -1.61631885171688       -0.26470540645188
N           -3.69273368669508       -0.22087413186856       -0.29996424214004
C           -2.49357544572828        0.43767398291764       -0.49691138643155
C           -1.21071812699769       -0.21725991135466       -0.69631762948543
C           -0.29490581347092        0.36960191238035       -1.57484501221000
C            0.93633397459664       -0.20160826900805       -1.79069666662316
C            1.30269607941583       -1.37486101595956       -1.12228139818763
O            2.53893943843547       -1.85230355533620       -1.40411922460411
C            3.04777591133995       -2.95284631963601       -0.66949346641396
C            4.50486121371177       -3.16534690704834       -1.08180516082870
C            5.34928691886154       -1.89640544933504       -0.96355800157497
C            5.52458865093985       -1.40921467431381        0.47984743723407
N            6.23265906882770       -0.15772692617439        0.52359895415747
C            7.59026316855166        0.00928789287554        0.65022023522919
C            8.58902811516876       -0.93712895467041        0.83959260672467
C            9.89249585086688       -0.49206688265036        0.94759633044219
C           10.20795501587414        0.86341441361506        0.87123736876777
C            9.22191500515078        1.81118884641414        0.68159876822615
C            7.90332773287906        1.38889385246430        0.56911874641739
C            6.65923754317981        2.07412380653695        0.36113918391497
C            6.31466129101226        3.40996120273318        0.19684016431608
C            4.98667900069700        3.73202934221861       -0.00173486861397
C            4.00618628225463        2.74181883818138       -0.03896458399026
C            4.32332074598744        1.40703744531633        0.12335338483834
C            5.65655516067438        1.07500980422376        0.32705365089586
C            0.40468023773752       -1.95045505513802       -0.22802136937762
C           -0.83555583733474       -1.37373243309938       -0.02004779204198
N           -2.63874494933235        1.73698872161511       -0.46926322296494
C           -3.96110257243818        1.96639332808681       -0.24406049957295
C           -4.61234815008622        3.22307239327678       -0.09531032030381
C           -3.89785493979905        4.42434005408557       -0.16611790619275
C           -4.53919266449920        5.62455748718490        0.01367190149636
C           -5.90925753114091        5.63634942651336        0.27033328050201
C           -6.62240002429354        4.46203319046967        0.33658839399039
C           -6.00463496853109        3.21501577068787        0.15052086551202
C           -6.73523304960873        1.95938236438974        0.18086933418130
C           -8.12702369857739        1.92419551723011        0.35238071986982
C           -8.83592644431704        0.74623710282257        0.33880923126531
C           -8.17740695371686       -0.46135165324157        0.12840719561932
C           -6.81429842180046       -0.47127883542359       -0.03695186992302
C           -6.06666156412473        0.71489771573055        0.00936972707241
C           -4.65145550006291        0.76139325661290       -0.14248596274507
C           -4.29469112573246       -2.23614891952437        0.89884740721161
H           -4.21051864816952       -5.45920910804499       -0.15134383817949
H           -3.40441474774141       -4.34770956138112       -2.20629032063378
H           -3.17357457927876       -1.89008602173608       -2.27613646390964
H           -0.57299116817373        1.28048557765174       -2.08130446895240
H            1.64477456013471        0.24369856796436       -2.47172469765073
H            2.97611227774460       -2.75020366645635        0.40634537624837
H            2.46548312698947       -3.85722042077336       -0.89156711754372
H            4.52389148453458       -3.49282382753914       -2.12226890215883
H            4.92301381610244       -3.96034858653273       -0.46259641362765
H            4.87614721217025       -1.10386416298586       -1.54530813047256
H            6.33572445163670       -2.08360983083304       -1.39235494836447
H            6.07739972365858       -2.14769331474085        1.06589908648929
H            4.55034427890680       -1.25723314901291        0.95080244422769
H            8.36520979732043       -1.99182594948398        0.89647484910286
H           10.68667797394342       -1.21040119549229        1.09325814707753
H           11.23980621226122        1.17142940388584        0.95973191954039
H            9.46720326440828        2.86143650495886        0.62086110654530
H            7.07332725251368        4.17850360711999        0.22246668325643
H            4.69862141665470        4.76512327532358       -0.13299266105725
H            2.97531945540198        3.02376693892123       -0.19919128177396
H            3.55043691788687        0.65465317691740        0.08307756502460
H            0.65888690078524       -2.84577269644180        0.31667672331764
H           -1.50025215304681       -1.82504870684903        0.70088517340703
H           -2.83697231527475        4.37053808361647       -0.35737869158866
H           -3.99039522449498        6.55340729553737       -0.03775300658108
H           -6.41752059290088        6.57826953937328        0.41897784805467
H           -7.67955250936563        4.52086611103013        0.54044527030401
H           -8.67212293627513        2.84332368464544        0.49252912419901
H           -9.90703069709848        0.75970732883795        0.47681066828559
H           -8.73289219960360       -1.38682126256634        0.09246441676610
H           -6.31455818662237       -1.40853624891858       -0.22084228628145
H           -4.54009888022877       -1.64515542215214        1.76894912657689
