$hessian                                                                        
        0.0805454195   0.0715817146   0.0165402468  -0.0494450083  -0.0368520699
       -0.0029525493   0.0073257976   0.0004780646  -0.0040088106  -0.0433085079
       -0.0470479954  -0.0064447528   0.0052537284   0.0092873530  -0.0022514169
        0.0005210139   0.0009238408   0.0001323602  -0.0001373265  -0.0001026724
        0.0002282417   0.0000940258   0.0002678890   0.0004843098  -0.0007270152
        0.0000570143  -0.0005165511  -0.0001392653  -0.0000051804  -0.0001149682
        0.0002910432  -0.0001322282   0.0000247881  -0.0002864215   0.0000970619
       -0.0000327353   0.0000115904  -0.0002059598  -0.0001172245   0.0000175338
        0.0000110622   0.0001466675  -0.0001488147  -0.0000126262  -0.0001163626
        0.0002670251  -0.0000692065   0.0000831095  -0.0000342812   0.0000920160
        0.0000183452  -0.0000070826  -0.0000404336   0.0000030303  -0.0000093200
       -0.0000283417  -0.0000097831  -0.0000180106  -0.0000037123   0.0000190154
        0.0000252096  -0.0000158800   0.0000076585  -0.0000024615   0.0000023767
       -0.0000148027  -0.0000077968  -0.0000008799   0.0000219327  -0.0000046553
        0.0000074667   0.0000192365  -0.0000207760  -0.0000007380   0.0000008926
       -0.0000180720  -0.0000209267  -0.0000182020   0.0000185522   0.0000123945
        0.0000097860   0.0000200149  -0.0000190691  -0.0000177928   0.0000025707
        0.0000239868   0.0000271270  -0.0000079069  -0.0000244844  -0.0000188644
       -0.0000025424  -0.0000129301  -0.0000100184  -0.0000207602  -0.0000132166
       -0.0000020541  -0.0000040029   0.0000225925   0.0000088646  -0.0000709234
        0.0000232964   0.0000029702   0.0001061213   0.0000650094   0.0000745223
       -0.0001304501   0.0002071424   0.0000490639   0.0000893479   0.0000297251
        0.0000460089   0.0000033401   0.0000383981   0.0000192498   0.0000022017
       -0.0000315531  -0.0000117172  -0.0000090465   0.0000223255   0.0000020102
        0.0000107788  -0.0000082640   0.0000021676  -0.0000036791   0.0000216435
        0.0000005861  -0.0000243986  -0.0000489696  -0.0000124866  -0.0000273872
        0.0000796114   0.0000126625  -0.0000022044   0.0000042243  -0.0000058731
       -0.0000211488   0.0000592805   0.0000032262   0.0000433889  -0.0000352866
       -0.0000002651   0.0000043981  -0.0000814418  -0.0000342965   0.0000790039
        0.0000158706   0.0000267395  -0.0001184764  -0.0000360111  -0.0000388084
        0.0001064155   0.0008476028  -0.0008276013  -0.0001659241   0.0004254598
       -0.0002189516   0.0000119329  -0.0000130183   0.0000282367   0.0000395066
        0.0000174469  -0.0000242379  -0.0000866751   0.0000441483   0.0000018807
        0.0000533775   0.0000535696  -0.0000414650   0.0000062190  -0.0000113903
       -0.0000091037   0.0000131612  -0.0000007849  -0.0000022529  -0.0000048913
        0.0000338459  -0.0000063421   0.0000195184   0.0000071497  -0.0000175612
        0.0000092799   0.0000005116   0.0000044460  -0.0000028673   0.0000019449
       -0.0000034886   0.0000024583   0.0000053094  -0.0000074390   0.0000096085
       -0.0000015346  -0.0000042271   0.0000159506   0.0000064778  -0.0000085988
       -0.0000067461  -0.0000009491  -0.0000137810   0.0000026835   0.0000022490
        0.0000090750   0.0000054911  -0.0000070393  -0.0000049417  -0.0000027487
       -0.0000020206   0.0000007982  -0.0000027199   0.0000022428   0.0000038831
        0.0000045334   0.0000058196   0.0000073442   0.0000105336   0.0000039290
        0.0000007574   0.0000020014  -0.0000001107  -0.0000050184   0.0000056830
       -0.0000115964  -0.0000072145   0.0000022003   0.0000010952   0.0000029403
       -0.0000006334   0.0000072308   0.0000041325  -0.0000022102   0.0000079149
        0.0000021058  -0.0000011070  -0.0000000485   0.0000003632  -0.0000097711
        0.0000064920   0.0000018441  -0.0000089824   0.0000021107  -0.0000018192
        0.0000229661   0.0000018226   0.0000127043  -0.0000216505  -0.0000110259
        0.0000145440  -0.0000009575  -0.0000061381  -0.0001554955
        0.0715817146   0.2940250535   0.0520533164  -0.0236307092  -0.2029158323
       -0.0035865747  -0.0003749931  -0.0268460448  -0.0446221787  -0.0439151161
       -0.0169808701  -0.0039731580  -0.0051781067  -0.0422923909  -0.0016669409
       -0.0005437278  -0.0007028090  -0.0045013534   0.0000633852   0.0011530987
       -0.0009362817  -0.0007403019  -0.0011336333  -0.0028280460   0.0017658562
        0.0001041236   0.0014125362   0.0013168539  -0.0009532038   0.0005251973
       -0.0013140331   0.0003997835  -0.0001359934   0.0013244997  -0.0003815081
        0.0001870775  -0.0004833042   0.0003934046   0.0003370065   0.0003004349
        0.0000055282   0.0000559678   0.0001330467   0.0001937117   0.0001183051
       -0.0003116753  -0.0000004311  -0.0000577938   0.0000626383  -0.0000310949
        0.0000069489  -0.0000206795  -0.0000046639  -0.0000105398  -0.0000297343
       -0.0000175136   0.0000553292  -0.0000626843   0.0000480873  -0.0000991118
       -0.0000661723  -0.0000127027   0.0001143132   0.0000755360   0.0000941186
        0.0000349609   0.0000797787  -0.0000907283  -0.0000775155  -0.0000290158
       -0.0000829673  -0.0000696723  -0.0000190062  -0.0001432608  -0.0001008985
       -0.0000243602   0.0001822832   0.0002042763  -0.0001506520  -0.0001430230
       -0.0001277189  -0.0000931798   0.0001731016   0.0001844250  -0.0000851424
       -0.0002325124  -0.0001885661   0.0000896186   0.0001230947   0.0001378935
       -0.0000127636   0.0000560520   0.0000836659   0.0001043097   0.0000550643
        0.0000659551   0.0000587914  -0.0000754909  -0.0001240009   0.0004116110
       -0.0002145221  -0.0000838709  -0.0005029724  -0.0002047607  -0.0002463240
        0.0004657311  -0.0004766686  -0.0000900293  -0.0004802913  -0.0003023890
       -0.0003012131  -0.0000239223  -0.0002182936  -0.0000740610  -0.0001076385
        0.0003040837   0.0000626675   0.0003424277  -0.0002351374   0.0000645072
       -0.0001922744  -0.0001308902  -0.0001076190   0.0000669343  -0.0000059971
        0.0000341910   0.0000541980   0.0002422892   0.0000466044   0.0004447192
       -0.0005073494  -0.0000452863  -0.0001521955  -0.0000073472  -0.0000292345
        0.0003284820  -0.0002343468   0.0000364875  -0.0005679108   0.0001872681
       -0.0001297158   0.0005970707   0.0003529729   0.0001886153  -0.0009989987
       -0.0000070749  -0.0002441845   0.0002037563   0.0006062009   0.0003008025
        0.0010407114  -0.0039438315   0.0069243540  -0.0003658057   0.0003359383
        0.0009739369  -0.0000437575   0.0000553794   0.0000885481  -0.0001785716
       -0.0001384799   0.0001499685   0.0001093828   0.0000317638  -0.0000907922
        0.0000348960   0.0000206265  -0.0000263188  -0.0000194053  -0.0000218460
       -0.0000177286   0.0000528550  -0.0000019322  -0.0000043994   0.0000096234
       -0.0000183908  -0.0000488957  -0.0000191933  -0.0000013570   0.0000147167
       -0.0000387822   0.0000092926  -0.0000097119   0.0000185848   0.0000131764
        0.0000199839   0.0000134838   0.0000005561   0.0000081763  -0.0000018428
       -0.0000320240   0.0000100283  -0.0000210624   0.0000151454  -0.0000065116
        0.0000085920   0.0000244533   0.0000217478   0.0000550226   0.0000202753
       -0.0000118794   0.0000556016   0.0000000807  -0.0000322474   0.0000276296
        0.0000099441  -0.0000037292   0.0000257514  -0.0000117929  -0.0000127914
       -0.0000017127  -0.0000229062  -0.0000151953  -0.0000160442   0.0000053103
       -0.0000040901  -0.0000154448  -0.0000398259  -0.0000344707   0.0000183644
       -0.0000293191  -0.0000291648  -0.0000204596   0.0000169796   0.0000053437
       -0.0000113202  -0.0000205260  -0.0000048169   0.0000135474  -0.0000223942
        0.0000036072   0.0000201073   0.0000039159   0.0000070808   0.0000236797
       -0.0000278277  -0.0000055548   0.0000316208  -0.0000022849   0.0000095436
        0.0000340304   0.0000320203   0.0000072812  -0.0000878280  -0.0000610564
       -0.0000435924  -0.0005120870   0.0006870745   0.0003044063
        0.0165402468   0.0520533164   0.0731056035  -0.0055287668  -0.0218953954
       -0.0498373109  -0.0051137493  -0.0478439905  -0.0314448642  -0.0049822900
       -0.0031724659   0.0065325983   0.0007755666   0.0149536371   0.0039941896
       -0.0000802964   0.0017046534  -0.0008604146   0.0002945238  -0.0003650898
        0.0006841906   0.0000334336   0.0004211545   0.0003245928  -0.0000480251
       -0.0001855998   0.0003276734  -0.0002987947   0.0003310732  -0.0000219818
        0.0002314856  -0.0000013123   0.0000009676  -0.0001687901   0.0000636183
       -0.0000306526   0.0000820852  -0.0001084424  -0.0001199663  -0.0000416715
       -0.0000188713   0.0000166710  -0.0001153093   0.0000155822  -0.0000491826
        0.0001874229  -0.0000266850   0.0000744662  -0.0000229804   0.0000302202
       -0.0000030994  -0.0000017006  -0.0000071921   0.0000039568  -0.0000094055
       -0.0000192246  -0.0000001929  -0.0000606595   0.0000030188   0.0000077188
       -0.0000098121   0.0000191748   0.0000370845   0.0000192092   0.0000236433
        0.0000161746  -0.0000180842   0.0000031347   0.0000013227   0.0000038573
        0.0000120875  -0.0000055848   0.0000022024   0.0000035879  -0.0000195672
        0.0000283487   0.0000114470   0.0000034115  -0.0000039820  -0.0000128769
       -0.0000093292  -0.0000204484   0.0000162937   0.0000116281   0.0000260339
       -0.0000228181  -0.0000205500   0.0000265357  -0.0000033696   0.0000033354
       -0.0000107706  -0.0000137304  -0.0000035360  -0.0000205707  -0.0000015724
        0.0000036720   0.0000487203  -0.0000374149  -0.0000439054  -0.0000258511
        0.0000088245   0.0000183426   0.0000651559   0.0000490682   0.0000801867
       -0.0000138643   0.0000780032   0.0000436016   0.0000032316   0.0000159465
        0.0000223336  -0.0000085566   0.0000586749   0.0000291369   0.0000192688
       -0.0000577937  -0.0000137885  -0.0000497262   0.0000393766  -0.0000085505
        0.0000266217   0.0000078566   0.0000116312  -0.0000197180   0.0000265734
        0.0000105234  -0.0000176023  -0.0000906309  -0.0000189059  -0.0000851772
        0.0001429223   0.0000135912   0.0000216489  -0.0000016480   0.0000047781
       -0.0000845705   0.0000650673  -0.0000153707   0.0001165761  -0.0000342345
        0.0000133546  -0.0000795343  -0.0001279078  -0.0000171301   0.0001737944
        0.0000191483   0.0000532423  -0.0000864596  -0.0000110372  -0.0000423044
       -0.0014546994   0.0024652720  -0.0019867039  -0.0002890261   0.0012133819
       -0.0007605161   0.0000262332  -0.0000472518   0.0000634742   0.0000023325
        0.0000663707  -0.0000027166  -0.0000196243  -0.0000318107   0.0000323056
       -0.0000265645   0.0000025663  -0.0000199591   0.0000131958   0.0000073610
        0.0000012454  -0.0000085945  -0.0000013613  -0.0000194388   0.0000042481
       -0.0000013863  -0.0000003296   0.0000009595  -0.0000015009  -0.0000106874
        0.0000123827   0.0000045337  -0.0000006334  -0.0000095176   0.0000056785
       -0.0000002505  -0.0000008772  -0.0000041885  -0.0000004299   0.0000068471
        0.0000074665   0.0000018967   0.0000071689  -0.0000006404  -0.0000048207
       -0.0000062936  -0.0000035511   0.0000092322   0.0000048763  -0.0000112114
        0.0000058904  -0.0000114706  -0.0000020747   0.0000014594  -0.0000088709
       -0.0000048928   0.0000001357  -0.0000088593   0.0000086156   0.0000120328
        0.0000050202   0.0000102750   0.0000122537   0.0000117480   0.0000035196
        0.0000025671   0.0000087574   0.0000175838   0.0000039948   0.0000032177
        0.0000180383   0.0000032406   0.0000015094  -0.0000005946  -0.0000019334
        0.0000000374   0.0000059249   0.0000051883  -0.0000048557   0.0000091426
        0.0000011539  -0.0000039053  -0.0000018588  -0.0000048119  -0.0000103304
        0.0000062002   0.0000000773  -0.0000130891   0.0000021916  -0.0000048124
        0.0000050264  -0.0000075591  -0.0000081238   0.0000294969  -0.0000008957
       -0.0000261554   0.0000347190   0.0001488546  -0.0001676167
       -0.0494450083  -0.0236307092  -0.0055287668   0.3526516223  -0.0314091000
        0.0306787802  -0.0464224296   0.0033579914   0.0156323905  -0.1827618428
        0.0082409506   0.0000871953  -0.0723771879   0.0325464019  -0.0225108750
       -0.0061262761  -0.0003339686  -0.0163937270   0.0052186235   0.0014433016
       -0.0021095419  -0.0019020622  -0.0023960999  -0.0066324059   0.0084648613
        0.0034401249   0.0068655500   0.0011364036  -0.0000442166   0.0007058215
       -0.0035202733   0.0010035392  -0.0003915338   0.0037609606  -0.0012253454
        0.0004519558  -0.0003436756   0.0017689488   0.0005848013  -0.0000193403
        0.0002324112  -0.0007941515   0.0007023755   0.0004353533   0.0009425293
       -0.0014972847   0.0003536261  -0.0005232008   0.0001261643  -0.0003873255
       -0.0000155965   0.0000001601   0.0002429340  -0.0000223257   0.0000208537
        0.0001337551   0.0001184802  -0.0001120683   0.0000735632  -0.0001735546
       -0.0001448738   0.0000893944   0.0000656941   0.0001057186   0.0000872389
        0.0001396402   0.0000778064  -0.0000711566  -0.0001937078  -0.0000396784
       -0.0000557605  -0.0001205838   0.0000643626  -0.0001480998  -0.0001757136
        0.0000681712   0.0003143394   0.0003070440  -0.0002731932  -0.0002644660
       -0.0002393368  -0.0001860423   0.0003066533   0.0003077091  -0.0001108911
       -0.0003735839  -0.0003541870   0.0001982545   0.0002469087   0.0002336714
       -0.0000478678   0.0001246027   0.0001200852   0.0001931349   0.0001388964
        0.0000900463   0.0001011213  -0.0002131341  -0.0001801104   0.0011792045
       -0.0005390719  -0.0001995387  -0.0013972105  -0.0006005664  -0.0007424420
        0.0013814775  -0.0016816384  -0.0004327626  -0.0013266872  -0.0003716222
       -0.0005680639   0.0000090784  -0.0004675186  -0.0001663099  -0.0001602845
        0.0006325203   0.0001641279   0.0004819888  -0.0004430764   0.0000665026
       -0.0003056779  -0.0001315393  -0.0001451440   0.0001287832  -0.0001139592
        0.0000473575   0.0001508816   0.0005980980   0.0001190527   0.0007298994
       -0.0011603812  -0.0001377423  -0.0001862747  -0.0000104987  -0.0000094923
        0.0005684273  -0.0006406738   0.0000347640  -0.0011141792   0.0004941213
       -0.0002121987   0.0009373512   0.0007119808   0.0004988031  -0.0019667329
       -0.0000547047  -0.0005199851   0.0013878630   0.0010423576   0.0006347152
       -0.0045911093   0.0113815077  -0.0022113204  -0.0010882169  -0.0003525234
        0.0009285021  -0.0000549951   0.0001233249   0.0000943635  -0.0011359460
       -0.0005159783   0.0005305697   0.0004196503  -0.0002760945   0.0003050577
       -0.0003465525  -0.0001711882   0.0002175378  -0.0000197529   0.0000138880
        0.0000278443  -0.0000344287   0.0000225150   0.0000020254   0.0000163057
       -0.0001892940   0.0000081763  -0.0000784684  -0.0000391494   0.0000692749
       -0.0000591826   0.0000056549  -0.0000371867   0.0000228397  -0.0000174453
        0.0000109412  -0.0000020682  -0.0000218244   0.0000403961  -0.0000352643
       -0.0000136116   0.0000348801  -0.0000567117  -0.0000186603   0.0000269467
        0.0000380663   0.0000257837   0.0000751617   0.0000901938   0.0000037411
       -0.0000037098   0.0000704138  -0.0000097234  -0.0000167701   0.0000570575
       -0.0000015869  -0.0000190842   0.0000398490  -0.0000223370  -0.0000323898
       -0.0000091846  -0.0000381596  -0.0000428322  -0.0000493053  -0.0000098554
       -0.0000152348  -0.0000050620  -0.0000391811  -0.0000051126   0.0000134758
        0.0000264955   0.0000194743  -0.0000349475  -0.0000082792  -0.0000112337
       -0.0000066999  -0.0000342309  -0.0000188914   0.0000187167  -0.0000371144
       -0.0000035415   0.0000161496   0.0000044208   0.0000065524   0.0000531995
       -0.0000533766  -0.0000092106   0.0000484771  -0.0000118069   0.0000316120
       -0.0000295831   0.0000270780  -0.0000435979   0.0001202391   0.0000468892
       -0.0001325421  -0.0014456610  -0.0010916746   0.0007696225
       -0.0368520699  -0.2029158323  -0.0218953954  -0.0314091000   0.4307277485
       -0.0402676808   0.0011960741  -0.0490919638   0.0030946441   0.0173631563
       -0.0445069055   0.0011840937   0.0354547091  -0.1096595213   0.0431580466
       -0.0008619105   0.0081306041   0.0108273828   0.0014157950  -0.0012953512
       -0.0024849054   0.0015653989   0.0024898857   0.0058472421   0.0007534582
       -0.0054880265  -0.0092085080  -0.0008225731  -0.0005870782  -0.0002632987
        0.0036522989  -0.0006804291   0.0005852015  -0.0030789064   0.0008990571
       -0.0004310830   0.0011984947  -0.0010991428  -0.0010582583  -0.0007419697
       -0.0000790776  -0.0001853328  -0.0006390874  -0.0004802558  -0.0004362437
        0.0011482094  -0.0000079275   0.0002423075  -0.0002015596   0.0001053167
        0.0000411910   0.0000049590  -0.0000345359   0.0000150859   0.0000411673
       -0.0000150595  -0.0001413682   0.0000513097  -0.0000966530   0.0002363584
        0.0001529145   0.0000193894  -0.0001915340  -0.0001556323  -0.0001849466
       -0.0000978107  -0.0002101986   0.0001809959   0.0001728855   0.0000524677
        0.0001908992   0.0001517603   0.0000146268   0.0003160935   0.0002466297
       -0.0000014194  -0.0004442119  -0.0004556960   0.0003718836   0.0003252596
        0.0002884260   0.0002127567  -0.0003928914  -0.0004174547   0.0001840691
        0.0005204376   0.0004405523  -0.0002168984  -0.0003016053  -0.0003263979
        0.0000155229  -0.0001461277  -0.0001978460  -0.0002790678  -0.0001302038
       -0.0001437476  -0.0000727736   0.0001646656   0.0002371767  -0.0009541161
        0.0005341037   0.0002116153   0.0011969811   0.0006626594   0.0007178293
       -0.0013493508   0.0013315733   0.0002259079   0.0013366721   0.0005708807
        0.0006265540   0.0000050880   0.0004967470   0.0001677975   0.0002285908
       -0.0007829717  -0.0001731275  -0.0007714964   0.0004892139  -0.0001645452
        0.0004692613   0.0002683943   0.0002495361  -0.0001017102  -0.0000043510
       -0.0000595366  -0.0001153239  -0.0005363327  -0.0000853845  -0.0010367343
        0.0012076109   0.0000599597   0.0004150880   0.0000262887   0.0000769264
       -0.0007557833   0.0005492898  -0.0000858509   0.0014162990  -0.0004117837
        0.0003293522  -0.0013669305  -0.0008507511  -0.0004205952   0.0024698041
        0.0000905270   0.0006602462  -0.0014061715  -0.0017254390  -0.0006781943
        0.0134939130  -0.0288024212   0.0118136949  -0.0008782914  -0.0002278809
       -0.0020011384  -0.0003291510   0.0004579418  -0.0008125923  -0.0003617006
        0.0000444124  -0.0001061192   0.0000775931   0.0000352832   0.0002639080
       -0.0001605682   0.0000601755   0.0000910320   0.0000650659   0.0000489138
        0.0000274913  -0.0001264432   0.0000372531   0.0000015555  -0.0000118627
        0.0000601299   0.0000967735   0.0000591993   0.0000177618  -0.0000503612
        0.0000993399  -0.0000001141   0.0000313996  -0.0000484045  -0.0000121326
       -0.0000377818  -0.0000185650   0.0000013965  -0.0000312724   0.0000323588
        0.0000716442  -0.0000343799   0.0000603884  -0.0000182952   0.0000046263
       -0.0000173494  -0.0000540838  -0.0000488179  -0.0000957083  -0.0000450827
        0.0000102293  -0.0000903440   0.0000157779   0.0000460512  -0.0000534922
       -0.0000055180   0.0000169417  -0.0000589613   0.0000399942   0.0000454575
        0.0000160005   0.0000678050   0.0000528646   0.0000595816  -0.0000025104
        0.0000124218   0.0000197715   0.0000908879   0.0000770487  -0.0000035196
        0.0000584890   0.0000776986   0.0000481777  -0.0000103852   0.0000019643
        0.0000169802   0.0000693498   0.0000207778  -0.0000517927   0.0000722125
       -0.0000058903  -0.0000683728  -0.0000041992  -0.0000259430  -0.0000806630
        0.0000663316   0.0000113503  -0.0001068717   0.0000093312  -0.0000380879
       -0.0000810763  -0.0000874111  -0.0000181736   0.0000701634   0.0000402135
        0.0000472205  -0.0004616681  -0.0004435361   0.0002351374
       -0.0029525493  -0.0035865747  -0.0498373109   0.0306787802  -0.0402676808
        0.4241715169   0.0275895765  -0.0157682519  -0.2070086745  -0.0086965713
        0.0014753235  -0.0434770193  -0.0328588918   0.0497595220  -0.0962723975
       -0.0139433014   0.0105996530  -0.0283699033  -0.0032417886   0.0001015153
       -0.0044051303  -0.0015230326  -0.0030292019  -0.0059609800  -0.0005948821
       -0.0000588342   0.0067109561   0.0016191577  -0.0009001175   0.0006377962
       -0.0035150606   0.0006041776  -0.0002163091   0.0033064462  -0.0010218988
        0.0003754032  -0.0008823543   0.0013225888   0.0009366290   0.0003605432
        0.0001956569  -0.0001375360   0.0008391561   0.0003010537   0.0006812244
       -0.0015323987   0.0001807311  -0.0004938602   0.0001206496  -0.0002643951
        0.0000311288  -0.0000428108   0.0000631112  -0.0000595813  -0.0000208321
        0.0000351547   0.0001011240  -0.0000530281   0.0000630338  -0.0001475773
       -0.0001499947  -0.0000624594   0.0000324744   0.0002160485   0.0001620184
        0.0001222353   0.0001447774  -0.0001372819  -0.0001055607  -0.0000548609
       -0.0001044454  -0.0000253854   0.0000255637  -0.0002386341  -0.0001583731
       -0.0000226670   0.0003149910   0.0003162985  -0.0003088370  -0.0002209089
       -0.0001922142  -0.0001197571   0.0002739322   0.0002742391  -0.0001581733
       -0.0003377151  -0.0003107070   0.0001423092   0.0002190875   0.0001909583
        0.0000005660   0.0000992830   0.0001004060   0.0001908863   0.0001070377
        0.0000772945  -0.0000113369  -0.0001180388  -0.0001387536   0.0009066802
       -0.0004515537  -0.0002854612  -0.0012020924  -0.0006675141  -0.0008863571
        0.0012922148  -0.0015059200  -0.0005723868  -0.0011399461  -0.0004410578
       -0.0005026106  -0.0000008645  -0.0004615049  -0.0002221443  -0.0001519291
        0.0007282587   0.0001445302   0.0005823469  -0.0004277689   0.0000879148
       -0.0003604806  -0.0001523209  -0.0002077835   0.0000977498  -0.0000803246
        0.0000327251   0.0001227465   0.0006310670   0.0001111730   0.0008592426
       -0.0011730438  -0.0000886435  -0.0003164326   0.0000179643  -0.0000434417
        0.0006610335  -0.0005659960   0.0000506668  -0.0012725563   0.0004584554
       -0.0002768440   0.0012375086   0.0007669296   0.0002834606  -0.0021899138
       -0.0000747686  -0.0006039338   0.0013351075   0.0009612750   0.0007134528
        0.0034739724   0.0039691614   0.0059223627   0.0001935725   0.0003576704
       -0.0005122261  -0.0003278081   0.0006742118  -0.0005781707   0.0003630501
       -0.0001846533  -0.0000683483  -0.0000840354   0.0000516852   0.0000351783
        0.0000958282   0.0000512486   0.0001527200  -0.0000573065  -0.0000235857
       -0.0000005937   0.0000417718   0.0000324963   0.0001237580  -0.0000033297
       -0.0000049739   0.0000039802   0.0000069523   0.0000088595   0.0000543617
       -0.0000663756   0.0000048432  -0.0000127212   0.0000494402  -0.0000263345
        0.0000069080   0.0000108403   0.0000018469   0.0000148527  -0.0000318528
       -0.0000549151   0.0000239768  -0.0000266882   0.0000221142   0.0000106668
        0.0000166956   0.0000223688  -0.0000123425   0.0000221795   0.0000333410
       -0.0000046986   0.0000997399  -0.0000053062  -0.0000264587   0.0000588772
        0.0000112229  -0.0000056420   0.0000452044  -0.0000325627  -0.0000487440
       -0.0000157795  -0.0000424343  -0.0000497892  -0.0000487227   0.0000051272
       -0.0000019922  -0.0000515753  -0.0000886344  -0.0000201516   0.0000001633
       -0.0000655931  -0.0000146205  -0.0000504827  -0.0000080086  -0.0000074623
       -0.0000102424  -0.0000452939  -0.0000288107   0.0000299680  -0.0000352420
       -0.0000118219   0.0000410885   0.0000178052   0.0000183534   0.0000676621
       -0.0000459453  -0.0000028141   0.0000694392  -0.0000009587   0.0000494368
        0.0000307010   0.0000757511   0.0000392986  -0.0000583806   0.0000118609
        0.0000841388   0.0011036861  -0.0020107821  -0.0003093121
        0.0073257976  -0.0003749931  -0.0051137493  -0.0464224296   0.0011960741
        0.0275895765   0.0717988623  -0.0108433106  -0.0573045361  -0.0370796663
        0.0062670284   0.0481024550   0.0049576415   0.0020977702  -0.0112682184
        0.0001243276   0.0013803350  -0.0006775022  -0.0005728143  -0.0000622199
       -0.0002795191   0.0000918944   0.0000976001   0.0002976159  -0.0004549960
       -0.0002961386  -0.0003429474  -0.0003593219   0.0001069239  -0.0001577762
        0.0004953939  -0.0002294291  -0.0000105539  -0.0007222100   0.0001958311
       -0.0001051071   0.0001064478  -0.0002114962  -0.0000614350  -0.0001404545
       -0.0000233240   0.0000849727   0.0000782668   0.0000102619  -0.0000681449
        0.0000673049  -0.0000705028   0.0000557501  -0.0000246008   0.0000953867
       -0.0000115589  -0.0000090594  -0.0000794953   0.0000177457   0.0000392898
        0.0000051247  -0.0000387703   0.0003194879  -0.0000607045   0.0000663803
        0.0002607801  -0.0000088326  -0.0001080249  -0.0003890664  -0.0002447766
       -0.0002177726   0.0000282871   0.0000634599   0.0000819534   0.0000004495
       -0.0000102093  -0.0000086548  -0.0001280187   0.0001132134   0.0001176677
       -0.0001633245  -0.0002276609  -0.0002011231   0.0002517873   0.0001715953
        0.0001479313   0.0001651932  -0.0002279665  -0.0002268928  -0.0000391511
        0.0002708073   0.0002691224  -0.0001959673  -0.0001286691  -0.0001160198
        0.0000298989   0.0000066972  -0.0000057795  -0.0000197119  -0.0000939073
       -0.0000777495  -0.0002259073   0.0003185328   0.0003280438  -0.0001830696
        0.0000581358   0.0000332637   0.0001673164   0.0000762683   0.0000558456
       -0.0004485711   0.0002473827   0.0000464850   0.0005768575   0.0003611216
        0.0002984233   0.0000278858   0.0000206931   0.0000099005   0.0000421183
       -0.0001088190  -0.0000257444  -0.0001331112   0.0000962816  -0.0000279931
        0.0001102511   0.0001018654   0.0000665049   0.0000014991  -0.0001234621
       -0.0000428801  -0.0000259531   0.0000614379   0.0000087550  -0.0001614777
        0.0000526444  -0.0000225808   0.0001171427   0.0001176453   0.0000461795
       -0.0000320550  -0.0000189751  -0.0000194794   0.0000731571  -0.0000497068
        0.0000065644  -0.0000455655  -0.0001286133  -0.0000737319   0.0003383627
        0.0000558219   0.0000885484   0.0000317595  -0.0007390194  -0.0001996698
        0.0004322187   0.0000711981  -0.0005830582  -0.0000126043   0.0001187344
        0.0000627453  -0.0000741427   0.0000537638  -0.0000592180   0.0000543219
        0.0000284056  -0.0000324846  -0.0000880306   0.0000203848  -0.0000352494
        0.0000779068   0.0000280491  -0.0000646098   0.0000050896  -0.0000082186
       -0.0000038365   0.0000145292  -0.0000065390  -0.0000059293  -0.0000019210
        0.0000389310   0.0000039924   0.0000108493   0.0000104180  -0.0000050282
        0.0000007444  -0.0000085539   0.0000222256  -0.0000027256  -0.0000017820
       -0.0000064802  -0.0000113655   0.0000227316   0.0000012281   0.0000087334
        0.0000004972  -0.0000260883  -0.0000006451   0.0000098199   0.0000082156
       -0.0000048676   0.0000157537   0.0000088766   0.0000216531   0.0000119332
        0.0000214750   0.0000296086  -0.0000121738  -0.0000052197   0.0000262852
        0.0000008699   0.0000030284   0.0000101574  -0.0000133265  -0.0000086686
       -0.0000032262  -0.0000082296  -0.0000065013  -0.0000101265  -0.0000054707
        0.0000043544   0.0000226274   0.0000183473   0.0000163953  -0.0000039392
        0.0000082440   0.0000123631   0.0000104112   0.0000034450   0.0000045447
        0.0000012573   0.0000166124   0.0000056828  -0.0000048596   0.0000147029
       -0.0000000413  -0.0000065807   0.0000023793  -0.0000022431  -0.0000193019
        0.0000173323   0.0000017251  -0.0000205880   0.0000044884  -0.0000059870
        0.0000099509  -0.0000014990   0.0000101312  -0.0000058099  -0.0000075635
        0.0000370923  -0.0001165679   0.0002726070  -0.0003792020
        0.0004780646  -0.0268460448  -0.0478439905   0.0033579914  -0.0490919638
       -0.0157682519  -0.0108433106   0.0698157406   0.0444295668   0.0050661946
        0.0063343448  -0.0048243353  -0.0001241932   0.0033788568   0.0182265766
        0.0013694692  -0.0026732575   0.0019595530   0.0002600601   0.0009082517
        0.0005946088  -0.0000145496  -0.0002970985  -0.0001574829  -0.0002112886
        0.0012404233   0.0001128248   0.0001587345  -0.0001730910  -0.0000212345
       -0.0001948086   0.0000494408  -0.0000620832   0.0001428490  -0.0000228941
        0.0000365131  -0.0001242036   0.0000349868   0.0000709165   0.0001631810
        0.0000015687   0.0000473483   0.0000277387  -0.0000088711  -0.0000346542
       -0.0000537372  -0.0000060498  -0.0000116090   0.0000375404  -0.0000065498
       -0.0000029337   0.0000104014   0.0000068349   0.0000010655  -0.0000040306
        0.0000081178   0.0000137622   0.0000061999   0.0000173862  -0.0000360500
       -0.0000358171  -0.0000124209   0.0000226153   0.0000397223   0.0000313223
        0.0000135440   0.0000232438  -0.0000287162  -0.0000271248  -0.0000022053
       -0.0000240435  -0.0000205208   0.0000085146  -0.0000407760  -0.0000218092
       -0.0000018549   0.0000535419   0.0000570504  -0.0000514199  -0.0000364659
       -0.0000343154  -0.0000267254   0.0000538630   0.0000545735  -0.0000247140
       -0.0000624384  -0.0000479080   0.0000256722   0.0000383432   0.0000477481
        0.0000018149   0.0000156812   0.0000272280   0.0000387316   0.0000241293
        0.0000281482   0.0000107146  -0.0000205498  -0.0000360316   0.0000385359