$hessian                                                                        
        0.5235980319   0.0006144294  -0.0047316900  -0.0633666728  -0.0010763323
       -0.0121644528  -0.0016935738  -0.0024493233   0.0249528174   0.0000079844
        0.0038533886  -0.0043729942  -0.0002825114  -0.0004604068  -0.0007508459
       -0.0000704310   0.0001791328   0.0002075554  -0.0001636856  -0.0001002676
       -0.0000304427  -0.0003712056   0.0002164710   0.0002656007  -0.0001888449
        0.0008670885  -0.0001449124   0.0004780244   0.0000017783   0.0003934696
       -0.0000884407  -0.0000784829   0.0000070247  -0.0003447509  -0.0000340990
       -0.0002404949   0.0000588764  -0.0000217598  -0.0001014644   0.0000035856
        0.0000579850  -0.0000111864  -0.0000182703   0.0000092033   0.0000931776
        0.0000779017   0.0001015331  -0.0000766806   0.0000198499   0.0000463900
        0.0000580909   0.0000539159   0.0000335665   0.0000188046   0.0000024135
        0.0000120593   0.0000158935  -0.0001460998   0.0000245132  -0.0000096786
       -0.0000081584   0.0000067314   0.0000211080  -0.0000772149   0.0000320789
        0.0000337604   0.0000818335  -0.0000021642  -0.0000463271   0.0000767248
       -0.0000519587   0.0000777428   0.0000148130   0.0000277791  -0.0001481054
        0.0002365728  -0.0001233414   0.0002214525  -0.0000308488   0.0000447951
       -0.0000764471  -0.0000160236   0.0000261715   0.0000229820   0.0000021688
       -0.0000179452   0.0000066360   0.0000003624   0.0000004303   0.0000010207
        0.0000142301  -0.0000153738  -0.0000054908   0.0000067330   0.0000036620
       -0.0000191860   0.0000289872  -0.0000008154   0.0000121450   0.0000250135
       -0.0000055733   0.0000005723   0.0000181735  -0.0000068382   0.0000026452
       -0.0000488810  -0.0001581456  -0.0000643761  -0.0000773744   0.0001272647
       -0.0000612054  -0.0000453274  -0.0000742978  -0.0000316729  -0.0000369847
        0.0000736245   0.0000012736   0.0000666218  -0.0000538696   0.0000312838
        0.0000352104   0.0001224813   0.0000408995   0.0000243756  -0.0000656842
       -0.0000085034   0.0000190561  -0.0000555297   0.0000157622  -0.0000077067
       -0.0000263375   0.0000073747  -0.2144024746   0.0576444127   0.0923176458
       -0.1889449706  -0.0911509681  -0.0734354947  -0.0481634707   0.0293137026
       -0.0038472120  -0.0040937023   0.0022720329  -0.0237518462   0.0005490047
       -0.0006972477   0.0002898655  -0.0037203128   0.0013775964   0.0040140083
        0.0011664928  -0.0000545812   0.0008866945   0.0000380702  -0.0005951333
        0.0003318762   0.0000314431   0.0000004128   0.0000072175   0.0000845228
        0.0000066992  -0.0000668263   0.0000265525   0.0000762332  -0.0000260773
       -0.0000917340   0.0000391477  -0.0000980476  -0.0000595282  -0.0000127310
        0.0000354111  -0.0000203649  -0.0000217760  -0.0000020251  -0.0000039650
       -0.0000048167  -0.0000008123   0.0000152147  -0.0000088428   0.0000145507
        0.0000120618   0.0000792762   0.0000560906  -0.0000445785  -0.0000342787
       -0.0000161075  -0.0000178963  -0.0000028393  -0.0000099286  -0.0000027078
       -0.0000123349  -0.0000028720  -0.0000226295  -0.0000045348  -0.0000053801
       -0.0000143492  -0.0000131842  -0.0000074052   0.0000013968  -0.0000086880
        0.0000089944  -0.0000026759   0.0000085787  -0.0000278984  -0.0000126123
        0.0000050080  -0.0000277189  -0.0000200689   0.0000192054  -0.0000097775
       -0.0000052153   0.0000002100   0.0000028771  -0.0000056044  -0.0000083606
       -0.0000059224  -0.0000130794   0.0000006123  -0.0000049505  -0.0000098861
       -0.0000056022   0.0000006020  -0.0000305985   0.0000020442  -0.0000104234
       -0.0000066753  -0.0000062503   0.0000052265  -0.0000104386   0.0000017865
       -0.0000061806  -0.0000118019   0.0000037827   0.0000046124  -0.0000105872
        0.0000035978   0.0000008083  -0.0000073663   0.0000051268   0.0000044537
       -0.0000058733   0.0000053628  -0.0000030141  -0.0000014238  -0.0000001729
       -0.0000004628  -0.0000131123   0.0000110701   0.0000052392  -0.0000035771
        0.0000070577  -0.0000084528  -0.0000070861   0.0000096925   0.0000003272
       -0.0000068143   0.0000381775  -0.0000131555  -0.0000043855   0.0000046772
        0.0000109594  -0.0000158015   0.0000105485  -0.0000130623  -0.0000077762
        0.0000446090  -0.0000000786   0.0000011794   0.0000239112   0.0000022792
        0.0000128979   0.0000185507  -0.0000134138   0.0000078545   0.0000052080
        0.0000018705
        0.0006144294   0.5173732251   0.0168992412  -0.0014454549  -0.0658816946
        0.0257869182   0.0002810952   0.0016589229  -0.0068435954   0.0046779621
       -0.0117298549   0.0279327720  -0.0000281864  -0.0004407402   0.0002687283
        0.0008687240   0.0004381370  -0.0006434790  -0.0000682003   0.0000100588
       -0.0000647805   0.0013126008  -0.0007252665  -0.0006353295  -0.0013765793
       -0.0026570750   0.0006159787   0.0004371248  -0.0002249838   0.0000842982
       -0.0002116473  -0.0001014576   0.0000968083  -0.0001345664  -0.0001333964
       -0.0000631089  -0.0001773605  -0.0001462274   0.0000704244   0.0001147802
        0.0001437909  -0.0000571424  -0.0000163957  -0.0000132380   0.0000692925
        0.0001421075   0.0001548475   0.0000113271   0.0000154441  -0.0000085231
       -0.0000298241   0.0000696254  -0.0000345244   0.0000681226  -0.0000285696
       -0.0000105241   0.0000270413  -0.0001528359  -0.0000234619   0.0000966640
       -0.0000032871   0.0000697188  -0.0000518817  -0.0000376820  -0.0000017386
        0.0000256706   0.0000457058  -0.0000090068  -0.0000384496  -0.0000522955
       -0.0000442207   0.0000685705   0.0001973683   0.0001650029   0.0000148851
       -0.0000909404  -0.0000243048  -0.0001787540   0.0000319528  -0.0001851331
        0.0001103765   0.0000671167   0.0000804074   0.0000081012  -0.0000716317
       -0.0000128753   0.0000210140   0.0000373538   0.0000183835  -0.0000219052
       -0.0000569491   0.0000036296  -0.0000136219   0.0000530678   0.0000751230
       -0.0000297999   0.0000016915  -0.0000209193   0.0000104191   0.0000084048
       -0.0000194072  -0.0000047420  -0.0000156028  -0.0000017566  -0.0000128241
        0.0000292284   0.0000772710   0.0000120630   0.0000179447  -0.0000691690
        0.0000058677  -0.0000030878   0.0000249758  -0.0000082003   0.0000158062
       -0.0000114235   0.0000034554  -0.0000254970   0.0000514669  -0.0000051979
       -0.0000279473  -0.0000495843  -0.0000075145  -0.0000326378   0.0000134656
       -0.0000012234  -0.0000499686   0.0000137985  -0.0000197035  -0.0000320296
        0.0000266132  -0.0000389374   0.0577784338  -0.0640945355  -0.0321430637
       -0.0912546778  -0.1011125399  -0.0467513627   0.0296080421  -0.2752352840
        0.0296156849  -0.0028958158   0.0024042464  -0.0137270755   0.0000058431
        0.0005974914  -0.0008959702   0.0016274634   0.0000589063  -0.0013002045
       -0.0000154057   0.0002351529   0.0003317125  -0.0000145560  -0.0005873653
        0.0009388122  -0.0000134194   0.0000154499   0.0000671940  -0.0000572462
        0.0000004329   0.0002477781   0.0000820924  -0.0002506566   0.0000342976
        0.0000756838   0.0000764474  -0.0000192149   0.0000034832  -0.0000118703
       -0.0000090766   0.0000238040   0.0000350750  -0.0000103471   0.0000086728
        0.0000103653  -0.0000060360   0.0000088426  -0.0000027056   0.0000105055
       -0.0000114669   0.0000745457   0.0000076032  -0.0000305576   0.0000029271
       -0.0000123198  -0.0000503366   0.0000212767  -0.0000241171   0.0000041992
        0.0000113903  -0.0000074806  -0.0000042285  -0.0000071372   0.0000014630
        0.0000038953   0.0000000206   0.0000004498   0.0000087784  -0.0000126634
       -0.0000017665  -0.0000033371  -0.0000163547  -0.0000030559   0.0000107653
        0.0000017907   0.0000131915   0.0000042482   0.0000164940  -0.0000008698
       -0.0000004144  -0.0000112018   0.0000034993   0.0000076276   0.0000024476
        0.0000093522   0.0000100157  -0.0000005832   0.0000037126   0.0000116827
        0.0000034548  -0.0000015332   0.0000258884  -0.0000033485   0.0000043356
       -0.0000010490   0.0000108443   0.0000007263   0.0000045541   0.0000125049
        0.0000056309  -0.0000004201   0.0000000819  -0.0000081394   0.0000036480
        0.0000025536   0.0000035346   0.0000003180  -0.0000055941  -0.0000026969
       -0.0000043185   0.0000048133   0.0000066466   0.0000123583   0.0000151017
        0.0000105644   0.0000201013  -0.0000028354   0.0000062974   0.0000081866
       -0.0000128734   0.0000084932   0.0000005615  -0.0000086158  -0.0000031412
        0.0000053198  -0.0000316872   0.0000153634   0.0000197038  -0.0000001972
       -0.0000012377   0.0000241077   0.0000017058   0.0000031504   0.0000066241
       -0.0000166968   0.0000122507   0.0000186099  -0.0000151308  -0.0000016103
        0.0000251279   0.0000013570   0.0000251821  -0.0000016147   0.0000046682
        0.0000048629
       -0.0047316900   0.0168992412   0.4503602520  -0.0103414486   0.0184067143
       -0.1842043763   0.0048399343   0.0011209403  -0.0225569326  -0.0024545652
        0.0122586640  -0.0090789381  -0.0006281249  -0.0013989342  -0.0002314973
       -0.0003744118   0.0003929319   0.0001779388  -0.0000835851  -0.0000697803
       -0.0000327572  -0.0002608588   0.0004833152   0.0001800712   0.0011006101
        0.0000804040   0.0000551804   0.0003397441  -0.0005770913  -0.0000674678
        0.0001110864   0.0000266252   0.0001031609   0.0000367326   0.0001496972
       -0.0000803144  -0.0001348484  -0.0000575940  -0.0000765816   0.0000689477
        0.0000518200   0.0000250741   0.0000384227   0.0000069036  -0.0000999774
        0.0000068035  -0.0000546026  -0.0000176962   0.0000370432   0.0000127825
       -0.0000102755   0.0001037259   0.0000452673   0.0000129029  -0.0000142665
        0.0000056737  -0.0000042603   0.0000838923   0.0000285200   0.0002356916
        0.0001364870   0.0000701437  -0.0003215512   0.0001006411  -0.0000949529
        0.0000761699  -0.0000545306   0.0000307013  -0.0000172269  -0.0000732442
        0.0000129959  -0.0000131758  -0.0000718229   0.0000876744   0.0000212294
       -0.0001246699  -0.0000008366  -0.0000221131   0.0000182225  -0.0000584026
        0.0000613205   0.0000324184   0.0000214386  -0.0000283643  -0.0000259639
       -0.0000002258   0.0000147509   0.0000214205   0.0000062891  -0.0000263224
       -0.0000142584   0.0000076791   0.0000024456   0.0000120223   0.0000140648
       -0.0000232284  -0.0000004145   0.0000061039  -0.0000141361  -0.0000109419
        0.0000031177  -0.0000183905  -0.0000081241   0.0000000374  -0.0000100943
       -0.0000056802   0.0001610422  -0.0000537640   0.0000944326  -0.0000858721
        0.0000549828   0.0000176995   0.0000696552   0.0000352899   0.0000434788
       -0.0000701394   0.0000027190  -0.0000921393   0.0000503010  -0.0000211641
       -0.0000446005  -0.0001289529  -0.0000255500   0.0000234859   0.0000025709
       -0.0000418602  -0.0000431282   0.0000317910  -0.0000418186   0.0000041687
        0.0000112429  -0.0000336579   0.0926630661  -0.0321247284  -0.0918516036
       -0.0727861165  -0.0463412764  -0.0789803177  -0.0035093304   0.0295027037
       -0.0453140684  -0.0048760794   0.0015984206  -0.0183345008  -0.0007173143
        0.0004651746   0.0005656472   0.0028871255  -0.0008772036  -0.0017092107
       -0.0010348638   0.0001807810   0.0009716572  -0.0000105947  -0.0002704600
       -0.0000639962   0.0000060390  -0.0000481188  -0.0000263643   0.0000577485
       -0.0000383277  -0.0000466573   0.0000153154   0.0000211655   0.0000665682
       -0.0001712059  -0.0000290426   0.0000689820  -0.0000338349   0.0000418917
        0.0000214839  -0.0000244925  -0.0000010853   0.0000309614  -0.0000066570
        0.0000051654   0.0000224956   0.0000215375   0.0000013778   0.0000397929
        0.0000060273   0.0000659808  -0.0000196775  -0.0000514196  -0.0000052147
        0.0000231189  -0.0000393911  -0.0000301843   0.0000009678  -0.0000162486
       -0.0000108483   0.0000067603  -0.0000160854  -0.0000139546  -0.0000024531
       -0.0000003122   0.0000070493   0.0000123621  -0.0000771193   0.0000079445
        0.0000609630  -0.0000186329  -0.0000042683   0.0000304105  -0.0000046215
       -0.0000048965   0.0000223765   0.0000135528  -0.0000086187   0.0000003556
       -0.0000089079  -0.0000091491   0.0000207038   0.0000013601   0.0000010173
        0.0000114587  -0.0000017664  -0.0000035978   0.0000069958  -0.0000027046
       -0.0000013440   0.0000046468   0.0000070269  -0.0000068462   0.0000033715
       -0.0000010087   0.0000053110   0.0000008350   0.0000018080   0.0000052406
        0.0000003918   0.0000133259  -0.0000012420   0.0000092512   0.0000003536
        0.0000030061   0.0000048753   0.0000044284   0.0000077017   0.0000056456
        0.0000023454  -0.0000069299  -0.0000018867   0.0000025387   0.0000052529
        0.0000044411  -0.0000003388  -0.0000007017   0.0000010302   0.0000003850
        0.0000063905   0.0000039234  -0.0000004821   0.0000031351  -0.0000001000
        0.0000088242  -0.0000045983   0.0000214573  -0.0000007232   0.0000036730
        0.0000076171   0.0000141542  -0.0000069667   0.0000096465   0.0000174800
       -0.0000257569   0.0000136362  -0.0000038812   0.0000015637   0.0000029740
        0.0000024373  -0.0000140415   0.0000062791  -0.0000108487  -0.0000095091
        0.0000210654
       -0.0633666728  -0.0014454549  -0.0103414486   0.4931136211   0.0275540936
        0.0273389187  -0.1505693254   0.0302217738   0.0479248496  -0.0653887183
        0.0132675102  -0.0068469584   0.0039207208  -0.0157348337   0.0036244072
       -0.0004963024  -0.0041080171  -0.0035715373  -0.0007591380   0.0005072613
       -0.0003709573  -0.0015889625   0.0005487812  -0.0047592264  -0.0068504325
        0.0228191654  -0.0060383067  -0.0046776736   0.0041908531  -0.0045523366
       -0.0001420414  -0.0001692109   0.0003644735  -0.0001397529   0.0000786104
        0.0002199138  -0.0000906858   0.0000840323   0.0001407994   0.0000319842
        0.0000507737  -0.0000210801  -0.0001233621  -0.0000840212  -0.0000242333
       -0.0002030581  -0.0000683189   0.0001168833   0.0000297750   0.0001261376
       -0.0001730862  -0.0000540840   0.0000241080   0.0002968172   0.0000763618
        0.0000433018  -0.0000010524  -0.0001358682  -0.0006419917   0.0005168443
        0.0000633696  -0.0000328320  -0.0000371497  -0.0001389765  -0.0000291316
        0.0000703247   0.0002092779  -0.0001049332  -0.0000208911  -0.0001467951
       -0.0000984665   0.0002540623   0.0004978978   0.0000495979  -0.0002345159
       -0.0003580698   0.0003823969  -0.0006225249   0.0000120024  -0.0000370574
        0.0001158144   0.0000881288  -0.0000461934  -0.0000510035   0.0000558462
        0.0000621357  -0.0000666372  -0.0000580357  -0.0000222468   0.0000444840
       -0.0000459203   0.0000114567   0.0000284899  -0.0000224760  -0.0000140137
        0.0000602443   0.0000056248  -0.0000219677   0.0000029577   0.0000265051
       -0.0000106970   0.0000035655   0.0000112667  -0.0000061410  -0.0000185154
        0.0002538023  -0.0003132504   0.0004761810  -0.0003083770  -0.0000382962
       -0.0001359584   0.0000053258  -0.0001606305  -0.0001165695  -0.0000952233
        0.0001638905  -0.0000023496   0.0002135811  -0.0000460344  -0.0000011414
        0.0001623422   0.0002712563   0.0001014683  -0.0000374801  -0.0000176732
        0.0000374700   0.0000162257  -0.0000579104   0.0000213772  -0.0000435448
       -0.0000317529   0.0000201663   0.0004811409  -0.0044044788   0.0248262433
       -0.0039050078   0.0032998704  -0.0241100193  -0.0001897037   0.0015662947
       -0.0037233251  -0.1645444606  -0.0872553450  -0.0574925003  -0.0068573626
        0.0048015244   0.0029219157   0.0000937454  -0.0001800925   0.0018169882
       -0.0270517357   0.0052215830   0.0108211863  -0.0004080167  -0.0003767279
        0.0012072915  -0.0000245885  -0.0010532597   0.0001227892  -0.0003204906
        0.0001719965   0.0006902846  -0.0002798754   0.0011880078  -0.0003027779
        0.0000160149   0.0000818477   0.0000112710   0.0000309835  -0.0000344494
       -0.0000251235   0.0000200514  -0.0000051413  -0.0000181946   0.0000047063
        0.0000111018   0.0000022618  -0.0000646581  -0.0000064397  -0.0000235854
       -0.0000157960  -0.0002808006  -0.0004790255   0.0000896379   0.0000471728
        0.0000611156   0.0000640555  -0.0000391727  -0.0000062837  -0.0000037823
       -0.0000125795  -0.0000084875   0.0000338055  -0.0000102119  -0.0000073458
       -0.0000081114  -0.0000059688   0.0000085115  -0.0000660382   0.0000701621
       -0.0000270052  -0.0000027650   0.0000151731  -0.0000130638  -0.0000003324
        0.0000229853   0.0000170943  -0.0000338388   0.0000398149  -0.0000476932
        0.0000032277   0.0000020943   0.0000092411  -0.0000030643   0.0000169992
        0.0000098152   0.0000148601  -0.0000073573   0.0000080749   0.0000041797
        0.0000055818  -0.0000096189   0.0000119955   0.0000168133   0.0000057475
        0.0000106260  -0.0000042790   0.0000108729  -0.0000182297  -0.0000061135
        0.0000140058  -0.0000225517  -0.0000030598   0.0000011301   0.0000023983
        0.0000040372   0.0000055334  -0.0000114443  -0.0000115951  -0.0000067440
       -0.0000076833   0.0000022281   0.0000107446  -0.0000060534   0.0000212407
        0.0000134866   0.0000314062  -0.0000181985  -0.0000004049  -0.0000016399
       -0.0000284797   0.0000202487  -0.0000025939  -0.0000303030  -0.0000124356
       -0.0000019449   0.0000266575  -0.0000694836   0.0000126307  -0.0000075140
        0.0000119413  -0.0000235314   0.0000074821   0.0000182779  -0.0000152755
        0.0000268790  -0.0000097734   0.0000008438   0.0000173468   0.0000180207
       -0.0000308109   0.0000125512  -0.0000544005   0.0000423947  -0.0000319374
        0.0000101650
       -0.0010763323  -0.0658816946   0.0184067143   0.0275540936   0.4808041017
        0.0074423662   0.0239537526  -0.0724933888  -0.0169818294   0.0199497967
       -0.1885739885   0.0219655183  -0.0039973909  -0.0299877402   0.0014995033
       -0.0036960671  -0.0003779171  -0.0014525084   0.0006871835  -0.0007375747
        0.0005300323   0.0008122549   0.0006667129   0.0011331834   0.0099862247
       -0.0119135333   0.0055595598  -0.0025615659   0.0011242062  -0.0020555935
        0.0005946978   0.0006931264  -0.0000239551  -0.0000722112   0.0001991350
        0.0005718486   0.0002149439   0.0003291348  -0.0000187618  -0.0001680245
       -0.0002843093   0.0000460545   0.0000612167   0.0000270248  -0.0001669643
       -0.0004859393  -0.0006750549   0.0000353731   0.0000101028   0.0000465140
       -0.0000983643   0.0001196669  -0.0000115305   0.0001010190   0.0000378296
        0.0000507106  -0.0000094869  -0.0004595620   0.0001690767  -0.0000849230
       -0.0000671936  -0.0002023263   0.0001549969  -0.0001831310   0.0000646287
       -0.0000365034   0.0001634166  -0.0000765785  -0.0000324398  -0.0000501939
       -0.0000677421   0.0001773024   0.0003557820  -0.0002618050  -0.0003505864
       -0.0003883599   0.0002473751  -0.0003592548  -0.0000078791   0.0001378869
        0.0000344402   0.0000186013  -0.0001251818  -0.0000597717   0.0001188024
        0.0000801452  -0.0000674797  -0.0000860421  -0.0000382582   0.0000462194
        0.0000180584   0.0000236811   0.0000428588  -0.0000686608  -0.0000828489
        0.0000848592  -0.0000201478  -0.0000163812  -0.0000023312  -0.0000009700
       -0.0000062868   0.0000095582   0.0000050209  -0.0000051698  -0.0000000010
        0.0003320654  -0.0004487568   0.0003814657  -0.0003335607   0.0000617125
       -0.0001199692   0.0000067597  -0.0002265448  -0.0000978491  -0.0001181226
        0.0002009688  -0.0000079059   0.0002671277  -0.0001115028   0.0000349416
        0.0000773167   0.0003676939   0.0000563653  -0.0000747395   0.0000384900
        0.0000503087   0.0000186319  -0.0000186628   0.0000186033  -0.0000365242
        0.0000016306   0.0000135644  -0.0004556710   0.0015276793  -0.0069959115
       -0.0012672746   0.0026304940  -0.0139277732   0.0029139411  -0.0090331127
        0.0301520457  -0.0856030633  -0.0997019492  -0.0391008568   0.0260969762
       -0.0125872516  -0.0141676701  -0.0032925166   0.0013521632   0.0014635194
       -0.0111379508   0.0041082011   0.0065567361   0.0010760062   0.0004622489
        0.0003636206   0.0002362005  -0.0007938083   0.0000278349   0.0000543755
        0.0001604727  -0.0002104470  -0.0001656322  -0.0003864382  -0.0001068704
        0.0001672891  -0.0001375704  -0.0000182509  -0.0000028647   0.0000033859
       -0.0000450188   0.0000094096  -0.0000001755  -0.0000124693   0.0000002645
        0.0000241391  -0.0000174183  -0.0000726041  -0.0000524235  -0.0000419639
       -0.0000831577  -0.0002779795  -0.0002296411  -0.0000062622   0.0000005476
        0.0000225913   0.0000215292   0.0000029604  -0.0000172445   0.0000036811
        0.0000031313  -0.0000040137  -0.0000006960  -0.0000079824   0.0000055330
       -0.0000007904  -0.0000045643  -0.0000018452   0.0000338334   0.0000093056
       -0.0000456519   0.0000361431   0.0000596875   0.0000087019  -0.0000118898
        0.0000087060  -0.0000046310  -0.0000404732  -0.0000211006  -0.0000288325
        0.0000045786   0.0000096158  -0.0000116090  -0.0000055025   0.0000150089
       -0.0000032523   0.0000093482  -0.0000025298   0.0000035395  -0.0000005842
        0.0000079314  -0.0000033412   0.0000234550   0.0000107080   0.0000095534
        0.0000013321  -0.0000030187   0.0000052050  -0.0000010385  -0.0000020428
        0.0000103478  -0.0000137948  -0.0000035732  -0.0000008512   0.0000054849
       -0.0000013042  -0.0000006886  -0.0000088484  -0.0000061752  -0.0000012312
       -0.0000029235   0.0000067241   0.0000093743   0.0000027714   0.0000064285
        0.0000058864   0.0000244367  -0.0000114664   0.0000006254   0.0000055572
       -0.0000213442   0.0000104265   0.0000020037  -0.0000141535   0.0000034887
       -0.0000070393  -0.0000346438  -0.0000033987   0.0000079692   0.0000002174
       -0.0000066660   0.0000023570   0.0000102525   0.0000025219   0.0000028300
       -0.0000099897  -0.0000119717   0.0000145826  -0.0000151971  -0.0000044686
        0.0000133605  -0.0000089606   0.0000199891   0.0000001332   0.0000095686
       -0.0000277301
       -0.0121644528   0.0257869182  -0.1842043763   0.0273389187   0.0074423662
        0.4554182666   0.0502235612  -0.0215456020  -0.0893708383  -0.0083454211
        0.0184925905  -0.0606463903   0.0026297965  -0.0062875750   0.0021471766
       -0.0042377393  -0.0010288266   0.0047398743   0.0002423897   0.0002486079
       -0.0000371956  -0.0054163873   0.0010600803   0.0042992170  -0.0042176050
        0.0130754078  -0.0026852635  -0.0023938179   0.0014157770  -0.0036618503
        0.0009290368   0.0005853691  -0.0000044669   0.0000572289   0.0001552399
        0.0004067192   0.0001687410   0.0003431921  -0.0001494037  -0.0001139530
       -0.0002136970   0.0000590291   0.0000344070   0.0000456138  -0.0002268847
       -0.0003296116  -0.0005095620  -0.0000133542   0.0000379428   0.0000374897
       -0.0001201040   0.0001018826   0.0000089224   0.0000568320   0.0000511933
        0.0000265061  -0.0000144221  -0.0001289531   0.0003390163   0.0001505833
        0.0001224621  -0.0002204846   0.0003607852  -0.0001146591   0.0000862328
       -0.0001578702   0.0000931734  -0.0000402447   0.0000157775  -0.0001699555
        0.0000952981  -0.0000977512  -0.0000034810  -0.0001583598  -0.0001233136
       -0.0002600082   0.0002320437  -0.0000341680  -0.0000014891   0.0001739593
       -0.0000542703  -0.0000283898  -0.0001219853  -0.0000547222   0.0001080508
        0.0000500679  -0.0000439933  -0.0000622473  -0.0000346079   0.0000315661
        0.0000455678   0.0000104629   0.0000315409  -0.0000628589  -0.0000869106
        0.0000516345  -0.0000202352   0.0000081946  -0.0000257383  -0.0000200613
        0.0000097652  -0.0000061924   0.0000088480  -0.0000044518   0.0000009289
        0.0001002772  -0.0001613334   0.0001706467  -0.0000826654   0.0000335003
       -0.0000239442   0.0000469252  -0.0000776967  -0.0000121963  -0.0000360606
        0.0000338740  -0.0000100835   0.0000842733  -0.0000745109  -0.0000092780
        0.0000072585   0.0001179691  -0.0000015148  -0.0000081079   0.0000246977
       -0.0000136341  -0.0000085592   0.0000240537  -0.0000268883   0.0000221135
        0.0000127986  -0.0000027819   0.0017926431   0.0024667797  -0.0185307686
       -0.0052758431   0.0003708979  -0.0171993471  -0.0017889879   0.0047805398
       -0.0093486461  -0.0583426680  -0.0405780699  -0.0652148393  -0.0004150259
       -0.0002896929   0.0009478947   0.0249000812  -0.0085967434  -0.0178903535
       -0.0066417248   0.0030583153   0.0045213140   0.0011148910  -0.0005020840
       -0.0020331958  -0.0000373543  -0.0005548487   0.0000332202   0.0007567042
       -0.0001717017  -0.0013024665  -0.0000244725   0.0006462491  -0.0002366577
       -0.0000122465  -0.0000253057   0.0001143358  -0.0000042872   0.0000347547
        0.0000040070   0.0000122936  -0.0000008098   0.0000137155   0.0000075678
        0.0000227760   0.0000062502  -0.0000512764  -0.0000079082   0.0000254430
       -0.0000343041  -0.0000810867  -0.0002246491   0.0000130846   0.0000190290
        0.0000542215  -0.0000078676  -0.0000427042   0.0000140078  -0.0000169564
       -0.0000083053   0.0000192795  -0.0000007806  -0.0000057154  -0.0000054731
       -0.0000004630   0.0000171258   0.0000048028  -0.0000961003   0.0000391700
        0.0000033863  -0.0000158834   0.0000176818   0.0000148786  -0.0000096144
        0.0000045841   0.0000134481  -0.0000007869  -0.0000099505  -0.0000147636
       -0.0000022320   0.0000097934   0.0000095542  -0.0000080218   0.0000072302
       -0.0000007089  -0.0000023739  -0.0000025283   0.0000050505  -0.0000074457
        0.0000008306   0.0000045260  -0.0000049057   0.0000068308   0.0000057825
        0.0000036135   0.0000010701   0.0000007532   0.0000003658  -0.0000051905
       -0.0000005652   0.0000177604  -0.0000018825   0.0000143329   0.0000024946
        0.0000024359   0.0000019054   0.0000078792   0.0000144455   0.0000080356
        0.0000076273  -0.0000043578  -0.0000070554  -0.0000093185  -0.0000106265
        0.0000021697  -0.0000134233  -0.0000031903  -0.0000038556  -0.0000076296
        0.0000102254   0.0000067882   0.0000008667   0.0000059641   0.0000113572
        0.0000019909   0.0000210916  -0.0000105014   0.0000030657  -0.0000057700
        0.0000033387  -0.0000007761  -0.0000035156   0.0000100927   0.0000114611
       -0.0000157305   0.0000216794  -0.0000084729  -0.0000076822   0.0000019920
       -0.0000242959  -0.0000165579   0.0000105237  -0.0000161806  -0.0000160294
        0.0000080728
       -0.0016935738   0.0002810952   0.0048399343  -0.1505693254   0.0239537526
        0.0502235612   0.4715367005   0.0200684606   0.0306762196  -0.0070143992
        0.0135965657   0.0018288300  -0.0010942548  -0.0020927399  -0.0001448033
       -0.0001942163   0.0008629920  -0.0006148004   0.0002278763  -0.0000992616
        0.0000199223   0.0000363494   0.0002029325  -0.0004592870   0.0006526040
        0.0006472414   0.0010565488   0.0002239966  -0.0007751485   0.0000666654
       -0.0002737876  -0.0001263498   0.0001814738   0.0001036848   0.0000707763
       -0.0001290487  -0.0000987722  -0.0001342400   0.0000117098   0.0000811646
        0.0001245601  -0.0000051542  -0.0000189627  -0.0000101605   0.0000349168
        0.0002575173   0.0002379336  -0.0000370232   0.0000609319   0.0000352682
       -0.0000156867   0.0001166129   0.0000820119   0.0000329159  -0.0000064581
        0.0000023645  -0.0000013199   0.0002050003  -0.0001156636  -0.0000192592
        0.0000701581   0.0000873122  -0.0000218556   0.0001031022  -0.0000122874
       -0.0000521297  -0.0001176905   0.0000256897   0.0000573410  -0.0000414698
        0.0000768130  -0.0001093623  -0.0002326039   0.0000320686   0.0002298021
        0.0000698781   0.0000482373  -0.0000693609   0.0000065654  -0.0000596251
        0.0000158476   0.0000197354   0.0000323084   0.0000096466  -0.0000206745
       -0.0000058722   0.0000114007   0.0000162402   0.0000075327  -0.0000017050
       -0.0000111267  -0.0000048083  -0.0000100529   0.0000200060   0.0000274078
       -0.0000076569   0.0000362685  -0.0000005542   0.0000005162   0.0000188054
       -0.0000053389  -0.0000046579   0.0000108350  -0.0000071893  -0.0000066572
       -0.0000696832   0.0000720204   0.0000116683   0.0000516331  -0.0000250655
        0.0000157160   0.0000197979   0.0000429655   0.0000095557   0.0000099253
       -0.0000422012  -0.0000037501  -0.0000342121   0.0000003568  -0.0000226308
        0.0000009168  -0.0000517402  -0.0000007635   0.0000182560  -0.0000370321
       -0.0000129312   0.0000084592  -0.0000267615   0.0000014118   0.0000137632
       -0.0000154405  -0.0000096423   0.0008319835   0.0000221362  -0.0002746100
        0.0009825832  -0.0000431879  -0.0008713184   0.0002635484  -0.0000590012
       -0.0005450513  -0.0269396188   0.0057861703   0.0113582237  -0.0455009963
        0.0267438557  -0.0047502570  -0.0452521144   0.0037369634  -0.0240937371
       -0.1966016236  -0.0926680248  -0.0686833310   0.0000737429  -0.0005271922
        0.0000042399  -0.0000165238  -0.0000286000   0.0000477132   0.0000022293
       -0.0000089787   0.0000999546   0.0000184122   0.0000360268   0.0000413489
       -0.0000706083  -0.0000940934  -0.0000274402  -0.0000191677  -0.0000168602
       -0.0000121219  -0.0000100982  -0.0000099592   0.0000022657  -0.0000069634
       -0.0000010460   0.0000068925  -0.0000077531  -0.0000160477   0.0000475700
        0.0000247952   0.0001466501   0.0001260345  -0.0000532427  -0.0000290727