$hessian                                                                        
        0.5214860688   0.0024941711  -0.0079264320  -0.0647335548   0.0018605666
       -0.0188645726  -0.0000630136  -0.0049579724   0.0237847506  -0.0008611682
        0.0055019077  -0.0056238904  -0.0002924940  -0.0004505706  -0.0007706708
       -0.0001788345   0.0001669331   0.0002625201  -0.0001013727  -0.0001320064
       -0.0000183791  -0.0003690247   0.0002092229   0.0004245621  -0.0002417672
        0.0009201192  -0.0000528272   0.0006318069  -0.0002132300  -0.0001068631
       -0.0001699525   0.0000733752  -0.0000519192  -0.0003550365   0.0000480994
       -0.0000594728   0.0001101021   0.0000360053  -0.0000624850  -0.0000019476
       -0.0000521721   0.0000130370   0.0000346545  -0.0000005923   0.0000201214
       -0.0000474644   0.0000019427  -0.0000882901   0.0000166827   0.0000883613
        0.0000439205   0.0000638692   0.0000372719   0.0000616313   0.0000104114
        0.0000215544   0.0000234785  -0.0000425058   0.0001449746   0.0001677295
       -0.0000070195   0.0000035440   0.0000042479   0.0000294719  -0.0000230685
        0.0000075088  -0.0000375125   0.0000184934  -0.0000042498  -0.0000232892
       -0.0000310579   0.0000240030  -0.0000149558   0.0000317551  -0.0000500599
        0.0000539595  -0.0000051014  -0.0000248629  -0.0000087280   0.0000070945
        0.0000029346   0.0000020141   0.0000069266   0.0000157705   0.0000085780
        0.0000087686   0.0000046494  -0.0000019921  -0.0000008604   0.0000025272
        0.0000059013   0.0000056827   0.0000063348   0.0000016342   0.0000012819
       -0.0000148609   0.0000257895  -0.0000037959   0.0000054187   0.0000294242
        0.0000000165   0.0000011182   0.0000180642  -0.0000042379  -0.0000027939
       -0.0000025259  -0.0000178600  -0.0000032804   0.0000117980   0.0000058997
        0.0000112332  -0.0000033901  -0.0000053774  -0.0000026271  -0.0000004906
        0.0000045655   0.0000013209   0.0000055053  -0.0000135298  -0.0000018947
        0.0000014896   0.0000019344  -0.0000011590   0.0000122063  -0.0000384736
       -0.0000017832   0.0000109630  -0.0000330748   0.0000039459  -0.0000044154
       -0.0000252618   0.0000031044  -0.2101709524   0.0398311374   0.1025033314
       -0.1858237646  -0.0903512538  -0.0747150446  -0.0516170825   0.0408780504
       -0.0011399037  -0.0054157668   0.0042809228  -0.0232323025   0.0005764643
       -0.0006975942   0.0002464548  -0.0035179170   0.0007580793   0.0042633789
        0.0011710242  -0.0001143745   0.0008791194   0.0000610913  -0.0005153402
        0.0001934422   0.0000279221  -0.0000065525   0.0000042390   0.0000840680
        0.0000238448  -0.0000882511   0.0000140578   0.0000820837  -0.0000116065
       -0.0000194243   0.0000401755  -0.0000416639  -0.0000545250   0.0000187631
        0.0000380442  -0.0000365375  -0.0000034412   0.0000057838  -0.0000126832
        0.0000094443   0.0000024466   0.0000103957  -0.0000211559   0.0000139027
        0.0000010822   0.0000649339  -0.0000047332  -0.0000371031  -0.0000276352
       -0.0000096167  -0.0000151605  -0.0000162308  -0.0000057335  -0.0000049102
       -0.0000204473  -0.0000009049  -0.0000301296  -0.0000065850  -0.0000044505
       -0.0000172130  -0.0000170876  -0.0000064340  -0.0000039153  -0.0000073796
        0.0000287283  -0.0000068942   0.0000160341  -0.0000204772  -0.0000089748
        0.0000126310  -0.0000113049  -0.0000170703   0.0000196570  -0.0000173385
        0.0000015787  -0.0000013621   0.0000014810  -0.0000028721  -0.0000052965
       -0.0000084625  -0.0000071077  -0.0000078287  -0.0000040932  -0.0000099253
       -0.0000086945  -0.0000015441  -0.0000169768  -0.0000049751  -0.0000065085
       -0.0000056621  -0.0000069506   0.0000036832  -0.0000112010  -0.0000006667
       -0.0000100222  -0.0000103278   0.0000012453   0.0000062956  -0.0000111564
       -0.0000006764   0.0000006680  -0.0000067146   0.0000019866   0.0000064252
       -0.0000070323   0.0000035921  -0.0000018054  -0.0000067756  -0.0000028336
       -0.0000056837  -0.0000122772   0.0000045900  -0.0000033833  -0.0000099010
        0.0000066881   0.0000000675  -0.0000045476   0.0000129918   0.0000032431
       -0.0000149881   0.0000170950  -0.0000142039  -0.0000007475   0.0000036558
        0.0000115785  -0.0000139353   0.0000054936  -0.0000044570  -0.0000014768
        0.0000264563   0.0000002803  -0.0000019803   0.0000184536   0.0000017459
        0.0000064190   0.0000098939  -0.0000062109   0.0000035877   0.0000042376
       -0.0000006935
        0.0024941711   0.5145363212   0.0221882818   0.0015772302  -0.0708451905
        0.0358758365  -0.0005422915   0.0017695717  -0.0032104384   0.0066665460
       -0.0155545613   0.0269554391   0.0002576262  -0.0005295280   0.0003342039
        0.0004784277   0.0006204105  -0.0008804560   0.0003142942  -0.0000050918
        0.0001218727   0.0011273345  -0.0007547986  -0.0010535875  -0.0009549541
       -0.0025161416   0.0001500552   0.0001848971  -0.0003262665   0.0004260001
        0.0000317200  -0.0000969303  -0.0000997059  -0.0000175139  -0.0001547098
        0.0000227351  -0.0000296021  -0.0000515787  -0.0000252331   0.0000041549
       -0.0000373505  -0.0000836115   0.0000159083   0.0000766819   0.0000562905
        0.0000121413   0.0000575470  -0.0000400446   0.0000774774  -0.0000333207
        0.0000284154   0.0001385648  -0.0000561655   0.0000832287  -0.0000062050
       -0.0000104107   0.0000245465  -0.0000486618   0.0002025195   0.0000905370
       -0.0000336830   0.0000312210   0.0000451474  -0.0000097908   0.0000282821
       -0.0000346247   0.0000128532   0.0000103143  -0.0000188031  -0.0000284721
       -0.0000104359   0.0000069396  -0.0000373682   0.0000263857  -0.0000349792
       -0.0000114181  -0.0000506017   0.0000177629   0.0000039153  -0.0000063440
       -0.0000069336   0.0000054488   0.0000114059  -0.0000038958  -0.0000022277
        0.0000025868  -0.0000029703  -0.0000037793   0.0000018138   0.0000015299
       -0.0000050629   0.0000037501  -0.0000065335   0.0000052017   0.0000089532
        0.0000141818  -0.0000021733  -0.0000137760  -0.0000003877   0.0000034044
       -0.0000116477  -0.0000045170  -0.0000034473   0.0000005704  -0.0000038789
        0.0000132856   0.0000061890  -0.0000132083  -0.0000110890   0.0000050702
       -0.0000030874   0.0000020245  -0.0000008423   0.0000028466  -0.0000048598
        0.0000009392  -0.0000055888   0.0000095851   0.0000065433   0.0000088566
       -0.0000292140   0.0000047464  -0.0000101675  -0.0000012204   0.0000053839
       -0.0000033430  -0.0000261947   0.0000042897  -0.0000105658  -0.0000001227
        0.0000131775  -0.0000274114   0.0399048314  -0.0543057187  -0.0257453945
       -0.0905547564  -0.1011586978  -0.0482170224   0.0411474844  -0.2750549320
        0.0061202777  -0.0034125852   0.0035127445  -0.0126567553   0.0000020996
        0.0006321198  -0.0008502866   0.0010859927   0.0003625527  -0.0009357055
        0.0001645777   0.0001981480   0.0002921817   0.0000326810  -0.0005835084
        0.0008458284  -0.0000110900  -0.0000124268   0.0000594711  -0.0000388653
       -0.0000501713   0.0002655545   0.0000911135  -0.0002528217  -0.0000024793
        0.0000277599   0.0001234468   0.0000092294   0.0000014735   0.0000244351
        0.0000246617   0.0000195390   0.0000438449  -0.0000125817   0.0000101391
        0.0000216558  -0.0000030716   0.0000067821   0.0000280708  -0.0000192936
       -0.0000718380   0.0000846347  -0.0000344540  -0.0000306502  -0.0000007639
       -0.0000235922  -0.0000861480   0.0000222594  -0.0000139058  -0.0000004217
        0.0000131930  -0.0000054622  -0.0000165993  -0.0000055786  -0.0000006482
       -0.0000065275  -0.0000005270  -0.0000116276   0.0000265645  -0.0000252444
       -0.0000208948  -0.0000010093   0.0000007386  -0.0000038555   0.0000101627
       -0.0000045927   0.0000048070   0.0000079922  -0.0000003236  -0.0000003590
       -0.0000013882  -0.0000040237  -0.0000023821   0.0000010273   0.0000037159
       -0.0000015766   0.0000005687   0.0000004781   0.0000004786   0.0000024248
        0.0000038785  -0.0000004021   0.0000102941   0.0000044081   0.0000022908
       -0.0000069878   0.0000052096  -0.0000018716   0.0000064303   0.0000080486
        0.0000002810   0.0000012864   0.0000025787  -0.0000023878  -0.0000000837
        0.0000014936   0.0000000079  -0.0000000161   0.0000003585   0.0000003609
       -0.0000055007   0.0000056379   0.0000009601   0.0000097327   0.0000052309
        0.0000063603   0.0000050092   0.0000022354   0.0000032532   0.0000061591
       -0.0000017711   0.0000032710  -0.0000007876   0.0000023966   0.0000013504
       -0.0000101789  -0.0000144382   0.0000174652   0.0000108416  -0.0000024109
       -0.0000022981   0.0000160566   0.0000065751  -0.0000021380   0.0000075940
       -0.0000098409   0.0000155486   0.0000146092  -0.0000156367  -0.0000037601
        0.0000109826   0.0000093998   0.0000299238  -0.0000136369   0.0000049565
       -0.0000000914
       -0.0079264320   0.0221882818   0.4530474838  -0.0165293638   0.0282070161
       -0.1772354708   0.0036377271   0.0039970629  -0.0239144977  -0.0031149659
        0.0117093880  -0.0049430783  -0.0005705313  -0.0015906085  -0.0002531505
       -0.0003600803   0.0004309111   0.0001670907   0.0000169409  -0.0000636416
        0.0000185268  -0.0001649189   0.0003614040   0.0001307065   0.0011959456
       -0.0003718004  -0.0000581148   0.0002632846  -0.0004635552   0.0000922748
        0.0000814362   0.0000212092   0.0000497606   0.0000780776  -0.0000171754
       -0.0000619801  -0.0000891767   0.0000032678  -0.0001359500   0.0000309533
        0.0000298592  -0.0000405364   0.0000120641   0.0000473901  -0.0000566349
        0.0000393921   0.0000299838  -0.0000413409   0.0000574161   0.0000109880
       -0.0000375361   0.0000995228   0.0000394408  -0.0000020047  -0.0000179210
        0.0000042561  -0.0000042742  -0.0000545483   0.0001361341   0.0000562678
        0.0001829999  -0.0000151229  -0.0000694773  -0.0000246078   0.0000100823
       -0.0000005317   0.0000113589  -0.0000014749  -0.0000058461  -0.0000401738
        0.0000301539  -0.0000267329  -0.0000542644   0.0000097593   0.0000133835
       -0.0000128257  -0.0000161594  -0.0000045704  -0.0000031108  -0.0000050683
        0.0000109250   0.0000295091   0.0000146070  -0.0000281858   0.0000029634
        0.0000028069   0.0000021613   0.0000014086  -0.0000042631  -0.0000085019
       -0.0000034507  -0.0000013288   0.0000032334   0.0000082587  -0.0000001401
       -0.0000077998  -0.0000109023   0.0000023652  -0.0000081956  -0.0000065459
        0.0000017041  -0.0000112972  -0.0000022945   0.0000024604  -0.0000020839
        0.0000093424  -0.0000018834   0.0000000262  -0.0000068963  -0.0000040024
       -0.0000056967   0.0000025383  -0.0000037384   0.0000006676  -0.0000084639
       -0.0000017928  -0.0000013368   0.0000065931   0.0000032491   0.0000033151
       -0.0000189837   0.0000022126   0.0000020086   0.0000218420   0.0000052991
       -0.0000346018  -0.0000235656   0.0000164077  -0.0000273302   0.0000146864
        0.0000121172  -0.0000322595   0.1029169291  -0.0257078843  -0.1055524076
       -0.0741040107  -0.0478027203  -0.0811477482  -0.0007519894   0.0060038757
       -0.0417339737  -0.0059114400   0.0032338027  -0.0179793398  -0.0007502403
        0.0004621438   0.0005594377   0.0031116626  -0.0005795528  -0.0022112806
       -0.0010432706   0.0000416608   0.0010466933  -0.0000325644  -0.0002635116
       -0.0000177884  -0.0000050968  -0.0000496178  -0.0000406885   0.0000460632
       -0.0000501774  -0.0000334987   0.0000416067  -0.0000318628   0.0000691052
       -0.0001038688  -0.0000111108   0.0000609120  -0.0000254912   0.0000308518
        0.0000518573  -0.0000055899  -0.0000085728   0.0000396289  -0.0000010092
        0.0000022780   0.0000240879   0.0000232175   0.0000056905   0.0000380189
       -0.0000051915   0.0000741084  -0.0000517183  -0.0000461658   0.0000005038
        0.0000292194  -0.0000362010  -0.0000419519   0.0000254290  -0.0000134749
       -0.0000115932   0.0000064141  -0.0000060230  -0.0000134898   0.0000042555
        0.0000075596   0.0000085628   0.0000210516  -0.0000468578  -0.0000115674
        0.0000510624  -0.0000082761  -0.0000099473   0.0000163610  -0.0000155396
        0.0000009457   0.0000056109  -0.0000049832  -0.0000058699   0.0000014824
       -0.0000087378  -0.0000080012   0.0000197406  -0.0000013750  -0.0000005454
        0.0000105926  -0.0000039673  -0.0000041283   0.0000080796  -0.0000047342
       -0.0000025822   0.0000085599   0.0000078496   0.0000003409   0.0000017262
        0.0000015436   0.0000011539   0.0000015619   0.0000022555   0.0000047484
        0.0000036918   0.0000021682  -0.0000019459   0.0000118631   0.0000025043
       -0.0000000760   0.0000026749  -0.0000033037   0.0000014287   0.0000064116
        0.0000057816  -0.0000054944   0.0000049882   0.0000056892   0.0000038450
        0.0000067687  -0.0000004474   0.0000005844   0.0000036138   0.0000001807
        0.0000023642   0.0000022249  -0.0000027994   0.0000018355   0.0000021642
       -0.0000019646  -0.0000054139   0.0000140365   0.0000001063   0.0000001815
        0.0000087735   0.0000080283  -0.0000035826   0.0000078915   0.0000130183
       -0.0000106091   0.0000127596  -0.0000025321   0.0000015518   0.0000045861
       -0.0000024401  -0.0000006925   0.0000125642  -0.0000068161  -0.0000080190
        0.0000237283
       -0.0647335548   0.0015772302  -0.0165293638   0.4975637141   0.0243035331
        0.0252461547  -0.1487564286   0.0203908846   0.0543121764  -0.0693110340
        0.0224629883  -0.0050327984   0.0054155970  -0.0154586423   0.0016631891
       -0.0010214681  -0.0034701122  -0.0034170218  -0.0006992138   0.0005394146
       -0.0001657217  -0.0028028598   0.0010573817  -0.0042460228  -0.0090145967
        0.0247411903  -0.0030777065  -0.0060493981   0.0045833480  -0.0028776939
        0.0000357471  -0.0003731870   0.0004261937   0.0000080055   0.0001338252
        0.0002301291  -0.0000471718   0.0001097553  -0.0000012648   0.0000007168
       -0.0000119250  -0.0000146224  -0.0000962980  -0.0000891861   0.0000080432
       -0.0001447926  -0.0000574859   0.0002479634  -0.0000068598   0.0000420060
       -0.0001241169   0.0001007086   0.0002052736   0.0002419790   0.0000945489
        0.0000711487  -0.0000352645  -0.0000669476  -0.0007378715  -0.0000386261
        0.0001689818  -0.0001843202   0.0000580391  -0.0000208404   0.0000638596
       -0.0000589035   0.0000749090  -0.0000327210  -0.0000069546  -0.0000145223
        0.0000222549   0.0000999709  -0.0000022692   0.0001195077  -0.0001220088
       -0.0001041841   0.0000332219   0.0001447273  -0.0000190633   0.0000020079
       -0.0000333601   0.0000056094  -0.0000144754   0.0000134189   0.0000129391
       -0.0000014375  -0.0000133319  -0.0000103366  -0.0000143991  -0.0000053365
       -0.0000040819  -0.0000085302   0.0000138778   0.0000103016   0.0000215260
       -0.0000176542   0.0000340663   0.0000089365   0.0000041093   0.0000264227
       -0.0000086445  -0.0000035667   0.0000225290  -0.0000092206  -0.0000092809
        0.0000036601  -0.0000038366   0.0000131561   0.0000143936  -0.0000106106
       -0.0000034223  -0.0000072159  -0.0000072937  -0.0000075244  -0.0000014338
        0.0000014513  -0.0000001790  -0.0000048803  -0.0000077806  -0.0000022639
        0.0000379829  -0.0000049819   0.0000116647   0.0000057990  -0.0000433466
       -0.0000030326   0.0000073155  -0.0000255861   0.0000075385  -0.0000245543
       -0.0000218054   0.0000314950   0.0019137735  -0.0065510203   0.0237019321
       -0.0053903812   0.0051924810  -0.0236591124  -0.0007582693   0.0027047173
       -0.0053245288  -0.1621328815  -0.0871972265  -0.0598938135  -0.0080078797
        0.0045713164   0.0043894879   0.0014650858  -0.0006422045   0.0008278074
       -0.0265600235   0.0027364014   0.0123019051  -0.0002668977  -0.0006050084
        0.0009872814   0.0000403465  -0.0010965449  -0.0000670659  -0.0002050587
        0.0000179888   0.0006248432  -0.0004156363   0.0012609156  -0.0000254971
        0.0000063546  -0.0000028356  -0.0000432244   0.0000036417  -0.0000265831
       -0.0000396679   0.0000178771  -0.0000026250  -0.0000273861  -0.0000004418
        0.0000173439   0.0000068563  -0.0001245273   0.0000428019  -0.0000751881
       -0.0002140067  -0.0005880529  -0.0004838871   0.0000946920   0.0000385804
        0.0000485138   0.0000792684   0.0000144661  -0.0000446921  -0.0000010655
        0.0000048769  -0.0000065123   0.0000292787  -0.0000045745  -0.0000156294
       -0.0000152082  -0.0000045628  -0.0000007931  -0.0001011050   0.0000954384
       -0.0000516131  -0.0000159182   0.0000083448   0.0000071870   0.0000038531
       -0.0000013104  -0.0000033658  -0.0000041768   0.0000126221  -0.0000171965
       -0.0000031175   0.0000139950  -0.0000022062  -0.0000092881  -0.0000022650
       -0.0000030967  -0.0000032427   0.0000007020  -0.0000006197  -0.0000031995
       -0.0000010044  -0.0000056436  -0.0000285746  -0.0000009895   0.0000016229
       -0.0000016328  -0.0000028563   0.0000082348  -0.0000186387   0.0000013759
        0.0000050204  -0.0000056242  -0.0000031993  -0.0000023403  -0.0000100674
        0.0000012689   0.0000032783  -0.0000050245   0.0000018199   0.0000001843
       -0.0000053465   0.0000028398   0.0000025153  -0.0000132753   0.0000034796
       -0.0000039423  -0.0000063663   0.0000035210  -0.0000005068  -0.0000050845
        0.0000010167  -0.0000010761  -0.0000014473  -0.0000001043  -0.0000033304
        0.0000166736   0.0000616186  -0.0000241263   0.0000027867   0.0000008778
        0.0000109850  -0.0000152757   0.0000073146   0.0000081375  -0.0000115577
        0.0000198328  -0.0000084902  -0.0000059223   0.0000174911   0.0000091871
       -0.0000202730  -0.0000049514  -0.0000450012   0.0000328622  -0.0000108750
        0.0000077902
        0.0018605666  -0.0708451905   0.0282070161   0.0243035331   0.4829069687
        0.0136313681   0.0147963572  -0.0673908953  -0.0134299705   0.0291402681
       -0.1898441841   0.0061841579  -0.0023504081  -0.0304791848  -0.0015359011
       -0.0030732133  -0.0006037958  -0.0015450478   0.0000910566  -0.0008397886
        0.0000805044   0.0014082496   0.0010597311   0.0003551908   0.0104832399
       -0.0120288578   0.0032803704  -0.0026297726   0.0022532172  -0.0009510076
       -0.0000588031  -0.0000198923   0.0003067866  -0.0000514950   0.0001488466
        0.0001723556  -0.0000219098   0.0000341524   0.0000135863  -0.0000152796
       -0.0000479911  -0.0000190555  -0.0000193418  -0.0000307046   0.0000060978
       -0.0000516236  -0.0002065474   0.0001896939   0.0000092827  -0.0000225292
       -0.0001080764   0.0002035519   0.0001137970   0.0000650458   0.0000263096
        0.0000709843  -0.0000222961  -0.0003742415  -0.0009300270  -0.0006697654
        0.0000789996  -0.0000920651   0.0000687805  -0.0000093679   0.0000722552
       -0.0000340642  -0.0000003757   0.0000200110  -0.0000381526   0.0000539966
        0.0000624537   0.0000750785   0.0000280740  -0.0000316050   0.0000162156
       -0.0001322855  -0.0000247147   0.0001235762  -0.0000190344  -0.0000081984
       -0.0000271845  -0.0000010539  -0.0000082255   0.0000119308  -0.0000011573
       -0.0000007422  -0.0000131342  -0.0000094496  -0.0000014672  -0.0000059007
       -0.0000120982  -0.0000010923   0.0000045229   0.0000049448   0.0000190210
        0.0000021380   0.0000116285   0.0000002796   0.0000019359   0.0000058776
       -0.0000084791  -0.0000004160   0.0000040205  -0.0000025934  -0.0000028450
        0.0000093801   0.0000013580   0.0000000184  -0.0000055341   0.0000031973
       -0.0000043110  -0.0000043585  -0.0000012039  -0.0000025676  -0.0000031517
        0.0000010745  -0.0000044980   0.0000028442   0.0000070405   0.0000068752
       -0.0000092603   0.0000046223  -0.0000081472  -0.0000205422  -0.0000023512
        0.0000178261  -0.0000001269  -0.0000115339   0.0000070558  -0.0000335022
       -0.0000111040   0.0000121012  -0.0008536575   0.0014476858  -0.0038434523
       -0.0017056072   0.0038903965  -0.0129924402   0.0048690886  -0.0120128309
        0.0294772358  -0.0850479605  -0.1004798784  -0.0418120143   0.0256037079
       -0.0095367058  -0.0163966266  -0.0057701032   0.0016116735   0.0038450479
       -0.0115481612   0.0028711354   0.0074593722   0.0010282927   0.0004510466
        0.0005820078   0.0002859212  -0.0007838815  -0.0001133511  -0.0000820884
        0.0002136955   0.0000420757  -0.0001555484  -0.0003371810  -0.0001431935
        0.0001192049  -0.0001474882  -0.0000370566   0.0000008369  -0.0000072009
       -0.0000534693   0.0000089372   0.0000017829  -0.0000197758  -0.0000094203
        0.0000196696  -0.0000117432  -0.0000960342  -0.0000172025  -0.0000675850
       -0.0002510246  -0.0005426535  -0.0002575780  -0.0000298077  -0.0000273038
        0.0000255940   0.0000165861   0.0000184761  -0.0000365347   0.0000006023
        0.0000148605  -0.0000077944  -0.0000132219  -0.0000050603  -0.0000009870
       -0.0000092997  -0.0000010211  -0.0000079490  -0.0000143857   0.0000525330
       -0.0000568426  -0.0000043925  -0.0000136164   0.0000145021   0.0000082059
       -0.0000156399   0.0000031300   0.0000086971  -0.0000061428   0.0000135540
       -0.0000071112   0.0000059694  -0.0000148904  -0.0000082489   0.0000034742
       -0.0000000976  -0.0000036240   0.0000071402   0.0000020198  -0.0000003867
        0.0000074689  -0.0000008596  -0.0000103594   0.0000046887   0.0000106048
       -0.0000039876   0.0000049516   0.0000032625  -0.0000094882   0.0000001957
        0.0000052446  -0.0000031097   0.0000003916  -0.0000044511  -0.0000035159
        0.0000060629   0.0000025644  -0.0000025405   0.0000032872  -0.0000018048
       -0.0000084812   0.0000088421   0.0000026136   0.0000004975   0.0000073409
        0.0000045874   0.0000074347   0.0000042594   0.0000034176   0.0000103682
       -0.0000037789   0.0000021536   0.0000048296  -0.0000017445  -0.0000011480
        0.0000117309   0.0000119026   0.0000290187   0.0000077519  -0.0000056061
       -0.0000101301   0.0000064664   0.0000074480  -0.0000041298   0.0000038848
       -0.0000047982  -0.0000072422   0.0000160651  -0.0000170172  -0.0000104017
        0.0000170921  -0.0000053481  -0.0000025185   0.0000005700   0.0000116751
       -0.0000298265
       -0.0188645726   0.0358758365  -0.1772354708   0.0252461547   0.0136313681
        0.4527336915   0.0560511665  -0.0177885229  -0.0979849905  -0.0050736770
        0.0026024230  -0.0572300854   0.0022687731  -0.0076884492   0.0007957223
       -0.0033873859  -0.0020728467   0.0054297059  -0.0003431563   0.0001925683
       -0.0002453712  -0.0043026757   0.0002838196   0.0056568935  -0.0033577283
        0.0093389580   0.0003489666  -0.0029669767   0.0020212444  -0.0032334408
        0.0004349607   0.0003611392   0.0003157295  -0.0000139925   0.0001546448
        0.0002256071  -0.0000070279   0.0001300215  -0.0001351504  -0.0000049994
       -0.0000485402  -0.0000568876  -0.0000297397   0.0000168679  -0.0000302951
       -0.0000415078  -0.0001750842   0.0000838960  -0.0000299410   0.0000190865
       -0.0001955317   0.0000845562   0.0000887660   0.0000583351   0.0000412472
        0.0000337265  -0.0000135017  -0.0001546073  -0.0002226739   0.0001615833
        0.0000936236  -0.0000862571   0.0000340234   0.0000518465  -0.0000643453
        0.0000339472  -0.0000078898  -0.0000050353   0.0000053643  -0.0000339300
        0.0000336663  -0.0000156534   0.0000480052   0.0000273588  -0.0000388784
       -0.0000698572   0.0000659752  -0.0000293906  -0.0000189816  -0.0000057720
        0.0000054097   0.0000074965  -0.0000123388  -0.0000100864   0.0000044691
       -0.0000019560  -0.0000030535   0.0000008483  -0.0000052063  -0.0000134301
       -0.0000074847  -0.0000070912   0.0000055894   0.0000001191  -0.0000001480
       -0.0000250869  -0.0000055294   0.0000112814  -0.0000071439  -0.0000141256
        0.0000005216  -0.0000089197  -0.0000015919  -0.0000028559  -0.0000028053
        0.0000040184  -0.0000179676   0.0000261062   0.0000017189   0.0000016185
        0.0000001036   0.0000039857  -0.0000008612  -0.0000013502  -0.0000063801
       -0.0000067974  -0.0000037066   0.0000002994   0.0000021574  -0.0000020425
       -0.0000035194   0.0000026702   0.0000014094   0.0000079439  -0.0000013016
       -0.0000220073  -0.0000116807   0.0000164234  -0.0000137154  -0.0000114931
        0.0000119338   0.0000038292   0.0005712155   0.0047416261  -0.0198352529
       -0.0060348396   0.0018914073  -0.0171025343  -0.0018869862   0.0042502755
       -0.0057935703  -0.0597495522  -0.0427923220  -0.0675431822   0.0026636475
       -0.0016360609  -0.0009201497   0.0239092320  -0.0054266028  -0.0195669235
       -0.0065003333   0.0025037530   0.0053328234   0.0010771783  -0.0001133345
       -0.0022390009   0.0000472490  -0.0005090646  -0.0000731193   0.0006059738
        0.0001064094  -0.0014620139  -0.0000731199   0.0005536232  -0.0001736306
        0.0000138777  -0.0000762590   0.0000058867   0.0000024649   0.0000148323
        0.0000137940   0.0000169985  -0.0000112197   0.0000196392   0.0000062903
        0.0000110025   0.0000087733  -0.0000726292  -0.0000437771   0.0000412582
       -0.0001081986  -0.0002705676  -0.0002674185   0.0000330016   0.0000377105
        0.0000493115   0.0000270106  -0.0000307123   0.0000268939  -0.0000102484
       -0.0000057954   0.0000099031   0.0000124286  -0.0000039869   0.0000002314
        0.0000122497   0.0000177618   0.0000117311  -0.0001129182   0.0000705261
       -0.0000121366  -0.0000129614   0.0000046946   0.0000042763  -0.0000105080
        0.0000119956   0.0000082675  -0.0000136565   0.0000085756  -0.0000089316
       -0.0000031046   0.0000115846   0.0000150150  -0.0000050652   0.0000002508
        0.0000064672  -0.0000024708   0.0000009724   0.0000065794  -0.0000026227
        0.0000003856   0.0000049403  -0.0000093945  -0.0000011481   0.0000063599
        0.0000055689   0.0000014336   0.0000006640  -0.0000033221  -0.0000009533
        0.0000084978   0.0000037466  -0.0000043725   0.0000056574   0.0000035214
       -0.0000001675   0.0000004221  -0.0000016061   0.0000017787   0.0000007020
        0.0000068740  -0.0000032104   0.0000032647   0.0000018589   0.0000029323
        0.0000034863   0.0000017233   0.0000000377   0.0000021443   0.0000028636
       -0.0000015015   0.0000011401   0.0000010868  -0.0000049395  -0.0000001431
        0.0000146533   0.0000294275   0.0000054642   0.0000018367  -0.0000045525
        0.0000052779   0.0000006700  -0.0000020906   0.0000101860   0.0000006745
       -0.0000068061  -0.0000003344  -0.0000051485  -0.0000010218   0.0000086501
       -0.0000159371  -0.0000153398  -0.0000124150   0.0000099459  -0.0000172166
        0.0000151308
       -0.0000630136  -0.0005422915   0.0036377271  -0.1487564286   0.0147963572
        0.0560511665   0.4739764973   0.0142973749   0.0339247478  -0.0087296750
        0.0126308501   0.0042588882  -0.0010099124  -0.0016860773  -0.0001851665
       -0.0002419430   0.0006584397  -0.0005199004   0.0002213167  -0.0000339260
       -0.0000127559  -0.0000988421   0.0001866576  -0.0005663633   0.0005933898
        0.0009586804   0.0009489281   0.0001350928  -0.0008950499   0.0001423282
        0.0001403755  -0.0000372818   0.0000192361   0.0000755078   0.0000808264
       -0.0000730249  -0.0000091297   0.0000041828  -0.0000108594   0.0000021665
        0.0000007863   0.0000053692  -0.0000178221   0.0000214813  -0.0000218332
        0.0000687151   0.0000609536  -0.0001002739   0.0000848065   0.0000473329
        0.0000028665   0.0001217818   0.0000600596  -0.0000299939  -0.0000087721
        0.0000008561   0.0000051818   0.0000459456   0.0002339811   0.0001627266
        0.0000220977   0.0000362415  -0.0000766846   0.0000005327  -0.0000191138
        0.0000020689   0.0000046612  -0.0000030612   0.0000045221  -0.0000255292
       -0.0000143278  -0.0000141397  -0.0000760411   0.0000581820  -0.0000354186
        0.0000464278  -0.0000206395   0.0000207483   0.0000018905   0.0000153967
        0.0000002231   0.0000119972   0.0000094645  -0.0000035503   0.0000069178
        0.0000071161   0.0000068970  -0.0000009900  -0.0000008302  -0.0000004696
        0.0000060548   0.0000055398   0.0000024437   0.0000037334   0.0000044410
       -0.0000000600   0.0000210834   0.0000019375   0.0000007528   0.0000190521
        0.0000006312  -0.0000044932   0.0000115169  -0.0000003377  -0.0000025979
       -0.0000039626  -0.0000082199  -0.0000184828   0.0000043289   0.0000042993
        0.0000054730  -0.0000017751  -0.0000035874  -0.0000009240   0.0000001408
        0.0000039326   0.0000014661   0.0000015586  -0.0000086497  -0.0000041714
        0.0000144641   0.0000093064   0.0000109716   0.0000239710  -0.0000378656
       -0.0000175856   0.0000094676  -0.0000114398  -0.0000017303   0.0000183527
       -0.0000072977  -0.0000090810   0.0008387372   0.0001512277  -0.0006973564
        0.0009866778   0.0000694765  -0.0008694256   0.0003224894  -0.0000708435
       -0.0005427366  -0.0263600650   0.0031427087   0.0129542142  -0.0485636730
        0.0377454613  -0.0020088542  -0.0485006396   0.0099013436  -0.0354446082
       -0.1950277951  -0.0910324552  -0.0711845544   0.0001329143  -0.0006149656
       -0.0000710807  -0.0000090690  -0.0000377497   0.0000427852   0.0000047158
       -0.0000302904   0.0001250107   0.0000340253   0.0000451242   0.0000387272
       -0.0000582796  -0.0000803273   0.0000027848  -0.0000137630  -0.0000149822
        0.0000012547  -0.0000072464  -0.0000084593   0.0000091171  -0.0000097766
        0.0000018924   0.0000088249   0.0000068065  -0.0000136118   0.0000530844
       -0.0001307055  -0.0000029003   0.0000888926  -0.0000713897  -0.0000451696