$hessian                                                                        
        0.6464439297   0.0855489463   0.0122467598  -0.3289751068  -0.0392182099
       -0.0292231396  -0.0263644717  -0.0340590864   0.0810683121  -0.0521237622
        0.0006622996  -0.0246914794   0.0582013457   0.0216244882  -0.0340829928
       -0.1696976806   0.0078532801  -0.0733832409  -0.0047921279  -0.0027659065
        0.0026170186   0.0002965303   0.0003498407  -0.0013563700  -0.0000327122
       -0.0008336957   0.0025793124   0.0017521296   0.0007659610  -0.0015726991
       -0.0022230292   0.0000284997  -0.0011665490   0.0008025027  -0.0007558412
        0.0024693071  -0.0006718887   0.0007529326  -0.0020754305   0.0037773903
        0.0007832838  -0.0001187623   0.0000641140   0.0001006456  -0.0001000563
        0.0002061864   0.0002957200  -0.0003412550  -0.0001882509   0.0000646899
       -0.0000100688  -0.0001408523  -0.0003440878   0.0000997214   0.0013804997
        0.0001267354   0.0000470608  -0.0017581369   0.0005407393  -0.0003326355
        0.0014624195   0.0005522962  -0.0000700462  -0.0004278057   0.0000325880
        0.0000507829   0.0001214965   0.0001582153   0.0000522482  -0.0000912459
       -0.0000500926   0.0001283382   0.0000241369  -0.0001315124  -0.0000439743
       -0.0001510901  -0.0000625154   0.0000173848  -0.0002509762   0.0001650170
       -0.0000898083   0.0002657982   0.0002973658   0.0000913345   0.0000781414
       -0.0002886845  -0.0001244983   0.0003912740   0.0002760023   0.0001481526
       -0.0003646708   0.0000739497   0.0000215583  -0.0000329112  -0.0003162754
       -0.0001489417  -0.0003967303   0.0003574828   0.0001061987   0.0006236211
        0.0002571163   0.0001077142  -0.0003942432  -0.0006158556  -0.0000302906
       -0.0000980266   0.0002285742  -0.0000886072  -0.0003118504  -0.0002794157
       -0.0001556349   0.0003875407  -0.0000259836   0.0000038473  -0.0000142348
        0.0002121530   0.0001596127   0.0004178862  -0.0003921477  -0.0001118486
       -0.0000163200   0.0001401696   0.0000657156  -0.0000668939   0.0000515824
       -0.0001143574   0.0002341220  -0.0002333569  -0.0002428195  -0.0003356842
        0.0001379861  -0.0000168537   0.0000663486  -0.0000609932   0.0000119871
       -0.0001145742   0.0000199174   0.0000464790   0.0001966638  -0.0001607665
        0.0000082929  -0.0001611939  -0.0000181782   0.0000047589   0.0003705735
       -0.0000228334   0.0000642141  -0.0001001133  -0.0002185356  -0.0001013886
        0.0002883197  -0.0001302167   0.0000825754  -0.0000725625   0.0003008223
        0.0000814465  -0.0002559316  -0.0001455951  -0.0001391257   0.0001068097
        0.0006118786   0.0001218124   0.0003224299  -0.0003770881  -0.0000227547
       -0.0004601066  -0.0000655828  -0.0001593237   0.0001102651   0.0002683454
        0.0001230838  -0.0003236293   0.0000978925  -0.0001182592   0.0001724647
       -0.0003031484  -0.0000183070   0.0001812332   0.0000937484   0.0001064054
        0.0000363478  -0.0002266215  -0.0000220843  -0.0001279096   0.0000058195
       -0.0000303182   0.0001457098  -0.0001258297  -0.0000323104  -0.0006105052
       -0.0009203803   0.0003092747   0.0002331428   0.0002507829   0.0000468369
       -0.0000975780   0.0000307057   0.0004988834  -0.0879002218  -0.0417352405
        0.0890137582  -0.0199545296  -0.0023901773  -0.0014292662   0.0002492631
       -0.0018259213   0.0018330180  -0.0192198327   0.0049906776  -0.0227605195
       -0.0001686310   0.0000086610  -0.0000019295   0.0000409545  -0.0000133060
       -0.0000975465  -0.0000180862  -0.0000239483  -0.0000870488  -0.0000030376
        0.0000079771   0.0000710787  -0.0000766876   0.0001774657  -0.0000039841
        0.0001230310  -0.0000587305   0.0000257108  -0.0000398167   0.0000012746
        0.0001287578   0.0000112958   0.0000403070  -0.0000349699   0.0000963364
        0.0000083118   0.0000230131  -0.0000267638   0.0000670315   0.0000358104
        0.0000212574  -0.0000697573   0.0000385208  -0.0000945111   0.0000330777
        0.0000272538  -0.0000852810  -0.0000042539   0.0000169707   0.0000359222
       -0.0000403870   0.0000021943   0.0000132971   0.0001167574   0.0000056468
        0.0001214347  -0.0000158395   0.0000001357   0.0000097953  -0.0000272771
       -0.0001019109  -0.0000300741  -0.0000332385   0.0000309693   0.0000191809
        0.0000557144  -0.0000438668   0.0000366638  -0.0000144782  -0.0000119644
       -0.0000230091   0.0000113859  -0.0000077330   0.0000203428   0.0001617483
        0.0000233794   0.0000065590   0.0000091903   0.0000197197  -0.0000977385
       -0.0000455867  -0.0000110274   0.0000369405   0.0001102133  -0.0000167449
       -0.0000071794  -0.0000099603  -0.0000415669  -0.0001746457  -0.0000238175
       -0.0000484542   0.0001465938   0.0000284077  -0.0000045978  -0.0000937488
       -0.0000582866   0.0000362880   0.0000687475  -0.0000092114   0.0000550812
        0.0001183514   0.0000189289   0.0000303651  -0.0000787391  -0.0004177490
        0.0000352602
        0.0855489463   0.1908480833  -0.1790046327  -0.0653424437  -0.0606362208
        0.0101775128  -0.0143391043  -0.0036624701   0.0084362937   0.0018174293
       -0.0023826781  -0.0041428916   0.0031809749  -0.0074980969   0.0160941445
        0.0334499748  -0.0589178788   0.0585434949  -0.0023547915   0.0047714763
        0.0022364727   0.0000832487   0.0008488739   0.0017582445  -0.0001343208
        0.0000195604  -0.0001267214   0.0000721579  -0.0002432406   0.0000480089
       -0.0000388170   0.0000624743  -0.0001203939   0.0000322844  -0.0001360140
        0.0001170108  -0.0005558082   0.0001177926  -0.0009337511  -0.0003462202
       -0.0009523906   0.0020553234   0.0004160725   0.0000866932   0.0000830610
       -0.0000084157   0.0000589962   0.0000416595   0.0000685905  -0.0000026418
        0.0000060798  -0.0000392514   0.0000084470   0.0000104572   0.0001850477
       -0.0005514872   0.0000620607  -0.0001733024   0.0002411511  -0.0000721606
        0.0003615419  -0.0000473586   0.0000447263  -0.0000363523   0.0002443558
       -0.0000318864  -0.0000810982  -0.0000236262   0.0000056887   0.0000417260
        0.0000041044  -0.0000127861  -0.0000098995   0.0000160959   0.0000268607
        0.0001702045   0.0000282013   0.0000016814   0.0001330937   0.0000225244
        0.0000205075  -0.0001470807  -0.0002978574  -0.0000764330   0.0000046013
        0.0000618236   0.0000213038  -0.0000707069  -0.0000779921  -0.0000235733
        0.0000655696  -0.0000363439  -0.0000097546  -0.0000112242   0.0000199555
        0.0000163102   0.0002265619  -0.0001696278  -0.0000238603  -0.0003165413
       -0.0000496323  -0.0000259899   0.0001575906   0.0002268106   0.0000364897
       -0.0000082885  -0.0000144283   0.0000045148   0.0000546901   0.0000619655
        0.0000273238  -0.0000933448   0.0000295966   0.0000051300   0.0000157836
       -0.0000436348  -0.0000162265  -0.0002251146   0.0002305321   0.0000590934
       -0.0000075714  -0.0000244493  -0.0000301045   0.0000399714  -0.0000067881
        0.0000098364  -0.0003068066  -0.0002345287   0.0000439888  -0.0000013473
        0.0000079501   0.0000006399  -0.0000197713  -0.0000041209   0.0000163995
        0.0000059843   0.0000221357  -0.0000173167   0.0000105225  -0.0000152921
       -0.0000016692   0.0000313470  -0.0000484479  -0.0000103031  -0.0000752530
       -0.0000022040  -0.0000179500   0.0000524908   0.0000381529   0.0000320579
       -0.0000597257  -0.0000037710  -0.0000292720  -0.0000137562  -0.0000545386
       -0.0000265011   0.0000286381   0.0000488468   0.0000260861  -0.0000098230
       -0.0000937234  -0.0000272333  -0.0000810285   0.0000534305  -0.0000148145
        0.0001124229   0.0000056284   0.0000443385  -0.0000343555  -0.0000270539
       -0.0000240062   0.0000531497   0.0000115118   0.0000253523   0.0000005724
        0.0000560665   0.0000164043  -0.0000272562  -0.0000453093  -0.0000282826
       -0.0000003982   0.0001067594   0.0000242250  -0.0000199478   0.0000168577
        0.0000084606   0.0000094258   0.0000223779  -0.0000190588   0.0001179182
        0.0003648282  -0.0000592197   0.0000246656   0.0000031990  -0.0000058785
       -0.0000093232  -0.0000578172  -0.0000483813  -0.0417320510  -0.0700250122
        0.0843304015   0.0049904793   0.0011420146  -0.0000023434  -0.0022203363
        0.0054091547   0.0038952852  -0.0025127552   0.0010935144  -0.0035309529
        0.0000182305   0.0000257802   0.0000239295  -0.0000005111  -0.0000013760
        0.0000244075   0.0000009041   0.0000376719   0.0000364456  -0.0000019311
       -0.0000001424  -0.0000158812  -0.0000032904   0.0000043312  -0.0000030485
       -0.0000229301  -0.0000104313  -0.0000073150  -0.0000034862  -0.0000018450
       -0.0000188351   0.0000008104   0.0000037860  -0.0000074542  -0.0000230106
        0.0000001555  -0.0000004482  -0.0000054746   0.0000101202   0.0000009439
        0.0000037330   0.0000204525   0.0000004813   0.0000196826   0.0000034321
       -0.0000012082   0.0000213952  -0.0000010274   0.0000003240   0.0000054814
       -0.0000090220  -0.0000024316  -0.0000009485  -0.0000165927  -0.0000039224
       -0.0000181738  -0.0000032229  -0.0000039656   0.0000003843  -0.0000002892
        0.0000151073  -0.0000045781   0.0000008582   0.0000064405   0.0000008337
        0.0000010647  -0.0000014680  -0.0000018997  -0.0000034242   0.0000018134
       -0.0000023640  -0.0000021025   0.0000003097   0.0000000012  -0.0000082864
        0.0000036660   0.0000093812   0.0000005836   0.0000037665   0.0000141592
       -0.0000067592  -0.0000000031   0.0000047951  -0.0000142285   0.0000022215
       -0.0000015261  -0.0000089838  -0.0000019830   0.0000036120  -0.0000019902
       -0.0000023682  -0.0000144146   0.0000008638  -0.0000001291   0.0000091559
       -0.0000009201   0.0000017697  -0.0000176789  -0.0000067285   0.0000060230
       -0.0000366041  -0.0000034755   0.0000063670  -0.0000537839  -0.0000335176
        0.0000378636
        0.0122467598  -0.1790046327   0.6032849664   0.0448748856   0.0224864162
       -0.0880821719   0.0264176306  -0.0005399115   0.0162661706  -0.0269359350
       -0.0046170207  -0.0036516365   0.0185741697   0.0239537802  -0.0598791205
       -0.1457047883   0.0476010003  -0.2344245196   0.0007460941   0.0017411007
        0.0010944782   0.0000020042   0.0023321510  -0.0045149159   0.0003671480
       -0.0005258899   0.0016425887   0.0009423073   0.0004821961  -0.0013014481
       -0.0013179381  -0.0000960872  -0.0004123193   0.0003876642  -0.0003289816
        0.0010131126   0.0002327807   0.0000018767   0.0004727615   0.0033520699
        0.0025612652  -0.0052239195  -0.0007488794  -0.0001151615   0.0000928028
        0.0002026219   0.0000944141  -0.0002399794  -0.0001532917   0.0000274911
       -0.0000733669   0.0000799547  -0.0000401107   0.0000207815   0.0002838378
       -0.0001541101   0.0001033840  -0.0007872282   0.0002823937  -0.0001466027
        0.0007233315   0.0003367857  -0.0000717272  -0.0001676322  -0.0001179281
        0.0000464943   0.0001136368   0.0000725302   0.0000198268  -0.0000707532
       -0.0000307481   0.0000653015   0.0000238729  -0.0000607946  -0.0000368229
       -0.0001565360  -0.0000426708   0.0000090294  -0.0001898989   0.0000674404
       -0.0000680781   0.0002006371   0.0002903135   0.0000596142   0.0000279349
       -0.0001792247  -0.0000863544   0.0002197662   0.0001914580   0.0001070658
       -0.0002002005   0.0000445395   0.0000204665  -0.0000088898  -0.0001584621
       -0.0000954051  -0.0002940664   0.0002461460   0.0000638230   0.0004427991
        0.0001365298   0.0000646701  -0.0002508166  -0.0003840402  -0.0000047971
       -0.0000352265   0.0001068840  -0.0000636786  -0.0001751496  -0.0001794222
       -0.0001059370   0.0002367225  -0.0000149617   0.0000024900  -0.0000235983
        0.0001079560   0.0001093477   0.0003058552  -0.0002936226  -0.0000717570
       -0.0000053001   0.0000686886   0.0000540078  -0.0000452075   0.0000291062
       -0.0000566967   0.0000318000  -0.0000785227  -0.0001056649  -0.0001202123
        0.0000598470  -0.0000040749   0.0000073757  -0.0000300878   0.0000086353
       -0.0000449408   0.0000017545   0.0000280797   0.0001190802  -0.0001003320
        0.0000099113  -0.0000238579  -0.0000297915   0.0000164524   0.0001344819
       -0.0000357566  -0.0000226508  -0.0000427749  -0.0000799694  -0.0000382033
        0.0001124362  -0.0000445942   0.0000335105  -0.0000078274   0.0001216455
        0.0000354446  -0.0001013652  -0.0000678630  -0.0000597522   0.0000755762
        0.0002349652   0.0000329347   0.0001347022  -0.0001295043  -0.0000111033
       -0.0001896400  -0.0000338602  -0.0000531077   0.0000511626   0.0001034553
        0.0000467058  -0.0001275645   0.0000310741  -0.0000522349   0.0000554954
       -0.0001162781  -0.0000116008   0.0000604288   0.0000375343   0.0000345011
        0.0000288399  -0.0000983380   0.0000258998  -0.0000868862  -0.0000302128
       -0.0000163675   0.0000688306  -0.0000447020  -0.0000113984  -0.0001453837
       -0.0002516416   0.0000895493  -0.0000908287  -0.0000105247   0.0000641730
        0.0001961387   0.0000937966   0.0002488443   0.0890429131   0.0843049598
       -0.2229755521  -0.0240401112  -0.0038366613  -0.0004705828   0.0023562694
        0.0041225300  -0.0031267331  -0.0012009362  -0.0006287360   0.0003232959
       -0.0001067988   0.0000272634  -0.0000253074   0.0000314774   0.0000073923
       -0.0000858891  -0.0000257514   0.0000041082  -0.0000689056  -0.0000384915
       -0.0000201382   0.0000858412  -0.0000213371   0.0000667792  -0.0000269453
        0.0001112661  -0.0000174662   0.0000213128  -0.0000183016   0.0000002305
        0.0000955535  -0.0000019723   0.0000224205  -0.0000162523   0.0000757818
        0.0000096369   0.0000155351  -0.0000075701   0.0000260805   0.0000210563
        0.0000053902  -0.0000670681   0.0000219437  -0.0000799495   0.0000202501
        0.0000172185  -0.0000749323  -0.0000050175   0.0000080889   0.0000148369
       -0.0000112519   0.0000016284   0.0000119596   0.0000913723   0.0000014332
        0.0000880570  -0.0000060573  -0.0000005127   0.0000018482  -0.0000134523
       -0.0000718020  -0.0000143187  -0.0000132531   0.0000160650   0.0000124000
        0.0000291046  -0.0000250762   0.0000203392  -0.0000077484  -0.0000126854
       -0.0000145137   0.0000079747  -0.0000022964   0.0000104975   0.0001047553
        0.0000143866  -0.0000049943   0.0000016145   0.0000083646  -0.0000761707
       -0.0000208564  -0.0000059022   0.0000158320   0.0000829811  -0.0000119040
       -0.0000019762   0.0000076346  -0.0000196873  -0.0001056915  -0.0000082622
       -0.0000210399   0.0001035738   0.0000109476  -0.0000028482  -0.0000683626
       -0.0000256911   0.0000197162   0.0000604756  -0.0000087152   0.0000304677
        0.0001091903   0.0000024188  -0.0000151459   0.0000018568  -0.0001408555
       -0.0000072519
       -0.3289751068  -0.0653424437   0.0448748856   0.6555223003   0.0794342288
        0.0436593372  -0.1302142323  -0.0300623771   0.0410382748   0.0561904655
        0.0035036555   0.0177488161  -0.0417678829  -0.0155274366   0.0266082786
       -0.0464167981   0.0186667617  -0.0740658906   0.0034291550   0.0006238174
        0.0000557465   0.0004066050  -0.0006349711   0.0019456558  -0.0001499903
        0.0007299659  -0.0023340872  -0.0014770472  -0.0006471164   0.0014299712
        0.0017663683   0.0000534421   0.0008632283  -0.0009545177   0.0006041993
       -0.0019455454   0.0009343736  -0.0003471299   0.0003807781  -0.0053565280
       -0.0005226176  -0.0041376563  -0.0004956985  -0.0002666884   0.0004378429
       -0.0000250069  -0.0000143641   0.0003140254   0.0000360183   0.0000265869
        0.0000255362   0.0002393169   0.0001947617  -0.0000997062  -0.0013911205
       -0.0000885446  -0.0000645952   0.0016516541  -0.0006042193   0.0003303606
       -0.0014448912  -0.0004649831   0.0000655773   0.0004471862  -0.0001595974
       -0.0000295534  -0.0001190950  -0.0001625495  -0.0000518639   0.0000906350
        0.0000505921  -0.0001337517  -0.0000217081   0.0001353920   0.0000543850
        0.0001523149   0.0000678603  -0.0000154638   0.0002743939  -0.0001603433
        0.0000914719  -0.0002930046  -0.0003227083  -0.0001037951  -0.0000768857
        0.0002887666   0.0001220001  -0.0004026325  -0.0002832598  -0.0001465665
        0.0003665543  -0.0000745601  -0.0000164488   0.0000296675   0.0003148768
        0.0001467380   0.0004030655  -0.0003635119  -0.0001115492  -0.0006363331
       -0.0002624754  -0.0001125550   0.0004044637   0.0006264094   0.0000394256
        0.0000946361  -0.0002313495   0.0000929606   0.0003133224   0.0002819424
        0.0001528246  -0.0003954769   0.0000342210  -0.0000046206   0.0000183025
       -0.0002163682  -0.0001581777  -0.0004401741   0.0004124051   0.0001228643
        0.0000174333  -0.0001462538  -0.0000738675   0.0000680715  -0.0000533370
        0.0001217090  -0.0001915849   0.0003093512   0.0002317197   0.0003492149
       -0.0001572693   0.0000149523  -0.0000806515   0.0000588852  -0.0000080439
        0.0001069173  -0.0000211838  -0.0000452208  -0.0002155810   0.0001721882
       -0.0000067700   0.0001617148   0.0000110749  -0.0000115971  -0.0003727212
        0.0000285680  -0.0000622445   0.0000997700   0.0002147685   0.0001002759
       -0.0002942061   0.0001268221  -0.0000838766   0.0000653355  -0.0002937329
       -0.0000796835   0.0002544334   0.0001438036   0.0001384896  -0.0001145327
       -0.0006073775  -0.0001149116  -0.0003165560   0.0003650295   0.0000214268
        0.0004534864   0.0000626486   0.0001552391  -0.0001092551  -0.0002642510
       -0.0001202662   0.0003157201  -0.0000949660   0.0001155672  -0.0001699154
        0.0003067431   0.0000191763  -0.0001795462  -0.0000916305  -0.0001063803
       -0.0000407372   0.0002361236   0.0000284973   0.0001351454  -0.0000188511
        0.0000340995  -0.0001567902   0.0001429126   0.0000263179   0.0006102314
        0.0008773192  -0.0003000639   0.0000798186  -0.0001160955   0.0000442799
       -0.0000919514  -0.0000438049  -0.0001888492  -0.0140294605  -0.0033602243
        0.0026232291  -0.1318765653   0.0245907186  -0.1207666275  -0.0151814299
       -0.0114922329   0.0243865592  -0.0009028115   0.0000894460  -0.0032862042
        0.0001705906  -0.0000167654   0.0000235069  -0.0000369967   0.0000051459
        0.0001081285   0.0000099848   0.0000227821   0.0000603038  -0.0000019052
        0.0000024679  -0.0000759355   0.0000361859  -0.0002196259   0.0000150981
       -0.0001346894   0.0000510277  -0.0000041034   0.0000374285   0.0000007646
       -0.0001291731  -0.0000146776  -0.0000406796   0.0000357545  -0.0000985476
       -0.0000078206  -0.0000222258   0.0000270881  -0.0000695001  -0.0000356334
       -0.0000235927   0.0000694827  -0.0000382267   0.0000924177  -0.0000337781
       -0.0000264705   0.0000833505   0.0000038517  -0.0000165810  -0.0000379638
        0.0000417544  -0.0000010960  -0.0000133657  -0.0001171585  -0.0000044827
       -0.0001225832   0.0000166949   0.0000010327  -0.0000130908   0.0000270499
        0.0001033529   0.0000325004   0.0000344835  -0.0000307163  -0.0000187733
       -0.0000510933   0.0000401192  -0.0000349421   0.0000181081   0.0000087275
        0.0000229690  -0.0000103018   0.0000098578  -0.0000213241  -0.0001630243
       -0.0000228118  -0.0000076143  -0.0000095601  -0.0000191403   0.0000961625
        0.0000463190   0.0000123111  -0.0000385724  -0.0001118243   0.0000172145
        0.0000053116   0.0000078467   0.0000418247   0.0001715340   0.0000225022
        0.0000485475  -0.0001493364  -0.0000301464   0.0000052804   0.0000890680
        0.0000597566  -0.0000331591  -0.0000618235   0.0000021969  -0.0000489187
       -0.0001257190  -0.0000554423  -0.0000028261  -0.0000287393   0.0002390240
        0.0001043507
       -0.0392182099  -0.0606362208   0.0224864162   0.0794342288   0.1850782300
       -0.1658878917  -0.0556574565  -0.0814327580   0.0811774414   0.0217636459
       -0.0061750285   0.0231378086  -0.0167719971  -0.0094378208   0.0063203519
       -0.0006847291   0.0089919715  -0.0204482731   0.0021776579  -0.0002312424
        0.0015659741   0.0001188495  -0.0000844509   0.0001646458  -0.0000460764
        0.0002043277  -0.0008939489  -0.0007020930  -0.0002321818   0.0005143270
        0.0008234383  -0.0002198477   0.0004342747  -0.0002817691   0.0002520431
       -0.0009897893   0.0006684544   0.0005946168   0.0018919094  -0.0020800609
        0.0043973848   0.0004583680   0.0002679944   0.0004365829   0.0005698404
        0.0000042517  -0.0002088737   0.0002489746   0.0002576569  -0.0000099042
       -0.0000581976   0.0000670904   0.0003016911  -0.0000298643  -0.0004311950
       -0.0006060778   0.0000772324   0.0002926443   0.0000081059   0.0000650636
       -0.0000486239  -0.0000773996   0.0000356676   0.0001000902   0.0000067652
       -0.0000243927  -0.0000521300  -0.0000653363  -0.0000179946   0.0000284449
        0.0000069316  -0.0000411085  -0.0000102525   0.0000440187   0.0000183997
        0.0000436406   0.0000263340  -0.0000072088   0.0000888097  -0.0000501605
        0.0000435038  -0.0001030872  -0.0000942005  -0.0000235077  -0.0000214024
        0.0001061535   0.0000534807  -0.0001296931  -0.0001092623  -0.0000620053
        0.0001157962  -0.0000244693  -0.0000058986   0.0000031168   0.0001120797
        0.0000616414   0.0001195682  -0.0001072440  -0.0000406672  -0.0001889649
       -0.0000811215  -0.0000358187   0.0001158484   0.0001837815  -0.0000054443
        0.0000223381  -0.0000774243   0.0000461615   0.0001026359   0.0001081075
        0.0000629702  -0.0001336826   0.0000018669  -0.0000033736   0.0000092576
       -0.0000655247  -0.0000674736  -0.0001243326   0.0001137071   0.0000326189
       -0.0000032042  -0.0000512085  -0.0000247713   0.0000145609  -0.0000146404
        0.0000326622  -0.0003135616  -0.0000441870   0.0001397050   0.0001276618
       -0.0000619737   0.0000127004  -0.0000570157   0.0000284710   0.0000077830
        0.0000466507  -0.0000093346  -0.0000244269  -0.0000710955   0.0000564094
       -0.0000064215   0.0000896433  -0.0000111127  -0.0000003643  -0.0002005064
        0.0000072071  -0.0000403072   0.0000507723   0.0000844933   0.0000473385
       -0.0001277425   0.0000368249  -0.0000390661   0.0000112267  -0.0001257579
       -0.0000372165   0.0000883421   0.0000653589   0.0000543923  -0.0000474804
       -0.0002783549  -0.0000535992  -0.0001554279   0.0001717207   0.0000106965
        0.0002145194   0.0000284087   0.0000714204  -0.0000567122  -0.0000987080
       -0.0000505762   0.0001315274  -0.0000220906   0.0000534371  -0.0000541962
        0.0001368678   0.0000175270  -0.0000717666  -0.0000546082  -0.0000478069
       -0.0000177812   0.0001415059   0.0000161638   0.0000337889   0.0000215286
        0.0000150944  -0.0000437730   0.0000715460  -0.0000022535   0.0003182489
        0.0006726741  -0.0001930174  -0.0002095745  -0.0001724671  -0.0000390897
        0.0001067687  -0.0001110250  -0.0004335267  -0.0113820141  -0.0024503460
        0.0014600941   0.0252629691  -0.0429133810   0.0398110603  -0.0037191987
       -0.0021608525   0.0052668558   0.0001800006   0.0060646640   0.0031051455
        0.0000505772  -0.0000133582  -0.0000127257  -0.0000247622   0.0000360187
        0.0000685425   0.0000055602   0.0000156336   0.0000424699  -0.0000022157
        0.0000183578  -0.0000240085   0.0000192802  -0.0000343696   0.0000080550
       -0.0000371854   0.0000245253  -0.0000293418   0.0000089364   0.0000026347
       -0.0000586097  -0.0000022162  -0.0000178469   0.0000159636  -0.0000482112
       -0.0000069043  -0.0000116369   0.0000054334  -0.0000229361  -0.0000153432
       -0.0000076819   0.0000395456  -0.0000154712   0.0000454982  -0.0000157496
       -0.0000115126   0.0000424816   0.0000042251  -0.0000059755  -0.0000143760
        0.0000135472  -0.0000000723  -0.0000078179  -0.0000534456  -0.0000003608
       -0.0000538166   0.0000081905   0.0000013641  -0.0000012721   0.0000111752
        0.0000437520   0.0000127989   0.0000101302  -0.0000133455  -0.0000071100
       -0.0000163637   0.0000138169  -0.0000134533   0.0000067512   0.0000054898
        0.0000086407  -0.0000020904   0.0000019440  -0.0000077821  -0.0000651566
       -0.0000087581   0.0000033971  -0.0000005994  -0.0000049064   0.0000496701
        0.0000149552   0.0000053970  -0.0000111082  -0.0000562529   0.0000084027
       -0.0000002666  -0.0000065570   0.0000139126   0.0000682950   0.0000066686
        0.0000160734  -0.0000706994  -0.0000104205   0.0000011309   0.0000415753
        0.0000174141  -0.0000119526  -0.0000445347  -0.0000013747  -0.0000169860
       -0.0000750853  -0.0000144171  -0.0000243300  -0.0000178824   0.0001522871
        0.0000651761
       -0.0292231396   0.0101775128  -0.0880821719   0.0436593372  -0.1658878917
        0.6005277238   0.1134250035   0.0934230533  -0.2507475700  -0.0339179378
        0.0149665633  -0.0597759078   0.0294383600   0.0064780266  -0.0099264837
       -0.0201649661  -0.0116170053   0.0251455122  -0.0043447330   0.0007399308
       -0.0040338266  -0.0000936318  -0.0001250982   0.0000761477   0.0001025515
       -0.0004422671   0.0014594012   0.0013065431   0.0004177465  -0.0008403324
       -0.0014419640   0.0000293766  -0.0010100031   0.0003493422  -0.0005811223
        0.0017471627  -0.0015874472   0.0016941827  -0.0039674378  -0.0012217783
        0.0008673690   0.0022412610   0.0001996884   0.0002093436   0.0002682346
       -0.0000143092   0.0002217706  -0.0002152947  -0.0000491528   0.0000088608
       -0.0000034154  -0.0001752498  -0.0002055626   0.0000701370   0.0010685159
       -0.0000232215   0.0000778617  -0.0013412374   0.0004373318  -0.0002417166
        0.0011289656   0.0004159986  -0.0000676720  -0.0002668500   0.0000343578
        0.0000591103   0.0001003524   0.0001129815   0.0000371024  -0.0000882031
       -0.0000305895   0.0000788260   0.0000266149  -0.0000755472  -0.0000628904
       -0.0001759027  -0.0000593440   0.0000133712  -0.0002238991   0.0000728858
       -0.0000886020   0.0002611546   0.0003380106   0.0000826818   0.0000301379
       -0.0002014815  -0.0000988757   0.0002506120   0.0002245107   0.0001209708
       -0.0002167142   0.0000512442   0.0000154739   0.0000018785  -0.0001758953
       -0.0001077767  -0.0003223353   0.0002716847   0.0000818521   0.0004929616
        0.0001513025   0.0000760780  -0.0002782718  -0.0004177540  -0.0000067561
       -0.0000249286   0.0001192074  -0.0000852691  -0.0001920725  -0.0002090817
       -0.0001175948   0.0002666019  -0.0000218874   0.0000061665  -0.0000308245
        0.0001170944   0.0001244973   0.0003470871  -0.0003311360  -0.0000908373
       -0.0000074449   0.0000824023   0.0000735559  -0.0000580803   0.0000137932
       -0.0000713612   0.0000684304  -0.0001886752  -0.0001712413  -0.0001906159
        0.0000501685  -0.0000139211   0.0000208115  -0.0000252385   0.0000103158
       -0.0000361197  -0.0000029973   0.0000422558   0.0001576570  -0.0001283926
        0.0000171237   0.0000117398  -0.0000601879   0.0000145714   0.0000915943
       -0.0000585398  -0.0000529813  -0.0000273033  -0.0000635267  -0.0000343961
        0.0000948166  -0.0000272964   0.0000255003   0.0000197049   0.0000991576
        0.0000302952  -0.0000873983  -0.0000665445  -0.0000586496   0.0000973923
        0.0001871607   0.0000049042   0.0000999064  -0.0000795552  -0.0000204200
       -0.0001387109  -0.0000318412  -0.0000189806   0.0000510006   0.0000915319
        0.0000355550  -0.0000993603   0.0000212073  -0.0000466987   0.0000442568
       -0.0000931596  -0.0000102114   0.0000518084   0.0000183491   0.0000186089
        0.0000413113  -0.0000475993   0.0000564449  -0.0001041544  -0.0000540530
       -0.0000186509   0.0000863017  -0.0000675265  -0.0000163143  -0.0004247375
       -0.0005696839   0.0001845838   0.0001180479   0.0001005906  -0.0000245139
       -0.0001125023   0.0000110605   0.0003535611   0.0249510365   0.0052445783
       -0.0027990642  -0.1208057731   0.0401026126  -0.2053181805   0.0026612315
        0.0012807083  -0.0020589439  -0.0038422300   0.0029808584  -0.0027338023
       -0.0000607333   0.0000072144   0.0000377127   0.0000413231   0.0000065914
       -0.0001033323  -0.0000163961  -0.0000056502  -0.0000871330   0.0000026965
        0.0000145646   0.0000384980  -0.0000330154   0.0000910416  -0.0000293461
        0.0000991561  -0.0000455286   0.0000061027  -0.0000138464   0.0000002536
        0.0001122384   0.0000014915   0.0000283518  -0.0000224523   0.0000948949
        0.0000128823   0.0000197530  -0.0000050303   0.0000322977   0.0000257921
        0.0000109596  -0.0000819253   0.0000259187  -0.0000914559   0.0000253739
        0.0000198656  -0.0000863195  -0.0000060106   0.0000089495   0.0000230862
       -0.0000142952   0.0000000869   0.0000184174   0.0001088130  -0.0000016267
        0.0001075543  -0.0000079968  -0.0000021540   0.0000015881  -0.0000141919
       -0.0000849958  -0.0000126877  -0.0000115882   0.0000252688   0.0000203603
        0.0000320091  -0.0000311391   0.0000260468  -0.0000100078  -0.0000155139
       -0.0000139447   0.0000066419  -0.0000001328   0.0000151371   0.0001212686
        0.0000178634  -0.0000058122   0.0000007390   0.0000094392  -0.0000878576
       -0.0000251349  -0.0000074511   0.0000224526   0.0001004696  -0.0000136846
        0.0000025936   0.0000138318  -0.0000223318  -0.0001183474  -0.0000093866
       -0.0000232593   0.0001274525   0.0000133657  -0.0000013870  -0.0000774665
       -0.0000195860   0.0000212902   0.0000892273  -0.0000148759   0.0000410349
        0.0000801758   0.0000273854   0.0000168730   0.0000455225  -0.0002717400
       -0.0001188299
       -0.0263644717  -0.0143391043   0.0264176306  -0.1302142323  -0.0556574565