$hessian                                                                        
        0.4683756324  -0.0161520644   0.0305390325  -0.1611348140  -0.0268597369
        0.0426330603  -0.0281593906  -0.0078675306   0.0022607179  -0.0011528498
       -0.0041178470   0.0035198460  -0.0002904678   0.0011454533  -0.0001918017
        0.0001442487  -0.0000466380   0.0000179879  -0.0000146538   0.0000589702
       -0.0000065717  -0.0001175668  -0.0000653718   0.0001435427   0.0004297078
       -0.0000033341  -0.0006194313   0.0000940215   0.0000022575  -0.0002651115
        0.0001368427   0.0000708305   0.0000694667  -0.0000095573  -0.0000268900
       -0.0000028164   0.0000447841  -0.0000335199   0.0000292683  -0.0000026225
        0.0000038270  -0.0000053007   0.0000338358   0.0000910370  -0.0000323028
       -0.0000383652  -0.0001076652   0.0000113735  -0.0000157359   0.0000138376
        0.0000059864   0.0000023071  -0.0000210928   0.0000034154  -0.0000212595
        0.0000076121  -0.0000095971   0.0000060943   0.0000021060   0.0000036632
       -0.0000230872   0.0000110671  -0.0000064819   0.0000505380   0.0000068480
       -0.0000009138  -0.0000196941  -0.0000297035   0.0000098342   0.0000144554
        0.0000462529   0.0000229069   0.0000084973   0.0000137673  -0.0000031576
       -0.0002225606   0.0019728725   0.0006376404  -0.0004837649  -0.0001343043
        0.0006153742  -0.0000753210  -0.0000746661   0.0000691747   0.0000043033
       -0.0003159689   0.0001006666   0.0001279505  -0.0005553017  -0.0002883411
       -0.0136324701   0.0007316663   0.0091443129  -0.0447972395   0.0204562089
       -0.0149889639  -0.1498312223  -0.0247019317  -0.1171790067  -0.0667295165
        0.0565090197   0.0450385257  -0.0035560336  -0.0009696538  -0.0032185584
        0.0006227338   0.0003943929   0.0010458797   0.0004375476  -0.0003229619
        0.0010781325   0.0001747746   0.0005438162  -0.0005494061  -0.0000008339
       -0.0000090263  -0.0000097775   0.0000331033  -0.0000040410  -0.0000260099
        0.0000111734  -0.0000246219  -0.0000380629  -0.0000296502   0.0000260130
       -0.0000134343  -0.0000198649   0.0000022961  -0.0000046447  -0.0000015868
        0.0000033191  -0.0000009477   0.0000319515   0.0000064887   0.0000029999
        0.0000003718  -0.0000066745   0.0000056720   0.0000020440  -0.0000145931
       -0.0000004223   0.0000240175  -0.0000412009  -0.0000124504  -0.0000828568
        0.0001177787   0.0001054007  -0.0000211634   0.0000146706  -0.0000091112
       -0.0000057369  -0.0000022143  -0.0000163455  -0.0003210506   0.0002561452
        0.0003850876
       -0.0161520644   0.5203674972   0.0083954797  -0.0269101430  -0.0735399512
        0.0118235231  -0.0072256618  -0.0010259284   0.0005193640  -0.0210712487
       -0.0091427328   0.0119331832   0.0001622590  -0.0008428552  -0.0001362674
       -0.0005644483   0.0006236428   0.0002205686  -0.0001770056  -0.0000541636
        0.0001497243  -0.0008052269  -0.0002412426   0.0010369236   0.0008598748
       -0.0038094054   0.0021368841   0.0000044403   0.0000927930  -0.0000724921
        0.0000284275   0.0000178690   0.0000171980   0.0000313996  -0.0000408063
       -0.0000217741  -0.0000236617   0.0000163657   0.0000240094   0.0000243838
       -0.0000216983  -0.0000031508  -0.0000060542  -0.0000134224  -0.0000059281
       -0.0000055047   0.0000145559   0.0000005261  -0.0000000403   0.0000070256
        0.0000067818   0.0000011530  -0.0000072937  -0.0000040584   0.0000007374
        0.0000098813  -0.0000023458  -0.0000020220  -0.0000011861   0.0000002412
        0.0000006422  -0.0000040186   0.0000041048  -0.0000083687   0.0000002599
       -0.0000033882   0.0000019622  -0.0000084016   0.0000099999   0.0000066403
        0.0000504420  -0.0000211907   0.0000028127  -0.0000401445   0.0000210180
        0.0010803976  -0.0027973823  -0.0023208841   0.0005936911   0.0002218260
       -0.0007765787   0.0001622306   0.0000110041  -0.0001452491   0.0001686537
        0.0007575713  -0.0001111120   0.0004029220  -0.0012594570  -0.0000206738
        0.0170727584   0.0042872523  -0.0080332821   0.0204442110  -0.2084664820
        0.1107766910  -0.0246991945  -0.0498873127  -0.0274611552   0.0565284342
       -0.1728089009  -0.1075691147  -0.0009496305   0.0002045683  -0.0007705469
       -0.0005780577   0.0001805509   0.0003697831   0.0007737250   0.0003957037
        0.0001788453  -0.0006117015  -0.0017630757   0.0016778271  -0.0000105325
        0.0000102314  -0.0000212233  -0.0000795296  -0.0000481770   0.0000229034
       -0.0000423641  -0.0002651287   0.0002655385   0.0000332801   0.0000586182
        0.0000108623  -0.0000010164   0.0000043136  -0.0000002029  -0.0000002946
        0.0000017774   0.0000004470   0.0000040932   0.0000006142   0.0000015310
        0.0000005192  -0.0000014931   0.0000005302  -0.0000016919  -0.0000010223
       -0.0000030955  -0.0000532218   0.0000094438  -0.0000123512   0.0001347436
       -0.0001423296  -0.0002514767   0.0000896500   0.0000122125  -0.0000325810
        0.0000024760   0.0000132660   0.0000132061   0.0013621669  -0.0011352742
       -0.0018175720
        0.0305390325   0.0083954797   0.5194021939   0.0443401990   0.0122858009
       -0.0785840298  -0.0182833321  -0.0049781799   0.0034570774   0.0141499289
        0.0090022840  -0.0092504363   0.0001069680   0.0001959934  -0.0007646297
        0.0004581520  -0.0001704203  -0.0001952794   0.0000685640   0.0000257333
       -0.0000440565   0.0005885891   0.0001838732  -0.0006210658  -0.0004358263
        0.0029491006  -0.0007477290  -0.0001082927  -0.0000404626   0.0002295318
       -0.0002850750  -0.0000379497   0.0000755354  -0.0000487317   0.0000440121
        0.0000504718   0.0000488683   0.0000355154  -0.0000192776  -0.0000108183
        0.0000040365   0.0000199910   0.0000340887  -0.0002148382   0.0000241937
        0.0000436964   0.0001854027   0.0000018638  -0.0000660092   0.0000625822
       -0.0000098550   0.0000385514   0.0000002818   0.0000003741  -0.0000080865
        0.0000014564   0.0000036427   0.0000354758  -0.0000009790   0.0000021732
       -0.0000485200   0.0000188589   0.0000045206   0.0000626031  -0.0000387355
       -0.0000050149  -0.0000480757  -0.0000077072   0.0000033126   0.0000081244
       -0.0000137268  -0.0000455904   0.0000724289  -0.0000714821   0.0000664904
        0.0011408027  -0.0029287825  -0.0010806537   0.0006194434   0.0001907504
       -0.0006677819   0.0000802356   0.0000153364  -0.0000547447   0.0003204620
        0.0004407885  -0.0001844080   0.0002070540  -0.0001463723  -0.0007678618
        0.0178704106   0.0000707429  -0.0101844480  -0.0149760540   0.1103018857
       -0.1167114055  -0.1172445409  -0.0274841366  -0.1712092166   0.0448168584
       -0.1071509412  -0.1304333599  -0.0037815710  -0.0009228970  -0.0024518346
       -0.0010052157   0.0001394328   0.0006535634  -0.0007542537  -0.0006355820
        0.0006223458   0.0005253020   0.0005111258   0.0000134613   0.0000095747
        0.0000013660   0.0000258098   0.0000305672   0.0000293622  -0.0000279622
        0.0000085866   0.0001477762  -0.0002013489  -0.0000256272  -0.0000182638
       -0.0000123548   0.0000079544   0.0000008928  -0.0000046488  -0.0000013682
       -0.0000010721  -0.0000004553  -0.0000015909  -0.0000023387   0.0000016293
        0.0000015577  -0.0000000320  -0.0000034479  -0.0000018495   0.0000016972
       -0.0000018664  -0.0000391573  -0.0000000437  -0.0000152608   0.0000862830
       -0.0001191277  -0.0002273512   0.0000457278  -0.0000061037  -0.0000311768
        0.0000093749   0.0000041507   0.0000262355   0.0007985303  -0.0002555439
       -0.0001258654
       -0.1611348140  -0.0269101430   0.0443401990   0.4724850992   0.0080568519
       -0.0453880380  -0.1036791250  -0.0115082901  -0.0564787856  -0.0623385666
        0.0028852148   0.0038104776  -0.0008965466   0.0174873431  -0.0120184871
       -0.0019416930   0.0033832770   0.0026764240  -0.0003141811   0.0002808490
       -0.0003113451  -0.0023542173   0.0001457012   0.0043781826   0.0002701494
       -0.0155003941   0.0128514010   0.0014263277   0.0013894522  -0.0014014701
       -0.0008043994  -0.0003280531  -0.0000088277   0.0000920982   0.0002522605
       -0.0000490710  -0.0000378769   0.0000259461   0.0000401712  -0.0000248619
        0.0000315278   0.0000056743   0.0000634600  -0.0004982382  -0.0000308831
        0.0001170777   0.0004467136   0.0000228039  -0.0001386162   0.0001715954
       -0.0000004854   0.0001004491  -0.0000283170   0.0000056211  -0.0000009038
        0.0000158735  -0.0000008498   0.0000884316  -0.0000019894   0.0000059529
       -0.0001083060   0.0000304853  -0.0000161488   0.0000654907  -0.0001012503
        0.0000084709   0.0000135296  -0.0000384600  -0.0000112041  -0.0000974073
       -0.0000726833   0.0000672222   0.0002454811  -0.0001086430  -0.0001052167
       -0.0124920768   0.0120171741   0.0178166680  -0.0007247885  -0.0019822707
        0.0047138412  -0.0004837786  -0.0003496298  -0.0000438463   0.0025632420
       -0.0032887417   0.0027146713   0.0046306951  -0.0028637201  -0.0050207863
       -0.0759091544   0.0305318547   0.0337366725  -0.0001467267  -0.0025197292
        0.0017027016  -0.0227913134  -0.0062471993   0.0057394260  -0.0129971373
       -0.0003889619   0.0076946034  -0.0202526794  -0.0047137295  -0.0187474287
        0.0042428334   0.0002158812   0.0044062067  -0.0035331685   0.0006890861
       -0.0052209874  -0.0003814137  -0.0006862622  -0.0008055214  -0.0001275113
        0.0009752244  -0.0005617554  -0.0002752335  -0.0003054237  -0.0003908302
       -0.0001708182  -0.0008434815   0.0009016320   0.0000331274  -0.0000600131
        0.0000306821   0.0000369530   0.0000043976   0.0000152573  -0.0000063843
       -0.0000004334   0.0000000736   0.0000081069  -0.0000009116   0.0000009634
        0.0000044371  -0.0000042833   0.0000050166   0.0000001638  -0.0000021781
        0.0000026012  -0.0000088025   0.0000499620   0.0000482336  -0.0004980279
        0.0005868385   0.0008601857  -0.0006107830   0.0002266303  -0.0006094329
        0.0001378100  -0.0005432766  -0.0003114400  -0.0013436500  -0.0000034329
       -0.0010691956
       -0.0268597369  -0.0735399512   0.0122858009   0.0080568519   0.4505122017
       -0.0121553400  -0.0118144808  -0.0568050368  -0.0131197790   0.0080625951
       -0.1396058301   0.0575842040   0.0066711262  -0.0201849942   0.0112902664
        0.0045549406   0.0019652576   0.0011360213  -0.0006088543  -0.0004483264
        0.0005338522   0.0007626572   0.0018442350   0.0020298361  -0.0097866432
       -0.0090686712   0.0119296621   0.0014729044  -0.0031287648  -0.0004939505
       -0.0003698274   0.0003293834   0.0000046692   0.0000191563   0.0000516750
       -0.0000792686   0.0000056426   0.0000384838  -0.0000318975  -0.0000105924
       -0.0000152539   0.0000343030   0.0000173188  -0.0001453902   0.0000179605
        0.0000315371   0.0001317890   0.0000013724  -0.0000481113   0.0000562770
       -0.0000212382   0.0000366416  -0.0000100187  -0.0000026101  -0.0000030656
        0.0000132275   0.0000034818   0.0000218073  -0.0000064216   0.0000014482
       -0.0000285483   0.0000036859   0.0000037971   0.0000171661  -0.0000297100
       -0.0000028853  -0.0000087777  -0.0000036088  -0.0000021508  -0.0000192931
       -0.0000093892   0.0000146954   0.0000868120  -0.0000644761   0.0000440282
        0.0066660303   0.0049494135  -0.0027894494  -0.0025965294   0.0003613307
        0.0004420618   0.0005643535  -0.0002216938  -0.0006146681  -0.0044353643
       -0.0024634092  -0.0000054702   0.0074866139  -0.0243848182  -0.0174580392
        0.0255039098  -0.1190630844  -0.0500974999  -0.0228636386  -0.0090787735
        0.0123208204  -0.0055060478  -0.0017034177   0.0012986457   0.0192373086
        0.0046120415  -0.0093355351  -0.0054218071  -0.0017433355  -0.0052161165
       -0.0125784004  -0.0043002030  -0.0176719247   0.0142294846   0.0021445576
        0.0185034281  -0.0016979593   0.0000290073  -0.0007337493  -0.0001045692
       -0.0005702977   0.0004212905  -0.0003547152  -0.0003615815  -0.0005799059
        0.0000599924  -0.0001940165   0.0000610898  -0.0000315303  -0.0000263129
        0.0000505541   0.0000189739   0.0000045103  -0.0000026855  -0.0000013364
        0.0000013887  -0.0000013813   0.0000013817   0.0000016906   0.0000002191
        0.0000012900  -0.0000003134  -0.0000016725   0.0000025478   0.0000002527
        0.0000002361   0.0000359196   0.0000205475  -0.0000218661  -0.0002360790
        0.0001527818   0.0004361764   0.0002765420  -0.0000993376   0.0003377115
        0.0004999659  -0.0008147206  -0.0007111117   0.0009844368   0.0008674205
        0.0003625633
        0.0426330603   0.0118235231  -0.0785840298  -0.0453880380  -0.0121553400
        0.4540463214  -0.0472628223  -0.0106288058  -0.1184749646   0.0005365047
        0.0599354368  -0.0919679977  -0.0039159210   0.0046286264   0.0011127975
        0.0023404267   0.0014822509   0.0050169269   0.0004055938   0.0003054365
       -0.0006665502   0.0037961833   0.0021116409   0.0014047162   0.0067534143
        0.0149625756  -0.0152380189  -0.0041756373  -0.0011745648  -0.0002058512
        0.0007457829   0.0001152469   0.0000217513  -0.0000286020  -0.0000239737
       -0.0001068022  -0.0002226680  -0.0001516625   0.0001054037   0.0002119151
        0.0000581158  -0.0000845885  -0.0000874902   0.0010134993  -0.0001458446
       -0.0002354008  -0.0008889813  -0.0000089491   0.0002776606  -0.0002251253
        0.0000719346  -0.0001888927  -0.0000806268   0.0000202410   0.0000322845
        0.0000351656  -0.0000120843  -0.0001683168  -0.0000136430  -0.0000205308
        0.0001853137  -0.0000682355  -0.0000017045  -0.0001238972   0.0001687343
        0.0000216793   0.0000829069   0.0000870568   0.0000125789  -0.0000250029
        0.0000632223   0.0000983886  -0.0002596870   0.0000038778  -0.0000942163
        0.0137505835  -0.0085909846  -0.0165442370   0.0042369767   0.0000383087
        0.0012868753   0.0005246339  -0.0000632909  -0.0007032643   0.0026030134
       -0.0005498440   0.0048879895  -0.0006674440  -0.0074571255  -0.0001805591
        0.0316792054  -0.0538037349  -0.0991232241   0.0147907167   0.0069224216
       -0.0086714058  -0.0177354060  -0.0050015034   0.0075464167   0.0174934144
        0.0022023169  -0.0095101942   0.0037476474   0.0008148870   0.0057363619
       -0.0119053344  -0.0059375545  -0.0186205061  -0.0127023579   0.0003827297
       -0.0172850995  -0.0001748502  -0.0014166072  -0.0015884252   0.0001074810
       -0.0003397040   0.0000009853  -0.0004354625  -0.0006868452  -0.0006946899
        0.0000449068   0.0005512148  -0.0003345033   0.0000150439  -0.0000125653
       -0.0000487186   0.0000008409  -0.0000093422   0.0000363037  -0.0000198799
        0.0000058126   0.0000050393   0.0000141752  -0.0000278634  -0.0000022698
        0.0000063435   0.0000002905  -0.0000003934   0.0000050255  -0.0000072152
       -0.0000060144  -0.0000073455   0.0000229091  -0.0000291024   0.0002860765
       -0.0004406084  -0.0003580479  -0.0007148925   0.0004192007  -0.0006296110
       -0.0000506682   0.0003123711  -0.0000243977  -0.0008111143   0.0012888756
       -0.0014659145
       -0.0281593906  -0.0072256618  -0.0182833321  -0.1036791250  -0.0118144808
       -0.0472628223   0.4940285561  -0.0055357982  -0.0460984701  -0.0030196248
        0.0054838207  -0.0088257799   0.0006808428  -0.0005701013  -0.0002228369
        0.0001622367   0.0006478144  -0.0001813484  -0.0002337154  -0.0000708458
        0.0001686300   0.0001526543   0.0002797911   0.0000747508  -0.0009964283
       -0.0007468473   0.0011461543   0.0000922622  -0.0002651810  -0.0001957977
       -0.0001221666  -0.0000399900   0.0002228908  -0.0000159029   0.0000123371
       -0.0001242159   0.0000242178  -0.0000351475  -0.0000624830  -0.0000970978
        0.0000158078   0.0000220721   0.0000298102  -0.0003350532   0.0000312513
        0.0000929318   0.0003251007   0.0000023527  -0.0000776520   0.0000849018
       -0.0000151448   0.0000656714  -0.0000056818   0.0000025719   0.0000048864
       -0.0000009078   0.0000049526   0.0000326734  -0.0000012411   0.0000014621
       -0.0000378286   0.0000017019  -0.0000036129   0.0000412415  -0.0000304906
        0.0000103076  -0.0000152243  -0.0000392019  -0.0000335575  -0.0000052554
        0.0000128318   0.0000239095  -0.0000393789   0.0000824082  -0.0001618973
       -0.0008618470   0.0008157340   0.0014686735   0.0000212419  -0.0003228720
       -0.0003628373  -0.0000883289   0.0001322903   0.0001207795  -0.0001520343
       -0.0000629012  -0.0005158035  -0.0001860236   0.0011112733   0.0004986949
        0.0057281377  -0.0019151350   0.0014365074   0.0006639336   0.0006232833
       -0.0009584955  -0.0060634194  -0.0017578893   0.0010654733   0.0005939864
       -0.0003736989  -0.0011927278  -0.2426104798  -0.0555303412   0.0763602034
       -0.0717468257   0.0614937445   0.0499667903  -0.0444153266   0.0156708216
       -0.0083483318  -0.0000216781  -0.0001162656  -0.0000617072   0.0000040854
        0.0000346386  -0.0000084201  -0.0000177970  -0.0000238107  -0.0000460872
        0.0000274227   0.0000059921  -0.0000007458   0.0000102898  -0.0000367774
        0.0000485142   0.0000207214   0.0000047932   0.0000137259  -0.0000089954
       -0.0000015900   0.0000010310  -0.0000018403  -0.0000026839   0.0000018855
        0.0000005237   0.0000002115  -0.0000013951   0.0000017222   0.0000020025
        0.0000029769   0.0000111106  -0.0000140963   0.0000529251   0.0000305071
        0.0000246769   0.0000139004   0.0000577232  -0.0000293585   0.0000368198
        0.0000164833   0.0000269411   0.0000423799   0.0000775130   0.0000111318
        0.0001252630
       -0.0078675306  -0.0010259284  -0.0049781799  -0.0115082901  -0.0568050368
       -0.0106288058  -0.0055357982   0.5189583589  -0.0106225709   0.0136949274
       -0.0009003460   0.0191786690  -0.0003941206  -0.0011556577   0.0012583975
       -0.0006558774  -0.0011691178  -0.0006935837   0.0004270056  -0.0002186121
       -0.0000888297  -0.0005439745   0.0001468677  -0.0008259677   0.0011650377
       -0.0011606017   0.0007800018  -0.0002770539   0.0010330882   0.0000507444
       -0.0000017764  -0.0001882135   0.0000580073   0.0000093919  -0.0000713464
       -0.0000242615   0.0000347906   0.0000154539   0.0000301640  -0.0000160294
       -0.0000129103  -0.0000232831  -0.0000029563  -0.0001777189  -0.0000080166
        0.0000497812   0.0001868145   0.0000032613  -0.0000273350   0.0000405297
        0.0000164779   0.0000245751  -0.0000085138  -0.0000036513   0.0000101131
        0.0000140276  -0.0000029651   0.0000050119  -0.0000103048  -0.0000007839
       -0.0000056474  -0.0000050477   0.0000016110  -0.0000163568  -0.0000227346
        0.0000014536   0.0000188143  -0.0000155360   0.0000013670  -0.0000784086
        0.0000331380  -0.0000161926   0.0000270210  -0.0000542266  -0.0000683108
       -0.0009201705  -0.0012145510  -0.0001967165   0.0004846689   0.0002161162
        0.0007400544  -0.0003093317  -0.0003576854   0.0001268750   0.0011605574
       -0.0007966029   0.0004534095   0.0009150348  -0.0002979174  -0.0011852828
       -0.0097336836  -0.0076921745  -0.0201526663  -0.0005648723   0.0003017859
       -0.0006801351  -0.0017872526  -0.0001175075   0.0002950397   0.0006851537
        0.0003355584   0.0000876097  -0.0555289127  -0.0598983341   0.0213081747
        0.0612143371  -0.1739282839  -0.1026219024   0.0159696189  -0.2145779026
        0.1083291391   0.0001865632   0.0002470426   0.0003694738   0.0000480640
       -0.0000940790   0.0001008908   0.0001024894   0.0001497739   0.0001624178
        0.0000276929  -0.0000207904   0.0000257760  -0.0000066440   0.0000980293
       -0.0000007270  -0.0000055114   0.0000062377   0.0000067642  -0.0000035662
       -0.0000002738   0.0000013347  -0.0000006661  -0.0000012566   0.0000027807
        0.0000020186   0.0000015377   0.0000004049   0.0000005059   0.0000037987
       -0.0000034834  -0.0000395020   0.0000805060   0.0000347956   0.0000002588
       -0.0000218946  -0.0000279795  -0.0001540017   0.0000826313  -0.0001523908
        0.0000086393  -0.0000968143  -0.0000974075  -0.0002868026   0.0001666249
       -0.0003210014
        0.0022607179   0.0005193640   0.0034570774  -0.0564787856  -0.0131197790
       -0.1184749646  -0.0460984701  -0.0106225709   0.4632650489  -0.0129289321
        0.0085613725  -0.0194846798   0.0009453423  -0.0010632092  -0.0009755808
        0.0006055620   0.0015319683  -0.0002040092  -0.0007300424   0.0001726992
        0.0002721047   0.0002419133  -0.0000558862   0.0004880399  -0.0009591684
        0.0000446131   0.0005047372   0.0003571419   0.0001788839  -0.0018653442
       -0.0006768144  -0.0001379376   0.0000716168  -0.0002207068  -0.0001833706
        0.0000496494   0.0001587265   0.0001174970  -0.0000425332  -0.0000397093
       -0.0000214740   0.0000601398   0.0000068567  -0.0003915705   0.0000802715
        0.0000926537   0.0003364635  -0.0000074176  -0.0001026995   0.0000598072
       -0.0000341794   0.0000622979   0.0000576503  -0.0000037001  -0.0000318507
       -0.0000279555   0.0000106770   0.0000695595   0.0000051253   0.0000016722
       -0.0000729673   0.0000359250   0.0000130147   0.0000969173  -0.0000670019
       -0.0000127869  -0.0000746505  -0.0000304922   0.0000063672   0.0000417174
       -0.0000252299  -0.0000931543  -0.0001016565   0.0000435494   0.0001015277
       -0.0008550588  -0.0006409616   0.0004651829   0.0001980451   0.0001763658
        0.0005643441  -0.0005592114  -0.0005712769   0.0002562748   0.0013718403
       -0.0010571048  -0.0002622170   0.0003323363   0.0013920905  -0.0009685129
       -0.0079205419  -0.0131203866  -0.0213762510   0.0009732366   0.0000515776
        0.0005276466   0.0019561977   0.0005359552   0.0000233386   0.0009083107
        0.0004369944   0.0005652850   0.0763428916   0.0213049910  -0.0711444701
        0.0495043614  -0.1022457959  -0.1242038239  -0.0085451009   0.1077809251
       -0.1109291374  -0.0000226042  -0.0000790826  -0.0002270965   0.0000387093
        0.0001035500  -0.0000074701  -0.0000535031  -0.0000565238  -0.0000665442
       -0.0000078560  -0.0000165739  -0.0000146477   0.0000117994   0.0000021220
       -0.0000018106   0.0000256574   0.0000152667  -0.0000074845   0.0000090424
       -0.0000060851  -0.0000012247  -0.0000104467   0.0000042892   0.0000043880
       -0.0000060429   0.0000081990  -0.0000116442  -0.0000084674   0.0000134153
       -0.0000013224  -0.0000026895  -0.0000033666  -0.0000095814  -0.0000185428
        0.0000083213  -0.0000149436  -0.0000879980   0.0000362982  -0.0000733338
        0.0000846984  -0.0000723269  -0.0000231162  -0.0000820158   0.0000806821
       -0.0002454221
       -0.0011528498  -0.0210712487   0.0141499289  -0.0623385666   0.0080625951
        0.0005365047  -0.0030196248   0.0136949274  -0.0129289321   0.5545635989
       -0.1433060144  -0.1389657654  -0.2237083861   0.0965827535   0.0360912242
        0.0179458813   0.0554675710  -0.0503673133  -0.0454534246   0.0118590386
        0.0166608299   0.0173596851  -0.0496133322   0.0293071025  -0.1799539189
       -0.0192716262   0.0819963587  -0.0463894749   0.0211536148   0.0171395255
       -0.0015236057   0.0016930321   0.0009690638   0.0036004927   0.0029806008
        0.0001022385  -0.0032010485  -0.0004036839  -0.0004679379   0.0018887529
        0.0006532365   0.0001738118  -0.0010104501   0.0057884831  -0.0001233482
       -0.0012601081  -0.0044261213  -0.0001918814   0.0022063728  -0.0017264731
        0.0001042053  -0.0014387456  -0.0006582851  -0.0000093936   0.0005176765
        0.0001531051  -0.0000052228  -0.0011761002  -0.0000349168  -0.0000992731
        0.0013087918  -0.0006740230   0.0000493829  -0.0007742501   0.0012071193
        0.0001106732   0.0008906918   0.0003155077   0.0000775118  -0.0010964837
       -0.0005911703  -0.0003223883  -0.0003064633  -0.0009337752  -0.0005433765
       -0.0028856895  -0.0033575078   0.0026179329  -0.0000181380   0.0016551626
        0.0002431619  -0.0009811024  -0.0004998491   0.0001422609   0.0008412876
        0.0001235938  -0.0001509169  -0.0001772823   0.0012239850   0.0009446106
       -0.0003426291   0.0087753338  -0.0035863299  -0.0045888738  -0.0018374950
        0.0027112649   0.0004066618  -0.0003409454   0.0001702574   0.0006014593
        0.0002980900  -0.0003434881   0.0000191861   0.0007978343   0.0000295689
        0.0005008184   0.0001255091   0.0005131879  -0.0021965614   0.0000635366
       -0.0035506743  -0.0218353194   0.0139799320   0.0028991252   0.0022246551
        0.0012380863   0.0020031904  -0.0005286413   0.0000839135   0.0002198947
        0.0022897516   0.0015851643   0.0012912526  -0.0000763566  -0.0005141389
        0.0002690667   0.0002004895  -0.0000699899   0.0001503340  -0.0002141111
        0.0000494923   0.0000010881   0.0000429944  -0.0001631448  -0.0000178574
        0.0000093850   0.0000105835   0.0000104802   0.0000966391  -0.0000724527
       -0.0000041066   0.0000720261  -0.0002109102  -0.0000012836   0.0000933005
       -0.0000531957  -0.0000871527   0.0000654909   0.0000520292   0.0000373509
       -0.0000248308   0.0000705090   0.0000178801  -0.0000730525   0.0000859598
        0.0000263718
       -0.0041178470  -0.0091427328   0.0090022840   0.0028852148  -0.1396058301
        0.0599354368   0.0054838207  -0.0009003460   0.0085613725  -0.1433060144
        0.4869917287  -0.1582281214   0.1522181677  -0.1714487427   0.0009186560
        0.0113855585  -0.0462872796   0.0265740608   0.0159555095  -0.0021071370
       -0.0111227756  -0.0235708928   0.0024934759   0.0130566290  -0.0486656213
       -0.0868434158   0.0515719976   0.0180612015   0.0051508591  -0.0096773576
        0.0008880831  -0.0027891381  -0.0012978982  -0.0000450387   0.0004139672
       -0.0001516852  -0.0005260370  -0.0001439515  -0.0001891125   0.0003345240
        0.0001432397   0.0000764714  -0.0000030315   0.0009952082   0.0000355490
       -0.0002880464  -0.0008377309  -0.0000683150   0.0001901398  -0.0001096571
        0.0000024838  -0.0001904835  -0.0002834320   0.0000068527   0.0000690585
        0.0001287602   0.0000028128  -0.0001307066  -0.0000365277  -0.0000137832
        0.0000781707  -0.0000587290   0.0000123546   0.0002265980   0.0001974741
        0.0000233706  -0.0000169223   0.0000344282  -0.0000258762  -0.0000924959
       -0.0001330166  -0.0000324674   0.0012839387  -0.0002415225   0.0006881198
        0.0008898901  -0.0012253368   0.0011397869  -0.0004204940   0.0004116080
        0.0005448327  -0.0001951261  -0.0000346465   0.0001078752  -0.0007635336
       -0.0006493443  -0.0010139968   0.0016816175  -0.0011230520  -0.0008772634
        0.0109075564  -0.0341307605   0.0021078573  -0.0011757188  -0.0006487579
        0.0007234498   0.0004930466   0.0003777728  -0.0000877667   0.0004160028
        0.0003038113  -0.0005318457  -0.0000895790   0.0002704855  -0.0006603470
       -0.0004412013   0.0007161282  -0.0006856221  -0.0004322869   0.0000246105
       -0.0004934632  -0.0017076075   0.0034595301  -0.0008714534   0.0015481822
       -0.0019475332   0.0055365250   0.0001260441   0.0003125428  -0.0006867450
        0.0013225458  -0.0017124535   0.0053642579  -0.0002429429  -0.0000846218
        0.0002066577   0.0000543185  -0.0000239048   0.0000572977  -0.0000804155
        0.0000166884  -0.0000014159   0.0000460149  -0.0000722769  -0.0000021430
        0.0000165105  -0.0000137306  -0.0000088182   0.0000283858  -0.0000478694
       -0.0000090133   0.0000288503  -0.0000251701  -0.0000315883  -0.0001366988
        0.0000971651   0.0002771216  -0.0000211100   0.0001160593   0.0000954514
        0.0000243687   0.0000444691  -0.0000007773   0.0000165322   0.0000086351
        0.0001400869
        0.0035198460   0.0119331832  -0.0092504363   0.0038104776   0.0575842040
       -0.0919679977  -0.0088257799   0.0191786690  -0.0194846798  -0.1389657654
       -0.1582281214   0.3365844636  -0.0017260398   0.0302788573  -0.0662919123
       -0.0201108817   0.0023532233   0.0100813979   0.0148292887  -0.0091624901
       -0.0071308836   0.0057354911   0.0341787004  -0.0289205065   0.1148712650
        0.0260454796  -0.1301910763   0.0078230171  -0.0081695840  -0.0010273730
       -0.0002262524   0.0010284376   0.0007604436  -0.0015358298  -0.0012068450
        0.0000470586   0.0012238679   0.0003147569  -0.0000563607  -0.0006152939
       -0.0002015890   0.0001453458   0.0000513915  -0.0025693195   0.0002468960
        0.0006302282   0.0021400983   0.0000418331  -0.0007835226   0.0005763606
       -0.0001448954   0.0004825464   0.0002993800  -0.0000243774  -0.0001893203
       -0.0001483268   0.0000216337   0.0004680449   0.0000552748   0.0000398264
       -0.0004898136   0.0002351248  -0.0000039775   0.0002575856  -0.0004376776
       -0.0000553587  -0.0003006669  -0.0002001844  -0.0000440292   0.0002113362
        0.0003231593  -0.0000951919  -0.0004770832   0.0003400265   0.0002182992
        0.0025409437  -0.0008286471  -0.0005785596  -0.0002976110   0.0002790286
        0.0000986043   0.0001178866  -0.0001870747   0.0000075697  -0.0006643569
       -0.0000136022  -0.0003539484   0.0012181780  -0.0021628703  -0.0021478644
       -0.0012541914  -0.0063186366   0.0085659982   0.0019838313   0.0010584287
       -0.0009240529  -0.0004786316  -0.0005152837   0.0004864550  -0.0002495384
       -0.0000771025   0.0003457141   0.0004857015   0.0000899468   0.0008357765
        0.0004021410   0.0005911919   0.0001615085  -0.0029354921   0.0005256791
       -0.0038561147   0.0146845706  -0.0102187168  -0.0002780162   0.0019917795
        0.0058126823   0.0022489294   0.0002479090  -0.0003136469   0.0003490848
        0.0021629547   0.0054028006   0.0018170741   0.0001068532   0.0003493792