$hessian                                                                        
        0.4714329341  -0.0153947119   0.0330405947  -0.1575157009  -0.0261059662
        0.0462386400  -0.0288407889  -0.0080694092   0.0038799910  -0.0001284623
       -0.0035582981   0.0030039638  -0.0002938428   0.0011232298  -0.0002217946
        0.0001960278  -0.0000557950  -0.0000248740  -0.0000115920   0.0000362328
        0.0000023790  -0.0000827931  -0.0000747741   0.0000620758   0.0001468255
        0.0003909687  -0.0005679449   0.0004354103  -0.0001121826  -0.0002261209
       -0.0001909897  -0.0000465673  -0.0000180560   0.0000573878   0.0000835737
        0.0000326192  -0.0000176056  -0.0000152338   0.0000021786   0.0000342188
        0.0000031717   0.0000081117  -0.0000498660  -0.0000184300  -0.0000123890
        0.0000007270   0.0000115684   0.0000055964   0.0000031985  -0.0000140442
        0.0000007329  -0.0000099111  -0.0000009430  -0.0000013613  -0.0000016699
       -0.0000046817  -0.0000006872   0.0000017328   0.0000031257  -0.0000001694
       -0.0000094785   0.0000026654  -0.0000007191   0.0000272503   0.0000094411
       -0.0000034599   0.0000037111  -0.0000328927   0.0000038233  -0.0000256760
        0.0000101743  -0.0000080530   0.0001314706  -0.0000345817   0.0000232084
       -0.0000971393   0.0018484184   0.0006589367  -0.0004172763  -0.0001695112
        0.0006228012  -0.0000615055  -0.0000359401   0.0000826391   0.0000311610
       -0.0002776613   0.0000837131   0.0000870093  -0.0005861109  -0.0003681758
       -0.0122959243   0.0007964144   0.0091550960  -0.0463801340   0.0253648200
       -0.0183464776  -0.1603726157  -0.0267731461  -0.1172777466  -0.0628038155
        0.0517152230   0.0414536149  -0.0038970156  -0.0010231643  -0.0032088744
        0.0006055621   0.0003909053   0.0010622315   0.0004245095  -0.0003368401
        0.0011049995   0.0002075594   0.0005426082  -0.0005596359  -0.0000188926
       -0.0000118090  -0.0000139600   0.0000388452   0.0000190723  -0.0000387315
        0.0000312308   0.0000059376  -0.0000528141  -0.0000260806   0.0000137273
       -0.0000097229  -0.0000165464   0.0000004926  -0.0000003056  -0.0000017448
       -0.0000006304  -0.0000007627  -0.0000014423  -0.0000003589  -0.0000005281
       -0.0000026608  -0.0000003818  -0.0000012211   0.0000024491  -0.0000038123
       -0.0000015552   0.0000170662  -0.0000383475  -0.0000039659  -0.0000650524
        0.0001255991   0.0000900023  -0.0000180847   0.0000097902  -0.0000298892
       -0.0000125362  -0.0000085230  -0.0000150615  -0.0002494434   0.0002975886
        0.0003971087
       -0.0153947119   0.5202168673   0.0091218128  -0.0261697562  -0.0735093389
        0.0130070640  -0.0072994815  -0.0011111602   0.0009130051  -0.0205933736
       -0.0090753855   0.0129329232   0.0000454167  -0.0007911113  -0.0002394974
       -0.0005597213   0.0005858477   0.0002478149  -0.0001304654  -0.0000852834
        0.0001743681  -0.0007723327  -0.0000750557   0.0011750425   0.0014717282
       -0.0041924372   0.0020888111  -0.0001309681   0.0008712200  -0.0000373585
       -0.0000328995   0.0000038079  -0.0000027556   0.0000582334  -0.0000202105
       -0.0000280517   0.0000090921   0.0000206440  -0.0000002837   0.0000036662
        0.0000272425   0.0000033444  -0.0000050973  -0.0000040994  -0.0000022658
       -0.0000005428   0.0000138083  -0.0000006055  -0.0000018848   0.0000002247
       -0.0000003654   0.0000017023   0.0000019815  -0.0000001930  -0.0000005202
        0.0000016163  -0.0000000611  -0.0000029707   0.0000017656   0.0000003633
        0.0000050214  -0.0000050306   0.0000032392  -0.0000196380  -0.0000029475
       -0.0000072456   0.0000004400   0.0000181089   0.0000091441  -0.0000339429
       -0.0000083905  -0.0000029888   0.0000055185  -0.0000435750   0.0000336325
        0.0007601593  -0.0035590894  -0.0023120089   0.0004907328   0.0003393473
       -0.0009258127   0.0001240792  -0.0000095166  -0.0001376914   0.0002267822
        0.0007406511  -0.0001761346   0.0004503092  -0.0011882565   0.0000554596
        0.0171047422   0.0042430810  -0.0090464346   0.0252523311  -0.2064236990
        0.1099869219  -0.0267542438  -0.0502804540  -0.0270736945   0.0518182880
       -0.1740941588  -0.1093907464  -0.0010142419   0.0001919613  -0.0007547058
       -0.0005929902   0.0001683776   0.0004035485   0.0007982801   0.0003981899
        0.0001482652  -0.0004930020  -0.0017851099   0.0017218997   0.0000006212
        0.0000258484  -0.0000002877  -0.0000890427  -0.0000598415   0.0000091801
       -0.0000351814  -0.0003103562   0.0002594946   0.0000376427   0.0000707496
        0.0000259958   0.0000018170   0.0000059938   0.0000022283   0.0000014205
       -0.0000001276  -0.0000010528   0.0000002163   0.0000009475  -0.0000007980
       -0.0000003405  -0.0000001182  -0.0000002309  -0.0000034290   0.0000026622
       -0.0000015453  -0.0000658852   0.0000232651  -0.0000233629   0.0001599166
       -0.0001846928  -0.0002540708   0.0001103449  -0.0000042315  -0.0000284149
       -0.0000248135   0.0000186111  -0.0000024975   0.0012829752  -0.0011691432
       -0.0018723972
        0.0330405947   0.0091218128   0.5161465174   0.0478642168   0.0134252400
       -0.0838284645  -0.0169467867  -0.0046484392   0.0043494603   0.0140304501
        0.0089335500  -0.0099822774   0.0000044740   0.0002474418  -0.0007284808
        0.0003826100  -0.0002574055  -0.0000582264   0.0002155398  -0.0000049094
       -0.0001399727   0.0005357037   0.0003032477  -0.0007522489  -0.0004588822
        0.0029226685  -0.0006964702  -0.0000572409   0.0000077539   0.0003737901
       -0.0003321199  -0.0000789528  -0.0000266974   0.0000510623   0.0000930259
        0.0000599144  -0.0000281302   0.0000151639  -0.0000070500   0.0000941661
        0.0000164567   0.0000189700  -0.0000667505  -0.0000350122  -0.0000187752
        0.0000236974   0.0000412579   0.0000132475   0.0000143075  -0.0000051523
        0.0000024279  -0.0000070043  -0.0000032377  -0.0000008873  -0.0000002539
       -0.0000033476   0.0000000579   0.0000012035   0.0000039200   0.0000007472
        0.0000044593  -0.0000010420   0.0000029110  -0.0000137035  -0.0000018796
       -0.0000109765   0.0000362938  -0.0000185344   0.0000166034  -0.0000470711
       -0.0000034304  -0.0000302754   0.0001085543  -0.0000708280   0.0000669826
        0.0010950039  -0.0029955995  -0.0010728734   0.0006443610   0.0000821307
       -0.0008452824   0.0001903356   0.0001182131  -0.0001481775   0.0002163604
        0.0004792152  -0.0000447210   0.0001504670  -0.0002313665  -0.0007362380
        0.0178794606   0.0002199295  -0.0111374925  -0.0183176955   0.1095535021
       -0.1165450588  -0.1173672846  -0.0270929803  -0.1599837380   0.0412727840
       -0.1089773741  -0.1324942320  -0.0037950355  -0.0009146221  -0.0022751874
       -0.0010134426   0.0001147791   0.0006466311  -0.0007706908  -0.0006179695
        0.0006103608   0.0004857877   0.0005514286  -0.0000476130   0.0000068490
       -0.0000065163   0.0000184393   0.0000253905   0.0000172827  -0.0000308299
       -0.0000070118   0.0001700891  -0.0001898008  -0.0000311994  -0.0000223636
       -0.0000210572   0.0000042022   0.0000040060  -0.0000021877   0.0000012297
        0.0000018871  -0.0000005622   0.0000038575   0.0000002148  -0.0000003639
        0.0000022833  -0.0000013748  -0.0000001762  -0.0000017951   0.0000002562
       -0.0000016956  -0.0000405850   0.0000099187  -0.0000225330   0.0000850431
       -0.0001538078  -0.0002219683   0.0000394023  -0.0000009495  -0.0000328221
        0.0000026256   0.0000084701   0.0000196755   0.0007899071  -0.0003157673
       -0.0002113228
       -0.1575157009  -0.0261697562   0.0478642168   0.4704598027   0.0080375093
       -0.0437375512  -0.1098571031  -0.0126561393  -0.0573462903  -0.0630045507
        0.0058698019   0.0024809485  -0.0013886917   0.0173511715  -0.0122591332
       -0.0017745910   0.0037092997   0.0025896633  -0.0005979323   0.0004287750
       -0.0001161115  -0.0020307985  -0.0000299854   0.0048495559   0.0017124197
       -0.0152403596   0.0117047075   0.0012882478   0.0012834218  -0.0020172819
       -0.0006837960  -0.0003212818   0.0005017677   0.0001724204   0.0002071371
       -0.0000756167  -0.0001505325   0.0000536346  -0.0000128326   0.0002698354
        0.0000171072   0.0000143999  -0.0002370635  -0.0001084184  -0.0000238584
        0.0000974680   0.0001293984   0.0000105612   0.0000515379  -0.0000143473
        0.0000026168  -0.0000229928  -0.0000135471  -0.0000033038  -0.0000010440
       -0.0000111351  -0.0000006841  -0.0000143528   0.0000060207  -0.0000018531
        0.0000333502   0.0000018653   0.0000009742  -0.0001062246  -0.0000092851
        0.0000013178   0.0002059072  -0.0000749685  -0.0000065328  -0.0002062095
       -0.0000002446  -0.0000045643   0.0002985731  -0.0000831282  -0.0001703091
       -0.0107675653   0.0129255222   0.0171322100  -0.0004375652  -0.0019822209
        0.0052494930  -0.0005471531  -0.0004611240   0.0001334390   0.0027506605
       -0.0035287700   0.0025560281   0.0045487494  -0.0030719018  -0.0055054198
       -0.0736427470   0.0272217311   0.0319396818   0.0007334296  -0.0021910289
        0.0012091449  -0.0232692232  -0.0064225407   0.0071385103  -0.0117857654
       -0.0001758444   0.0077450773  -0.0210175380  -0.0048175588  -0.0177854711
        0.0040143104   0.0000149447   0.0034889646  -0.0042808777   0.0007030278
       -0.0057931178  -0.0003645409  -0.0007241421  -0.0007658249  -0.0001522060
        0.0009913296  -0.0005662778  -0.0003003550  -0.0003215436  -0.0003663632
       -0.0001619134  -0.0009617694   0.0008507470   0.0000543376  -0.0000497853
        0.0000520018   0.0000201625   0.0000039672   0.0000173119  -0.0000002337
        0.0000027275   0.0000017173   0.0000115181  -0.0000007389   0.0000028343
        0.0000091984  -0.0000077438   0.0000012438  -0.0000044355  -0.0000030748
        0.0000028450   0.0000093380   0.0000561013   0.0000754351  -0.0005447380
        0.0007292680   0.0008317332  -0.0006632655   0.0002303536  -0.0006073523
        0.0001402384  -0.0005588686  -0.0003108865  -0.0013497983   0.0000371373
       -0.0009725116
       -0.0261059662  -0.0735093389   0.0134252400   0.0080375093   0.4491278580
       -0.0122718915  -0.0129851191  -0.0574630091  -0.0130497170   0.0099257832
       -0.1378408900   0.0566370333   0.0072351554  -0.0197046603   0.0108631906
        0.0043411462   0.0019701942   0.0010724320  -0.0003480477  -0.0005454163
        0.0005256060   0.0008024299   0.0022632073   0.0022656619  -0.0084890157
       -0.0097720144   0.0124155299   0.0013513976  -0.0028480862  -0.0006579157
       -0.0003325958   0.0004257517   0.0001424959   0.0000727037   0.0000724438
       -0.0001375845  -0.0000298827   0.0000280193  -0.0000212817   0.0000691263
        0.0000124547   0.0000021969  -0.0000646244  -0.0000251875  -0.0000019268
        0.0000246199   0.0000322721   0.0000007857   0.0000147817  -0.0000052974
        0.0000046885  -0.0000075369  -0.0000063595  -0.0000003525  -0.0000057009
       -0.0000048307  -0.0000007000   0.0000022217   0.0000087211   0.0000012034
        0.0000054194  -0.0000056068  -0.0000014440  -0.0000237712   0.0000039326
       -0.0000036706   0.0000482744  -0.0000296525   0.0000015269  -0.0000739076
        0.0000042974   0.0000143783   0.0000716799  -0.0000369547   0.0000739114
        0.0065795490   0.0043896568  -0.0036326216  -0.0027512233   0.0007895749
        0.0004862483   0.0003353649  -0.0005195101  -0.0005362768  -0.0041802724
       -0.0024327144   0.0000003928   0.0065612061  -0.0242825234  -0.0174734483
        0.0233218154  -0.1188766364  -0.0500239458  -0.0221863434  -0.0089611959
        0.0134071703  -0.0055562356  -0.0017318634   0.0015983526   0.0189737124
        0.0045942444  -0.0103643356  -0.0056749916  -0.0017741542  -0.0050119231
       -0.0135013100  -0.0044997676  -0.0172886196   0.0151127904   0.0022601898
        0.0178747132  -0.0016995578   0.0000306552  -0.0006218958  -0.0000658705
       -0.0005601783   0.0004477564  -0.0004029964  -0.0003866677  -0.0006221281
        0.0000699213  -0.0002732026   0.0000683604  -0.0000128570  -0.0000253567
        0.0000399407   0.0000054682   0.0000022583   0.0000138296  -0.0000006092
        0.0000033075   0.0000016423   0.0000047302   0.0000007422   0.0000014404
        0.0000011306  -0.0000021225   0.0000005906   0.0000002482   0.0000011837
       -0.0000016415   0.0000304249   0.0000192594  -0.0000029049  -0.0002552907
        0.0001412284   0.0004152604   0.0003187313  -0.0001067224   0.0003795172
        0.0004508419  -0.0008321979  -0.0007449066   0.0009855424   0.0008806647
        0.0002900360
        0.0462386400   0.0130070640  -0.0838284645  -0.0437375512  -0.0122718915
        0.4617144654  -0.0484087191  -0.0106712100  -0.1152886198  -0.0012253788
        0.0604402349  -0.0935153992  -0.0035330381   0.0032106247   0.0015998211
        0.0028104029   0.0018823154   0.0040018372  -0.0003719828   0.0005436510
       -0.0003222516   0.0042831955   0.0015704311   0.0012374158   0.0053233599
        0.0161764674  -0.0160839345  -0.0039814560  -0.0011886690  -0.0000294544
        0.0004955481   0.0001484071   0.0001716310  -0.0003104144  -0.0001891823
       -0.0000656104   0.0000717635  -0.0000345557   0.0000201369  -0.0001217555
       -0.0000182046  -0.0000198602   0.0001332003   0.0000486937   0.0000050642
       -0.0000385144  -0.0000546293  -0.0000042881  -0.0000253999   0.0000211620
        0.0000010167   0.0000165652   0.0000094280   0.0000039253  -0.0000000791
        0.0000091353   0.0000003869   0.0000019257  -0.0000043068   0.0000012469
       -0.0000074658  -0.0000088769  -0.0000011615   0.0000156295  -0.0000015553
        0.0000053960  -0.0000828387   0.0000395105  -0.0000082047   0.0000737332
        0.0000314093   0.0000461804  -0.0004040744   0.0000162274  -0.0000530532
        0.0130511855  -0.0101946908  -0.0176886661   0.0043504223   0.0007653308
        0.0011402140  -0.0000454017  -0.0006648330  -0.0004039031   0.0031330227
       -0.0005866997   0.0038675531  -0.0010752993  -0.0063105978   0.0002274887
        0.0302888988  -0.0552378361  -0.1017727482   0.0145713035   0.0070489980
       -0.0096676836  -0.0165763235  -0.0047034053   0.0081245239   0.0175563110
        0.0021188260  -0.0106412014   0.0051743561   0.0010758475   0.0068454881
       -0.0127497669  -0.0061047928  -0.0182484617  -0.0133929919   0.0003253403
       -0.0167141556  -0.0001382852  -0.0013120541  -0.0014109684   0.0001674146
       -0.0002974942   0.0000508374  -0.0004292658  -0.0006732470  -0.0005764445
       -0.0000058162   0.0005830676  -0.0004655636   0.0000086377  -0.0000103201
       -0.0000216225  -0.0000078108  -0.0000044697   0.0000070955  -0.0000037604
       -0.0000012458   0.0000010924  -0.0000075577   0.0000026988   0.0000007145
       -0.0000056835   0.0000045664   0.0000032025  -0.0000020501   0.0000067668
        0.0000049485   0.0000026752   0.0000114030  -0.0000158703   0.0002782976
       -0.0004737757  -0.0004928549  -0.0006817426   0.0003950645  -0.0004908340
        0.0000236676   0.0002936660   0.0000324892  -0.0006997325   0.0012322059
       -0.0012828918
       -0.0288407889  -0.0072994815  -0.0169467867  -0.1098571031  -0.0129851191
       -0.0484087191   0.4912532697  -0.0057904377  -0.0467435612  -0.0039057826
        0.0055097577  -0.0093234065   0.0005964161  -0.0004380173  -0.0003210924
        0.0000519399   0.0005651385   0.0000189646  -0.0000499306  -0.0001069046
        0.0000642498   0.0001765674   0.0004593279   0.0000290647  -0.0007845057
       -0.0008706298   0.0014883195  -0.0004083356  -0.0004231973  -0.0010542325
        0.0001441191   0.0000567529   0.0004630499  -0.0000065318  -0.0000519862
       -0.0001906004  -0.0000093524  -0.0000255326  -0.0000148960   0.0000277051
       -0.0000167704  -0.0000141773  -0.0000297899  -0.0000047926   0.0000232842
        0.0000281162   0.0000110601  -0.0000058626   0.0000151009   0.0000040713
       -0.0000024475   0.0000023865  -0.0000058963  -0.0000010880  -0.0000007618
       -0.0000046370  -0.0000005532   0.0000011415   0.0000054940  -0.0000004812
        0.0000126562  -0.0000041442  -0.0000025009  -0.0000216329   0.0000182615
        0.0000106613   0.0000508251  -0.0000471193  -0.0000236548   0.0000031905
        0.0000582333   0.0000395351  -0.0000844486   0.0001155570  -0.0002108384
       -0.0006630959   0.0009811562   0.0016863435   0.0001294818  -0.0004620913
       -0.0004545722   0.0000562545   0.0002405699   0.0000087477  -0.0002516319
       -0.0000178113  -0.0002762941  -0.0001436921   0.0009386263   0.0004822034
        0.0054391896  -0.0020668573   0.0005260699   0.0006375312   0.0005956586
       -0.0009852605  -0.0059975126  -0.0017387539   0.0013966455   0.0005487179
       -0.0003626173  -0.0011789930  -0.2354712843  -0.0540797959   0.0841413275
       -0.0674530982   0.0570389460   0.0469543314  -0.0453416602   0.0203375375
       -0.0113534228  -0.0000388061  -0.0001211667  -0.0000866209   0.0000120254
        0.0000414904  -0.0000094991  -0.0000285875  -0.0000568214  -0.0000546224
        0.0000141029   0.0000261754   0.0000224619   0.0000121807  -0.0000487359
        0.0000416890   0.0000111353   0.0000095167   0.0000190938   0.0000003082
        0.0000029177   0.0000014610   0.0000048538  -0.0000005707   0.0000018658
        0.0000021235  -0.0000037211   0.0000011197  -0.0000004944  -0.0000031228
        0.0000020689   0.0000139818  -0.0000105068   0.0000614090   0.0000331668
       -0.0000150555   0.0000371588   0.0000363208  -0.0000112139   0.0000268771
        0.0000104634   0.0000366744   0.0000273177   0.0000635554   0.0000205842
        0.0000888628
       -0.0080694092  -0.0011111602  -0.0046484392  -0.0126561393  -0.0574630091
       -0.0106712100  -0.0057904377   0.5184678790  -0.0104957853   0.0147675935
       -0.0009418012   0.0184833909  -0.0003690516  -0.0010485172   0.0014317071
       -0.0005711754  -0.0012091906  -0.0005987216   0.0004450621  -0.0001823895
       -0.0001287499  -0.0005650378   0.0001814115  -0.0009035198   0.0012755070
       -0.0010805883   0.0006048956  -0.0004732852   0.0012042580  -0.0001707844
        0.0001191851  -0.0001779258   0.0001201957   0.0000179117  -0.0001078227
       -0.0000598486   0.0001070919   0.0000170638   0.0000105405  -0.0000039334
        0.0000309952  -0.0000030978  -0.0000153621   0.0000205686   0.0000063095
        0.0000171733   0.0000121838  -0.0000029876   0.0000072156  -0.0000024421
       -0.0000024062  -0.0000028772   0.0000060761  -0.0000004050   0.0000038876
       -0.0000013483   0.0000010618  -0.0000027309   0.0000003112   0.0000005325
        0.0000111988  -0.0000008998   0.0000056793  -0.0000423533   0.0000005419
       -0.0000029798   0.0000321450   0.0000045854   0.0000018990  -0.0001272316
       -0.0000101609   0.0000026266   0.0000258726  -0.0000382522  -0.0000776729
       -0.0010085912  -0.0011831508   0.0001398924   0.0005419344   0.0001790189
        0.0007659107  -0.0002825908  -0.0002900339   0.0001195520   0.0010521033
       -0.0008555018   0.0004456528   0.0008374746  -0.0002634919  -0.0013593835
       -0.0107843755  -0.0081273532  -0.0197796107  -0.0006123584   0.0002882903
       -0.0006504461  -0.0017819678  -0.0001234404   0.0003906608   0.0007003123
        0.0003459688   0.0000584164  -0.0540658011  -0.0596389681   0.0237187344
        0.0567900176  -0.1748630751  -0.1045464808   0.0205980173  -0.2126227910
        0.1077003679   0.0002004126   0.0002310502   0.0003378128   0.0000318648
       -0.0001330065   0.0000658107   0.0001018815   0.0001539587   0.0001516692
        0.0000184700   0.0000078295   0.0000369112  -0.0000201500   0.0000988493
        0.0000274916  -0.0000036476   0.0000124454   0.0000065924   0.0000033875
        0.0000011982  -0.0000002932   0.0000013986   0.0000014394   0.0000001715
        0.0000033951   0.0000001038   0.0000002688  -0.0000026600   0.0000012212
       -0.0000011640  -0.0000390612   0.0000982694   0.0000107194  -0.0000006389
       -0.0000089681  -0.0000218610  -0.0001636188   0.0000962851  -0.0001444693
        0.0000412192  -0.0001223155  -0.0000716109  -0.0002972469   0.0001458016
       -0.0003035462
        0.0038799910   0.0009130051   0.0043494603  -0.0573462903  -0.0130497170
       -0.1152886198  -0.0467435612  -0.0104957853   0.4677613158  -0.0138029442
        0.0075201449  -0.0181402095   0.0007616540  -0.0006554477  -0.0011047609
        0.0003378743   0.0012834737   0.0001123354  -0.0003404083   0.0001209468
        0.0001041895   0.0001430774   0.0001302570   0.0005225432  -0.0004438341
       -0.0001704895   0.0003324051   0.0003294388   0.0001968310  -0.0016819621
       -0.0008056705  -0.0002128820  -0.0001202974  -0.0000740432  -0.0000834334
        0.0000714574  -0.0000362431   0.0000801859  -0.0000063688   0.0000408763
       -0.0000055337   0.0000248362   0.0000520477   0.0000139286  -0.0000274751
       -0.0000242562  -0.0000126123   0.0000238608  -0.0000107890   0.0000005980
        0.0000037017   0.0000104326   0.0000058018   0.0000052956  -0.0000044923
        0.0000035427   0.0000008705  -0.0000015822   0.0000009073   0.0000015236
       -0.0000052821   0.0000003904   0.0000047849   0.0000547488  -0.0000222494
       -0.0000098582  -0.0000118607   0.0000020988   0.0000342308  -0.0000081186
       -0.0000436113  -0.0000635889  -0.0001068221   0.0000306890   0.0000891040
       -0.0005160754  -0.0001972643   0.0003218072   0.0002260707  -0.0000709387
        0.0005794140  -0.0002591709  -0.0003070277   0.0000974639   0.0010126667
       -0.0009882654   0.0000644423   0.0003621283   0.0009764080  -0.0011487640
       -0.0094445073  -0.0126763554  -0.0203038982   0.0009822058   0.0000214373
        0.0005128995   0.0023052521   0.0006502768  -0.0001325894   0.0009176908
        0.0004518040   0.0005915692   0.0839547980   0.0236542709  -0.0787649710
        0.0464477980  -0.1041612052  -0.1269222316  -0.0115960734   0.1071167119
       -0.1111595078  -0.0000573130  -0.0000756458  -0.0002429023   0.0000508064
        0.0000895168  -0.0000120564  -0.0000721743  -0.0000947034  -0.0000564617
       -0.0000269242  -0.0000250725  -0.0000096621   0.0000041207   0.0000144745
       -0.0000305657   0.0000314500   0.0000013088   0.0000024303  -0.0000042602
       -0.0000019966   0.0000003363  -0.0000062420   0.0000039978  -0.0000004698
       -0.0000024579   0.0000030955   0.0000007523  -0.0000024230   0.0000045353
        0.0000007323   0.0000105964  -0.0000008266  -0.0000321944  -0.0000269016
        0.0000061023  -0.0000097370  -0.0001215212   0.0000526216  -0.0000596634
        0.0000921838  -0.0000619441  -0.0000226442  -0.0001056665   0.0000636452
       -0.0002623026
       -0.0001284623  -0.0205933736   0.0140304501  -0.0630045507   0.0099257832
       -0.0012253788  -0.0039057826   0.0147675935  -0.0138029442   0.5540112750
       -0.1457186424  -0.1524847331  -0.2236991049   0.0981101773   0.0404667515
        0.0180325576   0.0547194623  -0.0533489554  -0.0508540754   0.0125763779
        0.0215191344   0.0214732662  -0.0576295995   0.0305767479  -0.1864237725
       -0.0076867978   0.0875914746  -0.0419564425   0.0126049309   0.0185434759
        0.0016617649   0.0039673532   0.0019419279   0.0006860074   0.0004322793
       -0.0000814335   0.0000529163  -0.0000251467   0.0002001975  -0.0004155320
       -0.0004122355  -0.0001442642   0.0007183892   0.0002611229   0.0000268040
       -0.0002153376  -0.0003311148  -0.0000486472  -0.0001208178   0.0000527588
        0.0000225197   0.0000834198   0.0000408204   0.0000101272   0.0000188195
        0.0000349258  -0.0000017402   0.0000302199  -0.0000360186  -0.0000013697
       -0.0000821255  -0.0000128554  -0.0000062878   0.0002458816   0.0000071453
        0.0000375915  -0.0005030356   0.0001398842  -0.0000382902   0.0009724215
        0.0003094625  -0.0001307275  -0.0021119247  -0.0001254129  -0.0005458653
       -0.0016889831  -0.0012676155   0.0016063531   0.0004186409   0.0003744438
        0.0000266072  -0.0002926927  -0.0000658981   0.0000489846   0.0004516991
       -0.0000234278   0.0001223071  -0.0001738429   0.0011483358   0.0007723054
       -0.0013515238   0.0085547883  -0.0031358224  -0.0045042953  -0.0017945991
        0.0029604725   0.0004377869  -0.0003292217   0.0001437686   0.0005597689
        0.0002616018  -0.0003612228   0.0000342369   0.0008003563   0.0001819789
        0.0005366337   0.0001427312   0.0005043817  -0.0025948293   0.0000771875
       -0.0036549556  -0.0212592419   0.0132829354   0.0035620239   0.0024348097
        0.0015451153   0.0020166424  -0.0004125037   0.0002579163   0.0004281990
        0.0026142732   0.0023875835   0.0017408632   0.0002007765  -0.0006712765
        0.0000513580   0.0000173308  -0.0000126605   0.0000219103   0.0000005547
       -0.0000064548  -0.0000027278  -0.0000250547   0.0000005132  -0.0000063581
       -0.0000179992   0.0000162395  -0.0000028127   0.0000096821   0.0000021283
        0.0000006964   0.0000631121  -0.0002009334   0.0000200859   0.0000648528
       -0.0000320687  -0.0001212075   0.0000012436   0.0000420439  -0.0000541514
       -0.0000291982   0.0000375871   0.0000018569  -0.0000612119   0.0000937682
        0.0000218981
       -0.0035582981  -0.0090753855   0.0089335500   0.0058698019  -0.1378408900
        0.0604402349   0.0055097577  -0.0009418012   0.0075201449  -0.1457186424
        0.4815877947  -0.1570476633   0.1498414508  -0.1693014707  -0.0036436277
        0.0133473485  -0.0438987248   0.0246108872   0.0136828838  -0.0022513756
       -0.0110021177  -0.0222511898   0.0017645697   0.0138580933  -0.0507873959
       -0.0857440286   0.0580540117   0.0202747747   0.0020312816  -0.0100271971
       -0.0001576003  -0.0030258269  -0.0024211033  -0.0001007217   0.0005454440
       -0.0000525343  -0.0004766452  -0.0000416363   0.0000735075   0.0005016936
        0.0000164184   0.0000242506  -0.0004034672  -0.0001987578  -0.0001091312
        0.0001113988   0.0002011975   0.0000443013   0.0000750777  -0.0000586823
        0.0000233805  -0.0000540294  -0.0000127448  -0.0000010733  -0.0000057252
       -0.0000436908  -0.0000028702   0.0000192157   0.0000314299   0.0000086210
        0.0000031497   0.0000291327  -0.0000005545   0.0000323709   0.0000134984
       -0.0000306176   0.0002299652  -0.0001996295   0.0000275483  -0.0003789397
       -0.0001844989   0.0001766109   0.0016445560  -0.0001906651   0.0005757292
        0.0011356902   0.0003432520   0.0008258520  -0.0001054691   0.0001754337
        0.0005526018  -0.0003405168  -0.0003670601   0.0002926300  -0.0004264057
       -0.0008149167  -0.0014711448   0.0016673780  -0.0005227197  -0.0005425609
        0.0104947128  -0.0341018794   0.0016580079  -0.0011496264  -0.0006477801
        0.0008202818   0.0004301924   0.0004142079  -0.0000490935   0.0004327587
        0.0002609276  -0.0006046054  -0.0001104434   0.0002811605  -0.0006089161
       -0.0004781169   0.0006585932  -0.0007829847  -0.0004085367   0.0000711759
       -0.0004812114  -0.0019293565   0.0035907621  -0.0007867617   0.0020102904
       -0.0015957167   0.0057589048   0.0001563491   0.0003798971  -0.0006231139
        0.0016562574  -0.0014326018   0.0055397027  -0.0001884504  -0.0001455843
        0.0000208165  -0.0000136580  -0.0000111895   0.0000043383  -0.0000075336
        0.0000017212   0.0000000913   0.0000071818  -0.0000009134   0.0000003182
        0.0000061505  -0.0000074090   0.0000024370  -0.0000018675  -0.0000103263
       -0.0000038550   0.0000724373  -0.0000201930  -0.0000304739  -0.0001775959
        0.0001291172   0.0002379137  -0.0000630069   0.0001054471   0.0001000411
       -0.0000011191   0.0000456215  -0.0000545676   0.0000815142   0.0000100150
        0.0001929708
        0.0030039638   0.0129329232  -0.0099822774   0.0024809485   0.0566370333
       -0.0935153992  -0.0093234065   0.0184833909  -0.0181402095  -0.1524847331
       -0.1570476633   0.3595348540   0.0022976436   0.0293253168  -0.0692259795
       -0.0225079921  -0.0013933694   0.0155994503   0.0202297922  -0.0103657789
       -0.0103132041   0.0026184395   0.0396859660  -0.0321111741   0.1256596189
        0.0252551711  -0.1470726976   0.0091043224  -0.0062151083  -0.0012888504
       -0.0013918279   0.0000916611   0.0003424003  -0.0005738821  -0.0003129356
        0.0000266571   0.0001472309   0.0001190930  -0.0000373085  -0.0001554689
        0.0001505551   0.0000086263   0.0000450321   0.0000117637   0.0000294572
       -0.0000109761   0.0000148819   0.0000002333  -0.0000231003   0.0000270446
       -0.0000071813   0.0000127533   0.0000004302   0.0000022410  -0.0000072669
        0.0000165751   0.0000012013  -0.0000250726  -0.0000064048  -0.0000034832
        0.0000241922  -0.0000155916   0.0000013073  -0.0000909799  -0.0000353444
       -0.0000022985   0.0000233298   0.0001107316   0.0000034189  -0.0001807856
       -0.0000969799  -0.0000786367   0.0000156436   0.0000306534   0.0000283071
        0.0023845403  -0.0013527250  -0.0002415782  -0.0004514949   0.0003744069
       -0.0000349212   0.0002082285   0.0000753446  -0.0002029863  -0.0009061837
        0.0000068493  -0.0000514740   0.0010472769  -0.0024466773  -0.0023618835
       -0.0009699186  -0.0061758465   0.0094066964   0.0021966445   0.0011446848
       -0.0011794138  -0.0004210465  -0.0005001570   0.0004778580  -0.0002760836
       -0.0000644954   0.0003854133   0.0005375525   0.0000547535   0.0007966329
        0.0004271661   0.0006237259   0.0001739299  -0.0030493092   0.0004732635
       -0.0035712940   0.0157637738  -0.0108041905  -0.0010084374   0.0019383824
        0.0057920570   0.0019790355   0.0002011255  -0.0004672726   0.0002142275
        0.0021187760   0.0055322449   0.0016224976   0.0000326631   0.0004407557