 Entering Gaussian System
 *********************************************
 Gaussian 98:
 frequency output generated by the xtb code
 *********************************************
                         Standard orientation:
 --------------------------------------------------------------------
  Center     Atomic     Atomic              Coordinates (Angstroms)
  Number     Number      Type              X           Y           Z
 --------------------------------------------------------------------
    1          6             0       -2.689835    6.296472    0.637253
    2          6             0       -2.051290    5.541052   -0.538055
    3          6             0       -2.529262    6.192864   -1.839128
    4          6             0       -0.521797    5.669557   -0.470113
    5          6             0       -2.425076    4.069559   -0.447171
    6          6             0       -3.114475    3.397108   -1.452326
    7          6             0       -3.422201    2.053668   -1.343106
    8          6             0       -3.049054    1.336432   -0.209279
    9          7             0       -3.316994   -0.034804   -0.097178
   10          6             0       -2.334311   -1.030812    0.081542
   11          6             0       -0.942010   -0.877345   -0.016396
   12          6             0       -0.118610   -1.936305    0.474528
   13          6             0        1.240392   -1.857670    0.448763
   14          6             0        1.881132   -0.713930   -0.072971
   15          7             0        3.285819   -0.611639   -0.059878
   16          6             0        4.052976   -1.563532   -0.711514
   17          6             0        3.462949   -2.560447   -1.491591
   18          6             0        4.232508   -3.530004   -2.103482
   19          6             0        5.612127   -3.521919   -1.955188
   20          6             0        6.221982   -2.513485   -1.232725
   21          6             0        5.463428   -1.515242   -0.624748
   22          7             0        6.068343   -0.472878    0.049662
   23          6             0        7.491485   -0.414916    0.131718
   24          6             0        8.226863    0.076393   -0.939227
   25          6             0        9.607072    0.133540   -0.851067
   26          6             0       10.249687   -0.296357    0.298746
   27          6             0        9.512677   -0.787011    1.364486
   28          6             0        8.132128   -0.848621    1.285204
   29          6             0        5.310832    0.515927    0.646278
   30          6             0        5.919585    1.591635    1.290564
   31          6             0        5.160962    2.549726    1.935947
   32          6             0        3.779346    2.430960    1.967672
   33          6             0        3.157312    1.381163    1.320439
   34          6             0        3.899882    0.428934    0.619358
   35          6             0        1.090383    0.312500   -0.619251
   36          6             0       -0.272725    0.234656   -0.605880
   37          7             0       -2.910574   -2.225537    0.308291
   38          6             0       -4.226872   -2.031345    0.245230
   39          6             0       -5.252691   -3.015926    0.370095
   40          6             0       -4.934217   -4.364721    0.538758
   41          6             0       -5.927693   -5.314608    0.629510
   42          6             0       -7.257041   -4.913643    0.545356
   43          6             0       -7.584051   -3.584879    0.383148
   44          6             0       -6.599827   -2.586257    0.297574
   45          6             0       -6.910727   -1.177895    0.161871
   46          6             0       -8.230229   -0.713125    0.174979
   47          6             0       -8.544510    0.624221    0.088264
   48          6             0       -7.522602    1.573751   -0.000573
   49          6             0       -6.216734    1.167786   -0.025962
   50          6             0       -5.864355   -0.199794    0.033588
   51          6             0       -4.538567   -0.667399    0.015773
   52          6             0       -2.363327    1.997955    0.808538
   53          6             0       -2.061614    3.337455    0.683129
   54          1             0       -2.444600    7.354837    0.578533
   55          1             0       -2.336697    5.917548    1.592295
   56          1             0       -3.772777    6.191024    0.608854
   57          1             0       -3.612487    6.144917   -1.926096
   58          1             0       -2.080036    5.714100   -2.706371
   59          1             0       -2.238347    7.241456   -1.846152
   60          1             0       -0.133588    5.283205    0.468167
   61          1             0       -0.061533    5.112884   -1.284290
   62          1             0       -0.230166    6.714078   -0.556883
   63          1             0       -3.418817    3.911214   -2.349302
   64          1             0       -3.949909    1.547763   -2.139905
   65          1             0       -0.617967   -2.794560    0.894964
   66          1             0        1.842767   -2.654542    0.861382
   67          1             0        2.392483   -2.564769   -1.617468
   68          1             0        3.752282   -4.291694   -2.697473
   69          1             0        6.215207   -4.287724   -2.416883
   70          1             0        7.295914   -2.491084   -1.139779
   71          1             0        7.715310    0.408724   -1.830276
   72          1             0       10.180260    0.516826   -1.681558
   73          1             0       11.326103   -0.249055    0.364017
   74          1             0       10.011794   -1.123578    2.260532
   75          1             0        7.547126   -1.228478    2.109498
   76          1             0        6.994961    1.668751    1.286728
   77          1             0        5.649939    3.375779    2.427788
   78          1             0        3.181930    3.155254    2.498810
   79          1             0        2.084438    1.288220    1.359143
   80          1             0        1.577775    1.154587   -1.090800
   81          1             0       -0.844591    1.006719   -1.093545
   82          1             0       -3.889520   -4.633078    0.588983
   83          1             0       -5.680351   -6.358092    0.759652
   84          1             0       -8.045203   -5.651170    0.607291
   85          1             0       -8.629083   -3.324540    0.319552
   86          1             0       -9.042727   -1.417087    0.266546
   87          1             0       -9.577508    0.940013    0.102140
   88          1             0       -7.764580    2.626331   -0.043088
   89          1             0       -5.434108    1.907647   -0.074109
   90          1             0       -2.070109    1.447037    1.690906
   91          1             0       -1.531438    3.817643    1.491369
 --------------------------------------------------------------------
     1 basis functions        1 primitive gaussians
     1 alpha electrons        1 beta electrons
 
 Harmonic frequencies (cm**-1), IR intensities (km*mol⁻¹),
 Raman scattering activities (A**4/amu), Raman depolarization ratios,
 reduced masses (AMU), force constants (mDyne/A) and normal coordinates:
                      1                      2                      3
                        a                      a                      a 
 Frequencies --     7.4868                10.9647                12.9735
 Red. masses --    10.7584                10.8802                10.6022
 Frc consts  --     0.0000                 0.0000                 0.0000
 IR Inten    --     0.0422                 0.2128                 0.0380
 Raman Activ --     0.0000                 0.0000                 0.0000
 Depolar     --     0.0000                 0.0000                 0.0000
 Atom AN      X      Y      Z        X      Y      Z        X      Y      Z
   1   6    -0.15   0.05  -0.13    -0.23   0.05  -0.02     0.07   0.01  -0.13
   2   6    -0.14   0.05  -0.12    -0.15   0.07   0.01     0.06  -0.04  -0.11
   3   6    -0.17   0.00  -0.13    -0.13   0.04  -0.01     0.08  -0.06  -0.13
   4   6    -0.15   0.09  -0.14    -0.16   0.13   0.07     0.07  -0.06  -0.11
   5   6    -0.10   0.04  -0.09    -0.10   0.05   0.01     0.04  -0.03  -0.07
   6   6    -0.09  -0.01  -0.07    -0.03   0.02  -0.01     0.04  -0.05  -0.06
   7   6    -0.05  -0.01  -0.03     0.02   0.01  -0.01     0.03  -0.04  -0.03
   8   6    -0.02   0.03  -0.02    -0.02   0.04   0.02     0.01  -0.02  -0.01
   9   7     0.01   0.02   0.02     0.01   0.03   0.03     0.00  -0.01   0.01
  10   6     0.02   0.03  -0.01     0.02   0.05   0.08    -0.01  -0.02   0.01
  11   6     0.02   0.04  -0.03     0.02   0.06   0.12    -0.01  -0.04   0.02
  12   6     0.03   0.02  -0.07     0.01   0.06   0.13    -0.02  -0.06   0.00
  13   6     0.03   0.02  -0.09     0.01   0.04   0.14    -0.02  -0.07   0.02
  14   6     0.02   0.05  -0.05     0.02   0.03   0.13    -0.01  -0.07   0.05
  15   7     0.02   0.05  -0.05     0.03  -0.00   0.11    -0.01  -0.07   0.08
  16   6     0.01   0.06  -0.09    -0.01  -0.02   0.08     0.01  -0.02   0.03
  17   6    -0.00   0.13  -0.16    -0.05  -0.02   0.10     0.02  -0.02   0.01
  18   6    -0.01   0.15  -0.21    -0.09  -0.03   0.08     0.04   0.04  -0.05
  19   6    -0.02   0.10  -0.18    -0.08  -0.05   0.03     0.05   0.09  -0.10
  20   6    -0.00   0.04  -0.10    -0.04  -0.05   0.00     0.03   0.08  -0.08
  21   6     0.01   0.02  -0.06    -0.01  -0.04   0.02     0.01   0.02  -0.01
  22   7     0.02  -0.04   0.02     0.03  -0.04  -0.01    -0.01   0.01   0.03
  23   6     0.02  -0.09   0.07     0.04  -0.05  -0.08    -0.01   0.07  -0.03
  24   6     0.07  -0.03   0.13    -0.02  -0.05  -0.11    -0.09   0.29   0.01
  25   6     0.07  -0.08   0.18    -0.01  -0.06  -0.19    -0.08   0.34  -0.05
  26   6     0.02  -0.18   0.17     0.04  -0.07  -0.22    -0.00   0.18  -0.15
  27   6    -0.03  -0.24   0.11     0.10  -0.07  -0.19     0.07  -0.04  -0.20
  28   6    -0.03  -0.19   0.06     0.09  -0.06  -0.12     0.07  -0.09  -0.14
  29   6     0.03  -0.04   0.05     0.07  -0.03   0.03    -0.02  -0.05   0.10
  30   6     0.05  -0.09   0.11     0.10  -0.05   0.01    -0.04  -0.08   0.17
  31   6     0.06  -0.09   0.13     0.14  -0.04   0.05    -0.06  -0.13   0.23
  32   6     0.06  -0.05   0.08     0.14  -0.03   0.10    -0.06  -0.16   0.23
  33   6     0.04  -0.00   0.02     0.10  -0.01   0.12    -0.04  -0.14   0.18
  34   6     0.03   0.00   0.01     0.06  -0.02   0.08    -0.02  -0.08   0.12
  35   6     0.01   0.06  -0.00     0.03   0.04   0.14     0.01  -0.05   0.07
  36   6     0.01   0.06   0.01     0.03   0.06   0.14     0.01  -0.04   0.04
  37   7     0.04   0.03  -0.01     0.03   0.05   0.08    -0.03  -0.02   0.01
  38   6     0.03   0.01   0.02     0.02   0.02   0.02    -0.02  -0.00   0.01
  39   6     0.05  -0.00   0.03     0.04   0.01  -0.01    -0.04   0.01   0.01
  40   6     0.06   0.00   0.02     0.05   0.02   0.03    -0.06   0.01   0.02
  41   6     0.07  -0.01   0.03     0.06   0.00   0.01    -0.07   0.02   0.02
  42   6     0.07  -0.02   0.05     0.06  -0.02  -0.05    -0.06   0.04   0.02
  43   6     0.05  -0.02   0.07     0.05  -0.03  -0.09    -0.04   0.05   0.02
  44   6     0.04  -0.01   0.06     0.03  -0.02  -0.07    -0.03   0.03   0.02
  45   6     0.02  -0.01   0.07     0.01  -0.02  -0.10    -0.01   0.04   0.01
  46   6     0.02  -0.03   0.10     0.01  -0.05  -0.17    -0.01   0.06   0.01
  47   6     0.01  -0.03   0.12    -0.01  -0.05  -0.20     0.01   0.06   0.01
  48   6    -0.00  -0.02   0.11    -0.03  -0.04  -0.17     0.03   0.05   0.01
  49   6    -0.00  -0.01   0.08    -0.02  -0.01  -0.11     0.02   0.03   0.01
  50   6     0.01  -0.00   0.06     0.00  -0.01  -0.07     0.00   0.02   0.01
  51   6     0.02   0.01   0.03     0.01   0.01  -0.01    -0.01   0.00   0.01
  52   6    -0.03   0.07  -0.04    -0.08   0.07   0.04     0.01   0.00  -0.02
  53   6    -0.07   0.07  -0.07    -0.12   0.08   0.04     0.02  -0.00  -0.05
  54   1    -0.05   0.02  -0.05    -0.08   0.02  -0.01     0.03  -0.00  -0.05
  55   1    -0.04   0.03  -0.04    -0.07   0.02  -0.00     0.02   0.01  -0.03
  56   1    -0.04   0.01  -0.03    -0.07   0.00  -0.02     0.02   0.01  -0.04
  57   1    -0.05  -0.01  -0.04    -0.04  -0.00  -0.02     0.02  -0.01  -0.04
  58   1    -0.05  -0.00  -0.04    -0.02   0.01   0.00     0.02  -0.03  -0.03
  59   1    -0.06   0.00  -0.05    -0.05   0.01  -0.00     0.03  -0.02  -0.04
  60   1    -0.04   0.04  -0.04    -0.05   0.04   0.03     0.02  -0.01  -0.03
  61   1    -0.04   0.03  -0.04    -0.03   0.04   0.03     0.02  -0.03  -0.03
  62   1    -0.05   0.03  -0.05    -0.06   0.04   0.02     0.02  -0.02  -0.04
  63   1    -0.03  -0.01  -0.02    -0.00  -0.00  -0.01     0.02  -0.02  -0.02
  64   1    -0.01  -0.01  -0.00     0.02  -0.01  -0.01     0.01  -0.02  -0.01
  65   1     0.01   0.00  -0.03    -0.00   0.02   0.04    -0.01  -0.02  -0.01
  66   1     0.01   0.00  -0.04    -0.00   0.01   0.04    -0.01  -0.02   0.00
  67   1     0.00   0.05  -0.05    -0.02  -0.00   0.04     0.01  -0.02   0.01
  68   1    -0.01   0.06  -0.08    -0.03  -0.01   0.03     0.02   0.01  -0.02
  69   1    -0.01   0.03  -0.06    -0.03  -0.02   0.00     0.02   0.04  -0.05
  70   1    -0.00   0.00  -0.02    -0.01  -0.02  -0.01     0.01   0.04  -0.03
  71   1     0.03   0.02   0.04    -0.02  -0.01  -0.02    -0.04   0.12   0.03
  72   1     0.03  -0.01   0.07    -0.02  -0.02  -0.06    -0.04   0.15  -0.00
  73   1     0.00  -0.06   0.06     0.01  -0.02  -0.08    -0.00   0.06  -0.06
  74   1    -0.02  -0.09   0.03     0.04  -0.02  -0.06     0.04  -0.05  -0.08
  75   1    -0.02  -0.07   0.00     0.04  -0.02  -0.03     0.04  -0.08  -0.05
  76   1     0.01  -0.04   0.04     0.03  -0.02  -0.01    -0.01  -0.02   0.05
  77   1     0.02  -0.04   0.05     0.05  -0.01   0.01    -0.02  -0.04   0.08
  78   1     0.02  -0.01   0.03     0.05  -0.01   0.04    -0.02  -0.06   0.08
  79   1     0.01   0.01  -0.00     0.03  -0.00   0.04    -0.01  -0.05   0.05
  80   1     0.00   0.02   0.01     0.01   0.01   0.04     0.01  -0.01   0.03
  81   1     0.00   0.02   0.01     0.01   0.02   0.04     0.01  -0.01   0.01
  82   1     0.02   0.00  -0.00     0.02   0.01   0.02    -0.02  -0.00   0.00
  83   1     0.02  -0.00   0.00     0.02   0.00   0.01    -0.02   0.01   0.01
  84   1     0.02  -0.01   0.02     0.02  -0.01  -0.02    -0.02   0.02   0.01
  85   1     0.01  -0.01   0.03     0.01  -0.01  -0.04    -0.01   0.02   0.01
  86   1     0.01  -0.01   0.03     0.00  -0.02  -0.06    -0.00   0.02   0.00
  87   1     0.00  -0.01   0.04    -0.01  -0.02  -0.07     0.01   0.02   0.00
  88   1    -0.00  -0.01   0.03    -0.01  -0.01  -0.06     0.01   0.01   0.00
  89   1    -0.00   0.00   0.02    -0.01  -0.00  -0.03     0.01   0.00   0.00
  90   1    -0.00   0.03  -0.01    -0.03   0.03   0.02    -0.00   0.01  -0.00
  91   1    -0.02   0.03  -0.03    -0.05   0.03   0.02     0.01   0.00  -0.02
                      4                      5                      6
                        a                      a                      a 
 Frequencies --    18.2256                22.0737                23.0051
 Red. masses --    10.6430                10.3433                10.2905
 Frc consts  --     0.0000                 0.0000                 0.0000
 IR Inten    --     1.9915                 0.1387                 0.2721
 Raman Activ --     0.0000                 0.0000                 0.0000
 Depolar     --     0.0000                 0.0000                 0.0000
 Atom AN      X      Y      Z        X      Y      Z        X      Y      Z
   1   6     0.08  -0.02   0.06    -0.22  -0.03   0.02     0.22   0.05  -0.12
   2   6     0.11  -0.03   0.09    -0.09   0.02   0.05     0.15  -0.05  -0.09
   3   6     0.20  -0.00   0.07    -0.04   0.02   0.03     0.18  -0.07  -0.11
   4   6     0.11  -0.08   0.16    -0.11   0.11   0.16     0.16  -0.16  -0.12
   5   6     0.06  -0.02   0.06    -0.03   0.00   0.00     0.05  -0.02  -0.02
   6   6     0.09   0.01   0.02     0.05  -0.01  -0.04     0.02  -0.02   0.00
   7   6     0.06   0.01  -0.01     0.08  -0.01  -0.07    -0.02  -0.01   0.04
   8   6    -0.02  -0.01  -0.00     0.03  -0.01  -0.06    -0.04   0.01   0.06
   9   7    -0.02  -0.01  -0.04     0.03  -0.02  -0.07    -0.04   0.01   0.08
  10   6    -0.01   0.01   0.01     0.02  -0.03  -0.06    -0.02   0.02   0.07
  11   6    -0.02   0.02   0.00     0.02  -0.05  -0.07    -0.02   0.04   0.07
  12   6    -0.00   0.03   0.01     0.00  -0.08  -0.12    -0.01   0.03   0.05
  13   6    -0.00   0.04  -0.01     0.01  -0.09  -0.11    -0.01   0.04   0.04
  14   6    -0.02   0.04  -0.02     0.02  -0.08  -0.05    -0.02   0.05   0.07
  15   7    -0.02   0.05  -0.05     0.02  -0.08  -0.02    -0.02   0.05   0.05
  16   6    -0.03   0.06  -0.06     0.04  -0.03  -0.05    -0.04   0.08  -0.02
  17   6    -0.04   0.08  -0.08     0.07  -0.01  -0.09    -0.07   0.13  -0.07
  18   6    -0.04   0.09  -0.11     0.09   0.02  -0.11    -0.09   0.16  -0.13
  19   6    -0.04   0.09  -0.12     0.08   0.03  -0.08    -0.09   0.12  -0.13
  20   6    -0.03   0.06  -0.10     0.06   0.01  -0.03    -0.07   0.07  -0.08
  21   6    -0.03   0.05  -0.06     0.04  -0.01  -0.03    -0.04   0.06  -0.04
  22   7    -0.02   0.02  -0.03     0.02  -0.02   0.01    -0.02   0.03   0.00
  23   6    -0.02  -0.01   0.00     0.01   0.02   0.01    -0.02   0.00  -0.01
  24   6     0.01   0.09   0.07     0.02  -0.19  -0.09    -0.00  -0.24  -0.12
  25   6     0.01   0.06   0.11     0.02  -0.15  -0.09    -0.00  -0.27  -0.13
  26   6    -0.02  -0.07   0.07     0.01   0.10   0.01    -0.01  -0.05  -0.04
  27   6    -0.05  -0.17   0.01     0.01   0.30   0.10    -0.03   0.19   0.06
  28   6    -0.05  -0.14  -0.03     0.01   0.26   0.10    -0.03   0.22   0.07
  29   6    -0.01   0.02  -0.02    -0.01  -0.05   0.04    -0.00   0.01   0.05
  30   6    -0.00   0.00  -0.00    -0.04  -0.04   0.05     0.01   0.00   0.05
  31   6     0.01   0.01  -0.00    -0.07  -0.09   0.10     0.03  -0.02   0.10
  32   6     0.00   0.04  -0.03    -0.06  -0.15   0.12     0.03  -0.02   0.14
  33   6    -0.01   0.05  -0.04    -0.03  -0.14   0.08     0.02  -0.00   0.13
  34   6    -0.01   0.04  -0.04    -0.01  -0.09   0.04    -0.00   0.02   0.08
  35   6    -0.03   0.03  -0.03     0.03  -0.05  -0.01    -0.03   0.07   0.11
  36   6    -0.03   0.02  -0.01     0.03  -0.03  -0.03    -0.03   0.05   0.10
  37   7    -0.01   0.01   0.06    -0.00  -0.02  -0.04    -0.01   0.01   0.05
  38   6    -0.01  -0.00   0.04     0.00   0.01  -0.02    -0.01  -0.01   0.03
  39   6     0.00  -0.01   0.09    -0.01   0.03   0.04     0.00  -0.03  -0.01
  40   6     0.02   0.01   0.21    -0.03   0.03   0.10     0.02  -0.03  -0.03
  41   6     0.03   0.01   0.28    -0.05   0.05   0.17     0.03  -0.04  -0.07
  42   6     0.02  -0.01   0.25    -0.04   0.08   0.20     0.03  -0.06  -0.09
  43   6     0.01  -0.03   0.14    -0.02   0.07   0.15     0.01  -0.06  -0.07
  44   6    -0.00  -0.03   0.05    -0.01   0.05   0.06    -0.00  -0.04  -0.03
  45   6    -0.02  -0.04  -0.06     0.01   0.05   0.01    -0.02  -0.05  -0.01
  46   6    -0.02  -0.06  -0.16     0.02   0.07  -0.01    -0.03  -0.06  -0.03
  47   6    -0.04  -0.07  -0.27     0.04   0.07  -0.06    -0.04  -0.07  -0.02
  48   6    -0.05  -0.06  -0.30     0.05   0.05  -0.11    -0.05  -0.05   0.01
  49   6    -0.04  -0.05  -0.22     0.05   0.03  -0.10    -0.05  -0.03   0.03
  50   6    -0.03  -0.04  -0.10     0.03   0.03  -0.04    -0.03  -0.03   0.02
  51   6    -0.02  -0.02  -0.03     0.02   0.01  -0.04    -0.02  -0.01   0.04
  52   6    -0.06  -0.03   0.04    -0.03  -0.01  -0.02    -0.04   0.02   0.05
  53   6    -0.02  -0.04   0.07    -0.06   0.00   0.01     0.00   0.01   0.01
  54   1     0.03  -0.01   0.02    -0.08  -0.01   0.02     0.09   0.01  -0.05
  55   1     0.01  -0.01   0.02    -0.08  -0.01   0.01     0.06   0.02  -0.03
  56   1     0.02   0.01   0.00    -0.06  -0.03  -0.02     0.06   0.04  -0.03
  57   1     0.06   0.01   0.00    -0.01  -0.01  -0.01     0.05  -0.00  -0.03
  58   1     0.07  -0.00   0.03     0.01   0.02   0.02     0.04  -0.04  -0.03
  59   1     0.07  -0.00   0.03    -0.02   0.01   0.02     0.07  -0.03  -0.05
  60   1     0.02  -0.03   0.05    -0.04   0.03   0.05     0.04  -0.04  -0.03
  61   1     0.04  -0.03   0.05    -0.01   0.04   0.05     0.03  -0.07  -0.03
  62   1     0.04  -0.03   0.05    -0.05   0.04   0.06     0.07  -0.05  -0.05
  63   1     0.04   0.01   0.00     0.02  -0.00  -0.02     0.01  -0.01  -0.00
  64   1     0.03   0.01  -0.01     0.04  -0.01  -0.03    -0.01  -0.01   0.01
  65   1     0.00   0.01   0.01    -0.00  -0.03  -0.04    -0.00   0.00   0.01
  66   1     0.00   0.01  -0.00    -0.00  -0.03  -0.04    -0.00   0.01   0.00
  67   1    -0.01   0.02  -0.02     0.02  -0.00  -0.03    -0.02   0.05  -0.01
  68   1    -0.01   0.03  -0.04     0.03   0.01  -0.04    -0.03   0.06  -0.05
  69   1    -0.01   0.03  -0.04     0.03   0.01  -0.02    -0.03   0.04  -0.05
  70   1    -0.01   0.02  -0.03     0.02   0.00  -0.00    -0.02   0.01  -0.02
  71   1     0.01   0.06   0.03     0.01  -0.11  -0.05     0.00  -0.12  -0.05
  72   1     0.01   0.04   0.05     0.00  -0.09  -0.05     0.00  -0.13  -0.06
  73   1    -0.01  -0.03   0.03     0.00   0.04   0.00    -0.00  -0.02  -0.02
  74   1    -0.02  -0.08  -0.01     0.00   0.14   0.05    -0.01   0.11   0.04
  75   1    -0.02  -0.06  -0.02     0.00   0.12   0.05    -0.01   0.12   0.04
  76   1     0.00  -0.01   0.01    -0.01   0.00   0.01     0.00   0.01   0.00
  77   1     0.00  -0.00   0.00    -0.03  -0.03   0.03     0.01  -0.01   0.03
  78   1     0.00   0.01  -0.01    -0.02  -0.06   0.04     0.01  -0.01   0.05
  79   1    -0.00   0.02  -0.02    -0.01  -0.05   0.02     0.00  -0.00   0.04
  80   1    -0.01   0.01  -0.01     0.01  -0.01   0.01    -0.01   0.02   0.04
  81   1    -0.01   0.00  -0.00     0.01  -0.00   0.00    -0.01   0.02   0.03
  82   1     0.01   0.01   0.07    -0.01   0.00   0.02     0.01  -0.00  -0.00
  83   1     0.01   0.01   0.11    -0.02   0.02   0.06     0.01  -0.01  -0.02
  84   1     0.01  -0.00   0.09    -0.02   0.03   0.08     0.01  -0.02  -0.03
  85   1     0.00  -0.01   0.04    -0.01   0.03   0.05     0.00  -0.02  -0.02
  86   1    -0.00  -0.02  -0.04     0.00   0.03   0.00    -0.01  -0.02  -0.01
  87   1    -0.01  -0.03  -0.10     0.01   0.03  -0.02    -0.01  -0.02  -0.01
  88   1    -0.02  -0.02  -0.11     0.02   0.02  -0.04    -0.02  -0.02   0.01
  89   1    -0.02  -0.01  -0.07     0.02   0.01  -0.04    -0.02  -0.01   0.02
  90   1    -0.03  -0.01   0.01    -0.02  -0.00  -0.00    -0.02   0.01   0.02
  91   1    -0.02  -0.02   0.03    -0.03   0.00   0.01     0.00   0.00   0.00
                      7                      8                      9
                        a                      a                      a 
 Frequencies --    32.3776                35.6452                48.3482
 Red. masses --     9.1096                10.9776                10.9693
 Frc consts  --     0.0000                 0.0000                 0.0000
 IR Inten    --     2.4654                 0.3704                 0.3947
 Raman Activ --     0.0000                 0.0000                 0.0000
 Depolar     --     0.0000                 0.0000                 0.0000
 Atom AN      X      Y      Z        X      Y      Z        X      Y      Z
   1   6    -0.32   0.01  -0.23     0.02   0.02   0.00     0.02  -0.16   0.11
   2   6     0.03  -0.04  -0.02     0.06   0.02   0.02    -0.04  -0.08   0.03
   3   6     0.36  -0.13  -0.19     0.15   0.05   0.01    -0.15  -0.01   0.10
   4   6     0.00   0.02   0.38     0.06  -0.04   0.11    -0.04  -0.04  -0.06
   5   6     0.03  -0.04  -0.01     0.01   0.03  -0.02     0.01  -0.09  -0.04
   6   6     0.13  -0.07  -0.06     0.01   0.07  -0.05     0.07  -0.08  -0.08
   7   6     0.11  -0.06  -0.04    -0.02   0.07  -0.09     0.09  -0.09  -0.12
   8   6     0.00  -0.02   0.01    -0.05   0.03  -0.11     0.05  -0.10  -0.12
   9   7     0.00  -0.03   0.02    -0.04   0.03  -0.17     0.03  -0.11  -0.15
  10   6    -0.00  -0.03   0.02    -0.02   0.05  -0.18     0.00  -0.11  -0.09
  11   6    -0.00  -0.02   0.03    -0.02   0.07  -0.15     0.01  -0.09  -0.02
  12   6     0.01  -0.02   0.02    -0.03   0.07  -0.15     0.03  -0.02   0.09
  13   6     0.01  -0.00   0.02    -0.03   0.08  -0.09     0.03   0.05   0.17
  14   6    -0.00   0.00   0.03    -0.02   0.09  -0.05     0.01   0.05   0.16
  15   7    -0.00   0.01   0.01    -0.02   0.08  -0.01     0.01   0.07   0.15
  16   6    -0.01   0.01  -0.00    -0.02   0.03   0.04    -0.02   0.09   0.08
  17   6    -0.01   0.01   0.01    -0.02   0.05   0.01    -0.06   0.11   0.07
  18   6    -0.02   0.01   0.00    -0.03  -0.00   0.08    -0.08   0.14  -0.01
  19   6    -0.01   0.02  -0.02    -0.05  -0.08   0.19    -0.08   0.14  -0.07
  20   6    -0.01   0.02  -0.03    -0.04  -0.09   0.20    -0.04   0.11  -0.06
  21   6    -0.01   0.02  -0.02    -0.03  -0.04   0.12    -0.02   0.08   0.02
  22   7    -0.00   0.03  -0.04    -0.02  -0.05   0.14     0.01   0.06   0.04
  23   6    -0.00   0.01  -0.02    -0.01  -0.03   0.04     0.01   0.02   0.01
  24   6     0.02   0.03   0.01    -0.10  -0.03  -0.01     0.01  -0.02  -0.01
  25   6     0.02   0.02   0.04    -0.09  -0.03  -0.12     0.02  -0.11  -0.04
  26   6    -0.00  -0.02   0.04     0.00  -0.02  -0.17     0.02  -0.15  -0.06
  27   6    -0.03  -0.05   0.01     0.09  -0.02  -0.12     0.02  -0.09  -0.04
  28   6    -0.03  -0.03  -0.02     0.08  -0.03  -0.01     0.02  -0.01  -0.00
  29   6     0.00   0.04  -0.05    -0.00  -0.03   0.11     0.03   0.07   0.04
  30   6     0.01   0.05  -0.08     0.01  -0.07   0.17     0.06   0.08  -0.00
  31   6     0.02   0.06  -0.09     0.02  -0.05   0.14     0.09   0.11  -0.01
  32   6     0.02   0.05  -0.06     0.01   0.02   0.06     0.08   0.13   0.01
  33   6     0.01   0.04  -0.02    -0.00   0.06   0.00     0.06   0.12   0.06
  34   6     0.00   0.03  -0.02    -0.00   0.04   0.03     0.03   0.09   0.08
  35   6    -0.01   0.01   0.04    -0.00   0.10  -0.06    -0.01  -0.00   0.07
  36   6    -0.01  -0.00   0.05    -0.01   0.09  -0.11    -0.00  -0.08  -0.02
  37   7    -0.01  -0.03   0.00     0.02   0.04  -0.18    -0.02  -0.11  -0.09
  38   6    -0.01  -0.02   0.00     0.01   0.01  -0.12    -0.02  -0.07  -0.09
  39   6    -0.02  -0.01  -0.02     0.04  -0.02  -0.05    -0.06  -0.03  -0.05
  40   6    -0.04  -0.02  -0.08     0.08  -0.01  -0.07    -0.11  -0.04  -0.05
  41   6    -0.05  -0.02  -0.12     0.11  -0.03   0.02    -0.15   0.00   0.00
  42   6    -0.05   0.00  -0.10     0.10  -0.05   0.13    -0.13   0.06   0.07
  43   6    -0.03   0.02  -0.04     0.06  -0.06   0.15    -0.08   0.07   0.07
  44   6    -0.02   0.01   0.00     0.03  -0.04   0.06    -0.04   0.03   0.01
  45   6    -0.00   0.01   0.05    -0.01  -0.05   0.07     0.00   0.04   0.02
  46   6     0.01   0.04   0.12    -0.01  -0.07   0.19     0.02   0.10   0.11
  47   6     0.03   0.04   0.15    -0.04  -0.08   0.19     0.07   0.11   0.11
  48   6     0.04   0.03   0.09    -0.07  -0.06   0.05     0.11   0.06  -0.00
  49   6     0.03   0.01   0.04    -0.07  -0.04  -0.06     0.09   0.00  -0.09
  50   6     0.01   0.00   0.03    -0.03  -0.03  -0.04     0.03  -0.01  -0.07
  51   6     0.00  -0.02   0.02    -0.03  -0.00  -0.11     0.01  -0.06  -0.11
  52   6    -0.11   0.01   0.07    -0.07  -0.01  -0.07     0.01  -0.12  -0.08
  53   6    -0.11   0.01   0.06    -0.04  -0.01  -0.03     0.00  -0.11  -0.05
  54   1    -0.09   0.00  -0.06     0.02   0.00   0.01    -0.02  -0.04   0.04
  55   1    -0.17   0.01  -0.03    -0.01  -0.01   0.00     0.04  -0.05   0.02
  56   1    -0.09   0.00  -0.16     0.01   0.02  -0.02     0.01  -0.07   0.06
  57   1     0.11  -0.03  -0.13     0.04   0.03  -0.01    -0.04  -0.02   0.05
  58   1     0.16  -0.06  -0.01     0.05   0.01   0.01    -0.05   0.02   0.01
  59   1     0.11  -0.04  -0.06     0.06   0.01   0.01    -0.06   0.00   0.05
  60   1    -0.07   0.03   0.15     0.00  -0.02   0.04     0.01  -0.03  -0.04
  61   1     0.07  -0.01   0.16     0.02  -0.01   0.04    -0.02   0.01  -0.04
  62   1    -0.00   0.01   0.11     0.03  -0.01   0.04    -0.02  -0.01   0.00
  63   1     0.06  -0.03  -0.03     0.01   0.03  -0.01     0.03  -0.02  -0.02
  64   1     0.05  -0.03  -0.02    -0.00   0.03  -0.04     0.04  -0.02  -0.04
  65   1     0.00  -0.01   0.00    -0.01   0.02  -0.05     0.01  -0.01   0.03
  66   1     0.00  -0.00   0.00    -0.01   0.02  -0.02     0.01   0.03   0.07
  67   1    -0.00   0.00   0.01    -0.00   0.03  -0.02    -0.02   0.03   0.04
  68   1    -0.01   0.00   0.00    -0.01   0.00   0.02    -0.03   0.05  -0.00
  69   1    -0.01   0.01  -0.01    -0.02  -0.04   0.07    -0.03   0.05  -0.04
  70   1    -0.00   0.01  -0.02    -0.01  -0.04   0.08    -0.01   0.03  -0.03
  71   1     0.01   0.02   0.00    -0.05  -0.01   0.01     0.00   0.00   0.00
  72   1     0.01   0.01   0.02    -0.05  -0.01  -0.05     0.01  -0.04  -0.02
  73   1    -0.00  -0.01   0.02     0.00  -0.01  -0.08     0.01  -0.06  -0.03
  74   1    -0.01  -0.02   0.00     0.05  -0.01  -0.04     0.01  -0.04  -0.01
  75   1    -0.01  -0.01  -0.01     0.04  -0.01   0.01     0.00   0.01   0.00
  76   1     0.00   0.02  -0.03     0.00  -0.03   0.07     0.02   0.02  -0.01
  77   1     0.01   0.02  -0.03     0.01  -0.02   0.06     0.03   0.03  -0.01
  78   1     0.01   0.02  -0.02     0.00   0.01   0.01     0.03   0.05  -0.00
  79   1     0.00   0.01   0.00    -0.00   0.03  -0.02     0.02   0.04   0.02
  80   1    -0.01   0.00   0.01     0.00   0.03  -0.01    -0.01  -0.00   0.02
  81   1    -0.00   0.00   0.02     0.00   0.03  -0.03    -0.00  -0.04  -0.03
  82   1    -0.01  -0.01  -0.03     0.03   0.00  -0.05    -0.03  -0.03  -0.03
  83   1    -0.02  -0.01  -0.05     0.04  -0.01   0.00    -0.05  -0.00   0.00
  84   1    -0.02   0.00  -0.04     0.03  -0.02   0.06    -0.05   0.03   0.03
  85   1    -0.01   0.01  -0.01     0.01  -0.02   0.07    -0.02   0.03   0.03
  86   1    -0.00   0.01   0.05     0.00  -0.02   0.08    -0.00   0.04   0.06
  87   1     0.01   0.02   0.06    -0.01  -0.03   0.08     0.03   0.04   0.06
  88   1     0.02   0.01   0.03    -0.03  -0.02   0.01     0.04   0.02  -0.01
  89   1     0.01  -0.00  -0.00    -0.02  -0.01  -0.05     0.03  -0.01  -0.05
  90   1    -0.06   0.01   0.03    -0.03  -0.01  -0.02    -0.00  -0.04  -0.02
  91   1    -0.06   0.01   0.03    -0.02  -0.01   0.00    -0.01  -0.04  -0.01
                     10                     11                     12
                        a                      a                      a 
 Frequencies --    52.9933                61.9643                67.0390
 Red. masses --    10.5453                 9.9682                10.4334
 Frc consts  --     0.0000                 0.0000                 0.0000
 IR Inten    --     0.2401                 5.2661                 5.8694
 Raman Activ --     0.0000                 0.0000                 0.0000
 Depolar     --     0.0000                 0.0000                 0.0000
 Atom AN      X      Y      Z        X      Y      Z        X      Y      Z
   1   6     0.10   0.05   0.05    -0.15  -0.11  -0.02     0.04  -0.03   0.06
   2   6     0.02   0.04   0.01     0.04   0.02   0.00     0.00   0.01   0.02
   3   6    -0.00   0.09   0.04     0.10   0.03  -0.02    -0.06   0.05   0.06
   4   6     0.03  -0.03  -0.04     0.02   0.18   0.15     0.00   0.02  -0.03
   5   6    -0.03   0.05  -0.01     0.12  -0.00  -0.07     0.02   0.00  -0.02
   6   6     0.03   0.06  -0.06    -0.10   0.07   0.03     0.13  -0.01  -0.08
   7   6     0.02   0.06  -0.09    -0.14   0.08   0.02     0.13  -0.01  -0.10
   8   6    -0.04   0.05  -0.08     0.04   0.00  -0.08     0.02   0.00  -0.06
   9   7    -0.03   0.04  -0.12    -0.00   0.02  -0.07     0.00   0.00  -0.05
  10   6    -0.01   0.06  -0.07    -0.00   0.03   0.01     0.00   0.03   0.10
  11   6    -0.01   0.06  -0.00    -0.00   0.01   0.00     0.00   0.02   0.09
  12   6    -0.06   0.03   0.03    -0.02   0.09   0.18     0.00   0.05   0.16
  13   6    -0.06  -0.02   0.07    -0.02   0.08   0.18     0.00   0.03   0.10
  14   6     0.00  -0.05   0.08    -0.02   0.00   0.02    -0.01  -0.02  -0.02
  15   7     0.00  -0.10   0.09    -0.02   0.00   0.01    -0.01  -0.02  -0.04
  16   6    -0.01  -0.08   0.04    -0.02  -0.00   0.02    -0.02  -0.03  -0.04
  17   6    -0.02  -0.16   0.16    -0.04  -0.05   0.09    -0.05   0.02  -0.09
  18   6    -0.02  -0.14   0.12    -0.04  -0.02   0.05    -0.07   0.04  -0.14
  19   6    -0.00  -0.02  -0.06    -0.03   0.06  -0.07    -0.07  -0.01  -0.11
  20   6     0.00   0.06  -0.18    -0.02   0.09  -0.11    -0.05  -0.08  -0.03
  21   6     0.00   0.02  -0.11    -0.02   0.05  -0.06    -0.02  -0.09   0.00
  22   7     0.01   0.08  -0.22    -0.03   0.06  -0.06    -0.01  -0.16   0.09
  23   6     0.00   0.04  -0.11    -0.03   0.03  -0.03    -0.01  -0.10   0.05
  24   6     0.11   0.04  -0.03     0.00  -0.02  -0.03    -0.07  -0.04   0.04
  25   6     0.10   0.03   0.11     0.01  -0.07  -0.02    -0.07   0.13   0.04
  26   6    -0.01   0.02   0.17    -0.02  -0.08  -0.00    -0.03   0.25   0.05
  27   6    -0.12   0.01   0.09    -0.06  -0.02   0.00     0.03   0.16   0.05
  28   6    -0.11   0.02  -0.05    -0.06   0.03  -0.01     0.04  -0.01   0.05
  29   6     0.01   0.02  -0.11    -0.03   0.01   0.02     0.01  -0.10   0.04
  30   6     0.01   0.06  -0.19    -0.04  -0.02   0.08     0.03  -0.13   0.06
  31   6     0.01  -0.01  -0.07    -0.05  -0.06   0.12     0.04  -0.07  -0.02
  32   6     0.03  -0.13   0.13    -0.06  -0.05   0.08     0.03   0.03  -0.12
  33   6     0.03  -0.16   0.17    -0.04  -0.02   0.02     0.01   0.04  -0.13
  34   6     0.01  -0.08   0.05    -0.03   0.00   0.01     0.01  -0.03  -0.04
  35   6     0.05   0.00   0.11    -0.00  -0.08  -0.15    -0.01  -0.05  -0.07
  36   6     0.05   0.06   0.07    -0.00  -0.08  -0.17    -0.01  -0.04  -0.02
  37   7     0.00   0.06  -0.08     0.00   0.04   0.09     0.00   0.05   0.23
  38   6     0.00   0.03  -0.08     0.01   0.03   0.04     0.01   0.03   0.13
  39   6     0.03   0.01  -0.05     0.02   0.01   0.04     0.01   0.02   0.10
  40   6     0.07   0.01  -0.08     0.05   0.03   0.10     0.02   0.02   0.09
  41   6     0.09  -0.01  -0.03     0.07   0.00   0.06     0.03  -0.00  -0.06
  42   6     0.08  -0.03   0.06     0.06  -0.03  -0.05     0.03  -0.02  -0.21
  43   6     0.04  -0.04   0.09     0.04  -0.04  -0.09     0.02  -0.02  -0.16
  44   6     0.02  -0.02   0.04     0.02  -0.02  -0.03     0.01   0.00   0.02
  45   6    -0.01  -0.02   0.06     0.00  -0.02  -0.02     0.01   0.01   0.06
  46   6    -0.01  -0.04   0.19    -0.00  -0.04   0.02     0.01   0.01   0.26
  47   6    -0.04  -0.05   0.16    -0.02  -0.04   0.06    -0.00   0.00   0.19
  48   6    -0.07  -0.04  -0.02    -0.04  -0.03   0.05    -0.02  -0.01  -0.12
  49   6    -0.07  -0.02  -0.14    -0.03  -0.01   0.01    -0.02  -0.01  -0.24
  50   6    -0.03  -0.01  -0.07    -0.01  -0.00  -0.03    -0.00  -0.00  -0.08
  51   6    -0.02   0.02  -0.10    -0.00   0.02  -0.04     0.00   0.01  -0.02
  52   6    -0.11   0.04  -0.03     0.30  -0.08  -0.20    -0.06   0.01  -0.01
  53   6    -0.10   0.04   0.00     0.33  -0.08  -0.19    -0.06   0.01   0.01
  54   1     0.04   0.01   0.01    -0.06  -0.02   0.03    -0.00  -0.01   0.02
  55   1     0.04   0.01   0.01    -0.07  -0.05  -0.00     0.03  -0.01   0.01
  56   1     0.03   0.03   0.03    -0.04  -0.05  -0.04     0.01  -0.02   0.04
  57   1    -0.00   0.03   0.02     0.03   0.02  -0.02    -0.02  -0.00   0.02
  58   1    -0.01   0.03   0.00     0.04   0.01   0.00    -0.01   0.04   0.01
  59   1     0.00   0.03   0.02     0.03   0.01  -0.00    -0.03   0.02   0.03
  60   1     0.01  -0.02  -0.02    -0.01   0.06   0.05     0.01  -0.01  -0.02
  61   1    -0.01  -0.01  -0.02     0.04   0.07   0.05    -0.01   0.02  -0.02
  62   1     0.02  -0.01  -0.00    -0.03   0.06   0.05    -0.00   0.01   0.01
  63   1     0.02   0.02  -0.02    -0.08   0.04   0.03     0.06  -0.01  -0.03
  64   1     0.02   0.02  -0.04    -0.09   0.04   0.03     0.06  -0.01  -0.04
  65   1    -0.03   0.01   0.00    -0.01   0.05   0.09     0.00   0.03   0.07
  66   1    -0.03  -0.01   0.03    -0.00   0.04   0.09     0.00   0.02   0.04
  67   1    -0.01  -0.07   0.08    -0.01  -0.03   0.05    -0.01   0.02  -0.03
  68   1    -0.01  -0.06   0.06    -0.01  -0.02   0.03    -0.02   0.03  -0.06
  69   1    -0.00   0.00  -0.03    -0.01   0.03  -0.03    -0.02  -0.00  -0.04
  70   1     0.00   0.04  -0.09    -0.00   0.04  -0.05    -0.01  -0.04   0.00
  71   1     0.06   0.02  -0.02     0.01  -0.01  -0.01    -0.03  -0.03   0.01
  72   1     0.05   0.01   0.05     0.01  -0.03  -0.01    -0.03   0.06   0.01
  73   1    -0.01   0.01   0.08    -0.01  -0.04   0.00    -0.01   0.11   0.02
  74   1    -0.06   0.00   0.04    -0.02  -0.01   0.00     0.02   0.07   0.02
  75   1    -0.06   0.01  -0.03    -0.02   0.02  -0.00     0.02  -0.02   0.02
  76   1     0.00   0.04  -0.10    -0.01  -0.00   0.03     0.01  -0.05   0.04
  77   1     0.00   0.01  -0.04    -0.02  -0.03   0.05     0.02  -0.02  -0.00
  78   1     0.01  -0.06   0.07    -0.02  -0.02   0.03     0.01   0.02  -0.06
  79   1     0.01  -0.07   0.09    -0.01  -0.00  -0.01     0.00   0.03  -0.06
  80   1     0.03   0.00   0.05     0.00  -0.04  -0.07    -0.00  -0.03  -0.04
  81   1     0.03   0.03   0.03    -0.00  -0.05  -0.09    -0.01  -0.02  -0.02
  82   1     0.02   0.01  -0.04     0.02   0.02   0.05     0.01   0.01   0.05
  83   1     0.04  -0.00  -0.02     0.02   0.00   0.03     0.01  -0.00  -0.03
  84   1     0.03  -0.01   0.03     0.02  -0.01  -0.03     0.01  -0.01  -0.11
  85   1     0.01  -0.02   0.04     0.01  -0.02  -0.05     0.01  -0.01  -0.09
  86   1     0.00  -0.01   0.09     0.00  -0.02   0.01     0.01   0.00   0.14
  87   1    -0.01  -0.02   0.08    -0.01  -0.02   0.03     0.00   0.00   0.10
  88   1    -0.03  -0.01  -0.02    -0.02  -0.01   0.03    -0.01  -0.01  -0.07
  89   1    -0.02  -0.00  -0.08    -0.01   0.00   0.01    -0.01  -0.00  -0.13
  90   1    -0.05   0.01  -0.01     0.13  -0.04  -0.08    -0.04   0.00   0.01
  91   1    -0.04   0.01   0.01     0.14  -0.04  -0.08    -0.04   0.00   0.01
                     13                     14                     15
                        a                      a                      a 
 Frequencies --    70.3263                78.9108                84.8070
 Red. masses --    10.6392                10.8795                10.1303
 Frc consts  --     0.0000                 0.0000                 0.0000
 IR Inten    --     6.1604                 2.1500                 1.0551
 Raman Activ --     0.0000                 0.0000                 0.0000
 Depolar     --     0.0000                 0.0000                 0.0000
 Atom AN      X      Y      Z        X      Y      Z        X      Y      Z
   1   6    -0.05  -0.01  -0.03     0.00  -0.05   0.01    -0.04  -0.02  -0.03
   2   6     0.01   0.00  -0.01    -0.02  -0.05   0.00     0.00   0.01  -0.02
   3   6     0.06  -0.01  -0.03    -0.03  -0.05   0.01    -0.05  -0.04  -0.03
   4   6     0.01   0.03   0.05    -0.01  -0.07  -0.01    -0.00   0.12  -0.04
   5   6     0.02   0.00  -0.01    -0.02  -0.05   0.00     0.08  -0.01   0.01
   6   6    -0.12   0.04   0.05     0.03  -0.06  -0.02     0.07  -0.04   0.04
   7   6    -0.13   0.04   0.06     0.04  -0.06  -0.02     0.06  -0.03   0.09
   8   6    -0.01   0.00  -0.01     0.00  -0.05  -0.00     0.06   0.00   0.11
   9   7    -0.01   0.01  -0.02     0.01  -0.05  -0.01     0.02   0.01   0.15
  10   6    -0.01  -0.01  -0.08     0.01  -0.04  -0.02     0.01  -0.01   0.07
  11   6    -0.01  -0.00  -0.02     0.01   0.01  -0.03     0.01  -0.00   0.06
  12   6    -0.03  -0.02  -0.01     0.07   0.08   0.03     0.02   0.03   0.10
  13   6    -0.03  -0.02   0.06     0.06   0.15  -0.00     0.02   0.04   0.06
  14   6    -0.00  -0.01   0.12    -0.00   0.15  -0.09    -0.01   0.01  -0.03
  15   7     0.00  -0.05   0.12     0.00   0.17  -0.18    -0.01   0.03  -0.06
  16   6    -0.04  -0.05   0.05    -0.04   0.08  -0.10    -0.02   0.01  -0.03
  17   6    -0.10   0.04  -0.01    -0.09   0.02   0.01    -0.03  -0.01   0.00
  18   6    -0.15   0.06  -0.11    -0.14  -0.11   0.16    -0.03  -0.02   0.02
  19   6    -0.15  -0.01  -0.14    -0.14  -0.17   0.17    -0.03  -0.01   0.01
  20   6    -0.09  -0.09  -0.06    -0.09  -0.09   0.01    -0.02   0.00  -0.01
  21   6    -0.04  -0.11   0.02    -0.04   0.02  -0.11    -0.02   0.01  -0.03
  22   7     0.01  -0.18   0.07     0.01   0.06  -0.21    -0.02   0.01  -0.02
  23   6     0.01  -0.13   0.03     0.01   0.01  -0.13    -0.02   0.00  -0.01
  24   6    -0.03  -0.03   0.04     0.08   0.02  -0.07    -0.02  -0.00  -0.01
  25   6    -0.05   0.20   0.08     0.07   0.09   0.07    -0.02  -0.00  -0.00
  26   6    -0.01   0.32   0.11    -0.02   0.16   0.14    -0.03   0.01   0.01
  27   6     0.04   0.19   0.08    -0.09   0.11   0.07    -0.03   0.01   0.00
  28   6     0.05  -0.04   0.04    -0.08   0.04  -0.07    -0.03   0.01  -0.01
  29   6     0.06  -0.09   0.01     0.05   0.01  -0.08    -0.02  -0.00   0.00
  30   6     0.12  -0.06  -0.09     0.09  -0.11   0.09    -0.02  -0.04   0.07
  31   6     0.17   0.02  -0.15     0.13  -0.18   0.24    -0.03  -0.05   0.07
  32   6     0.17   0.06  -0.09     0.13  -0.10   0.18    -0.03  -0.01  -0.00
  33   6     0.11   0.03   0.02     0.08   0.04  -0.00    -0.03   0.02  -0.06
  34   6     0.06  -0.04   0.06     0.05   0.08  -0.09    -0.02   0.02  -0.04
  35   6     0.03   0.01   0.11    -0.05   0.09  -0.10    -0.02  -0.02  -0.07
  36   6     0.03   0.01   0.04    -0.05   0.02  -0.08    -0.02  -0.03  -0.02
  37   7    -0.01  -0.02  -0.17     0.02  -0.05  -0.01     0.01  -0.02  -0.02
  38   6    -0.01  -0.01  -0.13     0.01  -0.04   0.00     0.01  -0.00  -0.00
  39   6    -0.01  -0.01  -0.10    -0.01  -0.02   0.01     0.01  -0.01  -0.07
  40   6    -0.00  -0.01  -0.09    -0.05  -0.02   0.05     0.02  -0.05  -0.39
  41   6     0.00  -0.00   0.04    -0.08   0.00   0.05     0.03  -0.05  -0.35
  42   6    -0.00   0.01   0.16    -0.06   0.02   0.00     0.01   0.00   0.09
  43   6    -0.01   0.00   0.13    -0.03   0.03  -0.04     0.00   0.03   0.37
  44   6    -0.01  -0.01  -0.02    -0.01   0.01  -0.03     0.01   0.02   0.19
  45   6    -0.01  -0.01  -0.05     0.01   0.01  -0.03     0.01   0.02   0.16
  46   6    -0.02  -0.02  -0.13     0.02   0.04  -0.07     0.01   0.01   0.06
  47   6    -0.02  -0.01  -0.07     0.06   0.05  -0.03    -0.00  -0.01  -0.16
  48   6    -0.01  -0.00   0.09     0.08   0.03   0.07    -0.01  -0.01  -0.27
  49   6    -0.01   0.00   0.12     0.07   0.00   0.09    -0.00  -0.00  -0.14
  50   6    -0.01  -0.00   0.02     0.03  -0.01   0.02     0.01   0.01   0.06
  51   6    -0.01  -0.00  -0.04     0.02  -0.04   0.01     0.01   0.02   0.10
  52   6     0.11  -0.03  -0.06    -0.05  -0.04   0.02     0.11   0.02   0.07
  53   6     0.12  -0.03  -0.07    -0.06  -0.04   0.03     0.12   0.02   0.01
  54   1    -0.01  -0.00   0.00    -0.00  -0.01  -0.00    -0.04   0.00  -0.02
  55   1    -0.03  -0.01  -0.01     0.01  -0.01   0.00     0.00   0.01  -0.01
  56   1    -0.01  -0.00  -0.03     0.00  -0.02   0.01    -0.01  -0.03  -0.00
  57   1     0.02   0.01  -0.01    -0.01  -0.02   0.00    -0.01  -0.03  -0.00
  58   1     0.02  -0.01  -0.00    -0.01  -0.01   0.00    -0.01  -0.01  -0.01
  59   1     0.03  -0.01  -0.01    -0.01  -0.01   0.00    -0.03  -0.01  -0.02
  60   1    -0.00   0.02   0.02    -0.00  -0.02  -0.01     0.01   0.04  -0.01
  61   1     0.01   0.01   0.02    -0.01  -0.02  -0.01     0.01   0.04  -0.01
  62   1    -0.00   0.01   0.01    -0.00  -0.02  -0.00    -0.02   0.04  -0.01
  63   1    -0.06   0.02   0.03     0.02  -0.02  -0.01     0.02  -0.02   0.01
  64   1    -0.07   0.02   0.03     0.02  -0.02  -0.01     0.01  -0.02   0.03
  65   1    -0.01  -0.01  -0.02     0.03   0.02   0.03     0.01   0.02   0.05
  66   1    -0.01  -0.01   0.02     0.03   0.06   0.01     0.01   0.02   0.03
  67   1    -0.03   0.02   0.00    -0.03   0.02  -0.00    -0.01  -0.00   0.00
  68   1    -0.05   0.04  -0.05    -0.05  -0.05   0.08    -0.01  -0.01   0.01
  69   1    -0.05   0.00  -0.06    -0.05  -0.08   0.08    -0.01  -0.01   0.01
  70   1    -0.03  -0.04  -0.02    -0.02  -0.04   0.00    -0.01   0.00  -0.01
  71   1    -0.02  -0.03   0.01     0.04  -0.00  -0.04    -0.00  -0.00  -0.01
  72   1    -0.02   0.08   0.03     0.04   0.03   0.04    -0.00  -0.00   0.00
  73   1    -0.01   0.15   0.05    -0.01   0.07   0.07    -0.01   0.00   0.00
  74   1     0.02   0.08   0.03    -0.05   0.04   0.03    -0.01   0.01   0.00
  75   1     0.02  -0.03   0.01    -0.04   0.01  -0.04    -0.01   0.00  -0.00
  76   1     0.03  -0.03  -0.04     0.03  -0.04   0.03    -0.01  -0.02   0.03
  77   1     0.06   0.01  -0.07     0.05  -0.08   0.11    -0.01  -0.02   0.04
  78   1     0.06   0.03  -0.04     0.04  -0.04   0.08    -0.01  -0.00  -0.00
  79   1     0.03   0.02   0.02     0.02   0.03  -0.02    -0.01   0.01  -0.03
  80   1     0.01   0.00   0.04    -0.03   0.03  -0.04    -0.01  -0.01  -0.04
  81   1     0.01   0.00   0.00    -0.03  -0.01  -0.03    -0.01  -0.02  -0.02
  82   1     0.00  -0.00  -0.05    -0.02  -0.01   0.02     0.01  -0.02  -0.19
  83   1     0.00   0.00   0.02    -0.03  -0.00   0.03     0.01  -0.02  -0.18
  84   1    -0.00   0.01   0.08    -0.02   0.01  -0.00     0.00   0.00   0.06
  85   1    -0.00   0.00   0.07    -0.01   0.01  -0.02    -0.00   0.02   0.21
  86   1    -0.01  -0.01  -0.07    -0.00   0.02  -0.04     0.00   0.01   0.03
  87   1    -0.01  -0.01  -0.04     0.02   0.02  -0.02    -0.00  -0.00  -0.07
  88   1    -0.00   0.00   0.05     0.03   0.01   0.04    -0.00  -0.01  -0.13
  89   1    -0.00   0.00   0.07     0.03  -0.00   0.05    -0.00  -0.00  -0.07
  90   1     0.06  -0.02  -0.03    -0.02  -0.01   0.01     0.04   0.01   0.02
  91   1     0.06  -0.02  -0.03    -0.03  -0.01   0.01     0.04   0.01  -0.01
                     16                     17                     18
                        a                      a                      a 
 Frequencies --    94.5428                98.8237               115.9024
 Red. masses --    10.0462                10.5159                10.2327
 Frc consts  --     0.0000                 0.0000                 0.0000
 IR Inten    --     5.9558                 6.5936                 1.3264
 Raman Activ --     0.0000                 0.0000                 0.0000
 Depolar     --     0.0000                 0.0000                 0.0000
 Atom AN      X      Y      Z        X      Y      Z        X      Y      Z
   1   6     0.05   0.15  -0.02    -0.02   0.01  -0.03     0.02   0.19  -0.05
   2   6    -0.05   0.00   0.02    -0.02  -0.04   0.01    -0.07   0.01   0.02
   3   6     0.05  -0.00  -0.02     0.05  -0.05  -0.03     0.03  -0.05  -0.04
   4   6    -0.03  -0.19   0.02    -0.02  -0.11   0.04    -0.05  -0.17   0.02
   5   6    -0.17   0.04   0.07    -0.09  -0.02   0.03    -0.17   0.04   0.10
   6   6    -0.14   0.04   0.04    -0.28   0.04   0.12    -0.24   0.05   0.14
   7   6    -0.09   0.03   0.01    -0.26   0.03   0.10    -0.11   0.02   0.09
   8   6    -0.06   0.01  -0.01    -0.07  -0.02   0.00     0.06  -0.02   0.00
   9   7    -0.02  -0.00  -0.06    -0.06  -0.02  -0.02     0.12  -0.04  -0.06
  10   6    -0.01   0.01  -0.02    -0.04  -0.02   0.03     0.08  -0.04   0.03
  11   6     0.00   0.02   0.05    -0.03  -0.03  -0.01     0.07  -0.04   0.06
  12   6     0.00   0.11   0.24     0.02  -0.03  -0.10     0.06  -0.01   0.14
  13   6     0.01   0.09   0.21     0.02  -0.01  -0.10     0.06  -0.00   0.10
  14   6     0.02  -0.03  -0.03     0.04   0.02  -0.01    -0.00  -0.02   0.01
  15   7     0.04  -0.03  -0.04     0.06   0.04  -0.03    -0.02   0.00  -0.02
  16   6     0.06  -0.05   0.02     0.08   0.04  -0.02    -0.04   0.03  -0.05
  17   6     0.07  -0.14   0.12     0.09   0.04  -0.03    -0.06   0.11  -0.14
  18   6     0.10  -0.07   0.04     0.10   0.01   0.01    -0.07   0.07  -0.09
  19   6     0.12   0.09  -0.15     0.09  -0.02   0.06    -0.09  -0.06   0.08
  20   6     0.09   0.11  -0.17     0.08  -0.01   0.05    -0.07  -0.11   0.13
  21   6     0.07   0.02  -0.04     0.08   0.02  -0.00    -0.05  -0.03   0.03
  22   7     0.06  -0.03   0.04     0.11   0.03  -0.04    -0.07   0.00  -0.01
  23   6     0.05  -0.01   0.03     0.11   0.02  -0.02    -0.07   0.00  -0.01
  24   6     0.04  -0.04   0.01     0.13   0.01  -0.01    -0.08   0.02  -0.00
  25   6     0.04  -0.04  -0.02     0.13   0.01   0.01    -0.08   0.02   0.00
  26   6     0.06  -0.00  -0.02     0.12   0.01   0.02    -0.08  -0.01  -0.01
  27   6     0.08   0.03   0.01     0.10   0.01   0.01    -0.08  -0.03  -0.01
  28   6     0.08   0.03   0.03     0.10   0.01  -0.01    -0.08  -0.02  -0.01
  29   6     0.03  -0.06   0.06     0.09   0.02  -0.03    -0.06   0.03  -0.04
  30   6     0.01  -0.12   0.18     0.11   0.00  -0.02    -0.08   0.08  -0.10
  31   6    -0.00  -0.07   0.09     0.14  -0.01   0.02    -0.10   0.03  -0.06
  32   6    -0.02   0.05  -0.14     0.14  -0.01   0.05    -0.09  -0.07   0.08
  33   6    -0.00   0.08  -0.20     0.12   0.01   0.03    -0.07  -0.09   0.10
  34   6     0.03  -0.00  -0.06     0.09   0.02  -0.01    -0.05  -0.02   0.02
  35   6     0.02  -0.10  -0.16    -0.01   0.03   0.06     0.01  -0.04  -0.04
  36   6     0.01  -0.06  -0.09    -0.01   0.00   0.05     0.02  -0.06  -0.02
  37   7    -0.01   0.00  -0.05    -0.08  -0.00   0.08     0.08  -0.03   0.02
  38   6    -0.01  -0.01  -0.09    -0.07   0.00   0.08     0.08  -0.02  -0.06
  39   6    -0.02  -0.01  -0.09    -0.09   0.01   0.08     0.07  -0.01  -0.06
  40   6    -0.03  -0.01  -0.08    -0.12  -0.00   0.02     0.06  -0.01  -0.03
  41   6    -0.04   0.01   0.01    -0.14   0.01  -0.06     0.04   0.02   0.03
  42   6    -0.04   0.02   0.10    -0.13   0.02  -0.09     0.05   0.04   0.04
  43   6    -0.03   0.02   0.08    -0.11   0.04  -0.02     0.07   0.04  -0.00
  44   6    -0.02   0.01  -0.03    -0.09   0.02   0.07     0.09   0.02  -0.04
  45   6    -0.02   0.01  -0.05    -0.08   0.03   0.08     0.11   0.03  -0.04
  46   6    -0.02   0.01  -0.06    -0.08   0.02   0.18     0.13   0.06   0.08
  47   6    -0.01   0.02  -0.00    -0.10   0.01   0.03     0.15   0.07   0.07
  48   6    -0.00   0.02   0.09    -0.11  -0.01  -0.22     0.16   0.04  -0.07
  49   6    -0.00   0.01   0.07    -0.11  -0.01  -0.23     0.15   0.01  -0.15
  50   6    -0.01   0.00  -0.02    -0.08   0.01  -0.05     0.12   0.00  -0.12
  51   6    -0.02  -0.01  -0.07    -0.07  -0.00   0.00     0.11  -0.03  -0.11
  52   6    -0.15   0.02   0.04     0.08  -0.07  -0.06     0.07  -0.02  -0.00
  53   6    -0.21   0.04   0.08     0.07  -0.07  -0.05    -0.05   0.01   0.05
  54   1     0.07   0.03  -0.01     0.03  -0.00   0.01     0.09   0.04  -0.01
  55   1    -0.02   0.03   0.00    -0.04  -0.02  -0.00    -0.05   0.03  -0.00
  56   1     0.01   0.10  -0.02    -0.01   0.04  -0.03    -0.00   0.14  -0.05
  57   1     0.01   0.03  -0.01     0.01   0.02  -0.01     0.01   0.02  -0.02
  58   1     0.01  -0.02   0.00     0.00  -0.04   0.00    -0.00  -0.05   0.00
  59   1     0.04  -0.01  -0.02     0.05  -0.02  -0.02     0.04  -0.02  -0.04
  60   1    -0.03  -0.04   0.02    -0.02  -0.01   0.03    -0.03   0.00   0.03
  61   1    -0.03  -0.10   0.03    -0.01  -0.07   0.03    -0.03  -0.12   0.05
  62   1     0.03  -0.07  -0.03     0.01  -0.04  -0.02     0.03  -0.07  -0.07
  63   1    -0.04   0.01   0.01    -0.12   0.03   0.06    -0.11   0.02   0.06
  64   1    -0.02   0.01  -0.00    -0.11   0.02   0.04    -0.04   0.01   0.03
  65   1     0.00   0.05   0.12     0.01  -0.02  -0.04     0.02   0.01   0.06
  66   1     0.00   0.04   0.10     0.00  -0.01  -0.04     0.03   0.01   0.03
  67   1     0.02  -0.07   0.07     0.03   0.02  -0.02    -0.01   0.06  -0.06
  68   1     0.03  -0.04   0.03     0.03   0.00   0.00    -0.02   0.04  -0.05
  69   1     0.04   0.05  -0.07     0.03  -0.01   0.03    -0.03  -0.04   0.05
  70   1     0.03   0.06  -0.08     0.02  -0.01   0.02    -0.02  -0.06   0.07
  71   1     0.01  -0.02   0.00     0.04   0.01  -0.00    -0.02   0.01   0.00
  72   1     0.01  -0.02  -0.01     0.04   0.00   0.01    -0.02   0.01   0.00
  73   1     0.02  -0.00  -0.01     0.03   0.00   0.01    -0.02  -0.01  -0.00
  74   1     0.03   0.02   0.00     0.02   0.00   0.00    -0.02  -0.01  -0.01
  75   1     0.03   0.01   0.02     0.03   0.00  -0.01    -0.02  -0.01  -0.01
  76   1     0.01  -0.05   0.09     0.03  -0.00  -0.01    -0.02   0.04  -0.05
  77   1    -0.00  -0.04   0.05     0.04  -0.01   0.01    -0.03   0.02  -0.03
  78   1    -0.01   0.03  -0.07     0.04  -0.01   0.02    -0.03  -0.04   0.04
  79   1    -0.00   0.04  -0.10     0.03   0.01   0.01    -0.02  -0.05   0.05
  80   1     0.00  -0.05  -0.08    -0.01   0.02   0.03     0.01  -0.02  -0.02
  81   1     0.00  -0.03  -0.04    -0.00   0.01   0.02    -0.00  -0.03  -0.02
  82   1    -0.01  -0.01  -0.04    -0.04  -0.01   0.01     0.02  -0.01  -0.01
  83   1    -0.01   0.00   0.00    -0.04  -0.00  -0.03     0.01   0.00   0.02
  84   1    -0.01   0.01   0.06    -0.04   0.01  -0.05     0.01   0.02   0.02
  85   1    -0.01   0.01   0.05    -0.03   0.02  -0.02     0.02   0.02  -0.00
  86   1    -0.01   0.00  -0.04    -0.02   0.01   0.11     0.03   0.03   0.05
  87   1    -0.00   0.01  -0.00    -0.03   0.00   0.03     0.05   0.03   0.05
  88   1     0.00   0.01   0.05    -0.03  -0.01  -0.11     0.05   0.01  -0.03
  89   1    -0.00   0.00   0.03    -0.04   0.00  -0.11     0.04  -0.00  -0.06
  90   1    -0.05   0.00   0.01     0.06  -0.03  -0.04     0.05  -0.01  -0.01
  91   1    -0.08   0.01   0.03     0.05  -0.03  -0.03    -0.01   0.00   0.01
                     19                     20                     21
                        a                      a                      a 
 Frequencies --   121.9216               126.5947               146.3288
 Red. masses --    10.7560                10.3400                10.6652
 Frc consts  --     0.0000                 0.0000                 0.0000
 IR Inten    --     4.6284                 2.1897                14.5551
 Raman Activ --     0.0000                 0.0000                 0.0000
 Depolar     --     0.0000                 0.0000                 0.0000
 Atom AN      X      Y      Z        X      Y      Z        X      Y      Z
   1   6    -0.01  -0.07  -0.00    -0.01   0.09  -0.07    -0.01  -0.15   0.07
   2   6     0.04   0.01  -0.02     0.00   0.03  -0.02     0.01  -0.04   0.01
   3   6    -0.02  -0.00  -0.01    -0.05  -0.10  -0.07     0.07   0.10   0.06
   4   6     0.03   0.14  -0.03    -0.00   0.11  -0.07     0.01  -0.11   0.06
   5   6     0.11  -0.01  -0.03     0.06   0.02   0.09    -0.05  -0.03  -0.12
   6   6     0.10  -0.02  -0.02     0.02  -0.01   0.13    -0.13   0.02  -0.09
   7   6     0.03  -0.00   0.03     0.04  -0.01   0.17    -0.13   0.01  -0.12
   8   6    -0.02   0.02   0.06     0.07   0.00   0.17    -0.06  -0.01  -0.15
   9   7    -0.05   0.03   0.07     0.05   0.01   0.13     0.01  -0.01  -0.10
  10   6    -0.04   0.03   0.14     0.02  -0.04   0.01     0.03   0.04   0.15
  11   6    -0.03   0.06   0.24     0.01  -0.05  -0.01     0.01   0.05   0.21
  12   6     0.01   0.09   0.26     0.01  -0.13  -0.18     0.02  -0.05  -0.01
  13   6     0.02   0.04   0.09     0.01  -0.09  -0.14     0.02  -0.10  -0.12
  14   6     0.01  -0.02  -0.04    -0.01  -0.00   0.02     0.00  -0.02   0.02
  15   7     0.02   0.01  -0.12    -0.03   0.01   0.01    -0.02  -0.01  -0.05
  16   6     0.05   0.04  -0.11    -0.03  -0.02   0.04    -0.01  -0.01  -0.04
  17   6     0.09   0.08  -0.20    -0.05  -0.10   0.15     0.01  -0.05  -0.01
  18   6     0.11   0.05  -0.12    -0.05  -0.09   0.13     0.03  -0.06   0.03
  19   6     0.09  -0.06   0.10    -0.04   0.03  -0.05     0.02  -0.02   0.01
  20   6     0.07  -0.09   0.15    -0.03   0.10  -0.15     0.01   0.02  -0.04
  21   6     0.05  -0.01   0.01    -0.04   0.03  -0.05    -0.02   0.01  -0.05
  22   7     0.04   0.02  -0.03    -0.04   0.01  -0.02    -0.04   0.02  -0.04
  23   6     0.04   0.02  -0.01    -0.04   0.00  -0.01    -0.04   0.02  -0.02
  24   6     0.05   0.02   0.00    -0.04  -0.02  -0.02    -0.04   0.01  -0.02
  25   6     0.05   0.01   0.00    -0.04  -0.02  -0.01    -0.04  -0.01  -0.01
  26   6     0.05  -0.02  -0.00    -0.05   0.01   0.01    -0.05  -0.01   0.00
  27   6     0.04  -0.02  -0.01    -0.06   0.02   0.01    -0.07   0.01   0.00
  28   6     0.04   0.01  -0.01    -0.05   0.02  -0.00    -0.06   0.02  -0.01
  29   6     0.01   0.01  -0.06    -0.02  -0.01   0.04    -0.04  -0.01   0.01
  30   6    -0.01   0.02  -0.05    -0.00  -0.10   0.16    -0.04  -0.08   0.13
  31   6    -0.03  -0.02  -0.01     0.01  -0.04   0.10    -0.04  -0.05   0.07
  32   6    -0.02  -0.07   0.02    -0.00   0.11  -0.11    -0.05   0.06  -0.11
  33   6    -0.00  -0.07  -0.01    -0.02   0.14  -0.15    -0.04   0.08  -0.15
  34   6     0.01  -0.01  -0.06    -0.02   0.05  -0.04    -0.03   0.03  -0.08
  35   6    -0.03  -0.01   0.04    -0.02   0.04   0.12    -0.01   0.11   0.28
  36   6    -0.03   0.03   0.18    -0.01   0.03   0.12     0.00   0.15   0.37
  37   7    -0.06   0.01  -0.01     0.00  -0.05  -0.12     0.04   0.04   0.23
  38   6    -0.06  -0.02  -0.19     0.01  -0.03  -0.15     0.04  -0.00   0.05
  39   6    -0.05  -0.03  -0.22     0.01  -0.02  -0.13     0.04  -0.00   0.01
  40   6    -0.06  -0.01  -0.10     0.00  -0.00   0.04     0.04  -0.01  -0.08
  41   6    -0.06   0.01   0.13    -0.00   0.02   0.18     0.03  -0.01  -0.09
  42   6    -0.06   0.01   0.19     0.00   0.01   0.06     0.03   0.02   0.04
  43   6    -0.06  -0.01   0.01     0.01  -0.01  -0.13     0.04   0.03   0.10
  44   6    -0.06  -0.03  -0.17     0.02  -0.02  -0.14     0.04   0.01   0.02
  45   6    -0.06  -0.03  -0.17     0.03  -0.01  -0.10     0.04   0.01  -0.02
  46   6    -0.06  -0.04  -0.01     0.04   0.00   0.13     0.05   0.04  -0.06
  47   6    -0.08  -0.03   0.18     0.03   0.00   0.18     0.09   0.05  -0.03
  48   6    -0.08  -0.03   0.14     0.02  -0.01  -0.06     0.10   0.04   0.06
  49   6    -0.09  -0.03  -0.06     0.01  -0.02  -0.21     0.09   0.01   0.03
  50   6    -0.07  -0.03  -0.17     0.03  -0.01  -0.15     0.05  -0.01  -0.05
  51   6    -0.06  -0.01  -0.16     0.03  -0.01  -0.08     0.03  -0.03  -0.08
  52   6     0.01   0.02   0.04     0.11   0.03   0.13    -0.02  -0.04  -0.16
  53   6     0.08   0.00  -0.01     0.11   0.04   0.08     0.01  -0.06  -0.15
  54   1    -0.06  -0.01  -0.01    -0.01   0.03  -0.05     0.01  -0.04   0.06
  55   1     0.03   0.00  -0.00     0.01   0.05  -0.01    -0.02  -0.08   0.01
  56   1     0.00  -0.07   0.02    -0.00   0.02  -0.01    -0.00  -0.03   0.01
  57   1    -0.01  -0.02   0.00    -0.02  -0.04  -0.01     0.02   0.05   0.01
  58   1    -0.00   0.01  -0.01    -0.02  -0.04  -0.01     0.01   0.04   0.01
  59   1    -0.02   0.00   0.00    -0.02  -0.03  -0.05     0.04   0.02   0.04
  60   1     0.02   0.02  -0.02     0.01   0.06  -0.01    -0.01  -0.06   0.01
  61   1     0.02   0.08  -0.03     0.00   0.02  -0.01     0.00  -0.01   0.01
  62   1    -0.02   0.05   0.02    -0.02   0.04  -0.05     0.02  -0.03   0.05
  63   1     0.04  -0.01  -0.01    -0.01  -0.01   0.04    -0.05   0.02  -0.01
  64   1     0.01  -0.00   0.01     0.01  -0.01   0.05    -0.05   0.01  -0.03
  65   1     0.01   0.04   0.10     0.01  -0.06  -0.09     0.01  -0.03  -0.04
  66   1     0.01   0.01   0.02     0.01  -0.04  -0.06     0.01  -0.05  -0.09
  67   1     0.03   0.04  -0.09    -0.02  -0.05   0.06     0.00  -0.02  -0.01
  68   1     0.04   0.03  -0.06    -0.02  -0.05   0.07     0.01  -0.03   0.02
  69   1     0.03  -0.04   0.06    -0.01   0.02  -0.03     0.01  -0.01   0.01
  70   1     0.02  -0.05   0.09    -0.01   0.05  -0.08     0.00   0.02  -0.01
  71   1     0.02   0.01   0.00    -0.01  -0.01  -0.01    -0.01   0.00  -0.01
  72   1     0.02   0.00   0.00    -0.01  -0.01  -0.00    -0.01  -0.01  -0.00
  73   1     0.01  -0.01  -0.00    -0.01   0.00   0.00    -0.02  -0.01   0.00
  74   1     0.01  -0.01  -0.00    -0.02   0.01   0.01    -0.02   0.00   0.00
  75   1     0.01   0.00  -0.00    -0.02   0.01  -0.00    -0.02   0.01  -0.01
  76   1    -0.00   0.01  -0.02     0.00  -0.05   0.08    -0.01  -0.04   0.07
  77   1    -0.01  -0.01   0.00     0.01  -0.03   0.05    -0.01  -0.03   0.04
  78   1    -0.01  -0.03   0.02    -0.00   0.05  -0.06    -0.02   0.03  -0.05
  79   1     0.00  -0.03   0.00    -0.01   0.07  -0.07    -0.01   0.04  -0.06
  80   1    -0.02  -0.01  -0.01    -0.01   0.02   0.05    -0.01   0.05   0.10
  81   1    -0.01   0.01   0.06    -0.01   0.02   0.05     0.00   0.07   0.14
  82   1    -0.02  -0.01  -0.04     0.00  -0.00   0.03     0.01  -0.01  -0.04
  83   1    -0.02   0.01   0.08    -0.00   0.01   0.11     0.01  -0.01  -0.05
  84   1    -0.02   0.01   0.11    -0.00   0.01   0.03     0.01   0.01   0.03
  85   1    -0.02  -0.00   0.02     0.00  -0.00  -0.07     0.01   0.01   0.06
  86   1    -0.02  -0.01  -0.00     0.01   0.00   0.08     0.01   0.02  -0.03
  87   1    -0.02  -0.01   0.10     0.01   0.00   0.11     0.03   0.02  -0.01
  88   1    -0.03  -0.01   0.08     0.01  -0.00  -0.03     0.04   0.01   0.04
  89   1    -0.03  -0.01  -0.03    -0.00  -0.00  -0.10     0.03  -0.00   0.02
  90   1    -0.00   0.01   0.02     0.05   0.02   0.04     0.00  -0.02  -0.05
  91   1     0.03   0.00  -0.01     0.04   0.02   0.01     0.02  -0.03  -0.05
                     22                     23                     24
                        a                      a                      a 
 Frequencies --   166.0442               179.3691               182.7029
 Red. masses --    10.2615                 4.3048                10.0012
 Frc consts  --     0.0000                 0.0000                 0.0000
 IR Inten    --     0.4402                 0.1982                 0.1878
 Raman Activ --     0.0000                 0.0000                 0.0000
 Depolar     --     0.0000                 0.0000                 0.0000
 Atom AN      X      Y      Z        X      Y      Z        X      Y      Z
   1   6     0.06   0.22  -0.00    -0.01  -0.08  -0.02    -0.08  -0.21   0.02
   2   6    -0.00   0.14   0.01     0.04  -0.03  -0.02    -0.06  -0.18   0.02
   3   6     0.02   0.18   0.02     0.09  -0.05  -0.05    -0.10  -0.22   0.02
   4   6     0.00   0.10   0.01     0.03  -0.00   0.01    -0.06  -0.25  -0.01
   5   6    -0.01   0.13  -0.01    -0.03  -0.01   0.01    -0.02  -0.16   0.03
   6   6     0.07   0.08  -0.04    -0.13   0.03   0.06     0.03  -0.13  -0.02
   7   6     0.11   0.06  -0.07    -0.13   0.03   0.05     0.04  -0.11  -0.00
   8   6     0.07   0.01  -0.07    -0.04   0.01   0.01     0.04  -0.02   0.04
   9   7     0.03  -0.01  -0.05     0.02   0.00  -0.04    -0.00   0.04   0.03
  10   6    -0.01  -0.08   0.01     0.01  -0.02  -0.08    -0.02   0.04  -0.01
  11   6    -0.00  -0.22  -0.00     0.02  -0.06  -0.02    -0.01   0.01  -0.01
  12   6    -0.00  -0.24  -0.02    -0.01  -0.06   0.03    -0.04  -0.01  -0.01
  13   6     0.01  -0.20   0.06    -0.01  -0.07   0.09    -0.04  -0.04   0.03
  14   6     0.00  -0.15   0.15     0.01  -0.08   0.09    -0.00  -0.05   0.05
  15   7    -0.00  -0.05   0.12     0.01  -0.05   0.08    -0.00  -0.04   0.06
  16   6     0.00   0.04  -0.00     0.00  -0.00   0.01     0.00  -0.00   0.02
  17   6    -0.01   0.13  -0.09    -0.01   0.06  -0.06    -0.00   0.04  -0.03
  18   6    -0.04   0.09  -0.06    -0.02   0.05  -0.06    -0.01   0.04  -0.04
  19   6    -0.05  -0.05   0.11    -0.02  -0.03   0.05    -0.01  -0.02   0.03
  20   6    -0.03  -0.06   0.10    -0.01  -0.05   0.07    -0.00  -0.03   0.05
  21   6     0.00   0.03  -0.01     0.01  -0.00   0.00     0.00  -0.00   0.01
  22   7     0.02   0.11  -0.14     0.01   0.05  -0.08     0.01   0.04  -0.06
  23   6     0.02   0.08  -0.12     0.01   0.05  -0.07     0.01   0.04  -0.05
  24   6     0.09   0.06  -0.08     0.05   0.04  -0.05     0.05   0.03  -0.03
  25   6     0.09   0.01   0.01     0.05   0.00   0.00     0.05   0.00   0.00
  26   6     0.02  -0.02   0.04     0.01  -0.02   0.02     0.01  -0.01   0.02
  27   6    -0.06   0.00  -0.00    -0.04  -0.00  -0.00    -0.02   0.00  -0.00
  28   6    -0.05   0.06  -0.09    -0.04   0.03  -0.05    -0.02   0.03  -0.04
  29   6     0.01   0.02  -0.01    -0.00  -0.00   0.00     0.00  -0.00   0.01
  30   6     0.03  -0.06   0.12    -0.01  -0.04   0.07     0.00  -0.03   0.05
  31   6     0.05  -0.05   0.12    -0.01  -0.03   0.05     0.00  -0.02   0.03
  32   6     0.03   0.09  -0.07    -0.02   0.04  -0.06    -0.00   0.03  -0.04
  33   6     0.02   0.12  -0.10    -0.01   0.04  -0.06    -0.00   0.03  -0.04
  34   6     0.01   0.04  -0.00    -0.00  -0.00   0.01     0.00  -0.01   0.01
  35   6    -0.00  -0.20   0.06     0.03  -0.09   0.03     0.02  -0.05   0.01
  36   6     0.00  -0.24  -0.02     0.04  -0.07  -0.01     0.02  -0.02  -0.02
  37   7    -0.08  -0.04   0.06    -0.00  -0.01  -0.10    -0.06   0.07  -0.04
  38   6    -0.06   0.01   0.03     0.00   0.03  -0.03    -0.04   0.15  -0.03
  39   6    -0.04  -0.00   0.02     0.01   0.03   0.01     0.00   0.15  -0.04
  40   6    -0.01   0.00  -0.01     0.05   0.05   0.03     0.17   0.21  -0.03
  41   6     0.01  -0.02  -0.03     0.07   0.03   0.01     0.27   0.13  -0.00
  42   6     0.00  -0.05   0.01     0.07   0.01  -0.04     0.24   0.05   0.01
  43   6    -0.03  -0.05   0.04     0.04   0.01  -0.02     0.10   0.02  -0.01
  44   6    -0.04  -0.03   0.02     0.02   0.03   0.02    -0.00   0.11  -0.04
  45   6    -0.02  -0.03  -0.00     0.02   0.03   0.04    -0.04   0.11  -0.04
  46   6    -0.03  -0.06  -0.05     0.01   0.03   0.03    -0.05   0.06  -0.03
  47   6    -0.06  -0.06  -0.00     0.00   0.02  -0.03    -0.11   0.05   0.03
  48   6    -0.07  -0.04   0.07    -0.01   0.03  -0.05    -0.14   0.09   0.03
  49   6    -0.06  -0.02   0.05    -0.00   0.04   0.01    -0.12   0.13  -0.01
  50   6    -0.02  -0.01   0.01     0.01   0.04   0.03    -0.05   0.14  -0.02
  51   6    -0.01   0.02  -0.00     0.01   0.03   0.00    -0.04   0.14  -0.00
  52   6     0.03   0.06  -0.07    -0.10   0.01   0.04     0.04  -0.08   0.06
  53   6    -0.02   0.08  -0.03    -0.10   0.02   0.05     0.03  -0.09   0.05
  54   1     0.13   0.04   0.05    -0.33   0.04  -0.20     0.03  -0.07   0.06
  55   1    -0.07  -0.00   0.00     0.28   0.21  -0.01    -0.09  -0.11   0.01
  56   1     0.01   0.18  -0.06     0.02  -0.35   0.20    -0.03  -0.01  -0.05
  57   1     0.01   0.04  -0.01     0.02   0.08   0.03    -0.02  -0.10  -0.01
  58   1     0.02   0.07   0.00    -0.05  -0.09  -0.01     0.00  -0.04   0.01
  59   1    -0.01   0.06   0.02     0.13  -0.04  -0.07    -0.07  -0.05   0.01
  60   1    -0.01   0.07   0.03     0.03  -0.23  -0.10    -0.03   0.04   0.05
  61   1     0.00  -0.02   0.04     0.01   0.21  -0.14    -0.03  -0.19   0.07
  62   1     0.01   0.02  -0.05    -0.01   0.03   0.26     0.01  -0.09  -0.13
  63   1     0.03   0.02  -0.02    -0.06   0.01   0.03     0.02  -0.04  -0.01
  64   1     0.04   0.02  -0.03    -0.05   0.01   0.02     0.02  -0.05   0.01
  65   1     0.00  -0.08  -0.02    -0.01  -0.01   0.01    -0.02  -0.00  -0.01
  66   1     0.00  -0.06   0.01    -0.01  -0.02   0.04    -0.02  -0.02   0.01
  67   1    -0.00   0.06  -0.05    -0.00   0.03  -0.02     0.00   0.02  -0.02
  68   1    -0.01   0.04  -0.04    -0.00   0.03  -0.04    -0.00   0.02  -0.03
  69   1    -0.02  -0.04   0.06    -0.01  -0.02   0.03    -0.01  -0.01   0.02
  70   1    -0.01  -0.04   0.05    -0.00  -0.03   0.03    -0.00  -0.02   0.02
  71   1     0.05   0.02  -0.03     0.03   0.02  -0.02     0.02   0.01  -0.01
  72   1     0.05  -0.00   0.01     0.03  -0.00   0.01     0.02  -0.00   0.01
  73   1     0.00  -0.02   0.03     0.00  -0.01   0.02     0.00  -0.01   0.01
  74   1    -0.04  -0.01   0.01    -0.02  -0.00   0.00    -0.01  -0.00   0.00
  75   1    -0.03   0.02  -0.03    -0.02   0.01  -0.02    -0.01   0.01  -0.02
  76   1     0.01  -0.03   0.06    -0.00  -0.02   0.04     0.00  -0.01   0.02
  77   1     0.02  -0.04   0.07    -0.00  -0.02   0.03     0.00  -0.01   0.02
  78   1     0.01   0.04  -0.04    -0.01   0.02  -0.04    -0.00   0.02  -0.03
  79   1     0.00   0.05  -0.05    -0.00   0.02  -0.03    -0.00   0.01  -0.02
  80   1    -0.00  -0.06   0.01     0.02  -0.03   0.00     0.01  -0.02   0.00
  81   1     0.00  -0.08  -0.02     0.01  -0.02  -0.01     0.01  -0.00  -0.01
  82   1    -0.00   0.01  -0.01     0.02   0.02   0.01     0.06   0.10  -0.01
  83   1     0.01  -0.01  -0.02     0.02   0.01   0.01     0.10   0.04   0.00
  84   1     0.01  -0.02   0.00     0.02  -0.00  -0.02     0.09  -0.00   0.01
  85   1    -0.01  -0.02   0.02     0.01  -0.01  -0.02     0.02  -0.03   0.00
  86   1    -0.01  -0.02  -0.03     0.01   0.01   0.02    -0.00   0.00  -0.02
  87   1    -0.02  -0.02  -0.01    -0.00   0.00  -0.02    -0.03   0.01   0.02
  88   1    -0.02  -0.01   0.03    -0.00   0.01  -0.03    -0.05   0.02   0.02
  89   1    -0.02  -0.00   0.02    -0.00   0.01   0.00    -0.04   0.05  -0.01
  90   1     0.01   0.02  -0.02    -0.04   0.00   0.01     0.01  -0.03   0.01
  91   1    -0.02   0.02   0.00    -0.05   0.01   0.02     0.01  -0.02   0.01
                     25                     26                     27
                        a                      a                      a 
 Frequencies --   187.4162               203.8638               212.8145
 Red. masses --    10.7937                10.7879                 9.4854
 Frc consts  --     0.0000                 0.0000                 0.0000
 IR Inten    --     2.4641                 1.8918                 3.5565
 Raman Activ --     0.0000                 0.0000                 0.0000
 Depolar     --     0.0000                 0.0000                 0.0000
 Atom AN      X      Y      Z        X      Y      Z        X      Y      Z
   1   6     0.00  -0.02   0.01     0.00   0.03  -0.01    -0.03  -0.14   0.05
   2   6     0.00   0.00  -0.00    -0.00   0.00   0.01    -0.02   0.01  -0.05
   3   6    -0.02   0.01   0.01    -0.00  -0.02  -0.01     0.11   0.28   0.05
   4   6     0.00   0.03  -0.01    -0.00   0.00   0.00    -0.00  -0.14   0.03
   5   6     0.03  -0.01  -0.02    -0.00   0.00   0.02    -0.08   0.02  -0.17
   6   6     0.02  -0.00  -0.01     0.01   0.00   0.01    -0.08  -0.06  -0.12
   7   6    -0.00   0.00   0.00     0.02   0.00  -0.01    -0.02  -0.07   0.02
   8   6    -0.02   0.01   0.01     0.02  -0.01  -0.01     0.03   0.01   0.06
   9   7    -0.02  -0.00   0.00     0.01  -0.01  -0.03     0.06   0.02   0.23
  10   6     0.00  -0.00  -0.23     0.00  -0.02  -0.02     0.02  -0.08   0.03
  11   6     0.01   0.11   0.03     0.01  -0.03  -0.00     0.04  -0.15   0.06
  12   6    -0.04   0.13   0.16     0.02  -0.01   0.04     0.09  -0.12   0.04
  13   6    -0.03   0.06   0.18     0.02   0.00   0.03     0.09  -0.04   0.02
  14   6     0.02  -0.02   0.08     0.01  -0.00   0.01     0.02  -0.02  -0.01
  15   7     0.01  -0.07   0.00     0.00   0.01  -0.01     0.01   0.07  -0.10
  16   6     0.01  -0.03  -0.03    -0.01  -0.06   0.02     0.01   0.07  -0.09
  17   6     0.03  -0.00  -0.09     0.13  -0.12  -0.02    -0.02   0.02  -0.01
  18   6     0.06   0.02  -0.10     0.28   0.02  -0.07    -0.04  -0.06   0.10
  19   6     0.05  -0.04   0.02     0.27   0.07  -0.02    -0.03  -0.01   0.02
  20   6     0.03  -0.07   0.08     0.13   0.04   0.12    -0.01   0.06  -0.10
  21   6     0.01  -0.03  -0.01    -0.03  -0.04   0.05     0.00   0.05  -0.06
  22   7    -0.01   0.02  -0.07    -0.13  -0.01  -0.00    -0.01  -0.04   0.08
  23   6    -0.01   0.03  -0.06    -0.17  -0.01  -0.00    -0.01  -0.05   0.11
  24   6     0.02   0.03  -0.05    -0.25  -0.02  -0.04    -0.07  -0.04   0.08
  25   6     0.02   0.00  -0.00    -0.26  -0.02  -0.04    -0.07  -0.00  -0.00
  26   6    -0.02  -0.01   0.02    -0.29  -0.01  -0.02    -0.01   0.01  -0.03
  27   6    -0.06  -0.00  -0.00    -0.25  -0.00   0.01     0.06   0.00   0.00
  28   6    -0.06   0.02  -0.05    -0.24  -0.02   0.02     0.05  -0.03   0.08
  29   6    -0.02  -0.02  -0.01    -0.02   0.05  -0.06     0.00   0.04  -0.05
  30   6    -0.04  -0.06   0.08     0.15  -0.02  -0.11     0.01   0.06  -0.08
  31   6    -0.07  -0.04   0.03     0.28  -0.05   0.06     0.01   0.01   0.01
  32   6    -0.08   0.02  -0.11     0.27   0.00   0.11     0.02  -0.05   0.09
  33   6    -0.04  -0.00  -0.10     0.12   0.13   0.02     0.01   0.01   0.01
  34   6    -0.01  -0.03  -0.03    -0.01   0.07  -0.04    -0.00   0.06  -0.07
  35   6     0.06   0.07   0.18    -0.00  -0.02  -0.00    -0.04  -0.07  -0.02
  36   6     0.06   0.15   0.18    -0.00  -0.04  -0.02    -0.03  -0.13   0.03
  37   7     0.05  -0.06  -0.44    -0.02  -0.01  -0.01    -0.04  -0.07  -0.19
  38   6     0.03  -0.05  -0.12    -0.01   0.01  -0.00    -0.02   0.02  -0.09
  39   6     0.02  -0.03   0.04    -0.01   0.02   0.01    -0.01   0.02  -0.12
  40   6    -0.04  -0.03   0.15     0.01   0.02   0.01     0.04   0.05  -0.05
  41   6    -0.07  -0.01   0.10     0.02   0.01  -0.01     0.06   0.05   0.11
  42   6    -0.05  -0.01  -0.13     0.02  -0.00  -0.01     0.06   0.02   0.03
  43   6    -0.01   0.00  -0.11    -0.00  -0.00   0.01     0.02  -0.01  -0.11
  44   6     0.02  -0.01   0.08    -0.01   0.01   0.01    -0.00   0.02  -0.07
  45   6     0.01  -0.00   0.19    -0.01   0.01   0.01     0.01   0.04   0.05
  46   6     0.02   0.00   0.14    -0.01  -0.00  -0.01    -0.00   0.00   0.10
  47   6     0.02  -0.01  -0.11    -0.03  -0.01  -0.01    -0.05  -0.02  -0.01
  48   6     0.02  -0.02  -0.18    -0.03  -0.00   0.01    -0.08  -0.00  -0.12
  49   6     0.03  -0.01   0.09    -0.03   0.01   0.01    -0.06   0.05   0.02
  50   6     0.01  -0.01   0.20    -0.01   0.01   0.01     0.01   0.06   0.11
  51   6     0.00  -0.02   0.10    -0.00   0.02  -0.01     0.02   0.06   0.13
  52   6     0.01  -0.00  -0.01     0.01  -0.01  -0.00     0.02   0.12   0.00
  53   6     0.05  -0.01  -0.03    -0.00  -0.00   0.01    -0.05   0.11  -0.12
  54   1     0.09  -0.02   0.06    -0.01   0.01  -0.02     0.07  -0.05   0.11
  55   1    -0.08  -0.08   0.00     0.02   0.03  -0.00    -0.09  -0.14   0.00
  56   1    -0.01   0.08  -0.06     0.00  -0.01   0.01    -0.01   0.04  -0.05
  57   1    -0.00  -0.03  -0.01    -0.00  -0.00   0.00     0.03   0.12  -0.00
  58   1     0.01   0.03   0.00    -0.00  -0.01   0.00     0.02   0.11  -0.01
  59   1    -0.04   0.01   0.02     0.00  -0.01  -0.01     0.07   0.07   0.07
  60   1    -0.00   0.07   0.02    -0.00  -0.00  -0.00    -0.00  -0.20  -0.06
  61   1     0.01  -0.05   0.04    -0.00   0.00  -0.00    -0.02   0.08  -0.08
  62   1    -0.00   0.00  -0.07    -0.00   0.00   0.00     0.02  -0.03   0.18
  63   1     0.01  -0.00  -0.00     0.00   0.00   0.00    -0.03  -0.03  -0.04
  64   1    -0.00   0.00   0.00     0.01   0.00  -0.00    -0.01  -0.05   0.02
  65   1    -0.02   0.05   0.06     0.01   0.00   0.02     0.04  -0.04   0.02
  66   1    -0.02   0.02   0.07     0.01   0.01   0.02     0.04  -0.00   0.00
  67   1     0.01   0.00  -0.03     0.04  -0.07  -0.02    -0.00   0.01  -0.00
  68   1     0.02   0.02  -0.05     0.10   0.01  -0.05    -0.02  -0.04   0.06
  69   1     0.02  -0.02   0.02     0.10   0.04  -0.02    -0.01  -0.01   0.01
  70   1     0.01  -0.03   0.04     0.03   0.04   0.07    -0.00   0.02  -0.04
  71   1     0.01   0.01  -0.02    -0.09  -0.01  -0.00    -0.04  -0.01   0.03
  72   1     0.01  -0.00   0.01    -0.07  -0.01  -0.01    -0.04   0.00  -0.01
  73   1    -0.01  -0.01   0.01    -0.08   0.00  -0.01    -0.00   0.01  -0.02
  74   1    -0.03  -0.00   0.00    -0.06   0.01  -0.00     0.03   0.00  -0.01
  75   1    -0.03   0.01  -0.02    -0.08  -0.00  -0.00     0.03  -0.01   0.03
  76   1    -0.01  -0.02   0.05     0.04  -0.03  -0.06     0.00   0.02  -0.04
  77   1    -0.02  -0.02   0.02     0.10  -0.04   0.03     0.00  -0.00   0.01
  78   1    -0.03   0.02  -0.05     0.10  -0.00   0.06     0.01  -0.03   0.06
  79   1    -0.01   0.00  -0.03     0.03   0.08   0.02     0.00  -0.00   0.00
  80   1     0.03   0.02   0.06    -0.00  -0.00  -0.00    -0.03  -0.02  -0.02
  81   1     0.03   0.06   0.07    -0.00  -0.02  -0.01    -0.02  -0.05   0.01
  82   1    -0.01  -0.02   0.06     0.00   0.01   0.00     0.01   0.03  -0.02
  83   1    -0.03  -0.00   0.05     0.01   0.00  -0.00     0.02   0.02   0.08
  84   1    -0.02  -0.00  -0.09     0.01  -0.00  -0.01     0.02   0.00   0.02
  85   1     0.00   0.01  -0.08    -0.00  -0.00   0.00     0.00  -0.01  -0.06
  86   1     0.00   0.01   0.07    -0.00  -0.00  -0.00     0.01  -0.01   0.05
  87   1     0.01  -0.00  -0.07    -0.01  -0.00  -0.00    -0.02  -0.01  -0.01
  88   1     0.00  -0.01  -0.11    -0.01  -0.00   0.00    -0.03  -0.00  -0.08
  89   1     0.01  -0.00   0.03    -0.01   0.01   0.00    -0.02   0.02   0.00
  90   1     0.00  -0.00  -0.00     0.00  -0.00  -0.00     0.02   0.06   0.01
  91   1     0.03  -0.01  -0.02    -0.01  -0.00   0.01    -0.02   0.05  -0.05
                     28                     29                     30
                        a                      a                      a 
 Frequencies --   216.5677               228.2425               235.4836
 Red. masses --    10.4220                 3.7214                 9.7855
 Frc consts  --     0.0000                 0.0000                 0.0000
 IR Inten    --     0.1472                 0.1337                 0.0367
 Raman Activ --     0.0000                 0.0000                 0.0000
 Depolar     --     0.0000                 0.0000                 0.0000
 Atom AN      X      Y      Z        X      Y      Z        X      Y      Z
   1   6     0.04   0.18  -0.03    -0.03  -0.06   0.07    -0.02   0.06  -0.02
   2   6    -0.00   0.03   0.04    -0.02   0.04   0.01    -0.05  -0.03   0.02
   3   6    -0.05  -0.13  -0.03     0.05   0.14   0.04    -0.03  -0.08  -0.01
   4   6    -0.01   0.09   0.00    -0.00  -0.15   0.05    -0.04  -0.10   0.01
   5   6     0.02   0.02   0.11    -0.05   0.05  -0.08    -0.03  -0.02   0.05
   6   6     0.05   0.05   0.06    -0.01   0.01  -0.09     0.04  -0.02   0.01
   7   6     0.07   0.04  -0.06     0.03  -0.01  -0.04     0.10  -0.04  -0.03
   8   6     0.07  -0.05  -0.11     0.04   0.03  -0.01     0.13  -0.02  -0.04
   9   7     0.04  -0.06  -0.24     0.04   0.04   0.09     0.10  -0.00  -0.06
  10   6    -0.01  -0.11  -0.12     0.04   0.02   0.04     0.10   0.02  -0.03
  11   6     0.00  -0.14   0.07     0.04   0.00   0.01     0.11   0.04  -0.02
  12   6     0.06  -0.08   0.11     0.04  -0.02  -0.01     0.10   0.05  -0.00
  13   6     0.07  -0.01   0.06     0.04  -0.02  -0.01     0.10   0.03   0.00
  14   6     0.01   0.00   0.02     0.03  -0.01  -0.00     0.09   0.02   0.00
  15   7     0.00   0.09  -0.17     0.03   0.00   0.01     0.09  -0.01   0.02
  16   6     0.01   0.10  -0.17     0.01   0.01  -0.02     0.03   0.03  -0.08
  17   6    -0.00   0.03  -0.07    -0.01   0.02  -0.01     0.00   0.05  -0.07
  18   6    -0.02  -0.11   0.12    -0.03  -0.01   0.02    -0.02  -0.04   0.05
  19   6    -0.01  -0.04   0.04    -0.02  -0.02   0.01    -0.02  -0.06   0.05
  20   6     0.00   0.08  -0.14    -0.00   0.01  -0.03     0.01   0.02  -0.08
  21   6     0.01   0.08  -0.12     0.01   0.01  -0.02     0.02   0.03  -0.09
  22   7     0.01  -0.06   0.10    -0.01  -0.00   0.01    -0.02   0.00  -0.01
  23   6     0.01  -0.07   0.15    -0.01   0.00   0.01    -0.04  -0.01  -0.02
  24   6    -0.06  -0.06   0.11    -0.03   0.01   0.01    -0.06  -0.02  -0.03
  25   6    -0.06  -0.00  -0.00    -0.03   0.00  -0.00    -0.07  -0.00  -0.01
  26   6     0.03   0.03  -0.04    -0.03  -0.01  -0.01    -0.09   0.01   0.01
  27   6     0.11   0.00   0.00    -0.02  -0.00   0.00    -0.09  -0.01   0.00
  28   6     0.10  -0.05   0.11    -0.02   0.00   0.01    -0.08  -0.02  -0.02
[...]
  35   6    -0.00  -0.00   0.00     0.00   0.00  -0.00     0.00   0.00  -0.00
  36   6    -0.00   0.00  -0.00    -0.01   0.02  -0.01    -0.01   0.01  -0.01
  37   7     0.00   0.00  -0.00     0.00  -0.00   0.00     0.00   0.00  -0.00
  38   6    -0.00   0.00  -0.00    -0.00  -0.00   0.00    -0.00   0.00  -0.00
  39   6    -0.00  -0.00  -0.00    -0.00  -0.00  -0.00    -0.00  -0.00  -0.00
  40   6    -0.00   0.00  -0.00    -0.01   0.00  -0.00    -0.00   0.00  -0.00
  41   6    -0.00   0.00  -0.00    -0.00   0.00  -0.00    -0.00   0.00  -0.00
  42   6     0.00   0.00  -0.00     0.00   0.00  -0.00     0.00   0.00  -0.00
  43   6     0.00  -0.00   0.00     0.01  -0.00   0.00     0.00  -0.00   0.00
  44   6     0.00   0.00   0.00     0.00  -0.00   0.00     0.00   0.00  -0.00
  45   6     0.00   0.00  -0.00     0.00   0.00  -0.00    -0.00  -0.00   0.00
  46   6     0.00   0.00  -0.00     0.00   0.00  -0.00     0.00   0.00  -0.00
  47   6     0.00  -0.00  -0.00     0.00  -0.00  -0.00     0.00  -0.00   0.00
  48   6     0.00  -0.00   0.00    -0.00  -0.00   0.00     0.00   0.00  -0.00
  49   6     0.00   0.00  -0.00     0.01   0.01  -0.00     0.00   0.00  -0.00
  50   6     0.00   0.00  -0.00     0.00   0.00  -0.00     0.00   0.00  -0.00
  51   6    -0.00  -0.00   0.00     0.00  -0.00   0.00    -0.00  -0.00   0.00
  52   6    -0.00   0.00  -0.00     0.00  -0.00   0.00     0.00  -0.00   0.00
  53   6    -0.00  -0.00  -0.00     0.00   0.00   0.00     0.00   0.00   0.00
  54   1     0.00   0.00  -0.00    -0.00  -0.00   0.00    -0.00  -0.00   0.00
  55   1    -0.00  -0.00  -0.00    -0.00   0.00  -0.00    -0.00   0.00  -0.00
  56   1     0.00  -0.00  -0.00    -0.00  -0.00  -0.00     0.00   0.00   0.00
  57   1     0.00  -0.00   0.00     0.00  -0.00   0.00     0.00   0.00   0.00
  58   1    -0.00   0.00   0.00    -0.00   0.00   0.00    -0.00   0.00   0.00
  59   1     0.00   0.00  -0.00    -0.00  -0.00   0.00     0.00   0.00   0.00
  60   1     0.00  -0.00   0.00    -0.00  -0.00  -0.00    -0.00   0.00  -0.00
  61   1     0.00  -0.00  -0.00     0.00  -0.00  -0.00    -0.00   0.00   0.00
  62   1     0.00   0.00  -0.00     0.00   0.00  -0.00    -0.00  -0.00   0.00
  63   1     0.00  -0.00   0.00     0.00  -0.01   0.01     0.01  -0.03   0.04
  64   1    -0.00  -0.00  -0.00    -0.00  -0.00  -0.00     0.00   0.00   0.00
  65   1     0.01   0.01  -0.01    -0.44  -0.75   0.37    -0.01  -0.01   0.01
  66   1    -0.00   0.00  -0.00     0.09  -0.12   0.06    -0.00   0.00  -0.00
  67   1    -0.00  -0.00  -0.00     0.01   0.00   0.00     0.34   0.00   0.04
  68   1     0.00   0.00   0.00    -0.01  -0.01  -0.01    -0.03  -0.04  -0.03
  69   1    -0.00   0.01   0.00     0.00  -0.00  -0.00     0.19  -0.24  -0.15
  70   1    -0.01   0.00  -0.00    -0.03  -0.00  -0.00     0.81   0.02   0.07
  71   1    -0.11   0.07  -0.20    -0.00   0.00  -0.00    -0.01   0.01  -0.02
  72   1     0.23   0.15  -0.33     0.00   0.00  -0.01     0.00   0.00  -0.00
  73   1     0.56   0.02   0.03     0.01   0.00   0.00    -0.00   0.00   0.00
  74   1     0.24  -0.16   0.43     0.00  -0.00   0.01     0.00  -0.00   0.00
  75   1    -0.16  -0.11   0.24    -0.00  -0.00   0.00    -0.01  -0.00   0.01
  76   1    -0.01  -0.00  -0.00    -0.03  -0.00   0.00    -0.11  -0.01   0.00
  77   1    -0.00  -0.01  -0.00     0.00   0.01   0.00    -0.02  -0.04  -0.02
  78   1     0.00  -0.00  -0.00    -0.01   0.01   0.01     0.01  -0.01  -0.01
  79   1    -0.00  -0.00   0.00     0.01   0.00  -0.00    -0.03  -0.00   0.00
  80   1     0.00   0.00  -0.00    -0.00  -0.01   0.00    -0.00  -0.00   0.00
  81   1     0.00  -0.00   0.00     0.05  -0.06   0.04     0.02  -0.03   0.02
  82   1     0.00  -0.00   0.00     0.03  -0.01   0.00     0.00  -0.00   0.00
  83   1     0.00  -0.00   0.00     0.00  -0.01   0.00     0.00  -0.00   0.00
  84   1    -0.00  -0.00   0.00    -0.01  -0.01   0.00    -0.00  -0.00   0.00
  85   1    -0.01   0.00  -0.00    -0.02   0.01  -0.00    -0.00   0.00  -0.00
  86   1    -0.01  -0.01   0.00    -0.02  -0.01   0.00    -0.00  -0.00   0.00
  87   1    -0.00   0.00   0.00    -0.01   0.00   0.00    -0.00   0.00   0.00
  88   1    -0.00   0.00  -0.00    -0.00   0.00  -0.00     0.00  -0.00  -0.00
  89   1    -0.00  -0.00   0.00    -0.02  -0.02   0.00    -0.00  -0.00   0.00
  90   1     0.00  -0.00   0.00    -0.00   0.00  -0.01    -0.00   0.00  -0.00
  91   1     0.00   0.00   0.00    -0.00  -0.00  -0.00    -0.00  -0.00  -0.00
                    262                    263                    264
                        a                      a                      a 
 Frequencies --  3112.7709              3113.3797              3114.9354
 Red. masses --     1.8346                 1.8620                 1.8233
 Frc consts  --     0.0000                 0.0000                 0.0000
 IR Inten    --    57.5588               223.9491                53.0090
 Raman Activ --     0.0000                 0.0000                 0.0000
 Depolar     --     0.0000                 0.0000                 0.0000
 Atom AN      X      Y      Z        X      Y      Z        X      Y      Z
   1   6     0.00  -0.00  -0.00    -0.00   0.00   0.00    -0.00  -0.00   0.00
   2   6     0.00  -0.00   0.00    -0.00   0.00  -0.00    -0.00  -0.00   0.00
   3   6     0.00   0.00   0.00    -0.00  -0.00  -0.00    -0.00  -0.00   0.00
   4   6    -0.00  -0.00   0.00     0.00   0.00  -0.00    -0.00  -0.00  -0.00
   5   6    -0.00  -0.01   0.00     0.00   0.00  -0.00    -0.00  -0.00  -0.00
   6   6     0.08  -0.13   0.22    -0.01   0.01  -0.02     0.00  -0.00   0.01
   7   6     0.02   0.02   0.03    -0.00  -0.00  -0.00     0.00   0.00   0.00
   8   6    -0.00   0.00  -0.00     0.00  -0.00   0.00    -0.00   0.00  -0.00
   9   7    -0.00  -0.00   0.00    -0.00   0.00  -0.00     0.00   0.00  -0.00
  10   6    -0.00   0.00   0.00     0.00   0.00  -0.00     0.00   0.00  -0.00
  11   6     0.00  -0.00   0.00     0.00  -0.00   0.00     0.00   0.00  -0.00
  12   6     0.00   0.00  -0.00    -0.00  -0.00   0.00     0.00   0.01  -0.00
  13   6    -0.00   0.00  -0.00     0.00  -0.00   0.00    -0.00   0.00  -0.00
  14   6    -0.00   0.00  -0.00    -0.00   0.00  -0.00    -0.00  -0.00   0.00
  15   7    -0.00  -0.00  -0.00     0.00  -0.00  -0.00    -0.00  -0.00  -0.00
  16   6    -0.00   0.00   0.00     0.00  -0.00  -0.00    -0.00   0.00   0.00
  17   6    -0.01  -0.00  -0.00     0.02   0.00   0.00    -0.01   0.00  -0.00
  18   6    -0.00  -0.00  -0.00    -0.00   0.00   0.00    -0.00  -0.00  -0.00
  19   6    -0.00   0.00   0.00     0.01  -0.01  -0.01     0.00  -0.00  -0.00
  20   6    -0.01  -0.00  -0.00     0.03   0.00   0.00     0.00   0.00   0.00
  21   6    -0.00  -0.00  -0.00     0.00   0.00   0.00     0.00  -0.00  -0.00
  22   7     0.00   0.00   0.00     0.00   0.00   0.00     0.00  -0.00   0.00
  23   6    -0.00  -0.00  -0.00    -0.00  -0.00  -0.00    -0.00  -0.00   0.00
  24   6     0.00  -0.00   0.00    -0.00   0.00  -0.00    -0.00   0.00  -0.00
  25   6    -0.00  -0.00   0.00     0.00   0.00  -0.00    -0.00  -0.00   0.00
  26   6    -0.00  -0.00  -0.00     0.00   0.00  -0.00    -0.00  -0.00  -0.00
  27   6    -0.00   0.00  -0.00     0.00  -0.00   0.00    -0.00   0.00  -0.00
  28   6    -0.00  -0.00   0.00    -0.00  -0.00   0.01     0.00   0.00  -0.00
  29   6     0.00  -0.00  -0.00     0.00  -0.01  -0.00    -0.00   0.00   0.00
  30   6     0.03   0.00  -0.00     0.24   0.02  -0.00    -0.00  -0.00  -0.00
  31   6     0.01   0.01   0.01     0.05   0.09   0.05    -0.00  -0.00  -0.00
  32   6    -0.00   0.00   0.00    -0.02   0.02   0.02     0.00   0.00   0.00
  33   6     0.00   0.00  -0.00     0.06   0.00  -0.00    -0.00  -0.00   0.00
  34   6    -0.00   0.00   0.00    -0.00   0.00   0.00     0.00   0.00   0.00
  35   6    -0.00  -0.00   0.00    -0.00  -0.00   0.00    -0.00  -0.00   0.00
  36   6     0.01  -0.01   0.01     0.01  -0.02   0.01    -0.00   0.00  -0.00
  37   7    -0.00  -0.00   0.00    -0.00  -0.00   0.00    -0.00  -0.00   0.00
  38   6     0.00  -0.00   0.00     0.00  -0.00   0.00     0.00  -0.00   0.00
  39   6     0.00  -0.00   0.00    -0.00   0.00   0.00    -0.00   0.00  -0.00
  40   6    -0.00   0.00  -0.00     0.00  -0.00   0.00    -0.00   0.00  -0.00
  41   6    -0.00   0.00  -0.00     0.00  -0.00   0.00    -0.00   0.00  -0.00
  42   6     0.00   0.00  -0.00    -0.00  -0.00   0.00     0.00   0.00  -0.00
  43   6     0.00  -0.00   0.00    -0.00   0.00  -0.00     0.00  -0.00   0.00
  44   6     0.00   0.00  -0.00    -0.00  -0.00   0.00    -0.00  -0.00   0.00
  45   6    -0.00  -0.00   0.00     0.00   0.00  -0.00     0.00   0.00  -0.00
  46   6     0.00   0.00  -0.00    -0.00  -0.00   0.00     0.01   0.00  -0.00
  47   6     0.00  -0.00   0.00     0.00   0.00  -0.00     0.02  -0.00  -0.00
  48   6     0.00   0.00  -0.00     0.00  -0.00   0.00     0.01  -0.05   0.00
  49   6     0.01   0.00  -0.00    -0.00  -0.00   0.00    -0.20  -0.18   0.01
  50   6     0.00   0.00  -0.00    -0.00  -0.00   0.00    -0.01  -0.00   0.00
  51   6     0.00   0.00   0.00    -0.00   0.00  -0.00    -0.00   0.00   0.00
  52   6    -0.00   0.00  -0.01     0.00  -0.00   0.00    -0.00   0.00  -0.00
  53   6    -0.01  -0.00  -0.01     0.00   0.00   0.00    -0.00  -0.00  -0.00
  54   1     0.00   0.00  -0.00    -0.00  -0.00   0.00     0.00   0.00  -0.00
  55   1     0.00  -0.00   0.00    -0.00   0.00  -0.00    -0.00   0.00  -0.00
  56   1    -0.00  -0.00   0.00     0.00   0.00  -0.00     0.00   0.00   0.00
  57   1    -0.01  -0.00  -0.00     0.00   0.00   0.00     0.00  -0.00   0.00
  58   1     0.00  -0.01  -0.01    -0.00   0.00   0.00     0.00  -0.00  -0.00
  59   1    -0.00  -0.00  -0.00     0.00   0.00   0.00     0.00   0.00  -0.00
  60   1    -0.00  -0.00   0.00    -0.00   0.00  -0.00     0.00  -0.00   0.00
  61   1     0.00  -0.00  -0.00    -0.00   0.00   0.00     0.00  -0.00  -0.00
  62   1     0.00   0.00  -0.00    -0.00  -0.00   0.00     0.00   0.00  -0.00
  63   1    -0.26   0.46  -0.78     0.03  -0.05   0.08    -0.01   0.01  -0.02
  64   1    -0.06  -0.06  -0.10     0.01   0.01   0.01    -0.00  -0.00  -0.01
  65   1    -0.01  -0.01   0.01     0.01   0.01  -0.01    -0.01  -0.02   0.01
  66   1     0.00  -0.00   0.00    -0.00   0.00  -0.00     0.00  -0.01   0.00
  67   1     0.03   0.00   0.00    -0.06  -0.00  -0.01     0.04   0.00   0.00
  68   1     0.00   0.00   0.00     0.00   0.00   0.00     0.01   0.01   0.01
  69   1     0.01  -0.01  -0.01    -0.02   0.03   0.02    -0.01   0.01   0.00
  70   1     0.03   0.00   0.00    -0.10  -0.00  -0.01    -0.01  -0.00  -0.00
  71   1    -0.00   0.00  -0.00     0.01  -0.00   0.01     0.00  -0.00   0.00
  72   1     0.00   0.00  -0.00    -0.00  -0.00   0.00     0.00   0.00  -0.00
  73   1     0.00   0.00   0.00     0.00   0.00   0.00     0.00   0.00   0.00
  74   1     0.00  -0.00   0.00    -0.00   0.00  -0.00     0.00  -0.00   0.00
  75   1     0.00   0.00  -0.00     0.01   0.01  -0.02     0.00   0.00  -0.00
  76   1    -0.09  -0.01   0.00    -0.83  -0.06   0.00     0.01   0.00  -0.00
  77   1    -0.02  -0.03  -0.02    -0.17  -0.29  -0.17     0.00   0.00   0.00
  78   1     0.01  -0.01  -0.01     0.06  -0.08  -0.06    -0.00   0.00   0.00
  79   1    -0.01  -0.00   0.00    -0.20  -0.02   0.01     0.01   0.00  -0.00
  80   1     0.00   0.01  -0.00     0.01   0.01  -0.01     0.00   0.00  -0.00
  81   1    -0.03   0.04  -0.02    -0.05   0.07  -0.04     0.01  -0.01   0.01
  82   1     0.00  -0.00   0.00    -0.00   0.00  -0.00     0.00  -0.00   0.00
  83   1     0.00  -0.00   0.00    -0.00   0.00  -0.00     0.00  -0.00   0.00
  84   1    -0.00  -0.00   0.00     0.00   0.00  -0.00    -0.00  -0.00   0.00
  85   1    -0.00   0.00  -0.00     0.00  -0.00   0.00    -0.01   0.00  -0.00
  86   1    -0.00  -0.00   0.00     0.00   0.00  -0.00    -0.02  -0.02   0.00
  87   1    -0.00   0.00   0.00    -0.00   0.00   0.00    -0.05   0.01   0.00
  88   1    -0.00  -0.00   0.00    -0.00   0.00  -0.00    -0.03   0.12  -0.01
  89   1    -0.02  -0.02   0.00     0.01   0.01  -0.00     0.70   0.64  -0.05
  90   1     0.01  -0.01   0.02    -0.00   0.00  -0.00     0.00  -0.01   0.01
  91   1     0.03   0.02   0.04    -0.00  -0.00  -0.01     0.01   0.00   0.01
                    265                    266                    267
                        a                      a                      a 
 Frequencies --  3116.0186              3116.4930              3119.3241
 Red. masses --     1.8559                 1.8417                 1.8581
 Frc consts  --     0.0000                 0.0000                 0.0000
 IR Inten    --    46.7444                39.6135                19.5989
 Raman Activ --     0.0000                 0.0000                 0.0000
 Depolar     --     0.0000                 0.0000                 0.0000
 Atom AN      X      Y      Z        X      Y      Z        X      Y      Z
   1   6    -0.00  -0.00   0.00     0.00   0.00   0.00     0.00   0.00  -0.00
   2   6     0.00   0.00   0.00     0.00   0.00   0.00    -0.00   0.00  -0.00
   3   6     0.00   0.00   0.00     0.00   0.00   0.00     0.00   0.00  -0.00
   4   6    -0.00  -0.00   0.00     0.00   0.00   0.00     0.00   0.00  -0.00
   5   6    -0.00  -0.00  -0.00    -0.00   0.00  -0.00     0.00   0.00  -0.00
   6   6     0.00  -0.01   0.01     0.00  -0.00   0.01    -0.00   0.00  -0.00
   7   6     0.00   0.00   0.00    -0.00   0.00   0.00    -0.00  -0.00  -0.00
   8   6    -0.00  -0.00   0.00    -0.00  -0.00   0.00     0.00  -0.00   0.00
   9   7     0.00  -0.00   0.00     0.00  -0.00   0.00    -0.00   0.00  -0.00
  10   6    -0.00  -0.00   0.00    -0.00   0.00  -0.00     0.00   0.00  -0.00
  11   6    -0.00   0.00  -0.00    -0.01   0.00  -0.00    -0.00  -0.00   0.00
  12   6    -0.00  -0.01   0.00    -0.01  -0.02   0.01    -0.00  -0.00   0.00
  13   6     0.00   0.00  -0.00     0.00  -0.01   0.00     0.00  -0.00   0.00
  14   6     0.00  -0.00   0.00     0.00  -0.00   0.00     0.00  -0.00  -0.00
  15   7     0.00   0.00  -0.00    -0.00   0.00   0.00    -0.00  -0.00  -0.00
  16   6     0.00  -0.00  -0.00    -0.00   0.00   0.00    -0.00   0.00   0.00
  17   6     0.20   0.00   0.02    -0.13  -0.00  -0.01    -0.02  -0.00  -0.00
  18   6     0.04   0.06   0.05    -0.03  -0.04  -0.03    -0.00  -0.01  -0.00
  19   6    -0.03   0.04   0.02     0.03  -0.03  -0.02     0.00  -0.00  -0.00
  20   6    -0.05  -0.00  -0.00     0.05   0.00   0.00     0.01   0.00   0.00
  21   6    -0.00  -0.00  -0.00     0.00   0.00   0.00    -0.00  -0.00  -0.00
  22   7    -0.00   0.00   0.00     0.00  -0.00  -0.00     0.00   0.00   0.00
  23   6     0.00   0.00  -0.00    -0.00  -0.00   0.00     0.00   0.00  -0.00
  24   6     0.00  -0.00   0.00    -0.00   0.00  -0.00    -0.00   0.00  -0.00
  25   6    -0.00  -0.00   0.00     0.00   0.00  -0.00     0.00   0.00  -0.00
  26   6    -0.00   0.00  -0.00     0.00   0.00   0.00     0.00   0.00   0.00
  27   6    -0.00  -0.00  -0.00     0.00  -0.00   0.00     0.00  -0.00   0.00
  28   6    -0.00  -0.00   0.00    -0.00  -0.00   0.00    -0.00  -0.00   0.00
  29   6     0.00  -0.00  -0.00     0.00  -0.00  -0.00     0.00  -0.00   0.00
  30   6     0.01   0.00   0.00     0.02   0.00  -0.00     0.03   0.00  -0.00
  31   6     0.00   0.01   0.00     0.00   0.01   0.00     0.02   0.03   0.02
  32   6    -0.00   0.01   0.00    -0.00   0.00   0.00    -0.05   0.06   0.04
  33   6    -0.01  -0.00   0.00     0.02   0.00  -0.00    -0.26  -0.02   0.01
  34   6    -0.00  -0.00  -0.00     0.00   0.00   0.00    -0.00  -0.00  -0.00
  35   6     0.01   0.02  -0.01     0.02   0.03  -0.02     0.00   0.00  -0.00
  36   6    -0.08   0.11  -0.07    -0.12   0.16  -0.10    -0.00   0.00  -0.00
  37   7     0.00   0.00  -0.00     0.00   0.00   0.00    -0.00  -0.00   0.00
  38   6    -0.00   0.00  -0.00    -0.00  -0.00  -0.00     0.00  -0.00   0.00
  39   6     0.00   0.00   0.00     0.00   0.00   0.00    -0.00  -0.00   0.00
  40   6     0.00  -0.00   0.00     0.00  -0.00   0.00     0.00  -0.00   0.00
  41   6     0.00  -0.00   0.00     0.00  -0.00   0.00     0.00  -0.00   0.00
  42   6    -0.00  -0.00   0.00    -0.00  -0.00   0.00    -0.00  -0.00   0.00
  43   6    -0.00   0.00  -0.00    -0.00   0.00  -0.00    -0.00   0.00  -0.00
  44   6    -0.00   0.00  -0.00    -0.00  -0.00   0.00    -0.00  -0.00   0.00
  45   6     0.00  -0.00  -0.00    -0.00  -0.00  -0.00    -0.00   0.00   0.00
  46   6    -0.00  -0.00   0.00    -0.00  -0.00   0.00    -0.00  -0.00   0.00
  47   6    -0.00   0.00  -0.00    -0.00   0.00   0.00    -0.00   0.00   0.00
  48   6     0.00  -0.00   0.00    -0.00   0.00  -0.00    -0.00   0.00  -0.00
  49   6    -0.01  -0.01   0.00     0.01   0.01  -0.00     0.00   0.00  -0.00
  50   6    -0.00   0.00   0.00     0.00  -0.00  -0.00     0.00  -0.00   0.00
  51   6     0.00  -0.00  -0.00     0.00   0.00  -0.00    -0.00   0.00  -0.00
  52   6     0.00  -0.00   0.00     0.00  -0.00   0.01    -0.00   0.00  -0.00
  53   6     0.00   0.00   0.00     0.00   0.00   0.00    -0.00  -0.00  -0.00
  54   1     0.00  -0.00  -0.00    -0.00  -0.00   0.00    -0.00  -0.00   0.00
  55   1    -0.00   0.00  -0.00    -0.00   0.00  -0.00     0.00   0.00   0.00
  56   1     0.00   0.00   0.00     0.00   0.00   0.00     0.00   0.00  -0.00
  57   1    -0.00  -0.00  -0.00    -0.00  -0.00  -0.00     0.00   0.00   0.00
  58   1     0.00  -0.00  -0.00     0.00  -0.00  -0.00    -0.00   0.00   0.00
  59   1    -0.00  -0.00  -0.00    -0.00  -0.00  -0.00    -0.00  -0.00   0.00
  60   1    -0.00   0.00  -0.00    -0.00   0.00  -0.00     0.00  -0.00   0.00
  61   1     0.00  -0.00  -0.00     0.00  -0.00  -0.00    -0.00   0.00   0.00
  62   1     0.00   0.00  -0.00    -0.00   0.00  -0.00    -0.00  -0.00   0.00
  63   1    -0.01   0.02  -0.03    -0.01   0.02  -0.03     0.00  -0.00   0.01
  64   1    -0.00  -0.00  -0.01    -0.00  -0.00  -0.01     0.00   0.00   0.00
  65   1     0.02   0.03  -0.02     0.03   0.06  -0.03     0.01   0.01  -0.00
  66   1     0.00  -0.00   0.00    -0.01   0.02  -0.01    -0.01   0.01  -0.00
  67   1    -0.70  -0.01  -0.08     0.44   0.00   0.05     0.06   0.00   0.01
  68   1    -0.12  -0.20  -0.15     0.09   0.14   0.11     0.01   0.02   0.01
  69   1     0.10  -0.12  -0.07    -0.08   0.10   0.06    -0.01   0.01   0.01
  70   1     0.17   0.00   0.01    -0.17  -0.00  -0.01    -0.02  -0.00  -0.00
  71   1    -0.00   0.00  -0.00     0.00  -0.00   0.01     0.00  -0.00   0.00
  72   1     0.00   0.00  -0.00    -0.00  -0.00   0.00    -0.00  -0.00   0.00
  73   1     0.00   0.00   0.00    -0.00  -0.00  -0.00    -0.00  -0.00  -0.00
  74   1    -0.00   0.00  -0.00    -0.00   0.00  -0.00    -0.00   0.00  -0.00
  75   1     0.00   0.00  -0.00     0.00   0.00  -0.01     0.00   0.00  -0.00
  76   1    -0.04  -0.00   0.00    -0.06  -0.00   0.00    -0.12  -0.01   0.00
  77   1    -0.01  -0.02  -0.01    -0.01  -0.02  -0.01    -0.07  -0.11  -0.06
  78   1     0.01  -0.02  -0.01     0.00  -0.00  -0.00     0.15  -0.18  -0.13
  79   1     0.04   0.00  -0.00    -0.08  -0.01   0.00     0.90   0.08  -0.03
  80   1    -0.03  -0.05   0.03    -0.05  -0.08   0.04    -0.01  -0.01   0.01
  81   1     0.29  -0.38   0.24     0.42  -0.56   0.34     0.01  -0.02   0.01
  82   1    -0.01   0.00  -0.00    -0.01   0.00  -0.00    -0.00   0.00  -0.00
  83   1    -0.00   0.00  -0.00    -0.00   0.01  -0.00    -0.00   0.00  -0.00
  84   1     0.00   0.00  -0.00     0.00   0.00  -0.00     0.00   0.00  -0.00
  85   1     0.00  -0.00   0.00     0.01  -0.00   0.00     0.00  -0.00   0.00
  86   1     0.00   0.00  -0.00     0.01   0.01  -0.00     0.00   0.00  -0.00
  87   1     0.00  -0.00  -0.00     0.01  -0.00  -0.00     0.00  -0.00  -0.00
  88   1    -0.00   0.00  -0.00     0.00  -0.01   0.00     0.00  -0.00   0.00
  89   1     0.02   0.02  -0.00    -0.02  -0.02   0.00    -0.01  -0.01   0.00
  90   1    -0.00   0.01  -0.01    -0.01   0.01  -0.02     0.00  -0.00   0.00
  91   1    -0.00  -0.00  -0.00    -0.01  -0.01  -0.01     0.00   0.00   0.00
