$hessian                                                                        
        0.6040884476  -0.1051941951  -0.1167059380  -0.2980264420   0.0557083265
        0.0563714941  -0.0124754570   0.0707740471  -0.0499794010  -0.0535361246
       -0.0048710686   0.0240087764   0.0472219448  -0.0499093214   0.0187373264
       -0.1841001708  -0.0303826698   0.0810520641   0.0006178966   0.0045055909
        0.0010878648   0.0008462760  -0.0003366483  -0.0007925053  -0.0003141648
       -0.0003039031   0.0003657281   0.0001328902   0.0004596447  -0.0002211987
       -0.0004523346  -0.0001490348   0.0000751066   0.0004048179  -0.0003505840
        0.0000461975   0.0001779369   0.0006134534  -0.0007508700  -0.0000139835
       -0.0000159114  -0.0000267413   0.0000401072  -0.0000101684  -0.0000314421
       -0.0000316764  -0.0000041511  -0.0000293506   0.0001335239   0.0000028232
        0.0000006883   0.0000045102  -0.0000001527   0.0000318577   0.0000172920
       -0.0000059491  -0.0000035352   0.0000170703  -0.0000281652   0.0000068168
        0.0000119658   0.0000486188  -0.0000110862  -0.0000872524  -0.0001205927
        0.0000562285  -0.0000048073  -0.0000955865  -0.0000051624  -0.0000850124
        0.0001739067   0.0000125761  -0.0000096433   0.0000453443   0.0000186097
        0.0000134332  -0.0000103386   0.0000019727  -0.0000316918  -0.0000033457
        0.0000170291   0.0000038421   0.0000065555  -0.0000142880   0.0000023029
        0.0000019224  -0.0000080287  -0.0000105692  -0.0000041443   0.0000086692
       -0.0000074149  -0.0000080224   0.0000189934   0.0000080340   0.0000427712
       -0.0000251664   0.0000624119  -0.0001467071  -0.0000157310  -0.0000146885
        0.0000071284   0.0000031590   0.0000233287   0.0000005648  -0.0000339845
        0.0000031335   0.0000045456   0.0000256661  -0.0000080424  -0.0000017049
       -0.0000025222   0.0000010584   0.0000020807  -0.0000021299  -0.0000114570
       -0.0000027408  -0.0000086093   0.0000380650   0.0000123669   0.0000835365
       -0.0001383937  -0.0000081576  -0.0000684242   0.0021769777  -0.0001731292
       -0.0007805452  -0.0655332808   0.0637262356  -0.0364532798  -0.0207000995
        0.0054580859   0.0040182754   0.0016176133   0.0026018748   0.0006493498
       -0.0214057432  -0.0115375136   0.0180499876  -0.0010029671  -0.0000142824
        0.0015292486  -0.0000609988   0.0000746569  -0.0002825362   0.0000463742
       -0.0001063212  -0.0000162310   0.0000160730  -0.0000113169   0.0000186002
        0.0000150329   0.0000343718   0.0001608951  -0.0000029938   0.0000062655
       -0.0000031561  -0.0000137051   0.0000005938   0.0000073553   0.0000414281
        0.0000824466   0.0000437289  -0.0000607690  -0.0001506790  -0.0001497977
        0.0000190429   0.0000269549   0.0000037269  -0.0000036905  -0.0000116546
       -0.0000011329   0.0000142435   0.0000035659  -0.0000018510   0.0000044913
        0.0000026360  -0.0000025443   0.0000046044  -0.0000045586   0.0000021502
        0.0000094525  -0.0000080861   0.0000002180   0.0000114942  -0.0000004492
       -0.0000130815  -0.0000036532   0.0000030740  -0.0000012506   0.0000069202
        0.0000043839   0.0000076941  -0.0000026225  -0.0000041369  -0.0000074044
        0.0000018163   0.0000000692  -0.0000045438  -0.0000067926  -0.0000029544
       -0.0000057169  -0.0000069157  -0.0000022384  -0.0000020906  -0.0000045042
       -0.0000000205   0.0000011772  -0.0000003747   0.0000018601   0.0000010994
        0.0003125838  -0.0004461614  -0.0000625910
       -0.1051941951   0.4775423188  -0.2475505706   0.1146600573  -0.1052468132
        0.0002665451   0.0273169550  -0.0188730253   0.0046267071  -0.0053539355
        0.0023718264  -0.0041582200  -0.0065007302  -0.0287120908   0.0262228891
       -0.0886717903  -0.1260560795   0.1002449739   0.0026725611   0.0001946571
        0.0047758316  -0.0000037438  -0.0004615665   0.0002811748   0.0002740586
        0.0003119634  -0.0006244597  -0.0000959140  -0.0000897113  -0.0000250302
       -0.0000585961   0.0000900954   0.0000396533   0.0000159353  -0.0000493547
       -0.0000367632  -0.0000035051  -0.0000491433  -0.0000388538   0.0000822318
       -0.0000005668   0.0000111308  -0.0000199397   0.0000105877   0.0000110035
       -0.0000023049   0.0000052402  -0.0000101941  -0.0000250823  -0.0000083552
        0.0000079733  -0.0000148217   0.0000053669  -0.0000238780  -0.0000289607
       -0.0000062745   0.0000211793  -0.0000109634  -0.0000204371   0.0000294797
        0.0001612953  -0.0000527967   0.0000593006  -0.0000284465  -0.0000906866
       -0.0000589535   0.0000015383   0.0000266395   0.0000529234   0.0001030700
       -0.0001652502  -0.0000205901  -0.0000592638   0.0000196217   0.0000179587
       -0.0000216146   0.0000053576   0.0000069688   0.0000281472   0.0000024330
       -0.0000188562   0.0000271580  -0.0000277460   0.0000045000  -0.0000222427
        0.0000465910  -0.0000315543  -0.0000215107  -0.0000150396   0.0000217156
       -0.0000071345   0.0000233553  -0.0000194428  -0.0000036889  -0.0001114186
        0.0001002956  -0.0000780587   0.0002077075  -0.0000452460   0.0000025881
       -0.0000030368   0.0000045356  -0.0000092181   0.0000004912   0.0000057139
        0.0000094407   0.0000021027   0.0000005225  -0.0000016748  -0.0000030755
       -0.0000060424  -0.0000059154  -0.0000015686   0.0000037398   0.0000057643
        0.0000025042   0.0000043864  -0.0000026422  -0.0000025732  -0.0000160616
        0.0000132145   0.0000080098   0.0000029622   0.0010722036  -0.0022860186
        0.0023321335   0.0635381353  -0.2061614617   0.1113835145  -0.0125789654
        0.0044021138   0.0021047662   0.0030708889  -0.0011998773   0.0057869996
        0.0066157025   0.0044510517  -0.0059912810  -0.0006536990  -0.0003956994
        0.0010230959   0.0004465593   0.0000690315  -0.0003005457  -0.0000382585
        0.0000329666  -0.0000096892  -0.0000005673  -0.0000103602   0.0000043338
       -0.0000255833   0.0000063033   0.0000025465   0.0000130253  -0.0000054987
       -0.0000265469  -0.0000027068  -0.0000041747   0.0000018574  -0.0001131226
        0.0000146351  -0.0000183257  -0.0001268082   0.0000766004  -0.0002419393
        0.0000144518  -0.0000027709  -0.0000380967   0.0000038934   0.0000085466
       -0.0000073327   0.0000257635   0.0000074623  -0.0000180142  -0.0000002429
        0.0000044929  -0.0000036992   0.0000005649  -0.0000057619   0.0000020437
        0.0000059545   0.0000033001  -0.0000028050  -0.0000017940  -0.0000041647
       -0.0000015292  -0.0000019506  -0.0000109301   0.0000089768  -0.0000163522
       -0.0000006842  -0.0000174116  -0.0000116959   0.0000044556  -0.0000046140
       -0.0000043915   0.0000003779   0.0000000775   0.0000023874   0.0000005468
        0.0000046113   0.0000031870  -0.0000005778   0.0000010800  -0.0000002105
       -0.0000019670  -0.0000006623  -0.0000001433  -0.0000092096   0.0000020936
       -0.0003643469   0.0001870129  -0.0001149852
       -0.1167059380  -0.2475505706   0.3544522957   0.0104749731   0.0245883165
       -0.0695295495  -0.0159454043  -0.0127917854   0.0185253749   0.0244823480
       -0.0045461081  -0.0118216813  -0.0145536048   0.0446263468  -0.0288776086
        0.1273479957   0.0751914506  -0.1571314237   0.0001468092   0.0040169786
        0.0029229217   0.0004422192   0.0012856163  -0.0006042237  -0.0002292046
       -0.0003186749   0.0003344119   0.0000260860  -0.0000841800   0.0001505803
        0.0002531305  -0.0000269029  -0.0000463147  -0.0001199662   0.0003330511
        0.0000074832  -0.0002398886  -0.0000062031   0.0002290765  -0.0000970859
        0.0000285863   0.0000005868   0.0000332653  -0.0000092480  -0.0000048091
       -0.0000069611   0.0000007458   0.0000161033   0.0000010767   0.0000041696
       -0.0000055434   0.0000179263  -0.0000073709   0.0000148031   0.0000340962
       -0.0000123920  -0.0000636065  -0.0000144971   0.0001114538  -0.0000394841
       -0.0000772649  -0.0001282821  -0.0000961297  -0.0000766190   0.0000436322
       -0.0003205478  -0.0001082249   0.0000542502   0.0000273376  -0.0001574645
        0.0001816837   0.0000922914   0.0001477778  -0.0000313578  -0.0000686414
        0.0000113869  -0.0000278120  -0.0000063874  -0.0000421161  -0.0000133209
        0.0000383669  -0.0000176562   0.0000366826  -0.0000138333   0.0000234385
       -0.0000444437   0.0000315765   0.0000162041   0.0000158492  -0.0000219859
        0.0000219256  -0.0000404296   0.0000204311   0.0000052082   0.0001719506
       -0.0001528182   0.0001121134  -0.0003148837   0.0000753008  -0.0000040982
       -0.0000073243  -0.0000064992   0.0000111185   0.0000038640   0.0000081951
       -0.0000046767  -0.0000039271  -0.0000133350   0.0000023718   0.0000036346
        0.0000117262   0.0000038617  -0.0000003755  -0.0000091486   0.0000043691
        0.0000003388   0.0000033457  -0.0000220384  -0.0000099817  -0.0000305135
        0.0000163936   0.0000100233   0.0000335785  -0.0016973623   0.0020973457
       -0.0019844076  -0.0364016333   0.1115609945  -0.1048908377   0.0184842221
       -0.0052942107  -0.0027848954   0.0000789505   0.0060022365   0.0029508457
        0.0040061192   0.0018195309  -0.0022302875  -0.0001434551  -0.0006095469
        0.0003298296   0.0003025787  -0.0000936392   0.0000488516   0.0000130262
        0.0000157484   0.0000036336  -0.0000050962   0.0000111298  -0.0000244668
        0.0000106710   0.0000150604  -0.0000786174  -0.0000109643   0.0000025469
        0.0000363252   0.0000031615   0.0000020199   0.0000023756   0.0000974777
       -0.0000093288  -0.0000170203  -0.0000478385  -0.0002731845   0.0002172717
       -0.0000322246   0.0000066531   0.0000437193  -0.0000070560  -0.0000182602
        0.0000055451  -0.0000356285  -0.0000194309   0.0000190203  -0.0000062455
       -0.0000086140   0.0000079741  -0.0000002088  -0.0000010182   0.0000016184
       -0.0000031699  -0.0000063307   0.0000028936  -0.0000021607   0.0000043349
        0.0000035756  -0.0000029781   0.0000203314  -0.0000050662   0.0000206158
       -0.0000130829   0.0000080219   0.0000147637   0.0000109383   0.0000169653
        0.0000035158   0.0000015354   0.0000082443  -0.0000010052   0.0000003134
       -0.0000021502  -0.0000039495   0.0000006333   0.0000013580  -0.0000013465
        0.0000009010   0.0000039705  -0.0000018897   0.0000015870  -0.0000013355
        0.0001557247   0.0000397559   0.0001753425
       -0.2980264420   0.1146600573   0.0104749731   0.6147707417  -0.0914482960
       -0.1299244953  -0.1090760895   0.0392014404  -0.0036672421   0.0484692225
       -0.0080319488  -0.0147514777  -0.0307465259   0.0314409419  -0.0134591833
       -0.0507596432  -0.0392899590   0.0529048594  -0.0001579518  -0.0009279032
       -0.0007215117   0.0000435545   0.0002808925   0.0002913916   0.0003492485
       -0.0003902286   0.0006490085  -0.0002807473  -0.0003608009   0.0000481975
        0.0002104316   0.0000488952  -0.0001277735  -0.0002413686   0.0003294732
       -0.0000383241  -0.0001403153  -0.0004061173   0.0005394668   0.0000411674
        0.0000400203  -0.0000116788  -0.0000026683   0.0000056469   0.0000012424
        0.0000172061   0.0000005155   0.0000201171  -0.0000693499  -0.0000062008
       -0.0000108392   0.0000227867  -0.0000029407  -0.0000339028  -0.0000029573
        0.0000372225  -0.0000164301   0.0000151632   0.0000188709  -0.0000292569
       -0.0000785965   0.0000811716   0.0000346544   0.0000519465  -0.0002059212
        0.0001987972   0.0001060728   0.0001345873  -0.0001291083   0.0000995900
       -0.0001792447  -0.0000192247  -0.0000538901  -0.0000250040   0.0000313464
       -0.0000167726  -0.0000046875   0.0000072290   0.0000346121  -0.0000072515
       -0.0000146818   0.0000251018  -0.0000257137   0.0000112508  -0.0000198920
        0.0000343736  -0.0000144940  -0.0000060187  -0.0000147880   0.0000124035
        0.0000159015   0.0000190882  -0.0000335062  -0.0000092866  -0.0000800383
        0.0000708594  -0.0000795360   0.0002215416  -0.0000417258   0.0000079008
       -0.0000069624   0.0000032886  -0.0000117113  -0.0000030030   0.0000127180
       -0.0000026092   0.0000002635  -0.0000022250   0.0000005146  -0.0000014044
       -0.0000082658  -0.0000139808  -0.0000045014  -0.0000028677   0.0000108625
        0.0000055416   0.0000160620  -0.0000184948  -0.0000076498  -0.0000540295
        0.0000715193   0.0000081875   0.0000408042  -0.0032935510  -0.0012909898
        0.0049393053  -0.0103300520   0.0051277375  -0.0002492305  -0.1481278131
       -0.0724334335   0.1035526426  -0.0115643212   0.0239397726  -0.0142232991
       -0.0012506077  -0.0006675069   0.0042613727   0.0004747154  -0.0002078303
       -0.0007425623   0.0003451871   0.0000469706   0.0001686983  -0.0000563030
        0.0000817401   0.0000440049  -0.0000008706   0.0000057983  -0.0000023067
       -0.0000155930  -0.0000250395  -0.0001137893  -0.0000019480  -0.0000092234
       -0.0000040958   0.0000082955  -0.0000034638  -0.0000061494   0.0000205219
        0.0000209459   0.0000513151  -0.0001102444   0.0000269012  -0.0002185307
        0.0000100644   0.0000042545   0.0000147405   0.0000073302   0.0000092216
       -0.0000022409   0.0000065581   0.0000043011  -0.0000183976  -0.0000047605
        0.0000021592  -0.0000008217  -0.0000017319  -0.0000034705  -0.0000001025
       -0.0000029445   0.0000087025  -0.0000011749  -0.0000170232  -0.0000041313
        0.0000097528  -0.0000038906   0.0000077079   0.0000099035   0.0000064050
       -0.0000040868   0.0000072230  -0.0000111821   0.0000076589   0.0000050670
       -0.0000050425  -0.0000023163   0.0000011669   0.0000019426   0.0000000060
        0.0000084861   0.0000083633   0.0000000278   0.0000019644   0.0000023167
       -0.0000012704  -0.0000039386   0.0000005400  -0.0000042322   0.0000020897
       -0.0006430571   0.0002249225   0.0002524816
        0.0557083265  -0.1052468132   0.0245883165  -0.0914482960   0.4711422031
       -0.2451481921   0.0951580683  -0.2353998741   0.1134439023  -0.0489745160
       -0.0284098063   0.0418208616   0.0294466671  -0.0285231847   0.0060226221
        0.0044613393   0.0371299756  -0.0307641371  -0.0004777735   0.0004612447
        0.0017635221   0.0002250513  -0.0000478047  -0.0005155483  -0.0005948657
       -0.0003724340   0.0018461742   0.0002787052   0.0004398557  -0.0002134569
       -0.0003066165  -0.0001866718  -0.0000978299   0.0002683414  -0.0002721774
        0.0000415377   0.0000385767   0.0001894933  -0.0006320396  -0.0000409744
       -0.0000198784   0.0000063135  -0.0000187001  -0.0000185017   0.0000130267
        0.0000061013  -0.0000098543  -0.0000128992  -0.0000597759   0.0000198043
        0.0000183928   0.0000054955   0.0000031286  -0.0000071362  -0.0000021443
       -0.0000001245   0.0000021802   0.0000366919  -0.0000169884  -0.0000045581
        0.0000009512   0.0000252781  -0.0000159599  -0.0000357293   0.0000712813
       -0.0000370184  -0.0000058729  -0.0000969705   0.0001705000  -0.0000735312
        0.0000989848  -0.0000142305   0.0000345718   0.0000416884  -0.0000224307
        0.0000137434   0.0000052465  -0.0000141049  -0.0000272025   0.0000177665
       -0.0000051550  -0.0000135803   0.0000198533   0.0000028018   0.0000161600
       -0.0000220213   0.0000130844   0.0000149417   0.0000011550  -0.0000022728
       -0.0000086140   0.0000106236   0.0000225036  -0.0000161998   0.0000153504
       -0.0000334860   0.0000892262  -0.0000718703   0.0000494058   0.0000086280
        0.0000126031  -0.0000083814  -0.0000161212  -0.0000057431   0.0000179084
       -0.0000006088  -0.0000058704  -0.0000179489  -0.0000005750  -0.0000009789
        0.0000063403   0.0000092194  -0.0000013804   0.0000035263   0.0000033456
       -0.0000052087  -0.0000113286  -0.0000113649   0.0000124580  -0.0000125498
        0.0000523652  -0.0000442233   0.0000090134   0.0006904541   0.0019347584
        0.0011487645   0.0236269589  -0.0107431234  -0.0010221194  -0.0726227791
       -0.0936971087   0.0765723437   0.0057650966  -0.0101960927   0.0055646909
       -0.0010733375   0.0019243936   0.0048310043  -0.0005121727   0.0000751253
        0.0006049739   0.0000803816  -0.0001294240  -0.0001613956   0.0000213861
       -0.0000541594   0.0000161561   0.0000049570   0.0000153828  -0.0000061585
        0.0000302148   0.0000644872   0.0001499909   0.0000061594   0.0000104522
       -0.0000177690   0.0000013390   0.0000050750   0.0000018062   0.0000485264
       -0.0000290129  -0.0000098832   0.0000115054   0.0000207554   0.0000742550
        0.0000311518  -0.0000092004  -0.0000909819   0.0000076486   0.0000076450
        0.0000070537  -0.0000082107   0.0000042848   0.0000086072  -0.0000005940
       -0.0000052375  -0.0000048165   0.0000008588   0.0000022085  -0.0000039850
       -0.0000007477  -0.0000062169  -0.0000039725   0.0000114441  -0.0000106434
       -0.0000160999  -0.0000050411  -0.0000418500  -0.0000513529  -0.0000043325
       -0.0000108165   0.0000080597   0.0000007136  -0.0000118414   0.0000039946
        0.0000007840   0.0000005474   0.0000048820   0.0000025418   0.0000012772
       -0.0000039379  -0.0000045815  -0.0000006379  -0.0000024062  -0.0000001169
       -0.0000020383   0.0000014679  -0.0000050197   0.0000045409  -0.0000034197
        0.0001513568  -0.0000631444   0.0001289782
        0.0563714941   0.0002665451  -0.0695295495  -0.1299244953  -0.2451481921
        0.3604912394  -0.0477946372   0.1361538690  -0.1311600872   0.0175928885
        0.0250064301  -0.0290809327  -0.0121786507   0.0058360650  -0.0033422768
        0.0177820080  -0.0117159918   0.0034418615   0.0003113914   0.0000207184
       -0.0011976260  -0.0003982286  -0.0002905084   0.0002742703   0.0009077482
        0.0025785425  -0.0009309151   0.0001727356  -0.0002406090   0.0000238926
        0.0001532008   0.0002221241  -0.0001370665  -0.0002134712   0.0000416519
        0.0000208441   0.0000686159   0.0000644423   0.0001114223   0.0000362588
       -0.0000045959  -0.0000002543   0.0000439505   0.0000161858  -0.0000318604
       -0.0000350453   0.0000102721  -0.0000007137   0.0001365911  -0.0000191803
       -0.0000121551  -0.0000088399  -0.0000049346   0.0000334427   0.0000269675
       -0.0000205410   0.0000020652  -0.0000466558   0.0000257926   0.0000345348
        0.0001239272  -0.0000890405  -0.0000017547   0.0000072101   0.0000174614
       -0.0000581755  -0.0000255870   0.0000416265  -0.0000915803   0.0000065169
        0.0000521538   0.0000402024  -0.0000045437   0.0000065604  -0.0000037144
       -0.0000095379  -0.0000067745   0.0000130905   0.0000004782  -0.0000154354
        0.0000167812  -0.0000024909  -0.0000007281  -0.0000135203  -0.0000061448
        0.0000039662  -0.0000070058  -0.0000147273   0.0000034592  -0.0000006428
        0.0000040576  -0.0000199311  -0.0000099139   0.0000179425   0.0000489950
       -0.0000080509  -0.0000273797  -0.0000782101  -0.0000379564  -0.0000188683
       -0.0000123849   0.0000041049   0.0000247285   0.0000088270  -0.0000286459
        0.0000039789   0.0000065808   0.0000207712  -0.0000013091   0.0000014973
       -0.0000004313  -0.0000009297   0.0000038356  -0.0000040268  -0.0000108147
        0.0000021060   0.0000018933   0.0000240604  -0.0000100298   0.0000471618
       -0.0001369908   0.0000466886  -0.0000368479   0.0033486784   0.0010552769
        0.0031976244  -0.0145632924   0.0061856563   0.0006778957   0.1036222996
        0.0767039923  -0.1361280833   0.0000123780  -0.0019587096   0.0011571077
        0.0045812846   0.0047325034   0.0019137979   0.0001964235   0.0001382457
       -0.0001456982  -0.0001247700  -0.0000091714   0.0001401372   0.0000125898
        0.0000241592   0.0000122545   0.0000224060   0.0000177629   0.0000003353
       -0.0000111367  -0.0000262607  -0.0000294055  -0.0000048842  -0.0000070013
        0.0000195078  -0.0000126049  -0.0000035593   0.0000050812  -0.0000899536
        0.0000361871   0.0000040547   0.0000393056  -0.0000190046   0.0000085765
       -0.0000337149   0.0000198118   0.0000902163  -0.0000120834  -0.0000158770
       -0.0000081484   0.0000109449  -0.0000056373  -0.0000002329   0.0000042085
        0.0000035441   0.0000049739   0.0000013754  -0.0000031781   0.0000058372
        0.0000046568  -0.0000009452   0.0000039437  -0.0000039753   0.0000124058
        0.0000109314   0.0000088132   0.0000450508   0.0000479640  -0.0000020614
        0.0000131538  -0.0000142067   0.0000051936   0.0000077395  -0.0000033184
        0.0000020970   0.0000002611  -0.0000041380  -0.0000043406  -0.0000018887
       -0.0000016361  -0.0000023597  -0.0000001903   0.0000016578  -0.0000020972
        0.0000016444   0.0000025001   0.0000034166  -0.0000070948   0.0000027520
        0.0000338002   0.0002518143   0.0001758444
       -0.0124754570   0.0273169550  -0.0159454043  -0.1090760895   0.0951580683
       -0.0477946372   0.6035695431  -0.1100002445  -0.1177589473  -0.1855687277
       -0.0830006424   0.1212011362  -0.0424384730   0.0016922173   0.0170102287
        0.0000644825  -0.0075529061   0.0045807446  -0.0034088480   0.0029986963
        0.0006715965   0.0008080250  -0.0000689990  -0.0002171994  -0.0009885327
        0.0008896295  -0.0015862646   0.0001967731   0.0005207106  -0.0001694922
       -0.0000510240   0.0002603054   0.0000854764  -0.0000792771   0.0001211493
       -0.0000105105  -0.0001058168  -0.0000948911   0.0003117645  -0.0000057564
        0.0000307448   0.0000019929  -0.0000408666   0.0000057837   0.0000020299
        0.0000317571  -0.0000049001  -0.0000063920  -0.0000476382  -0.0000031277
        0.0000191883  -0.0000022191  -0.0000016649  -0.0000128496  -0.0000148239
        0.0000344587   0.0000250187   0.0000478082  -0.0000691526  -0.0000009107
       -0.0000985121   0.0001323315   0.0000806368   0.0000825140  -0.0001184677
        0.0000104459   0.0000579725   0.0000405488   0.0000125137   0.0002183058
       -0.0003270810  -0.0000734777  -0.0000504468  -0.0000191688   0.0000189291
       -0.0000088424   0.0000366490  -0.0000063010   0.0000560917   0.0000188723
       -0.0000486918  -0.0000069587  -0.0000256717   0.0000279394  -0.0000147248
        0.0000004064   0.0000091410   0.0000124010   0.0000272378  -0.0000326922
       -0.0000112737   0.0000071859  -0.0000334016   0.0000005137  -0.0000989163
        0.0000802265  -0.0001478803   0.0003209293   0.0000066265   0.0000141246
        0.0000038482  -0.0000109370  -0.0000225947  -0.0000091734   0.0000189072
       -0.0000121088  -0.0000047698  -0.0000164186   0.0000044450   0.0000016252
        0.0000044626   0.0000072024   0.0000006863   0.0000065853   0.0000004748
       -0.0000012240  -0.0000102911  -0.0000112126   0.0000028117  -0.0000176684
        0.0000520133  -0.0000103639   0.0000167302   0.0086667761   0.0006816937
        0.0002996322  -0.0044046216   0.0035467985   0.0018918073   0.0043975706
       -0.0153003032   0.0103727985  -0.2607239735   0.0823271040   0.0285258428
        0.0008687764  -0.0003180020  -0.0000739247  -0.0001438977  -0.0002632468
       -0.0000383445  -0.0005710690  -0.0001969261   0.0007870068  -0.0000737311
        0.0000951788  -0.0000271178   0.0000037790   0.0000281112  -0.0000340100
       -0.0000215239   0.0000180657  -0.0000908216  -0.0000010253  -0.0000039082
       -0.0000209614   0.0000011677  -0.0000012278  -0.0000036960   0.0000446202
       -0.0000174597   0.0000094732  -0.0000642327   0.0001187441  -0.0000454416
        0.0000567943  -0.0000355638  -0.0000492442  -0.0000007869   0.0000178594
       -0.0000050215  -0.0000084159   0.0000110200  -0.0000002692  -0.0000061759
       -0.0000013611   0.0000039103  -0.0000030595   0.0000033620   0.0000041165
       -0.0000056208   0.0000083474  -0.0000001266  -0.0000077104   0.0000025871
        0.0000231205   0.0000391088  -0.0000143614   0.0000090147   0.0000034858
        0.0000009392   0.0000050002  -0.0000078553  -0.0000045550   0.0000106992
        0.0000001075  -0.0000011931   0.0000044493   0.0000033167   0.0000000753
        0.0000012204   0.0000007497  -0.0000006326   0.0000001444   0.0000030359
       -0.0000019355  -0.0000000047   0.0000002873  -0.0000048025  -0.0000046185
        0.0014177806   0.0010951060  -0.0020044679
        0.0707740471  -0.0188730253  -0.0127917854   0.0392014404  -0.2353998741
        0.1361538690  -0.1100002445   0.4781104395  -0.2474943285  -0.0296404907
       -0.1139163273   0.0644911466  -0.0340843448   0.0325208723  -0.0113428229
       -0.0119613428  -0.0324958136   0.0280742824   0.0044034769   0.0011631981
        0.0002139860   0.0002949189  -0.0006897642   0.0004636938   0.0040058595
       -0.0006450282   0.0017244426  -0.0013957044  -0.0018305799   0.0006537619
        0.0005442010   0.0001013675  -0.0003004906  -0.0004823157   0.0003153720
        0.0000100683   0.0000532938  -0.0001165560   0.0004366310   0.0001171868
       -0.0000102663   0.0000020685  -0.0000048347   0.0000532437  -0.0000339748
       -0.0000435487   0.0000184437  -0.0000239726   0.0002224518  -0.0000417730
       -0.0000098606  -0.0000420745  -0.0000013392   0.0000476191  -0.0000166314
       -0.0000050600   0.0000327623  -0.0000201937  -0.0000389760   0.0000536625
        0.0000771754  -0.0000741882   0.0000122858   0.0000106027  -0.0000803265
        0.0000048800   0.0000354505   0.0000944879  -0.0001340187   0.0001198732
       -0.0001443159   0.0000500772  -0.0000569876  -0.0000390351   0.0000267734
       -0.0000268170   0.0000144211   0.0000140227   0.0000470165  -0.0000071864
       -0.0000098708  -0.0000132553  -0.0000190855  -0.0000151311  -0.0000164137
        0.0000192383  -0.0000350295  -0.0000304249   0.0000129525  -0.0000012383
       -0.0000368109   0.0000051480  -0.0000171330   0.0000196049  -0.0000652893
        0.0001118784  -0.0001356606   0.0001591311  -0.0000629819  -0.0000300715
       -0.0000244864   0.0000056681   0.0000261923   0.0000085418  -0.0000451666
        0.0000047605   0.0000126234   0.0000332482  -0.0000047398   0.0000024277
       -0.0000059508   0.0000015028   0.0000086110   0.0000021557  -0.0000218841
        0.0000032368  -0.0000110491   0.0000542285  -0.0000132539   0.0001087025
       -0.0002285064   0.0000789540  -0.0000884678  -0.0181623827  -0.0282176831
        0.0322941603   0.0030745433   0.0022966722   0.0023946073   0.0026813869
       -0.0130761822   0.0094347626   0.0831307970  -0.0700677126  -0.0040655670
       -0.0004248863  -0.0002501418   0.0003594834   0.0000597163  -0.0003608171
        0.0000711554   0.0007362271   0.0005757752  -0.0004119890  -0.0001413268
        0.0002322969   0.0000604987  -0.0000850662  -0.0001083272   0.0000736469
       -0.0000634471  -0.0000402377  -0.0001126483   0.0000053708  -0.0000226470
       -0.0000014376  -0.0000287973  -0.0000097574   0.0000067139  -0.0000928084
        0.0000630786   0.0000338039   0.0000890637  -0.0000310671  -0.0000960592
       -0.0000294313   0.0000597554   0.0000742385  -0.0000193441  -0.0000118492
       -0.0000266100   0.0000479455   0.0000080074  -0.0000122871   0.0000178535
        0.0000148535   0.0000022147   0.0000005295   0.0000009521   0.0000080642
        0.0000081906  -0.0000014453   0.0000063155   0.0000006219   0.0000114002
        0.0000113584   0.0000183809   0.0000417624   0.0000537646  -0.0000031078
        0.0000275194  -0.0000199473   0.0000024296   0.0000061771  -0.0000011376
        0.0000022228  -0.0000023338  -0.0000072401  -0.0000057276  -0.0000036279
       -0.0000019419  -0.0000036213  -0.0000013248   0.0000006943  -0.0000023114
        0.0000005073   0.0000034581   0.0000069414  -0.0000203880   0.0000009662
       -0.0025399482   0.0007156243  -0.0004374547
       -0.0499794010   0.0046267071   0.0185253749  -0.0036672421   0.1134439023
       -0.1311600872  -0.1177589473  -0.2474943285   0.3504012590   0.0790554440
        0.0878772527  -0.1485432211   0.0453520293  -0.0277463772   0.0018418068
        0.0077511896   0.0262057344  -0.0284591848   0.0012846865   0.0024676905
        0.0052016232   0.0005265129   0.0007827234  -0.0005435680  -0.0039191222
       -0.0004055475   0.0011108474   0.0011519735   0.0016225441  -0.0003426693
       -0.0005160235  -0.0001292920   0.0001080031   0.0004274819  -0.0000983740
       -0.0000039900  -0.0001728112   0.0000280389  -0.0004797001  -0.0001149968
        0.0000016603  -0.0000021878   0.0000230285  -0.0000409075   0.0000222223
        0.0000044225  -0.0000035994   0.0000163935  -0.0001179347   0.0000250682
        0.0000049535   0.0000184870   0.0000030906  -0.0000080370   0.0000381163
       -0.0000080392  -0.0000781465   0.0000225377   0.0000605706  -0.0000706031
        0.0000196290  -0.0000233214  -0.0000290551   0.0000526309   0.0000393875
       -0.0000731633  -0.0000870831  -0.0000470077   0.0000258441  -0.0001462358
        0.0003304924   0.0000100610   0.0001210414   0.0000586987  -0.0000517051
        0.0000196394  -0.0000269811   0.0000000621  -0.0000604616  -0.0000214903
        0.0000540227   0.0000130464   0.0000402128  -0.0000151385   0.0000191290
       -0.0000212277   0.0000293403   0.0000078453   0.0000065769  -0.0000100360
        0.0000558837  -0.0000509437   0.0000184031  -0.0000083632   0.0002792569
       -0.0002281054   0.0001220503  -0.0003716978   0.0000958981   0.0000125680
        0.0000090692  -0.0000082472  -0.0000021818   0.0000014965   0.0000269482
       -0.0000017292  -0.0000075590  -0.0000224987   0.0000019503  -0.0000005553
        0.0000090299  -0.0000009707  -0.0000058365  -0.0000076856   0.0000162378
       -0.0000009924   0.0000106531  -0.0000429842   0.0000002125  -0.0000759824
        0.0001225478  -0.0000360065   0.0000660615   0.0128728639   0.0244515644
       -0.0214512377   0.0022512523   0.0024452047   0.0046109221  -0.0038116322
        0.0169049913  -0.0114937157   0.0285689564  -0.0033700925  -0.0397206489
       -0.0000739418   0.0002657933  -0.0003815437  -0.0009279198  -0.0004482520