$hessian                                                                        
        0.5045430512   0.0360695861   0.0216081487  -0.0928277729   0.0319151968
        0.0318980424   0.0015444715   0.0011457734   0.0013031221   0.0036635816
        0.0058595127  -0.0020074557   0.0008863017  -0.0002511807   0.0006905072
       -0.0001511075  -0.0001649982  -0.0000261787   0.0000726634   0.0001031516
       -0.0000861102   0.0002737214   0.0005798376  -0.0003324698  -0.0008172967
        0.0002394885  -0.0002740100   0.0004106913  -0.0006829143   0.0004591534
        0.0009907065   0.0001552203  -0.0007047144  -0.0009031118  -0.0020137244
       -0.0009667780  -0.0028368756  -0.0012716796   0.0005221350  -0.0006902947
       -0.0005087433   0.0003227404   0.0003329871  -0.0004048196  -0.0000092683
        0.0000140862   0.0003530994   0.0001641651   0.0002972411  -0.0001054306
       -0.0000644164  -0.0001118919   0.0000109032  -0.0001168809   0.0001269770
       -0.0000007921  -0.0003504172  -0.0001427315  -0.0000316872   0.0005019058
       -0.0009368224  -0.0001327161  -0.0006717070   0.0004273324   0.0002073699
        0.0003312333  -0.0012283334  -0.0003488763  -0.0013202131  -0.0003237074
        0.0012230955   0.0001342915   0.0007986196   0.0003274424   0.0001688640
       -0.0022454909   0.0002334460   0.0006759816  -0.0265037264   0.0161074773
        0.0111003595  -0.0036916519  -0.0008172498   0.0004702396  -0.2267863851
       -0.0904527602   0.0639331333  -0.1021043653  -0.0345556631  -0.0998424968
       -0.0509537665   0.0375060402  -0.0277656505   0.0006586412   0.0002418072
       -0.0003386425   0.0001786530   0.0001986526  -0.0004881901   0.0002671790
       -0.0002412581   0.0001371901   0.0000408759  -0.0000171473  -0.0000227170
        0.0000347639   0.0000084407   0.0001025486  -0.0000011953  -0.0000559892
       -0.0000250920  -0.0000279211  -0.0000122704   0.0001568961   0.0000570962
       -0.0000202271   0.0000006381  -0.0007457234  -0.0007021229   0.0000401816
        0.0000088566   0.0000327058  -0.0000397045  -0.0000089079   0.0000031958
        0.0000174597  -0.0000306112  -0.0000397024   0.0001259845  -0.0000163184
       -0.0000323659  -0.0000013056  -0.0000371195   0.0000432420  -0.0000626722
        0.0000198624   0.0000479181   0.0000913996  -0.0015252318   0.0002517155
        0.0005607700
        0.0360695861   0.4806772876  -0.0400588477   0.0355189804  -0.1013353280
       -0.0383457821   0.0021323123  -0.0018474866  -0.0029434590   0.0127004851
       -0.0294352738  -0.0076016752  -0.0032278719  -0.0015178245  -0.0009446642
       -0.0000284920  -0.0014672789   0.0010642825   0.0005079932   0.0002320749
       -0.0002579465   0.0004743727   0.0003850746   0.0003315762  -0.0005399594
        0.0000384936  -0.0001269750   0.0001414868  -0.0009454336   0.0006272363
        0.0013523462   0.0007143253  -0.0007654374  -0.0023061794  -0.0015275823
       -0.0015860737   0.0019376461  -0.0003001889   0.0001505494   0.0000311094
       -0.0007827643  -0.0000777483  -0.0004232429   0.0000880307  -0.0000128940
       -0.0003145667   0.0003217851   0.0000932712   0.0004471390  -0.0004194638
       -0.0000712950  -0.0003277875  -0.0002971143  -0.0002423654   0.0003094601
        0.0003311290   0.0000656242   0.0002800013   0.0003656519   0.0002067423
       -0.0014922449  -0.0002702251  -0.0003302245   0.0011442117   0.0002588852
        0.0002491952   0.0002182316  -0.0006785015   0.0001079965  -0.0001478613
        0.0008150203   0.0000091512   0.0011081506  -0.0000812710   0.0005217146
       -0.0023159524  -0.0014774330   0.0005858828   0.0062525786   0.0018009060
       -0.0001821165  -0.0009495964   0.0022002221  -0.0011966351  -0.0895572147
       -0.0843035379   0.0323148938  -0.0343551409  -0.0629428282  -0.0547298735
        0.0378192170  -0.1993287246   0.1120641561   0.0000275770   0.0003553725
       -0.0001370217  -0.0006304330   0.0006192164   0.0009965862   0.0001059787
        0.0001991876   0.0002911732  -0.0000535500  -0.0001658696   0.0002683949
        0.0000089090  -0.0000083906   0.0000011634  -0.0000192828  -0.0000237333
       -0.0000970612  -0.0000164922   0.0000213486   0.0000828749  -0.0000283554
       -0.0000139878  -0.0000197146  -0.0006380548  -0.0004380722  -0.0003504509
        0.0000272402   0.0000857842  -0.0000033240   0.0000005167   0.0000087021
        0.0000291542  -0.0000003279  -0.0000028895   0.0000424406  -0.0000085125
       -0.0000629946   0.0000250066  -0.0000603757   0.0000782505  -0.0000521732
        0.0000026641   0.0000020170  -0.0000375425  -0.0011766991   0.0000754327
        0.0000422347
        0.0216081487  -0.0400588477   0.4923541234   0.0284728032  -0.0314203897
       -0.0798181625   0.0157903086  -0.0168103130  -0.0209126751  -0.0024887213
        0.0010075101   0.0028094108   0.0001485186   0.0006341223  -0.0015251182
       -0.0000351946   0.0001549250   0.0000988756   0.0000428100  -0.0001334620
        0.0001426577  -0.0000763921  -0.0001190243   0.0001619456   0.0002866028
       -0.0001207172   0.0000350031  -0.0003858330   0.0002178382   0.0000272883
       -0.0001522603  -0.0004152086   0.0002023110  -0.0009678610   0.0000169112
       -0.0018618057   0.0003235680   0.0009229064   0.0004467400   0.0001748040
       -0.0002985187  -0.0000869016   0.0000785136   0.0002154615   0.0004251612
        0.0000925849  -0.0001626723   0.0000314559  -0.0000943646   0.0001681628
       -0.0000204099   0.0000879678   0.0000369283  -0.0000256538   0.0000777854
        0.0000562591  -0.0002580219  -0.0000087990  -0.0001866794   0.0002815325
        0.0001634637   0.0000391855  -0.0000594368  -0.0001756837  -0.0000711967
        0.0000204115  -0.0000807137   0.0000276225  -0.0001776749   0.0000696258
       -0.0000814744   0.0003871242  -0.0001069926  -0.0000909945   0.0001321987
       -0.0000950492  -0.0002665756   0.0000311722   0.0022574460   0.0006664901
        0.0007575490  -0.0007323439   0.0003705171  -0.0010055616   0.0643089505
        0.0327853537  -0.0634119852  -0.1011686829  -0.0555312325  -0.2044359551
       -0.0279520683   0.1120396658  -0.1204437956   0.0001119441  -0.0002035672
       -0.0059641014   0.0002957479  -0.0010680211   0.0010887103   0.0003519251
       -0.0002063442   0.0013550033  -0.0000712735   0.0000771877  -0.0000487551
        0.0000078099  -0.0000262210  -0.0000571743   0.0000319062   0.0000066278
        0.0000090988  -0.0000136817  -0.0000651314   0.0000297849   0.0000586250
       -0.0000661383  -0.0000208968  -0.0009743007  -0.0018988692  -0.0005672114
        0.0000204452   0.0000509919  -0.0000245385  -0.0000011136   0.0000149767
       -0.0000076532  -0.0000202113  -0.0000269922   0.0001024851   0.0000024660
       -0.0000385827  -0.0000098023   0.0000218802  -0.0000130610  -0.0000490941
        0.0000515830  -0.0000204600  -0.0001818860   0.0006633067  -0.0001089486
        0.0000442280
       -0.0928277729   0.0355189804   0.0284728032   0.4589937956   0.0187536376
       -0.0049369687  -0.0551143369  -0.0002726002  -0.0061147906  -0.0738043056
       -0.0307894599   0.0089787115   0.0063130448   0.0142235312  -0.0068988277
       -0.0029917699   0.0023051141  -0.0012176110   0.0001777557  -0.0002771068
        0.0002372982  -0.0051475798  -0.0017522034  -0.0002539596   0.0010737754
       -0.0013634859   0.0008973621  -0.0003525459   0.0007916074  -0.0004833377
       -0.0001751433  -0.0000292230   0.0000297899   0.0013552326   0.0004015591
        0.0006330928  -0.0053741649  -0.0226370091   0.0085193016   0.0006871084
       -0.0050168591   0.0008105582  -0.0012256723   0.0011644448   0.0005054706
        0.0001613582  -0.0004649669   0.0001047852  -0.0002151947   0.0000040640
       -0.0001522829   0.0001989423  -0.0000133280  -0.0000568106   0.0003860633
        0.0000815181  -0.0004158438   0.0007046710   0.0003070759   0.0007082263
       -0.0010338792  -0.0010512081  -0.0007753495   0.0001090164   0.0001554917
        0.0002773177  -0.0012145886   0.0030115083  -0.0017434219  -0.0005934047
        0.0001631530   0.0005804195   0.0025869586  -0.0015719610  -0.0000753082
       -0.0154237476  -0.0139665368  -0.0026184510  -0.1726016994  -0.0222098887
       -0.0274123012  -0.0250331467   0.0072031670  -0.0056720430  -0.0171567092
        0.0157420275   0.0139495592   0.0055428760  -0.0063873384  -0.0041288032
       -0.0038760049   0.0056938763   0.0031037301   0.0006138580  -0.0014814595
        0.0164136426   0.0004008621  -0.0010321634   0.0061494367  -0.0041635925
        0.0024013504  -0.0264536684   0.0000098070   0.0008654768  -0.0006344096
       -0.0000535534  -0.0000110026   0.0000422029  -0.0003486368  -0.0002048916
        0.0000894732  -0.0000410266   0.0000197771  -0.0000322423   0.0000388235
        0.0000684526  -0.0000115838  -0.0009857492   0.0002388014  -0.0006167925
        0.0000796238   0.0001312806  -0.0000862573   0.0000249722   0.0000464199
        0.0000045295  -0.0000569360  -0.0000053742   0.0001899913  -0.0000060731
       -0.0001465381  -0.0000044575   0.0001451995   0.0001728738   0.0000006167
       -0.0001397822   0.0000713006  -0.0002292785   0.0003532718   0.0011481153
        0.0003264816
        0.0319151968  -0.1013353280  -0.0314203897   0.0187536376   0.4596256258
       -0.0050475794  -0.0001708983  -0.0524778467   0.0048736953  -0.0260013984
       -0.1611172443   0.0338312097   0.0077115603  -0.0273942210   0.0113915043
        0.0036457811   0.0010190697  -0.0006446727  -0.0005597945  -0.0006959807
        0.0003883053  -0.0013883799   0.0031329990  -0.0004597545   0.0002727130
       -0.0005774696   0.0002869102  -0.0001531711   0.0013705083  -0.0007057714
       -0.0017263641  -0.0020424798   0.0007210270   0.0042529508  -0.0006248496
       -0.0000185292  -0.0145149106  -0.0126288968   0.0021806187  -0.0035377153
        0.0022386126  -0.0001682716   0.0011905222  -0.0003675250  -0.0005445378
        0.0001257845  -0.0003020848  -0.0003221624  -0.0002541342   0.0005199035
        0.0002186304   0.0000629563   0.0000856927   0.0002221299  -0.0007433107
       -0.0000596817   0.0003795723  -0.0009492244  -0.0011495211  -0.0008814094
        0.0039022742   0.0011679199   0.0009319259  -0.0020245431  -0.0005257791
       -0.0003711816   0.0028483480  -0.0014447373   0.0010859712  -0.0003389375
       -0.0011450601  -0.0009262330  -0.0016954477  -0.0044967674  -0.0001542299
       -0.0253716949  -0.0075011029  -0.0070070394  -0.0266616252  -0.0694124271
       -0.0053462641   0.0168777827   0.0025811014   0.0059324253  -0.0035810146
        0.0051172124   0.0044505535   0.0052074428  -0.0079145857  -0.0076981594
        0.0146636317  -0.0195619310  -0.0110588886  -0.0005642256   0.0014068962
       -0.0161700677   0.0011085010  -0.0059775230   0.0261394876  -0.0005671823
        0.0004617853  -0.0042935472  -0.0000757591  -0.0006023250   0.0001867096
        0.0000150099   0.0001573155   0.0000419818  -0.0000537521  -0.0000521874
       -0.0001280152   0.0000111264   0.0000683122   0.0000570956   0.0000781001
        0.0000448674   0.0000323251  -0.0000061888   0.0004823077   0.0002623468
        0.0000123209  -0.0002093833   0.0001332103   0.0000170248  -0.0000287041
       -0.0000213873   0.0000337223   0.0000224609  -0.0002024414   0.0000344354
        0.0001870365  -0.0000488293   0.0000096686  -0.0000495930  -0.0000823832
       -0.0015254129  -0.0004853985   0.0003398921  -0.0002854060   0.0004910070
       -0.0003657827
        0.0318980424  -0.0383457821  -0.0798181625  -0.0049369687  -0.0050475794
        0.3850307772  -0.0144119514   0.0161915986  -0.1509428901   0.0064687405
        0.0231409559  -0.0532185900  -0.0057200624   0.0163184270   0.0008122152
       -0.0027803658  -0.0007222469   0.0039142682   0.0008527215   0.0009409712
       -0.0012622260   0.0003504595   0.0000811196   0.0050183785  -0.0012162109
        0.0001970525   0.0001031209   0.0007492390  -0.0023035646   0.0014253675
        0.0030151321   0.0027939328  -0.0012171001  -0.0044359102  -0.0004144855
       -0.0029076570   0.0090670672   0.0009735956  -0.0000638268   0.0024345992
       -0.0010177011  -0.0029516910  -0.0019733906  -0.0006140225  -0.0022315748
       -0.0008317280   0.0004311419  -0.0002068065   0.0001648520  -0.0014449764
        0.0000120707  -0.0004529298  -0.0004800122  -0.0000143606   0.0002392108
       -0.0000081956   0.0018348829   0.0015419862   0.0025968299  -0.0012974970
       -0.0042924415  -0.0017827606  -0.0002061319   0.0029078361   0.0008760012
        0.0002948820  -0.0000875774   0.0000869061   0.0071562974   0.0002083129
        0.0013976776  -0.0015135524   0.0009299269  -0.0000373281   0.0055985962
       -0.0020137805  -0.0033883322  -0.0012896057  -0.0200933878  -0.0027263520
       -0.0528437517  -0.0075976069   0.0009801415   0.0029953994   0.0061046178
       -0.0048861986  -0.0038149979   0.0115682475  -0.0175748255  -0.0139524867
       -0.0050640571   0.0068106909   0.0052467942   0.0007825662   0.0000598146
       -0.0185142723  -0.0003463939   0.0049043281  -0.0138663825  -0.0035540164
        0.0015990580  -0.0140665986   0.0002101180   0.0002073579   0.0002360880
        0.0000246409  -0.0003706710  -0.0005711639  -0.0000509386  -0.0001421764
       -0.0002054394  -0.0000057431  -0.0000375770  -0.0000317060   0.0000115347
        0.0000554346   0.0000301694  -0.0003645323   0.0002432121   0.0004250009
       -0.0000047917  -0.0001614266   0.0000399125   0.0000339218   0.0000192483
        0.0000805666   0.0001051758   0.0002679771  -0.0005605143  -0.0000501022
        0.0000722487   0.0000972720   0.0000862273   0.0001658308  -0.0010495229
        0.0000047881   0.0000722524   0.0004379559   0.0005249224   0.0000224096
       -0.0021715068
        0.0015444715   0.0021323123   0.0157903086  -0.0551143369  -0.0001708983
       -0.0144119514   0.5256779176   0.0061672477   0.0037065114   0.0035415412
       -0.0004314248   0.0052407101  -0.0002731452  -0.0000100116   0.0007966412
       -0.0000619636  -0.0003010686   0.0000976128   0.0000811810  -0.0000240470
        0.0000222372   0.0004593312   0.0002278779  -0.0004290336  -0.0002944886
        0.0001719451   0.0000398601   0.0000710483  -0.0001350708  -0.0000217573
        0.0000177046   0.0001012382   0.0006021658   0.0000548690   0.0007642842
       -0.0002608161  -0.0013569205  -0.0007295478  -0.0007315614   0.0001457317
        0.0007205566  -0.0002245739   0.0003578914  -0.0008009126  -0.0004473475
       -0.0000347832   0.0001057171  -0.0000927211  -0.0000058144  -0.0000867008
        0.0000823480  -0.0000291597   0.0000251062   0.0000944397  -0.0001307688
       -0.0002146812   0.0003969779  -0.0001158164   0.0003148094  -0.0005178345
       -0.0009138267  -0.0003501576   0.0002520296   0.0004493012   0.0003108701
       -0.0001431728  -0.0007541867  -0.0006767105   0.0014407779  -0.0003282255
        0.0016272081  -0.0004392235   0.0009458494  -0.0002828646   0.0007946943
       -0.0011763654   0.0003775273  -0.0004628310  -0.0119635502   0.0012783750
       -0.0260043697  -0.0029070445  -0.0013122224  -0.0009134115  -0.0004134706
       -0.0001545908   0.0003707301  -0.0012284322   0.0013193024   0.0019799184
        0.0010608833  -0.0006215919   0.0003051101  -0.1395059182   0.0940909737
        0.0692014118  -0.0581357528  -0.0559683058   0.0150798757  -0.2577319128
       -0.0461945469  -0.0720590486   0.0000000925  -0.0000192524  -0.0000179590
        0.0000347401  -0.0000379994  -0.0000261235   0.0000273189   0.0000458575
        0.0001148981   0.0000066483  -0.0001394085  -0.0001020438   0.0000307789
       -0.0000192345   0.0000403826  -0.0019878060  -0.0012710264   0.0015254008
        0.0000265199  -0.0000287740   0.0000473639   0.0000059323   0.0000118931
        0.0000209189   0.0000284497   0.0000752018  -0.0001664295  -0.0000039911
        0.0000652505   0.0000007884  -0.0000403069   0.0000004371  -0.0000415532
       -0.0000062660  -0.0000055206  -0.0000760884  -0.0000539491   0.0000525782
       -0.0004542620
        0.0011457734  -0.0018474866  -0.0168103130  -0.0002726002  -0.0524778467
        0.0161915986   0.0061672477   0.5174695912   0.0131180395   0.0011781269
       -0.0124194700   0.0246815261  -0.0012175885  -0.0021122415   0.0003398004
        0.0000811931  -0.0007571600   0.0000005970   0.0003069126  -0.0000319148
        0.0000825149   0.0000721626  -0.0003613040  -0.0009826249   0.0001744941
        0.0000582404   0.0000469156  -0.0001286705   0.0000293494  -0.0000846785
        0.0000922600   0.0002053526   0.0002947358  -0.0003526399   0.0001541449
        0.0006444046   0.0004543702   0.0000700808  -0.0000344919  -0.0003167605
       -0.0002391006  -0.0000575337   0.0002565083  -0.0004563966   0.0000911075
       -0.0000682086   0.0004655028   0.0000668869   0.0002567062  -0.0001409113
       -0.0000311493  -0.0001269612   0.0000036224  -0.0000725524   0.0001430004
       -0.0000936486  -0.0001117254  -0.0001208326   0.0002846962   0.0001809727
       -0.0009151519  -0.0003717300  -0.0002083359   0.0007721364   0.0002178104
        0.0001515233  -0.0001383112  -0.0004367408   0.0001544680  -0.0002636141
        0.0006331289   0.0001509111   0.0007743544  -0.0001205421   0.0002073881
       -0.0009723804  -0.0008403339   0.0004804831   0.0005785444   0.0024926898
       -0.0032107918  -0.0006280784   0.0008614708  -0.0009902536   0.0002019339
       -0.0002442279  -0.0006199745   0.0014625985  -0.0017086164  -0.0025181478
       -0.0000512184   0.0010911625  -0.0014705114   0.0945767163  -0.1379624705
       -0.0681684810  -0.0565976696  -0.2579795774   0.0547070838  -0.0458229414
       -0.0528502843  -0.0160783785  -0.0000736244  -0.0001320000   0.0000652063
       -0.0000031858  -0.0000076347   0.0000174345  -0.0000074505   0.0000652925
        0.0001357036   0.0000015127  -0.0000364232  -0.0000813392  -0.0000342760
       -0.0000243250  -0.0000116445  -0.0004813826  -0.0003104916   0.0001539361
        0.0000144929  -0.0000004761   0.0000178943   0.0000023476  -0.0000326729
        0.0000193321   0.0000215924  -0.0000303529   0.0000417866   0.0000225646
       -0.0000276213   0.0000132074  -0.0000084042   0.0000214911  -0.0000386596
        0.0000304350   0.0000048418  -0.0001661736  -0.0001860337  -0.0000744667
       -0.0003076976
        0.0013031221  -0.0029434590  -0.0209126751  -0.0061147906   0.0048736953
       -0.1509428901   0.0037065114   0.0131180395   0.4144004807   0.0028140222
        0.0163380723  -0.0141704770   0.0017031145  -0.0016809759  -0.0009308231
        0.0006561159   0.0011848581  -0.0000303332  -0.0003730520  -0.0000635073
        0.0001060999  -0.0000194375   0.0012514212   0.0000143707  -0.0001461510
        0.0000916430  -0.0001106281   0.0002758867   0.0005558005  -0.0002669128
       -0.0007065420  -0.0003768271   0.0000833431   0.0025781485  -0.0011197560
       -0.0001738953  -0.0034317757  -0.0007762546   0.0000048848  -0.0001412776
        0.0010793733  -0.0002773960   0.0009180527  -0.0003889398   0.0004102160
        0.0002210852  -0.0001237404  -0.0000799513  -0.0001829970   0.0004126483
        0.0000574153   0.0001625421   0.0002105351   0.0001471471  -0.0002638729
       -0.0002006991  -0.0002074174  -0.0004781827  -0.0006070659  -0.0000741589
        0.0011717428   0.0004431639   0.0003914342  -0.0009638599  -0.0001749103
       -0.0002015389  -0.0007358715  -0.0000896482   0.0003225761  -0.0000304335
       -0.0001683273  -0.0000359956  -0.0011584822   0.0001090702   0.0002546233
        0.0013190303   0.0022659897  -0.0001311066  -0.0167002112  -0.0018965402
       -0.0163256748   0.0010286980  -0.0023668101  -0.0007045007   0.0002423069
       -0.0003659156  -0.0007265451   0.0018041267  -0.0013674851  -0.0021090962
       -0.0011707836   0.0017247720   0.0008521606   0.0689650576  -0.0682100774
       -0.0914598498   0.0147359223   0.0544754059  -0.0542292380  -0.0713310675
       -0.0160258292  -0.0622479584   0.0000020075   0.0000269282  -0.0000092256
       -0.0000046322  -0.0000736476  -0.0000639914  -0.0000041846  -0.0000348401
        0.0000112150  -0.0000113404   0.0000329592  -0.0000116452  -0.0000500559
        0.0000227942  -0.0000173868   0.0003031588   0.0006177040  -0.0004142018
       -0.0000165139  -0.0000518853   0.0000282095   0.0000011860  -0.0000015532
       -0.0000292773   0.0000014892  -0.0000237697   0.0000260703   0.0000156343
        0.0000541402  -0.0000274422   0.0000352627  -0.0000299616  -0.0000126712
       -0.0000005379   0.0000433447  -0.0000511601   0.0000718290   0.0002300673
       -0.0001241827
        0.0036635816   0.0127004851  -0.0024887213  -0.0738043056  -0.0260013984
        0.0064687405   0.0035415412   0.0011781269   0.0028140222   0.5447745874
        0.0166507232   0.0172415613  -0.1254684509   0.0548958852  -0.0122679467
        0.0193580840   0.0296274034  -0.0136463779  -0.0146594481  -0.0025272357
        0.0015599506  -0.0265429182  -0.0462972499   0.0143676867   0.0262283869
       -0.0060008134   0.0058479795  -0.0153586604   0.0073243395  -0.0051596854
        0.0030826795   0.0075379324  -0.0029617655  -0.0625240161   0.0139043425
       -0.0109904059  -0.2029785286  -0.0533651558  -0.0026003473  -0.0638337747
        0.0138335091  -0.0020686292   0.0014889875   0.0020765309   0.0027259761
        0.0048295438  -0.0096720062  -0.0026643274  -0.0068937875   0.0076093381
        0.0013514907   0.0043375917   0.0022297991   0.0022452074  -0.0048553491
       -0.0006643381  -0.0014792399  -0.0043866569  -0.0091938760  -0.0018165482
        0.0305181738   0.0046365928   0.0071540791  -0.0221689982  -0.0041368296
       -0.0050888740  -0.0078003009   0.0097794631  -0.0001885594  -0.0046149543
       -0.0016504941  -0.0019112851   0.0052111189  -0.0020047194   0.0003370618
       -0.0077974402  -0.0117298111  -0.0015549064  -0.0099343670  -0.0145364566
        0.0058540756   0.0094345808   0.0003124942  -0.0005650621  -0.0005334794
        0.0016345747  -0.0004248172  -0.0005178553   0.0006077002   0.0004510143
       -0.0016404328   0.0029003359   0.0012479445  -0.0000324186  -0.0003955284
        0.0001946463   0.0001884636   0.0003302379  -0.0012419730  -0.0000105746
        0.0006847406  -0.0002785444   0.0003930738  -0.0023300460   0.0006612225
       -0.0004123460   0.0005244344   0.0002856030  -0.0000255103   0.0001649998
        0.0000584675   0.0000645301   0.0000635466  -0.0000781130  -0.0009313484
       -0.0004716544  -0.0002856006   0.0010211758  -0.0011868262  -0.0000497719
        0.0001041423   0.0001899268   0.0001690571   0.0000880217   0.0001040482
       -0.0004214104  -0.0001065839   0.0000053081  -0.0001584907   0.0000315447
        0.0007084246  -0.0004553470   0.0002460874  -0.0002612432  -0.0004689906
       -0.0005678017  -0.0000954286   0.0003539320  -0.0002055889   0.0003058677
       -0.0000739781
        0.0058595127  -0.0294352738   0.0010075101  -0.0307894599  -0.1611172443
        0.0231409559  -0.0004314248  -0.0124194700   0.0163380723   0.0166507232
        0.4912146887  -0.1136445650   0.0729487932  -0.1392517673   0.0297216547
        0.0065326332  -0.0414536807   0.0177461869   0.0043347288   0.0073683004
       -0.0062809028  -0.0178112456  -0.0191515363   0.0066721855  -0.0109814911
       -0.0017361332   0.0020574983   0.0049938762  -0.0106588167   0.0062215363
        0.0130468033   0.0086202927  -0.0007162661  -0.0014458427   0.0084662631
       -0.0029596354  -0.0677099015  -0.0948541115   0.0173285619   0.0199825930
        0.0124463005  -0.0010838899  -0.0066025411  -0.0029126659  -0.0005709795
       -0.0026111499   0.0057907749   0.0015710608   0.0036327126  -0.0052073940
       -0.0013469192  -0.0022332933  -0.0011239684  -0.0014466007   0.0038657823
        0.0000810590   0.0005073847   0.0037051382   0.0094329340   0.0029455894
       -0.0245656175  -0.0049934051  -0.0061845318   0.0183005194   0.0033200880
        0.0042128788   0.0062752363  -0.0068261257  -0.0002062111   0.0046265918
       -0.0002686431   0.0021786463  -0.0051479580   0.0005657618  -0.0013319982
        0.0017145925   0.0081500902   0.0017645402  -0.0136956819  -0.0166430676
        0.0009204021  -0.0026612141  -0.0007656919  -0.0007632373  -0.0006695111
        0.0001159188   0.0010391496  -0.0002665813  -0.0000786722   0.0001027153
        0.0010908530  -0.0032513540  -0.0015371537  -0.0001663639   0.0005585715
       -0.0010556189   0.0000818592  -0.0002110064   0.0009738120   0.0005227651
        0.0004565100  -0.0007396698  -0.0013927156  -0.0026618483   0.0043592099
        0.0000206427   0.0001542353  -0.0005789977  -0.0012925451  -0.0006597091
        0.0001160420   0.0002248490  -0.0002971382  -0.0004339172   0.0011331156
        0.0001430433  -0.0000110579   0.0008334827  -0.0003324012  -0.0010008824
       -0.0000029774  -0.0001376821  -0.0000945175  -0.0000718479   0.0000198125
        0.0003217332   0.0000139771   0.0000497349   0.0003027442  -0.0001046777
       -0.0006116045   0.0003333256  -0.0001288329   0.0003645579   0.0004437048
        0.0003003014  -0.0000274386  -0.0006093653   0.0000907916  -0.0002310874
        0.0002698167
       -0.0020074557  -0.0076016752   0.0028094108   0.0089787115   0.0338312097
       -0.0532185900   0.0052407101   0.0246815261  -0.0141704770   0.0172415613
       -0.1136445650   0.1710639550  -0.0321863962   0.0293751327  -0.0508579927
        0.0007577383   0.0213069512  -0.0077795844  -0.0054767715  -0.0019289249
       -0.0008459993   0.0098187614   0.0048325134  -0.0009872289   0.0020630544
        0.0034162305   0.0033920353  -0.0013831805   0.0024214635  -0.0017751827
       -0.0041840731   0.0012360780   0.0038361458  -0.0079027394  -0.0035414815
        0.0011051927   0.0040162547   0.0121441708  -0.0512840735   0.0021390883
       -0.0041667816   0.0003046628   0.0038926084   0.0015934299   0.0036856975
        0.0009889843  -0.0012785907  -0.0003823603  -0.0007412281   0.0018304978
        0.0000841432   0.0005735982   0.0002695206   0.0002603976  -0.0004939157
        0.0003357790  -0.0008123638  -0.0010929820  -0.0035025898  -0.0000755156
        0.0061797094   0.0013138353   0.0013488050  -0.0045571945  -0.0008603991
       -0.0009273530  -0.0015461855   0.0015654321  -0.0006827972  -0.0009577594
       -0.0004024294   0.0000977219   0.0002996830  -0.0003283910   0.0005532950
       -0.0017020059  -0.0014724352   0.0002233281   0.0002406292  -0.0030545566
        0.0008192716   0.0011657717  -0.0002158760  -0.0015799221  -0.0003251788
       -0.0008119472   0.0004747745   0.0004824005  -0.0008041026  -0.0005098984
        0.0005027687  -0.0014586711  -0.0006268382   0.0002010077   0.0006275219
        0.0001914925  -0.0000590614   0.0018784311  -0.0051755071   0.0000137546
        0.0001997597   0.0009319658  -0.0000441598   0.0036603579   0.0026906310
       -0.0000862584  -0.0002468145   0.0001137882   0.0004832599   0.0003338625
        0.0001298638   0.0000618700  -0.0004788620  -0.0009519262  -0.0006723318
       -0.0000813485   0.0001124428   0.0000846849  -0.0009623170  -0.0012271893
       -0.0000903650   0.0000333309   0.0001711189  -0.0000080390   0.0000184227
       -0.0001417815  -0.0000659500  -0.0001304790   0.0002568858   0.0001143240
        0.0000499298  -0.0001455293   0.0000840769  -0.0001027679  -0.0001895889
       -0.0001376596  -0.0000713373  -0.0001597263   0.0000958800   0.0001919563
       -0.0001495999
        0.0008863017  -0.0032278719   0.0001485186   0.0063130448   0.0077115603
       -0.0057200624  -0.0002731452  -0.0012175885   0.0017031145  -0.1254684509
        0.0729487932  -0.0321863962   0.5588418619   0.0173632448  -0.0469537710
       -0.0705482444  -0.0369091171   0.0246653664  -0.0297336538  -0.0223790359
        0.0116310076   0.0237602419   0.0055283616   0.0019327598  -0.0224494033
        0.0028215872  -0.0041308177   0.0102700961  -0.0106552716   0.0066770226
        0.0039249019   0.0043812636  -0.0030614893  -0.0007634187  -0.0070542871
        0.0032529932  -0.0608358978   0.0051188536  -0.0005838126  -0.2320647810
       -0.0315751878   0.0387682912  -0.0412512074   0.0072932359   0.0012615018
       -0.0060393859   0.0067387771   0.0019316203   0.0103244786  -0.0085845595
       -0.0010344958  -0.0072319717  -0.0057946567  -0.0044485182   0.0041419680
        0.0050086280   0.0024349590   0.0027520549   0.0096744012   0.0025153582
       -0.0291588476  -0.0045893513  -0.0065199075   0.0205935119   0.0038353085
        0.0044779589   0.0092630812  -0.0051418852   0.0003971687   0.0077052172
       -0.0039591691   0.0024315360  -0.0105911929   0.0036174846  -0.0019814969
        0.0055638428   0.0126006536   0.0009522257  -0.0050978546  -0.0082173489
        0.0000831541  -0.0216537601  -0.0306068074   0.0092569912  -0.0001749304
        0.0000374138   0.0003213235  -0.0000558659   0.0003075782   0.0000207240
        0.0001490114  -0.0004657626   0.0000389391   0.0001225109  -0.0000909728
        0.0002852777  -0.0000580416  -0.0002917081   0.0002137115  -0.0001762356
        0.0000727440  -0.0002983637   0.0023841736   0.0179040413  -0.0108953829
       -0.0046989179  -0.0023994235   0.0002375977   0.0000741898   0.0000735442
       -0.0002235122   0.0001398307   0.0000088363   0.0002052871  -0.0002491281
       -0.0000121696   0.0000174849   0.0000847961   0.0000879279   0.0002409731
        0.0008829410   0.0003558262   0.0003164311   0.0000554435  -0.0002889699
        0.0004286950   0.0001511356   0.0000365111   0.0003127297  -0.0001257724
       -0.0006886954   0.0004590222  -0.0002217412   0.0006447482   0.0007312180
        0.0002717276  -0.0000756201  -0.0003835420   0.0002654851   0.0000541354
        0.0000706058
       -0.0002511807  -0.0015178245   0.0006341223   0.0142235312  -0.0273942210
        0.0163184270  -0.0000100116  -0.0021122415  -0.0016809759   0.0548958852