106
 energy: -158.497448942797 gnorm: 0.000102332595 xtb: 6.7.1 (edcfbbe)
C            0.46936600624430        1.89405242577989        4.41907700615551
C           -0.24392551194518        0.79245459789726        4.86046861266217
C           -1.32864698396511        0.33052460999611        4.13911661583803
C           -1.72294489324115        0.96755100126784        2.96567339109147
C           -2.82672858933987        0.44955318532260        2.14428229345299
C           -3.67971990181704        1.31070569028587        1.46234455953672
C           -4.65848496416264        0.81776504172341        0.60823383492299
C           -5.54850475132544        1.73788007477312       -0.11556441320340
C           -5.03749632729085        2.89069663688283       -0.70677505472620
C           -5.86801768456769        3.75317299139405       -1.39756123254066
C           -7.22169366953698        3.48048632341627       -1.50434228323153
C           -7.73955099924242        2.33650693184784       -0.92056603221249
C           -6.90915187232814        1.46926440784064       -0.23502894345255
C           -4.74316312054863       -0.55379623591695        0.39388882081310
C           -3.87468366873248       -1.42806116009623        1.03608520267982
C           -3.84232010874164       -2.84690580583487        0.63208721580816
C           -5.01670585388871       -3.58507144009642        0.55106154042700
C           -5.00459861183617       -4.90258041541762        0.12918836404714
C           -3.80804065933652       -5.50030887353145       -0.22730995270038
C           -2.63018299033415       -4.77920798724645       -0.15068696888257
C           -2.62698318622634       -3.45444686896238        0.26968135145865
C           -1.35680333298733       -2.71856117329489        0.40771718465178
C           -0.37775735890924       -3.23686428001458        1.25075370340565
C            0.72472756352980       -2.48978326263469        1.61164693217324
C            0.87070531193574       -1.17625265880446        1.16243931520563
C            1.91348990960257       -0.32706522149008        1.62702714686452
C            2.04826175691123        0.93494195224746        1.16161739997024
C            1.16720467721913        1.45411625553971        0.16884080800286
C            1.35897992083528        2.71811121753072       -0.41704236569911
C            2.62844818530225        3.45482274914344       -0.27679408791308
C            2.62968248893437        4.78035140369784        0.14123811393065
C            3.80691843112759        5.50221148305174        0.22014014865412
C            5.00495585179494        4.90441035634288       -0.13126450552601
C            5.01908693527168        3.58612226329631       -0.55067818236361
C            3.84526426712282        2.84743780779742       -0.63437857980601
C            3.87876702010167        1.42810049015478       -1.03656349272882
C            2.97059225325106        0.92113917297761       -1.95915308742695
C            2.83428429917978       -0.44909191892399       -2.14847550806712
C            1.73449085212704       -0.96629640179641       -2.97564646123451
C            1.00991198159009       -2.07690211629213       -2.54869227678921
C           -0.07525370321504       -2.53207131324496       -3.27280795820591
C           -0.45101190120111       -1.89057299785319       -4.44043392070151
C            0.26866271210016       -0.79264534887612       -4.88069754044136
C            1.34993645778448       -0.33166461338840       -4.15360129600515
C            3.68134037349411       -1.31078684220267       -1.45989363822354
C            4.65541639715006       -0.81845859134016       -0.60008646445117
C            5.53642258987344       -1.73948868019060        0.13350741733553
C            5.01571633358402       -2.88823887742298        0.72423530335044
C            5.83663167578621       -3.75132584583051        1.42562580252139
C            7.19033360614431       -3.48339582744485        1.54357310514309
C            7.71781905214524       -2.34363092446564        0.96016514611315
C            6.89695455236694       -1.47565828740076        0.26410177073725
C            4.74194996659280        0.55333369844318       -0.38794681868650
C            0.38108191946657        3.23559067562843       -1.26184736022751
C           -0.72176244120143        2.48880839244129       -1.62238852020437
C           -0.86886882520273        1.17596423756436       -1.17170314643416
C           -1.91295460304921        0.32741246095106       -1.63467360150722
C           -2.04823245450371       -0.93430698743033       -1.16866145243043
C           -1.16578416574858       -1.45417343184735       -0.17746701827429
C           -0.07073999744056       -0.66057058270813        0.23925070548164
C            0.07246589138280        0.66036869727501       -0.24834653072421
C           -2.96217632005616       -0.92068960037215        1.95421095702756
C           -1.00442153532945        2.08162614241626        2.53742941684559
C            0.08395014818870        2.53799742583223        3.25594162581715
H            1.32215294619137        2.24852849994621        4.97913092251158
H            0.04823350321627        0.28951872500337        5.77116762755683
H           -1.88630207769873       -0.52320179639792        4.49629928596414
H           -3.60004569712827        2.37633382111249        1.61904680534476
H           -3.97872763761711        3.09602007882806       -0.63832852694959
H           -5.45887083203330        4.64192490917282       -1.85638189231260
H           -7.87058073807240        4.15665310062971       -2.04133326834149
H           -8.79533624611615        2.12067965102361       -0.99936166120454
H           -7.31835362617400        0.58390904744303        0.23014344900456
H           -5.44669614926051       -0.93661528805997       -0.33175189573723
H           -5.94835157473831       -3.12030816904590        0.84099623071483
H           -5.92740373744096       -5.46153557641221        0.07850211139788
H           -3.79170409174746       -6.52706597228669       -0.56226567699730
H           -1.69458553053796       -5.24062415667908       -0.43445658175545
H           -0.51852161501595       -4.22411687247048        1.66943391922316
H            1.46107812048348       -2.90154738545677        2.28768007891973
H            2.59315436590139       -0.71379422495034        2.37324945877521
H            2.82617312058939        1.57835050371212        1.54492082195950
H            1.69298841236839        5.24177689918595        0.42135584869026
H            3.78896861438837        6.52963082281448        0.55298493200658
H            5.92729078643515        5.46395940511289       -0.07862963683277
H            5.95187889780778        3.12111548769058       -0.83652002064478
H            2.31828702139864        1.59667790448149       -2.49114101271019
H            1.28215758473124       -2.56858550034349       -1.62638646296165
H           -0.63490390388394       -3.38650205920491       -2.92037217489462
H           -1.30113488760405       -2.24419315959323       -5.00506312261883
H           -0.01580020073899       -0.29194160844744       -5.79506829309466
H            1.91259561836613        0.51929288515949       -4.50959304220593
H            3.60024829956801       -2.37651184965045       -1.61521677624560
H            3.95681861573523       -3.08970725518015        0.64699174108141
H            5.41992617073719       -4.63674871614297        1.88409055915991
H            7.83173471455133       -4.15999727363843        2.08894873956121
H            8.77368504094116       -2.13158941451309        1.04766377051503
H            7.31369292998767       -0.59347837343084       -0.20042250863062
H            5.44187272792355        0.93609481484242        0.34121805095100
H            0.52254123362827        4.22226175638814       -1.68166134197795
H           -1.45749983359525        2.90039002083163       -2.29919072681738
H           -2.59346749487098        0.71461597248414       -2.37987854719413
H           -2.82778556081389       -1.57691415625402       -1.55001824608712
H           -2.30620020044546       -1.59581535264213        2.48212732116809
H           -1.28400372697333        2.57522744347521        1.61834230563543
H            0.63848765136142        3.39544160493980        2.90274625591035
