      -----------------------------------------------------------      
     |                   =====================                   |     
     |                           x T B                           |     
     |                   =====================                   |     
     |                         S. Grimme                         |     
     |          Mulliken Center for Theoretical Chemistry        |     
     |                    University of Bonn                     |     
      -----------------------------------------------------------      

   * xtb version 6.7.1 (edcfbbe) compiled by 'albert@albert-system' on 2024-07-22

   xtb is free software: you can redistribute it and/or modify it under
   the terms of the GNU Lesser General Public License as published by
   the Free Software Foundation, either version 3 of the License, or
   (at your option) any later version.
   
   xtb is distributed in the hope that it will be useful,
   but WITHOUT ANY WARRANTY; without even the implied warranty of
   MERCHANTABILITY or FITNESS FOR A PARTICULAR PURPOSE.  See the
   GNU Lesser General Public License for more details.
   
   Cite this work as:
   * C. Bannwarth, E. Caldeweyher, S. Ehlert, A. Hansen, P. Pracht,
     J. Seibert, S. Spicher, S. Grimme, WIREs Comput. Mol. Sci., 2020, 11,
     e01493. DOI: 10.1002/wcms.1493
   
   for GFN2-xTB:
   * C. Bannwarth, S. Ehlert and S. Grimme., J. Chem. Theory Comput., 2019,
     15, 1652-1671. DOI: 10.1021/acs.jctc.8b01176
   for GFN1-xTB:
   * S. Grimme, C. Bannwarth, P. Shushkov, J. Chem. Theory Comput., 2017,
     13, 1989-2009. DOI: 10.1021/acs.jctc.7b00118
   for GFN0-xTB:
   * P. Pracht, E. Caldeweyher, S. Ehlert, S. Grimme, ChemRxiv, 2019, preprint.
     DOI: 10.26434/chemrxiv.8326202.v1
   for GFN-FF:
   * S. Spicher and S. Grimme, Angew. Chem. Int. Ed., 2020, 59, 15665-15673.
     DOI: 10.1002/anie.202004239
   
   for ALPB and GBSA implicit solvation:
   * S. Ehlert, M. Stahn, S. Spicher, S. Grimme, J. Chem. Theory Comput.,
     2021, 17, 4250-4261. DOI: 10.1021/acs.jctc.1c00471
   
   for ddCOSMO and CPCM-X implicit solvation:
   * M. Stahn, S. Ehlert, S. Grimme, J. Phys. Chem. A,
     2023, XX, XXXX-XXXX. DOI: 10.1021/acs.jpca.3c04382
   
   for DFT-D4:
   * E. Caldeweyher, C. Bannwarth and S. Grimme, J. Chem. Phys., 2017,
     147, 034112. DOI: 10.1063/1.4993215
   * E. Caldeweyher, S. Ehlert, A. Hansen, H. Neugebauer, S. Spicher,
     C. Bannwarth and S. Grimme, J. Chem. Phys., 2019, 150, 154122.
     DOI: 10.1063/1.5090222
   * E. Caldeweyher, J.-M. Mewes, S. Ehlert and S. Grimme, Phys. Chem. Chem. Phys.
     2020, 22, 8499-8512. DOI: 10.1039/D0CP00502A
   
   for sTDA-xTB:
   * S. Grimme and C. Bannwarth, J. Chem. Phys., 2016, 145, 054103.
     DOI: 10.1063/1.4959605
   
   in the mass-spec context:
   * V. Asgeirsson, C. Bauer and S. Grimme, Chem. Sci., 2017, 8, 4879.
     DOI: 10.1039/c7sc00601b
   * J. Koopman and S. Grimme, ACS Omega 2019, 4, 12, 15120-15133.
     DOI: 10.1021/acsomega.9b02011
   
   for metadynamics refer to:
   * S. Grimme, J. Chem. Theory Comput., 2019, 155, 2847-2862
     DOI: 10.1021/acs.jctc.9b00143
   
   for SPH calculations refer to:
   * S. Spicher and S. Grimme, J. Chem. Theory Comput., 2021, 17, 1701-1714
     DOI: 10.1021/acs.jctc.0c01306
   
   for ONIOM refer to:
   * C. Plett, A. Katbashev, S. Ehlert, S. Grimme, M. Bursch,
     Phys. Chem. Chem. Phys., 2023, 25, 17860-17868. DOI: 10.1039/D3CP02178E
   
   for DIPRO refer to:
   * J. Kohn, N. Gildemeister, S. Grimme, D. Fazzi, A. Hansen,
     J. Chem. Phys., 2023, just accepted.
   
   for PTB refer to:
   * S. Grimme, M. Mueller, A. Hansen, J. Chem. Phys., 2023, 158, 124111.
     DOI: 10.1063/5.0137838
   
   with help from (in alphabetical order)
   P. Atkinson, C. Bannwarth, F. Bohle, G. Brandenburg, E. Caldeweyher
   M. Checinski, S. Dohm, S. Ehlert, S. Ehrlich, I. Gerasimov, C. Hölzer
   A. Katbashev, J. Kohn, J. Koopman, C. Lavigne, S. Lehtola, F. März, M. Müller,
   F. Musil, H. Neugebauer, J. Pisarek, C. Plett, P. Pracht, F. Pultar,
   J. Seibert, P. Shushkov, S. Spicher, M. Stahn, M. Steiner, T. Strunk,
   J. Stückrath, T. Rose, and J. Unsleber
   
 * started run on 2025/09/10 at 10:58:12.213     
   ID    Z sym.   atoms
    1    6 C      1-64
    2    1 H      65-106

           -------------------------------------------------
          |                Calculation Setup                |
           -------------------------------------------------

          program call               : xtb data2507/gas/DPPP/DPPP_gas_S0_crest.xyz --gfn 2 --ohess vtight --parallel 40 --molden --ceasefiles --namespace data2507/gas/DPPP/DPPP_gas_S0_finalOpt
          calculation namespace      : data2507/gas/DPPP/DPPP_gas_S0_finalOpt
          coordinate file            : data2507/gas/DPPP/DPPP_gas_S0_crest.xyz
          omp threads                :                    40


           -------------------------------------------------
          |                 G F N 2 - x T B                 |
           -------------------------------------------------

        Reference                      10.1021/acs.jctc.8b01176
      * Hamiltonian:
        H0-scaling (s, p, d)           1.850000    2.230000    2.230000
        zeta-weighting                 0.500000
      * Dispersion:
        s8                             2.700000
        a1                             0.520000
        a2                             5.000000
        s9                             5.000000
      * Repulsion:
        kExp                           1.500000    1.000000
        rExp                           1.000000
      * Coulomb:
        alpha                          2.000000
        third order                    shell-resolved
        anisotropic                    true
        a3                             3.000000
        a5                             4.000000
        cn-shift                       1.200000
        cn-exp                         4.000000
        max-rad                        5.000000


          ...................................................
          :                      SETUP                      :
          :.................................................:
          :  # basis functions                 298          :
          :  # atomic orbitals                 298          :
          :  # shells                          170          :
          :  # electrons                       298          :
          :  max. iterations                   250          :
          :  Hamiltonian                  GFN2-xTB          :
          :  restarted?                      false          :
          :  GBSA solvation                  false          :
          :  PC potential                    false          :
          :  electronic temp.          300.0000000     K    :
          :  accuracy                    1.0000000          :
          :  -> integral cutoff          0.2500000E+02      :
          :  -> integral neglect         0.1000000E-07      :
          :  -> SCF convergence          0.1000000E-05 Eh   :
          :  -> wf. convergence          0.1000000E-03 e    :
          :  Broyden damping             0.4000000          :
          :  net charge                          0          :
          :  unpaired electrons                  0          :
          ...................................................

 iter      E             dE          RMSdq      gap      omega  full diag
   1   -161.5773890 -0.161577E+03  0.409E+00    2.15       0.0  T
   2   -161.6458712 -0.684822E-01  0.241E+00    2.13       1.0  T
   3   -161.6184373  0.274339E-01  0.630E-01    2.13       1.0  T
   4   -161.6474450 -0.290077E-01  0.263E-01    2.12       1.0  T
   5   -161.6558058 -0.836081E-02  0.671E-02    2.12       1.0  T
   6   -161.6562735 -0.467653E-03  0.267E-02    2.12       1.0  T
   7   -161.6562832 -0.975659E-05  0.132E-02    2.12       1.0  T
   8   -161.6562916 -0.835368E-05  0.427E-03    2.12       2.3  T
   9   -161.6562938 -0.222356E-05  0.109E-03    2.12       9.0  T
  10   -161.6562939 -0.112047E-06  0.510E-04    2.12      19.0  T
  11   -161.6562939 -0.137963E-07  0.244E-04    2.12      39.7  T

   *** convergence criteria satisfied after 11 iterations ***

         #    Occupation            Energy/Eh            Energy/eV
      -------------------------------------------------------------
         1        2.0000           -0.6521337             -17.7455
       ...           ...                  ...                  ...
       143        2.0000           -0.3921925             -10.6721
       144        2.0000           -0.3866651             -10.5217
       145        2.0000           -0.3800925             -10.3428
       146        2.0000           -0.3787691             -10.3068
       147        2.0000           -0.3786235             -10.3029
       148        2.0000           -0.3762621             -10.2386
       149        2.0000           -0.3545167              -9.6469 (HOMO)
       150                         -0.2765141              -7.5243 (LUMO)
       151                         -0.2470948              -6.7238
       152                         -0.2457567              -6.6874
       153                         -0.2447216              -6.6592
       154                         -0.2442892              -6.6474
       ...                                ...                  ...
       298                          0.7372356              20.0612
      -------------------------------------------------------------
                  HL-Gap            0.0780026 Eh            2.1226 eV
             Fermi-level           -0.3155154 Eh           -8.5856 eV

 SCC (total)                   0 d,  0 h,  0 min,  0.251 sec
 SCC setup                      ...        0 min,  0.001 sec (  0.369%)
 Dispersion                     ...        0 min,  0.006 sec (  2.458%)
 classical contributions        ...        0 min,  0.000 sec (  0.066%)
 integral evaluation            ...        0 min,  0.015 sec (  5.868%)
 iterations                     ...        0 min,  0.206 sec ( 82.100%)
 molecular gradient             ...        0 min,  0.021 sec (  8.467%)
 printout                       ...        0 min,  0.002 sec (  0.627%)

         :::::::::::::::::::::::::::::::::::::::::::::::::::::
         ::                     SUMMARY                     ::
         :::::::::::::::::::::::::::::::::::::::::::::::::::::
         :: total energy            -158.497429769393 Eh    ::
         :: gradient norm              0.000322015849 Eh/a0 ::
         :: HOMO-LUMO gap              2.122558811602 eV    ::
         ::.................................................::
         :: SCC energy              -161.645891027651 Eh    ::
         :: -> isotropic ES            0.005319040436 Eh    ::
         :: -> anisotropic ES          0.016403331429 Eh    ::
         :: -> anisotropic XC          0.098735255334 Eh    ::
         :: -> dispersion             -0.186075176769 Eh    ::
         :: repulsion energy           3.148461258258 Eh    ::
         :: add. restraining           0.000000000000 Eh    ::
         :: total charge              -0.000000000000 e     ::
         :::::::::::::::::::::::::::::::::::::::::::::::::::::

      ----------------------------------------------------------- 
     |                   =====================                   |
     |                        A N C O P T                        |
     |                   =====================                   |
     |               Approximate Normal Coordinate               |
     |                Rational Function Optimizer                |
      ----------------------------------------------------------- 

Optimization log is written to '/dev/null'
      ----------------------------------------------------------- 
     |                   =====================                   |
     |                        A N C O P T                        |
     |                   =====================                   |
     |               Approximate Normal Coordinate               |
     |                Rational Function Optimizer                |
      ----------------------------------------------------------- 

          ...................................................
          :                      SETUP                      :
          :.................................................:
          :   optimization level         verytight          :
          :   max. optcycles                  2120          :
          :   ANC micro-cycles                  20          :
          :   degrees of freedom               312          :
          :.................................................:
          :   RF solver                   davidson          :
          :   write xtbopt.log                true          :
          :   linear?                        false          :
          :   energy convergence         0.1000000E-06 Eh   :
          :   grad. convergence          0.2000000E-03 Eh/α :
          :   maxmium RF displ.          1.0000000          :
          :   Hlow (freq-cutoff)         0.1000000E-01      :
          :   Hmax (freq-cutoff)         5.0000000          :
          :   S6 in model hess.         20.0000000          :
          ...................................................

generating ANC from exact Hessian ...
Using Lindh-Hessian (1995)
 Shifting diagonal of input Hessian by   1.006144113044526E-002
 Lowest  eigenvalues of input Hessian
    0.010000    0.000000    0.000000    0.000000    0.000000    0.000000
    0.000000    0.010185    0.010205    0.010237    0.010563    0.010783
    0.010828    0.010892    0.010942    0.011086    0.011091    0.011205
 Highest eigenvalues
    2.083471    2.086242    2.094123    2.096062    2.106210    2.166125
 

........................................................................
.............................. CYCLE    1 ..............................
........................................................................

 iter      E             dE          RMSdq      gap      omega  full diag
   1   -161.6562939 -0.161656E+03  0.134E-04    2.12       0.0  T
   2   -161.6562939  0.998313E-09  0.139E-04    2.12      69.9  T
   3   -161.6562939 -0.289543E-08  0.457E-05    2.12     212.7  T
     SCC iter.                  ...        0 min,  0.059 sec
     gradient                   ...        0 min,  0.020 sec
 * total energy  :  -158.4974298 Eh     change       -0.4285994E-08 Eh
   gradient norm :     0.0003218 Eh/α   predicted     0.0000000E+00 (-100.00%)
   displ. norm   :     0.0129215 α      lambda       -0.1241400E-06
   maximum displ.:     0.0080837 α      in ANC's #5, #8, #7, ...

........................................................................
.............................. CYCLE    2 ..............................
........................................................................

 iter      E             dE          RMSdq      gap      omega  full diag
   1   -161.6564216 -0.161656E+03  0.286E-03    2.12       0.0  T
   2   -161.6564216 -0.169362E-08  0.170E-03    2.12       5.7  T
   3   -161.6564216  0.313304E-07  0.434E-04    2.12      22.4  T
   4   -161.6564216 -0.332634E-07  0.779E-05    2.12     124.6  T
     SCC iter.                  ...        0 min,  0.072 sec
     gradient                   ...        0 min,  0.019 sec
 * total energy  :  -158.4974311 Eh     change       -0.1321481E-05 Eh
   gradient norm :     0.0001682 Eh/α   predicted    -0.6124376E-06 ( -53.66%)
   displ. norm   :     0.0291929 α      lambda       -0.1644057E-05
   maximum displ.:     0.0176179 α      in ANC's #5, #7, #8, ...

........................................................................
.............................. CYCLE    3 ..............................
........................................................................

 iter      E             dE          RMSdq      gap      omega  full diag
   1   -161.6565073 -0.161657E+03  0.531E-03    2.12       0.0  T
   2   -161.6565073 -0.311184E-08  0.313E-03    2.12       3.1  T
   3   -161.6565073  0.489098E-07  0.551E-04    2.12      17.6  T
   4   -161.6565073 -0.526394E-07  0.884E-05    2.12     109.9  T
     SCC iter.                  ...        0 min,  0.071 sec
     gradient                   ...        0 min,  0.019 sec
 * total energy  :  -158.4974332 Eh     change       -0.2061479E-05 Eh
   gradient norm :     0.0003409 Eh/α   predicted    -0.8254406E-06 ( -59.96%)
   displ. norm   :     0.0562415 α      lambda       -0.2591305E-05
   maximum displ.:     0.0327419 α      in ANC's #5, #7, #8, ...

........................................................................
.............................. CYCLE    4 ..............................
........................................................................

 iter      E             dE          RMSdq      gap      omega  full diag
   1   -161.6564825 -0.161656E+03  0.101E-02    2.12       0.0  T
   2   -161.6564825 -0.114262E-07  0.591E-03    2.12       1.6  T
   3   -161.6564824  0.907731E-07  0.794E-04    2.12      12.2  T
   4   -161.6564825 -0.996158E-07  0.149E-04    2.12      65.2  T
     SCC iter.                  ...        0 min,  0.074 sec
     gradient                   ...        0 min,  0.019 sec
 * total energy  :  -158.4974362 Eh     change       -0.3012883E-05 Eh
   gradient norm :     0.0003195 Eh/α   predicted    -0.1315302E-05 ( -56.34%)
   displ. norm   :     0.0559629 α      lambda       -0.1876572E-05
   maximum displ.:     0.0335097 α      in ANC's #5, #7, #8, ...

........................................................................
.............................. CYCLE    5 ..............................
........................................................................

 iter      E             dE          RMSdq      gap      omega  full diag
   1   -161.6564440 -0.161656E+03  0.982E-03    2.12       0.0  T
   2   -161.6564440 -0.102710E-07  0.576E-03    2.12       1.7  T
   3   -161.6564439  0.890012E-07  0.783E-04    2.12      12.4  T
   4   -161.6564440 -0.976866E-07  0.139E-04    2.12      69.9  T
     SCC iter.                  ...        0 min,  0.070 sec
     gradient                   ...        0 min,  0.019 sec
 * total energy  :  -158.4974383 Eh     change       -0.2123939E-05 Eh
   gradient norm :     0.0002203 Eh/α   predicted    -0.9425833E-06 ( -55.62%)
   displ. norm   :     0.0450198 α      lambda       -0.1282957E-05
   maximum displ.:     0.0276425 α      in ANC's #5, #7, #4, ...

........................................................................
.............................. CYCLE    6 ..............................
........................................................................

 iter      E             dE          RMSdq      gap      omega  full diag
   1   -161.6564009 -0.161656E+03  0.776E-03    2.12       0.0  T
   2   -161.6564009 -0.580289E-08  0.455E-03    2.12       2.1  T
   3   -161.6564008  0.632465E-07  0.650E-04    2.12      14.9  T
   4   -161.6564009 -0.690917E-07  0.104E-04    2.12      93.0  T
     SCC iter.                  ...        0 min,  0.073 sec
     gradient                   ...        0 min,  0.020 sec
 * total energy  :  -158.4974399 Eh     change       -0.1623375E-05 Eh
   gradient norm :     0.0001424 Eh/α   predicted    -0.6480824E-06 ( -60.08%)
   displ. norm   :     0.0511091 α      lambda       -0.1557519E-05
   maximum displ.:     0.0311427 α      in ANC's #5, #4, #7, ...

........................................................................
.............................. CYCLE    7 ..............................
........................................................................

 iter      E             dE          RMSdq      gap      omega  full diag
   1   -161.6563659 -0.161656E+03  0.886E-03    2.12       0.0  T
   2   -161.6563659 -0.763231E-08  0.520E-03    2.12       1.9  T
   3   -161.6563658  0.746542E-07  0.709E-04    2.12      13.7  T
   4   -161.6563659 -0.820158E-07  0.118E-04    2.12      82.3  T
     SCC iter.                  ...        0 min,  0.072 sec
     gradient                   ...        0 min,  0.019 sec
 * total energy  :  -158.4974418 Eh     change       -0.1920879E-05 Eh
   gradient norm :     0.0001478 Eh/α   predicted    -0.7812323E-06 ( -59.33%)
   displ. norm   :     0.0621302 α      lambda       -0.1575055E-05
   maximum displ.:     0.0376863 α      in ANC's #5, #4, #3, ...

........................................................................
.............................. CYCLE    8 ..............................
........................................................................

 iter      E             dE          RMSdq      gap      omega  full diag
   1   -161.6563462 -0.161656E+03  0.107E-02    2.12       0.0  T
   2   -161.6563462 -0.107529E-07  0.626E-03    2.12       1.6  T
   3   -161.6563461  0.117350E-06  0.880E-04    2.12      11.0  T
   4   -161.6563462 -0.128466E-06  0.144E-04    2.12      67.6  T
     SCC iter.                  ...        0 min,  0.073 sec
     gradient                   ...        0 min,  0.019 sec
 * total energy  :  -158.4974436 Eh     change       -0.1742033E-05 Eh
   gradient norm :     0.0001583 Eh/α   predicted    -0.7918816E-06 ( -54.54%)
   displ. norm   :     0.0417953 α      lambda       -0.7257395E-06
   maximum displ.:     0.0256897 α      in ANC's #5, #4, #3, ...

........................................................................
.............................. CYCLE    9 ..............................
........................................................................

 iter      E             dE          RMSdq      gap      omega  full diag
   1   -161.6563651 -0.161656E+03  0.679E-03    2.12       0.0  T
   2   -161.6563651 -0.407584E-08  0.399E-03    2.12       2.4  T
   3   -161.6563650  0.629498E-07  0.636E-04    2.12      15.3  T
   4   -161.6563651 -0.683453E-07  0.938E-05    2.12     103.5  T
     SCC iter.                  ...        0 min,  0.072 sec
     gradient                   ...        0 min,  0.020 sec
 * total energy  :  -158.4974444 Eh     change       -0.7954317E-06 Eh
   gradient norm :     0.0001255 Eh/α   predicted    -0.3643850E-06 ( -54.19%)
   displ. norm   :     0.0286543 α      lambda       -0.4460267E-06
   maximum displ.:     0.0175207 α      in ANC's #5, #4, #3, ...

........................................................................
.............................. CYCLE   10 ..............................
........................................................................

 iter      E             dE          RMSdq      gap      omega  full diag
   1   -161.6563937 -0.161656E+03  0.423E-03    2.12       0.0  T
   2   -161.6563937 -0.173523E-08  0.248E-03    2.12       3.9  T
   3   -161.6563937  0.219677E-07  0.373E-04    2.12      26.1  T
   4   -161.6563937 -0.238983E-07  0.611E-05    2.12     158.9  T
     SCC iter.                  ...        0 min,  0.070 sec
     gradient                   ...        0 min,  0.019 sec
 * total energy  :  -158.4974449 Eh     change       -0.5572901E-06 Eh
   gradient norm :     0.0000745 Eh/α   predicted    -0.2277575E-06 ( -59.13%)
   displ. norm   :     0.0344840 α      lambda       -0.5995329E-06
   maximum displ.:     0.0202463 α      in ANC's #5, #4, #3, ...

........................................................................
.............................. CYCLE   11 ..............................
........................................................................

 iter      E             dE          RMSdq      gap      omega  full diag
   1   -161.6564212 -0.161656E+03  0.470E-03    2.12       0.0  T
   2   -161.6564212 -0.271734E-08  0.276E-03    2.12       3.5  T
   3   -161.6564212  0.216944E-07  0.377E-04    2.12      25.8  T
   4   -161.6564212 -0.240112E-07  0.691E-05    2.12     140.5  T
     SCC iter.                  ...        0 min,  0.072 sec
     gradient                   ...        0 min,  0.020 sec
 * total energy  :  -158.4974457 Eh     change       -0.7361876E-06 Eh
   gradient norm :     0.0000836 Eh/α   predicted    -0.3017879E-06 ( -59.01%)
   displ. norm   :     0.0412669 α      lambda       -0.6464700E-06
   maximum displ.:     0.0229143 α      in ANC's #5, #4, #3, ...

........................................................................
.............................. CYCLE   12 ..............................
........................................................................

 iter      E             dE          RMSdq      gap      omega  full diag
   1   -161.6564212 -0.161656E+03  0.548E-03    2.12       0.0  T
   2   -161.6564212 -0.386166E-08  0.322E-03    2.12       3.0  T
   3   -161.6564212  0.252517E-07  0.411E-04    2.12      23.7  T
   4   -161.6564212 -0.284283E-07  0.705E-05    2.12     137.8  T
     SCC iter.                  ...        0 min,  0.071 sec
     gradient                   ...        0 min,  0.019 sec
 * total energy  :  -158.4974464 Eh     change       -0.7155188E-06 Eh
   gradient norm :     0.0001228 Eh/α   predicted    -0.3255087E-06 ( -54.51%)
   displ. norm   :     0.0315856 α      lambda       -0.3703554E-06
   maximum displ.:     0.0171437 α      in ANC's #5, #4, #3, ...

........................................................................
.............................. CYCLE   13 ..............................
........................................................................

 iter      E             dE          RMSdq      gap      omega  full diag
   1   -161.6564167 -0.161656E+03  0.396E-03    2.12       0.0  T
   2   -161.6564167 -0.201271E-08  0.233E-03    2.12       4.2  T
   3   -161.6564167  0.191816E-07  0.347E-04    2.12      28.0  T
   4   -161.6564167 -0.211303E-07  0.596E-05    2.12     163.0  T
     SCC iter.                  ...        0 min,  0.073 sec
     gradient                   ...        0 min,  0.019 sec
 * total energy  :  -158.4974468 Eh     change       -0.4214795E-06 Eh
   gradient norm :     0.0001080 Eh/α   predicted    -0.1874112E-06 ( -55.53%)
   displ. norm   :     0.0263553 α      lambda       -0.3050350E-06
   maximum displ.:     0.0145121 α      in ANC's #4, #5, #3, ...

........................................................................
.............................. CYCLE   14 ..............................
........................................................................

 iter      E             dE          RMSdq      gap      omega  full diag
   1   -161.6564052 -0.161656E+03  0.315E-03    2.12       0.0  T
   2   -161.6564052 -0.120812E-08  0.185E-03    2.12       5.3  T
   3   -161.6564052  0.131566E-07  0.286E-04    2.12      33.9  T
   4   -161.6564052 -0.144207E-07  0.481E-05    2.12     201.9  T
     SCC iter.                  ...        0 min,  0.073 sec
     gradient                   ...        0 min,  0.020 sec
 * total energy  :  -158.4974472 Eh     change       -0.3820430E-06 Eh
   gradient norm :     0.0000599 Eh/α   predicted    -0.1547565E-06 ( -59.49%)
   displ. norm   :     0.0345540 α      lambda       -0.4285151E-06
   maximum displ.:     0.0190815 α      in ANC's #4, #5, #3, ...

........................................................................
.............................. CYCLE   15 ..............................
........................................................................

 iter      E             dE          RMSdq      gap      omega  full diag
   1   -161.6563863 -0.161656E+03  0.407E-03    2.12       0.0  T
   2   -161.6563863 -0.218802E-08  0.239E-03    2.12       4.1  T
   3   -161.6563863  0.205523E-07  0.361E-04    2.12      26.9  T
   4   -161.6563863 -0.226402E-07  0.622E-05    2.12     156.1  T
     SCC iter.                  ...        0 min,  0.072 sec
     gradient                   ...        0 min,  0.020 sec
 * total energy  :  -158.4974477 Eh     change       -0.5217856E-06 Eh
   gradient norm :     0.0000715 Eh/α   predicted    -0.2170252E-06 ( -58.41%)
   displ. norm   :     0.0421724 α      lambda       -0.4560714E-06
   maximum displ.:     0.0232765 α      in ANC's #4, #5, #3, ...

........................................................................
.............................. CYCLE   16 ..............................
........................................................................

 iter      E             dE          RMSdq      gap      omega  full diag
   1   -161.6563663 -0.161656E+03  0.491E-03    2.12       0.0  T
   2   -161.6563664 -0.305610E-08  0.288E-03    2.12       3.4  T
   3   -161.6563663  0.374249E-07  0.483E-04    2.12      20.1  T
   4   -161.6563664 -0.407259E-07  0.827E-05    2.12     117.5  T
     SCC iter.                  ...        0 min,  0.076 sec
     gradient                   ...        0 min,  0.021 sec
 * total energy  :  -158.4974482 Eh     change       -0.5200613E-06 Eh
   gradient norm :     0.0001299 Eh/α   predicted    -0.2314429E-06 ( -55.50%)
   displ. norm   :     0.0356566 α      lambda       -0.3105026E-06
   maximum displ.:     0.0198054 α      in ANC's #4, #3, #5, ...

........................................................................
.............................. CYCLE   17 ..............................
........................................................................

 iter      E             dE          RMSdq      gap      omega  full diag
   1   -161.6563613 -0.161656E+03  0.416E-03    2.12       0.0  T
   2   -161.6563613 -0.223545E-08  0.244E-03    2.12       4.0  T
   3   -161.6563613  0.242253E-07  0.393E-04    2.12      24.7  T
   4   -161.6563613 -0.264018E-07  0.700E-05    2.12     138.7  T
     SCC iter.                  ...        0 min,  0.071 sec
     gradient                   ...        0 min,  0.020 sec
 * total energy  :  -158.4974486 Eh     change       -0.3508224E-06 Eh
   gradient norm :     0.0001138 Eh/α   predicted    -0.1570267E-06 ( -55.24%)
   displ. norm   :     0.0240954 α      lambda       -0.1920802E-06
   maximum displ.:     0.0134804 α      in ANC's #4, #3, #5, ...

........................................................................
.............................. CYCLE   18 ..............................
........................................................................

 iter      E             dE          RMSdq      gap      omega  full diag
   1   -161.6563683 -0.161656E+03  0.291E-03    2.12       0.0  T
   2   -161.6563683 -0.960029E-09  0.171E-03    2.12       5.7  T
   3   -161.6563683  0.153079E-07  0.310E-04    2.12      31.3  T
   4   -161.6563683 -0.165600E-07  0.485E-05    2.12     200.4  T
     SCC iter.                  ...        0 min,  0.071 sec
     gradient                   ...        0 min,  0.019 sec
 * total energy  :  -158.4974488 Eh     change       -0.2150447E-06 Eh
   gradient norm :     0.0000616 Eh/α   predicted    -0.9872166E-07 ( -54.09%)
   displ. norm   :     0.0159244 α      lambda       -0.1181428E-06
   maximum displ.:     0.0088910 α      in ANC's #4, #3, #5, ...

........................................................................
.............................. CYCLE   19 ..............................
........................................................................

 iter      E             dE          RMSdq      gap      omega  full diag
   1   -161.6563725 -0.161656E+03  0.202E-03    2.12       0.0  T
   2   -161.6563725 -0.522874E-09  0.119E-03    2.12       8.2  T
   3   -161.6563725  0.278186E-08  0.142E-04    2.12      68.3  T
   4   -161.6563725 -0.312903E-08  0.311E-05    2.12     311.9  T
     SCC iter.                  ...        0 min,  0.072 sec
     gradient                   ...        0 min,  0.020 sec
 * total energy  :  -158.4974489 Eh     change       -0.1306756E-06 Eh
   gradient norm :     0.0000393 Eh/α   predicted    -0.6185194E-07 ( -52.67%)
   displ. norm   :     0.0159244 α      lambda        0.0000000E+00
   maximum displ.:     0.0088910 α      in ANC's #4, #3, #5, ...

........................................................................
.............................. CYCLE   20 ..............................
........................................................................

 iter      E             dE          RMSdq      gap      omega  full diag
   1   -161.6563747 -0.161656E+03  0.202E-03    2.12       0.0  T
   2   -161.6563747 -0.527393E-09  0.119E-03    2.12       8.2  T
   3   -161.6563747  0.285550E-08  0.143E-04    2.12      67.8  T
   4   -161.6563747 -0.321080E-08  0.310E-05    2.12     312.9  T
     SCC iter.                  ...        0 min,  0.072 sec
     gradient                   ...        0 min,  0.019 sec
 * total energy  :  -158.4974489 Eh     change       -0.1662065E-07 Eh
   gradient norm :     0.0001022 Eh/α   predicted    -0.4549697E-09 ( -97.26%)
   displ. norm   :     0.0031710 α      lambda       -0.6176936E-07
   maximum displ.:     0.0015388 α      in ANC's #5, #21, #6, ...

   *** GEOMETRY OPTIMIZATION CONVERGED AFTER 20 ITERATIONS ***

------------------------------------------------------------------------
 total energy gain   :        -0.0000192 Eh       -0.0120 kcal/mol
 total RMSD          :         0.0551980 a0        0.0292 Å
 total power (kW/mol):        -0.0025170 (step)   -0.0223 (real)
------------------------------------------------------------------------

 ANCopt (total)                0 d,  0 h,  0 min,  2.254 sec
 optimizer setup                ...        0 min,  0.001 sec (  0.045%)
 model hessian                  ...        0 min,  0.129 sec (  5.717%)
 ANC generation                 ...        0 min,  0.013 sec (  0.561%)
 coordinate transformation      ...        0 min,  0.002 sec (  0.100%)
 single point calculation       ...        0 min,  2.090 sec ( 92.742%)
 optimization log               ...        0 min,  0.007 sec (  0.310%)
 hessian update                 ...        0 min,  0.004 sec (  0.158%)
 rational function              ...        0 min,  0.005 sec (  0.209%)

================
 final structure:
================
106
 xtb: 6.7.1 (edcfbbe)
C            0.46934066351096        1.89404717059848        4.41908195023307
C           -0.24394662745902        0.79244483757764        4.86046914424197
C           -1.32866316280423        0.33051042909853        4.13911255480971
C           -1.72296031144528        0.96753680386871        2.96566906551828
C           -2.82673842809609        0.44953464213808        2.14427321087675
C           -3.67973186912860        1.31068387104724        1.46233400243541
C           -4.65849136901475        0.81773958840079        0.60821900094993
C           -5.54851344733847        1.73785122457547       -0.11558074804735
C           -5.03750899573295        2.89067149415558       -0.70678759378168
C           -5.86803245761033        3.75314470570839       -1.39757516537546
C           -7.22170664203258        3.48045113628021       -1.50436141722151
C           -7.73956001962921        2.33646801435596       -0.92058897047453
C           -6.90915874483600        1.46922864182864       -0.23505049668034
C           -4.74316159571577       -0.55382175848932        0.39387129745742
C           -3.87467980796464       -1.42808325615694        1.03606918502820
C           -3.84230740870224       -2.84692702730945        0.63206883480492
C           -5.01668900596686       -3.58509866920550        0.55103777170548
C           -5.00457339283851       -4.90260684480575        0.12916233812831
C           -3.80801106624979       -5.50032841554804       -0.22733284505240
C           -2.63015744041081       -4.77922149576519       -0.15070449118023
C           -2.62696604009832       -3.45446109442831        0.26966615244736
C           -1.35679052180891       -2.71856898905158        0.40770770376453
C           -0.37774477667407       -3.23686844087291        1.25074673543598
C            0.72473497428106       -2.48978228079107        1.61164511649797
C            0.87070741308434       -1.17625012862884        1.16244030161296
C            1.91348594267803       -0.32705804218510        1.62703325537892
C            2.04825280671640        0.93495064948940        1.16162618152688
C            1.16719647409551        1.45412207229705        0.16884742021024
C            1.35896714456380        2.71811906095951       -0.41703287799935
C            2.62843106203423        3.45483699469414       -0.27677888313188
C            2.62965696600686        4.78036492608731        0.14125563647692
C            3.80688885310618        5.50223103170600        0.22016304040951
C            5.00493063046283        4.90443679122503       -0.13123847516635
C            5.01907008050952        3.58614950420359       -0.55065440349651
C            3.84525157229617        2.84745904868674       -0.63436018759717
C            3.87876316079736        1.42812260843061       -1.03654746075494
C            2.97059426885320        0.92115814629734       -1.95914111038747
C            2.83429415015775       -0.44907332885938       -2.14846639831132
C            1.73450629857445       -0.96628212653658       -2.97564209316847
C            1.00993175281852       -2.07689238007269       -2.54869237634279
C           -0.07522902106423       -2.53206599510594       -3.27281264011851
C           -0.45098650213668       -1.89056760929523       -4.44043879463815
C            0.26868389922456       -0.79263542372682       -4.88069798600458
C            1.34995269315329       -0.33165029573897       -4.15359716265190
C            3.68135233267521       -1.31076501875694       -1.45988307560736
C            4.65542277719396       -0.81843316830434       -0.60007164239998
C            5.53643123167645       -1.73945992457134        0.13352370719702
C            5.01572892820998       -2.88821387920930        0.72424777066862
C            5.83664634119401       -3.75129777346336        1.42563962902169
C            7.19034645693326       -3.48336087298017        1.54359212458723
C            7.71782797160662       -2.34359218987522        0.96018799608230
C            6.89696135687001       -1.47562263599526        0.26412327022872
C            4.74194842344030        0.55335920429275       -0.38792930037285
C            0.38106938262408        3.23559487325620       -1.26184038287565
C           -0.72176980935313        2.48880744487062       -1.62238669588021
C           -0.86887089250432        1.17596173317299       -1.17170412693424
C           -1.91295061125166        0.32740529779450       -1.63467970754695
C           -2.04822348304517       -0.93431567222466       -1.16867023277652
C           -1.16577593221446       -1.45417922611134       -0.17747362562286
C           -0.07073737384218       -0.66057137066265        0.23924930564891
C            0.07246330059188        0.66036951014149       -0.24834512521924
C           -2.96217832076113       -0.92070852100057        1.95419901014998
C           -1.00444129197813        2.08161645460203        2.53742954380946
C            0.08392549388326        2.53799218266484        3.25594634842918
H            1.32212379245180        2.24852673245770        4.97913946205164
H            0.04821184212346        0.28950890496102        5.77116830118022
H           -1.88631503322852       -0.52321952055571        4.49629178832644
H           -3.60006379105128        2.37631214553329        1.61903838621090
H           -3.97874162007465        3.09600036032940       -0.63833701184273
H           -5.45888865699197        4.64189956655216       -1.85639284579976
H           -7.87059537650397        4.15661545314864       -2.04135348725518
H           -8.79534386136441        2.12063534298714       -0.99938866154710
H           -7.31835748672190        0.58387032699264        0.23011892216548
H           -5.44669008701391       -0.93664322783058       -0.33177254302565
H           -5.94833817235581       -3.12034078227348        0.84097002108196
H           -5.92737541481425       -5.46156674911834        0.07847188872287
H           -3.79166795335740       -6.52708484414164       -0.56229030433167
H           -1.69455657412092       -5.24063227114824       -0.43447164350588
H           -0.51850532500517       -4.22412250108767        1.66942473682629
H            1.46108532741121       -2.90154372798929        2.28768011493793
H            2.59314981906446       -0.71378478933246        2.37325726480428
H            2.82615946351851        1.57836260508322        1.54493344189125
H            1.69295949564583        5.24178502815771        0.42137090687767
H            3.78893249496475        6.52964969654444        0.55300955426884
H            5.92726245156246        5.46399057745014       -0.07859941032170
H            5.95186547557318        3.12114811157468       -0.83649379729021
H            2.31828735688934        1.59669439082678       -2.49113013362226
H            1.28217671094782       -2.56857594837089       -1.62638647034373
H           -0.63487597816609       -3.38650028648755       -2.92038030161010
H           -1.30110566604423       -2.24419123679439       -5.00507158122511
H           -0.01577844353158       -0.29193157687034       -5.79506885773267
H            1.91260864076638        0.51931077019182       -4.50958545960837
H            3.60026638105385       -2.37649017969509       -1.61520835671527
H            3.95683253489901       -3.08968766651699        0.64700016051521
H            5.41994387187264       -4.63672362579667        1.88410138573805
H            7.83174920428437       -4.15995991265905        2.08896881703936
H            8.77369254470707       -2.13154530414485        1.04769067623913
H            7.31369673689489       -0.59343972925646       -0.20039801476215
H            5.44186663535912        0.93612271283614        0.34123868049400
H            0.52252499601253        4.22226742739288       -1.68165214878759
H           -1.45750699428337        2.90038640218988       -2.29919075236485
H           -2.59346292919683        0.71460654679665       -2.37988635288198
H           -2.82777189347031       -1.57692625717116       -1.55003086914045
H           -2.30620050898899       -1.59583175996921        2.48211648577672
H           -1.28402285988760        2.57521789587585        1.61834231816556
H            0.63845974036221        3.39543988174976        2.90275441073792
 
 Bond Distances (Angstroems)
 ---------------------------
C1-C2=1.3846         C1-C64=1.3842        C1-H65=1.0801        C2-C1=1.3846         C2-C3=1.3822         C2-H66=1.0806        
C3-C2=1.3822         C3-C4=1.3922         C3-H67=1.0805        C4-C3=1.3922         C4-C5=1.4702         C4-C63=1.3931        
C5-C4=1.4702         C5-C6=1.3908         C5-C62=1.3900        C6-C5=1.3908         C6-C7=1.3894         C6-H68=1.0800        
C7-C6=1.3894         C7-C8=1.4706         C7-C14=1.3908        C8-C7=1.4706         C8-C9=1.3927         C8-C13=1.3920        
C9-C8=1.3927         C9-C10=1.3823        C9-H69=1.0807        C10-C9=1.3823        C10-C11=1.3850       C10-H70=1.0806       
C11-C10=1.3850       C11-C12=1.3848       C11-H71=1.0801       C12-C11=1.3848       C12-C13=1.3826       C12-H72=1.0805       
C13-C8=1.3920        C13-C12=1.3826       C13-H73=1.0806       C14-C7=1.3908        C14-C15=1.3896       C14-H74=1.0808       
C15-C14=1.3896       C15-C16=1.4756       C15-C62=1.3903       C16-C15=1.4756       C16-C17=1.3895       C16-C21=1.4062       
C17-C16=1.3895       C17-C18=1.3835       C17-H75=1.0808       C18-C17=1.3835       C18-C19=1.3842       C18-H76=1.0801       
C19-C18=1.3842       C19-C20=1.3832       C19-H77=1.0801       C20-C19=1.3832       C20-C21=1.3899       C20-H78=1.0811       
C21-C16=1.4062       C21-C20=1.3899       C21-C22=1.4744       C22-C21=1.4744       C22-C23=1.3921       C22-C59=1.4063       
C23-C22=1.3921       C23-C24=1.3798       C23-H79=1.0816       C24-C23=1.3798       C24-C25=1.3959       C24-H80=1.0811       
C25-C24=1.3959       C25-C26=1.4228       C25-C60=1.4158       C26-C25=1.4228       C26-C27=1.3518       C26-H81=1.0809       
C27-C26=1.3518       C27-C28=1.4253       C27-H82=1.0798       C28-C27=1.4253       C28-C29=1.4063       C28-C61=1.4151       
C29-C28=1.4063       C29-C30=1.4744       C29-C54=1.3920       C30-C29=1.4744       C30-C31=1.3899       C30-C35=1.4062       
C31-C30=1.3899       C31-C32=1.3832       C31-H83=1.0811       C32-C31=1.3832       C32-C33=1.3842       C32-H84=1.0801       
C33-C32=1.3842       C33-C34=1.3835       C33-H85=1.0801       C34-C33=1.3835       C34-C35=1.3894       C34-H86=1.0808       
C35-C30=1.4062       C35-C34=1.3894       C35-C36=1.4756       C36-C35=1.4756       C36-C37=1.3903       C36-C53=1.3896       
C37-C36=1.3903       C37-C38=1.3899       C37-H87=1.0793       C38-C37=1.3899       C38-C39=1.4701       C38-C45=1.3907       
C39-C38=1.4701       C39-C40=1.3931       C39-C44=1.3922       C40-C39=1.3931       C40-C41=1.3817       C40-H88=1.0801       
C41-C40=1.3817       C41-C42=1.3842       C41-H89=1.0805       C42-C41=1.3842       C42-C43=1.3846       C42-H90=1.0801       
C43-C42=1.3846       C43-C44=1.3821       C43-H91=1.0806       C44-C39=1.3922       C44-C43=1.3821       C44-H92=1.0805       
C45-C38=1.3907       C45-C46=1.3894       C45-H93=1.0800       C46-C45=1.3894       C46-C47=1.4706       C46-C53=1.3908       
C47-C46=1.4706       C47-C48=1.3927       C47-C52=1.3920       C48-C47=1.3927       C48-C49=1.3823       C48-H94=1.0807       
C49-C48=1.3823       C49-C50=1.3850       C49-H95=1.0807       C50-C49=1.3850       C50-C51=1.3848       C50-H96=1.0801       
C51-C50=1.3848       C51-C52=1.3826       C51-H97=1.0805       C52-C47=1.3920       C52-C51=1.3826       C52-H98=1.0806       
C53-C36=1.3896       C53-C46=1.3908       C53-H99=1.0808       C54-C29=1.3920       C54-C55=1.3798       C54-H100=1.0816      
C55-C54=1.3798       C55-C56=1.3958       C55-H101=1.0811      C56-C55=1.3958       C56-C57=1.4228       C56-C61=1.4158       
C57-C56=1.4228       C57-C58=1.3518       C57-H102=1.0809      C58-C57=1.3518       C58-C59=1.4253       C58-H103=1.0799      
C59-C22=1.4063       C59-C58=1.4253       C59-C60=1.4151       C60-C25=1.4158       C60-C59=1.4151       C60-C61=1.4153       
C61-C28=1.4151       C61-C56=1.4158       C61-C60=1.4153       C62-C5=1.3900        C62-C15=1.3903       C62-H104=1.0793      
C63-C4=1.3931        C63-C64=1.3817       C63-H105=1.0801      C64-C1=1.3842        C64-C63=1.3817       C64-H106=1.0805      
H65-C1=1.0801        H66-C2=1.0806        H67-C3=1.0805        H68-C6=1.0800        H69-C9=1.0807        H70-C10=1.0806       
H71-C11=1.0801       H72-C12=1.0805       H73-C13=1.0806       H74-C14=1.0808       H75-C17=1.0808       H76-C18=1.0801       
H77-C19=1.0801       H78-C20=1.0811       H79-C23=1.0816       H80-C24=1.0811       H81-C26=1.0809       H82-C27=1.0798       
H83-C31=1.0811       H84-C32=1.0801       H85-C33=1.0801       H86-C34=1.0808       H87-C37=1.0793       H88-C40=1.0801       
H89-C41=1.0805       H90-C42=1.0801       H91-C43=1.0806       H92-C44=1.0805       H93-C45=1.0800       H94-C48=1.0807       
H95-C49=1.0807       H96-C50=1.0801       H97-C51=1.0805       H98-C52=1.0806       H99-C53=1.0808       H100-C54=1.0816      
H101-C55=1.0811      H102-C57=1.0809      H103-C58=1.0799      H104-C62=1.0793      H105-C63=1.0801      H106-C64=1.0805      
 C  H  Rav=1.0805 sigma=0.0005  Rmin=1.0793  Rmax=1.0816    42
 C  C  Rav=1.4005 sigma=0.0282  Rmin=1.3518  Rmax=1.4756    75
 
 selected bond angles (degree)
 --------------------
C64-C1-C2=119.64               H65-C1-C2=120.17               H65-C1-C64=120.19              C3-C2-C1=120.25                
H66-C2-C1=119.98               H66-C2-C3=119.77               C4-C3-C2=120.61                H67-C3-C2=119.78               
H67-C3-C4=119.60               C5-C4-C3=121.49                C63-C4-C3=118.62               C63-C4-C5=119.82               
C6-C5-C4=121.08                C62-C5-C4=119.80               C62-C5-C6=118.92               C7-C6-C5=120.92                
H68-C6-C5=119.64               H68-C6-C7=119.42               C8-C7-C6=120.46                C14-C7-C6=119.18               
C14-C7-C8=120.29               C9-C8-C7=120.32                C13-C8-C7=120.87               C13-C8-C9=118.81               
C10-C9-C8=120.54               H69-C9-C8=119.33               H69-C9-C10=120.12              C11-C10-C9=120.19              
H70-C10-C9=119.86              H70-C10-C11=119.95             
 
 selected dihedral angles (degree)
 ---------------------------------
C3-C2-C1-C64=  0.51           C3-C2-C1-H65=180.55           H66-C2-C1-C64=180.40          H66-C2-C1-H65=  0.43          
C4-C3-C2-C1=359.68            C4-C3-C2-H66=179.80           H67-C3-C2-C1=180.66           H67-C3-C2-H66=  0.78          
C5-C4-C3-C2=176.58            C5-C4-C3-H67=355.61           C63-C4-C3-C2=359.78           C63-C4-C3-H67=178.81          
C6-C5-C4-C3=145.33            C6-C5-C4-C63=322.09           C62-C5-C4-C3=320.11           C62-C5-C4-C63=136.87          
C7-C6-C5-C4=175.14            C7-C6-C5-C62=  0.32           H68-C6-C5-C4=353.39           H68-C6-C5-C62=178.57          
C8-C7-C6-C5=180.46            C8-C7-C6-H68=  2.20           C14-C7-C6-C5=357.26           C14-C7-C6-H68=179.00          
C9-C8-C7-C6= 42.68            C9-C8-C7-C14=225.91           C13-C8-C7-C6=222.02           C13-C8-C7-C14= 45.25          
C10-C9-C8-C7=179.47           C10-C9-C8-C13=  0.11          H69-C9-C8-C7=  0.73           H69-C9-C8-C13=181.37          
C11-C10-C9-C8=  0.24          C11-C10-C9-H69=178.97         H70-C10-C9-C8=180.32          H70-C10-C9-H69=359.05         
           -------------------------------------------------
          |                Final Singlepoint                |
           -------------------------------------------------

          ...................................................
          :                      SETUP                      :
          :.................................................:
          :  # basis functions                 298          :
          :  # atomic orbitals                 298          :
          :  # shells                          170          :
          :  # electrons                       298          :
          :  max. iterations                   250          :
          :  Hamiltonian                  GFN2-xTB          :
          :  restarted?                      false          :
          :  GBSA solvation                  false          :
          :  PC potential                    false          :
          :  electronic temp.          300.0000000     K    :
          :  accuracy                    1.0000000          :
          :  -> integral cutoff          0.2500000E+02      :
          :  -> integral neglect         0.1000000E-07      :
          :  -> SCF convergence          0.1000000E-05 Eh   :
          :  -> wf. convergence          0.1000000E-03 e    :
          :  Broyden damping             0.4000000          :
          :  net charge                          0          :
          :  unpaired electrons                  0          :
          ...................................................

 iter      E             dE          RMSdq      gap      omega  full diag
   1   -161.6563747 -0.161656E+03  0.158E-05    2.12       0.0  T
   2   -161.6563747  0.306954E-11  0.120E-05    2.12     808.0  T
   3   -161.6563747 -0.827072E-11  0.801E-06    2.12    1212.9  T

   *** convergence criteria satisfied after 3 iterations ***

         #    Occupation            Energy/Eh            Energy/eV
      -------------------------------------------------------------
         1        2.0000           -0.6521308             -17.7454
       ...           ...                  ...                  ...
       143        2.0000           -0.3922492             -10.6736
       144        2.0000           -0.3866630             -10.5216
       145        2.0000           -0.3801239             -10.3437
       146        2.0000           -0.3788210             -10.3082
       147        2.0000           -0.3786871             -10.3046
       148        2.0000           -0.3762922             -10.2394
       149        2.0000           -0.3545463              -9.6477 (HOMO)
       150                         -0.2765172              -7.5244 (LUMO)
       151                         -0.2469135              -6.7189
       152                         -0.2457971              -6.6885
       153                         -0.2447560              -6.6601
       154                         -0.2441680              -6.6442
       ...                                ...                  ...
       298                          0.7372613              20.0619
      -------------------------------------------------------------
                  HL-Gap            0.0780292 Eh            2.1233 eV
             Fermi-level           -0.3155318 Eh           -8.5861 eV

 SCC (total)                   0 d,  0 h,  0 min,  0.086 sec
 SCC setup                      ...        0 min,  0.000 sec (  0.354%)
 Dispersion                     ...        0 min,  0.002 sec (  2.490%)
 classical contributions        ...        0 min,  0.000 sec (  0.060%)
 integral evaluation            ...        0 min,  0.009 sec ( 10.287%)
 iterations                     ...        0 min,  0.054 sec ( 62.708%)
 molecular gradient             ...        0 min,  0.020 sec ( 22.763%)
 printout                       ...        0 min,  0.001 sec (  1.195%)

         :::::::::::::::::::::::::::::::::::::::::::::::::::::
         ::                     SUMMARY                     ::
         :::::::::::::::::::::::::::::::::::::::::::::::::::::
         :: total energy            -158.497448942797 Eh    ::
         :: gradient norm              0.000102332595 Eh/a0 ::
         :: HOMO-LUMO gap              2.123281923494 eV    ::
         ::.................................................::
         :: SCC energy              -161.646047912730 Eh    ::
         :: -> isotropic ES            0.005321264716 Eh    ::
         :: -> anisotropic ES          0.016371018969 Eh    ::
         :: -> anisotropic XC          0.098734935924 Eh    ::
         :: -> dispersion             -0.185514188224 Eh    ::
         :: repulsion energy           3.148598969933 Eh    ::
         :: add. restraining           0.000000000000 Eh    ::
         :: total charge               0.000000000000 e     ::
         :::::::::::::::::::::::::::::::::::::::::::::::::::::

           ------------------------------------------------- 
          |                Numerical Hessian                |
           ------------------------------------------------- 
step length          :   0.00500
SCC accuracy         :   0.30000
Hessian scale factor :   1.00000
frozen atoms in %    :   0.00000    0
RMS gradient         :   0.00010
estimated CPU  time     14.98 min
estimated wall time      0.38 min

writing file <hessian>.

 projected vibrational frequencies (cm⁻¹)
eigval :       -0.00    -0.00    -0.00     0.00     0.00     0.00
eigval :       10.40    11.55    12.39    15.39    26.79    38.99
eigval :       39.11    41.14    42.54    46.78    48.58    53.84
eigval :       55.52    56.41    56.97    73.75    76.87    82.48
eigval :       87.01   105.00   116.06   119.29   126.99   130.03
eigval :      132.86   138.98   159.64   170.67   192.69   195.63
eigval :      197.60   221.81   231.33   232.95   253.79   258.07
eigval :      259.97   264.40   272.93   283.85   289.24   294.44
eigval :      298.06   312.10   312.66   326.70   350.95   356.28
eigval :      367.29   370.24   372.74   373.80   377.27   379.70
eigval :      379.92   384.41   388.44   396.61   412.41   420.26
eigval :      452.53   475.94   477.59   480.33   484.38   487.19
eigval :      493.46   497.14   518.92   523.18   544.32   548.81
eigval :      556.28   560.00   561.85   581.09   581.21   584.57
eigval :      585.00   586.04   586.52   586.73   590.70   605.10
eigval :      605.56   607.82   612.07   625.84   643.16   645.16
eigval :      647.75   651.82   666.41   667.05   674.01   674.12
eigval :      677.48   678.14   682.44   683.60   694.17   716.33
eigval :      716.34   722.41   742.78   754.08   754.65   755.04
eigval :      764.33   764.47   781.11   782.41   805.38   812.34
eigval :      824.22   827.76   828.06   830.32   830.83   842.17
eigval :      842.94   848.15   850.97   877.34   877.56   878.13
eigval :      878.22   879.23   886.19   886.77   894.81   894.97
eigval :      900.97   901.00   904.53   904.62   909.64   910.08
eigval :      913.07   914.37   919.98   920.21   927.57   929.12
eigval :      929.60   929.66   929.82   929.97   930.86   931.13
eigval :      932.44   932.70   933.39   933.46   952.66   954.90
eigval :      986.36   986.38   991.07   991.60   995.39   998.61
eigval :     1045.59  1064.05  1083.51  1084.95  1085.87  1088.01
eigval :     1092.97  1097.36  1100.07  1110.30  1111.97  1120.21
eigval :     1120.25  1123.30  1123.70  1124.96  1125.18  1131.25
eigval :     1140.92  1153.18  1157.00  1167.14  1181.63  1181.99
eigval :     1182.64  1182.69  1183.10  1183.13  1188.38  1199.89
eigval :     1199.90  1202.51  1204.42  1204.51  1211.80  1230.62
eigval :     1231.02  1239.68  1245.50  1245.50  1250.71  1251.45
eigval :     1251.68  1254.77  1255.52  1281.67  1281.68  1284.73
eigval :     1284.78  1288.78  1291.28  1305.44  1305.62  1313.53
eigval :     1317.64  1317.94  1320.38  1320.51  1323.14  1325.13
eigval :     1325.15  1352.93  1353.09  1366.35  1379.18  1386.89
eigval :     1411.88  1412.16  1414.61  1415.10  1419.98  1422.64
eigval :     1433.42  1434.52  1439.03  1439.12  1448.29  1448.77
eigval :     1455.72  1472.88  1473.55  1486.20  1486.25  1487.98
eigval :     1488.00  1497.46  1503.05  1531.99  1560.98  1561.78
eigval :     1565.93  1568.08  1576.41  1576.46  1578.52  1578.55
eigval :     1584.64  1584.67  1585.97  1586.04  1592.54  1592.66
eigval :     1601.06  1601.07  1602.40  1602.43  1607.45  1607.82
eigval :     3062.99  3063.10  3068.77  3068.93  3069.10  3069.26
eigval :     3069.37  3069.44  3069.72  3069.83  3070.54  3070.57
eigval :     3071.83  3071.87  3072.32  3072.33  3075.68  3076.26
eigval :     3076.57  3076.66  3078.92  3078.95  3080.36  3080.49
eigval :     3081.05  3081.13  3082.64  3082.68  3083.81  3084.02
eigval :     3086.94  3087.20  3087.44  3088.86  3090.74  3090.78
eigval :     3090.97  3091.24  3091.98  3092.19  3096.38  3096.74
           -------------------------------------------------
          |                Property Printout                |
           -------------------------------------------------

    * Orbital Energies and Occupations

         #    Occupation            Energy/Eh            Energy/eV
      -------------------------------------------------------------
         1        2.0000           -0.6521308             -17.7454
       ...           ...                  ...                  ...
       137        2.0000           -0.4006255             -10.9016
       138        2.0000           -0.4004178             -10.8959
       139        2.0000           -0.3994937             -10.8708
       140        2.0000           -0.3984424             -10.8422
       141        2.0000           -0.3980996             -10.8328
       142        2.0000           -0.3943423             -10.7306
       143        2.0000           -0.3922492             -10.6736
       144        2.0000           -0.3866630             -10.5216
       145        2.0000           -0.3801239             -10.3437
       146        2.0000           -0.3788210             -10.3082
       147        2.0000           -0.3786871             -10.3046
       148        2.0000           -0.3762922             -10.2394
       149        2.0000           -0.3545464              -9.6477 (HOMO)
       150                         -0.2765172              -7.5244 (LUMO)
       151                         -0.2469134              -6.7189
       152                         -0.2457971              -6.6885
       153                         -0.2447560              -6.6601
       154                         -0.2441680              -6.6442
       155                         -0.2360441              -6.4231
       156                         -0.2292558              -6.2384
       157                         -0.2252414              -6.1291
       158                         -0.2248106              -6.1174
       159                         -0.2204617              -5.9991
       160                         -0.2204269              -5.9981
       ...                                ...                  ...
       298                          0.7372613              20.0619
      -------------------------------------------------------------
                  HL-Gap            0.0780292 Eh            2.1233 eV
             Fermi-level           -0.3155318 Eh           -8.5861 eV

     #   Z          covCN         q      C6AA      α(0)
     1   6 C        2.920    -0.031    28.776     8.797
     2   6 C        2.919    -0.030    28.747     8.792
     3   6 C        2.925    -0.034    28.835     8.806
     4   6 C        2.978     0.010    27.784     8.646
     5   6 C        2.974     0.008    27.833     8.654
     6   6 C        2.931    -0.041    29.012     8.833
     7   6 C        2.975     0.008    27.843     8.655
     8   6 C        2.978     0.011    27.766     8.644
     9   6 C        2.925    -0.033    28.820     8.804
    10   6 C        2.919    -0.030    28.740     8.791
    11   6 C        2.920    -0.032    28.790     8.799
    12   6 C        2.919    -0.030    28.743     8.792
    13   6 C        2.925    -0.033    28.831     8.806
    14   6 C        2.932    -0.041    29.008     8.833
    15   6 C        2.974     0.010    27.800     8.649
    16   6 C        2.980     0.007    27.859     8.658
    17   6 C        2.923    -0.034    28.852     8.809
    18   6 C        2.918    -0.032    28.804     8.801
    19   6 C        2.918    -0.032    28.804     8.801
    20   6 C        2.923    -0.034    28.851     8.808
    21   6 C        2.981     0.008    27.828     8.653
    22   6 C        2.977     0.004    27.924     8.668
    23   6 C        2.921    -0.036    28.908     8.817
    24   6 C        2.919    -0.039    28.967     8.826
    25   6 C        2.984     0.009    27.801     8.649
    26   6 C        2.914    -0.036    28.887     8.813
    27   6 C        2.914    -0.032    28.787     8.798
    28   6 C        2.985     0.009    27.806     8.650
    29   6 C        2.977     0.004    27.924     8.668
    30   6 C        2.981     0.008    27.828     8.653
    31   6 C        2.923    -0.034    28.851     8.808
    32   6 C        2.918    -0.032    28.804     8.801
    33   6 C        2.918    -0.032    28.804     8.801
    34   6 C        2.923    -0.034    28.852     8.809
    35   6 C        2.980     0.007    27.859     8.658
    36   6 C        2.974     0.010    27.800     8.649
    37   6 C        2.931    -0.038    28.947     8.824
    38   6 C        2.974     0.008    27.833     8.654
    39   6 C        2.978     0.010    27.784     8.646
    40   6 C        2.927    -0.031    28.765     8.795
    41   6 C        2.919    -0.028    28.695     8.784
    42   6 C        2.920    -0.031    28.776     8.797
    43   6 C        2.919    -0.030    28.747     8.792
    44   6 C        2.925    -0.034    28.836     8.806
    45   6 C        2.931    -0.041    29.011     8.833
    46   6 C        2.975     0.008    27.842     8.655
    47   6 C        2.978     0.011    27.766     8.643
    48   6 C        2.925    -0.033    28.820     8.804
    49   6 C        2.919    -0.030    28.740     8.791
    50   6 C        2.920    -0.032    28.790     8.799
    51   6 C        2.919    -0.030    28.743     8.792
    52   6 C        2.925    -0.033    28.831     8.805
    53   6 C        2.932    -0.041    29.007     8.833
    54   6 C        2.921    -0.036    28.907     8.817
    55   6 C        2.919    -0.039    28.967     8.826
    56   6 C        2.984     0.009    27.800     8.649
    57   6 C        2.914    -0.036    28.887     8.813
    58   6 C        2.914    -0.032    28.788     8.798
    59   6 C        2.985     0.009    27.805     8.650
    60   6 C        2.998     0.003    27.949     8.672
    61   6 C        2.998     0.003    27.949     8.672
    62   6 C        2.931    -0.038    28.948     8.824
    63   6 C        2.927    -0.031    28.765     8.795
    64   6 C        2.919    -0.028    28.695     8.784
    65   1 H        0.926     0.029     2.603     2.523
    66   1 H        0.926     0.029     2.600     2.522
    67   1 H        0.926     0.030     2.585     2.514
    68   1 H        0.926     0.033     2.550     2.497
    69   1 H        0.926     0.030     2.588     2.516
    70   1 H        0.926     0.028     2.609     2.526
    71   1 H        0.926     0.029     2.607     2.525
    72   1 H        0.926     0.029     2.603     2.523
    73   1 H        0.926     0.030     2.588     2.515
    74   1 H        0.926     0.031     2.570     2.507
    75   1 H        0.926     0.031     2.573     2.508
    76   1 H        0.926     0.029     2.595     2.519
    77   1 H        0.926     0.029     2.595     2.519
    78   1 H        0.926     0.030     2.591     2.517
    79   1 H        0.925     0.029     2.605     2.524
    80   1 H        0.926     0.028     2.609     2.526
    81   1 H        0.926     0.028     2.611     2.527
    82   1 H        0.926     0.030     2.592     2.518
    83   1 H        0.926     0.030     2.592     2.517
    84   1 H        0.926     0.029     2.595     2.519
    85   1 H        0.926     0.029     2.595     2.519
    86   1 H        0.926     0.031     2.573     2.509
    87   1 H        0.926     0.030     2.580     2.512
    88   1 H        0.926     0.028     2.616     2.529
    89   1 H        0.926     0.028     2.620     2.531
    90   1 H        0.926     0.029     2.603     2.523
    91   1 H        0.926     0.029     2.600     2.521
    92   1 H        0.926     0.030     2.585     2.514
    93   1 H        0.926     0.033     2.550     2.497
    94   1 H        0.926     0.030     2.587     2.515
    95   1 H        0.926     0.028     2.609     2.526
    96   1 H        0.926     0.029     2.607     2.525
    97   1 H        0.926     0.029     2.603     2.523
    98   1 H        0.926     0.030     2.588     2.515
    99   1 H        0.926     0.031     2.570     2.507
   100   1 H        0.925     0.029     2.605     2.524
   101   1 H        0.926     0.028     2.609     2.526
   102   1 H        0.926     0.028     2.611     2.527
   103   1 H        0.926     0.030     2.592     2.518
   104   1 H        0.926     0.030     2.579     2.512
   105   1 H        0.926     0.028     2.616     2.529
   106   1 H        0.926     0.028     2.620     2.531

 Mol. C6AA /au·bohr⁶  :     167434.952493
 Mol. C8AA /au·bohr⁸  :    4293526.398404
 Mol. α(0) /au        :        666.049678


MOs/occ written to file <molden.input>


molecular dipole:
                 x           y           z       tot (Debye)
 q only:        0.000       0.000       0.000
   full:       -0.000       0.001       0.000       0.003
molecular quadrupole (traceless):
                xx          xy          yy          xz          yz          zz
 q only:        1.736       3.288       2.709       4.356      -2.510      -4.446
  q+dip:        6.842      10.853      12.124      19.067     -12.141     -18.966
   full:        3.004       5.599       5.514       9.099      -5.988      -8.518

           -------------------------------------------------
          |                Geometry Summary                 |
           -------------------------------------------------

      molecular mass/u    :      811.0206091
   center of mass at/Å    :       -0.0000919       0.0000777      -0.0002135
  moments of inertia/u·Å² :        0.8420344E+04   0.1465415E+05   0.1703827E+05
rotational constants/cm⁻¹ :        0.2002012E-02   0.1150366E-02   0.9893981E-03

 * 109 selected distances

     #   Z          #   Z                                           value/Å
     1   6 C        2   6 C                                       1.3846044
     2   6 C        3   6 C                                       1.3821538
     3   6 C        4   6 C                                       1.3922079
     5   6 C        6   6 C                                       1.3907614
     6   6 C        7   6 C                                       1.3894161
     8   6 C        9   6 C                                       1.3927117
     9   6 C       10   6 C                                       1.3823231
    10   6 C       11   6 C                                       1.3849907
    11   6 C       12   6 C                                       1.3847961
     8   6 C       13   6 C                                       1.3920442
    12   6 C       13   6 C                                       1.3826184
     7   6 C       14   6 C                                       1.3907893
    14   6 C       15   6 C                                       1.3896087
    16   6 C       17   6 C                                       1.3894732
    17   6 C       18   6 C                                       1.3834572
    18   6 C       19   6 C                                       1.3842405
    19   6 C       20   6 C                                       1.3831871
    16   6 C       21   6 C                                       1.4062320
    20   6 C       21   6 C                                       1.3898605
    22   6 C       23   6 C                                       1.3920776
    23   6 C       24   6 C                                       1.3797997
    24   6 C       25   6 C                                       1.3958725
    25   6 C       26   6 C                                       1.4228005
    26   6 C       27   6 C                                       1.3518255
    27   6 C       28   6 C                                       1.4252752
    28   6 C       29   6 C                                       1.4063145
    30   6 C       31   6 C                                       1.3898845
    31   6 C       32   6 C                                       1.3831820
    32   6 C       33   6 C                                       1.3842491
    33   6 C       34   6 C                                       1.3834708
    30   6 C       35   6 C                                       1.4062094
    34   6 C       35   6 C                                       1.3894317
    36   6 C       37   6 C                                       1.3903104
    37   6 C       38   6 C                                       1.3899484
    39   6 C       40   6 C                                       1.3931080
    40   6 C       41   6 C                                       1.3817045
    41   6 C       42   6 C                                       1.3842200
    42   6 C       43   6 C                                       1.3846332
    39   6 C       44   6 C                                       1.3921988
    43   6 C       44   6 C                                       1.3821452
    38   6 C       45   6 C                                       1.3907435
    45   6 C       46   6 C                                       1.3894171
    47   6 C       48   6 C                                       1.3927390
    48   6 C       49   6 C                                       1.3823061
    49   6 C       50   6 C                                       1.3849936
    50   6 C       51   6 C                                       1.3847997
    47   6 C       52   6 C                                       1.3920161
    51   6 C       52   6 C                                       1.3826423
    36   6 C       53   6 C                                       1.3896063
    46   6 C       53   6 C                                       1.3907932
    29   6 C       54   6 C                                       1.3920364
    54   6 C       55   6 C                                       1.3798332
    55   6 C       56   6 C                                       1.3958215
    56   6 C       57   6 C                                       1.4228483
    57   6 C       58   6 C                                       1.3518150
    22   6 C       59   6 C                                       1.4062737
    58   6 C       59   6 C                                       1.4252869 (max)
    25   6 C       60   6 C                                       1.4158124
    59   6 C       60   6 C                                       1.4151259
    28   6 C       61   6 C                                       1.4151091
    56   6 C       61   6 C                                       1.4158169
    60   6 C       61   6 C                                       1.4153233
     5   6 C       62   6 C                                       1.3899780
    15   6 C       62   6 C                                       1.3903420
     4   6 C       63   6 C                                       1.3931376
     1   6 C       64   6 C                                       1.3842308
    63   6 C       64   6 C                                       1.3816974
     1   6 C       65   1 H                                       1.0800738
     2   6 C       66   1 H                                       1.0805898
     3   6 C       67   1 H                                       1.0804664
     6   6 C       68   1 H                                       1.0800311
     9   6 C       69   1 H                                       1.0806637
    10   6 C       70   1 H                                       1.0806469
    11   6 C       71   1 H                                       1.0800998
    12   6 C       72   1 H                                       1.0804966
    13   6 C       73   1 H                                       1.0805951
    14   6 C       74   1 H                                       1.0807700
    17   6 C       75   1 H                                       1.0807548
    18   6 C       76   1 H                                       1.0800785
    19   6 C       77   1 H                                       1.0801354
    20   6 C       78   1 H                                       1.0810980
    23   6 C       79   1 H                                       1.0815616
    24   6 C       80   1 H                                       1.0811026
    26   6 C       81   1 H                                       1.0809029
    27   6 C       82   1 H                                       1.0798344
    31   6 C       83   1 H                                       1.0810992
    32   6 C       84   1 H                                       1.0801382
    33   6 C       85   1 H                                       1.0800776
    34   6 C       86   1 H                                       1.0807580
    37   6 C       87   1 H                                       1.0792896
    40   6 C       88   1 H                                       1.0800548
    41   6 C       89   1 H                                       1.0804959
    42   6 C       90   1 H                                       1.0800753
    43   6 C       91   1 H                                       1.0806005
    44   6 C       92   1 H                                       1.0804834
    45   6 C       93   1 H                                       1.0800330
    48   6 C       94   1 H                                       1.0806575
    49   6 C       95   1 H                                       1.0806513
    50   6 C       96   1 H                                       1.0801017
    51   6 C       97   1 H                                       1.0804956
    52   6 C       98   1 H                                       1.0805995
    53   6 C       99   1 H                                       1.0807773
    54   6 C      100   1 H                                       1.0815612
    55   6 C      101   1 H                                       1.0810968
    57   6 C      102   1 H                                       1.0809047
    58   6 C      103   1 H                                       1.0798520
    62   6 C      104   1 H                                       1.0792569 (min)
    63   6 C      105   1 H                                       1.0800601
    64   6 C      106   1 H                                       1.0804950

 * 2 distinct bonds (by element types)

   Z      Z             #   av. dist./Å        max./Å        min./Å
   1 H    6 C          42     1.0804647     1.0815616     1.0792569
   6 C    6 C          67     1.3918609     1.4252869     1.3518150

           -------------------------------------------------
          |               Frequency Printout                |
           -------------------------------------------------
 projected vibrational frequencies (cm⁻¹)
eigval :       -0.00    -0.00    -0.00     0.00     0.00     0.00
eigval :       10.40    11.55    12.39    15.39    26.79    38.99
eigval :       39.11    41.14    42.54    46.78    48.58    53.84
eigval :       55.52    56.41    56.97    73.75    76.87    82.48
eigval :       87.01   105.00   116.06   119.29   126.99   130.03
eigval :      132.86   138.98   159.64   170.67   192.69   195.63
eigval :      197.60   221.81   231.33   232.95   253.79   258.07
eigval :      259.97   264.40   272.93   283.85   289.24   294.44
eigval :      298.06   312.10   312.66   326.70   350.95   356.28
eigval :      367.29   370.24   372.74   373.80   377.27   379.70
eigval :      379.92   384.41   388.44   396.61   412.41   420.26
eigval :      452.53   475.94   477.59   480.33   484.38   487.19
eigval :      493.46   497.14   518.92   523.18   544.32   548.81
eigval :      556.28   560.00   561.85   581.09   581.21   584.57
eigval :      585.00   586.04   586.52   586.73   590.70   605.10
eigval :      605.56   607.82   612.07   625.84   643.16   645.16
eigval :      647.75   651.82   666.41   667.05   674.01   674.12
eigval :      677.48   678.14   682.44   683.60   694.17   716.33
eigval :      716.34   722.41   742.78   754.08   754.65   755.04
eigval :      764.33   764.47   781.11   782.41   805.38   812.34
eigval :      824.22   827.76   828.06   830.32   830.83   842.17
eigval :      842.94   848.15   850.97   877.34   877.56   878.13
eigval :      878.22   879.23   886.19   886.77   894.81   894.97
eigval :      900.97   901.00   904.53   904.62   909.64   910.08
eigval :      913.07   914.37   919.98   920.21   927.57   929.12
eigval :      929.60   929.66   929.82   929.97   930.86   931.13
eigval :      932.44   932.70   933.39   933.46   952.66   954.90
eigval :      986.36   986.38   991.07   991.60   995.39   998.61
eigval :     1045.59  1064.05  1083.51  1084.95  1085.87  1088.01
eigval :     1092.97  1097.36  1100.07  1110.30  1111.97  1120.21
eigval :     1120.25  1123.30  1123.70  1124.96  1125.18  1131.25
eigval :     1140.92  1153.18  1157.00  1167.14  1181.63  1181.99
eigval :     1182.64  1182.69  1183.10  1183.13  1188.38  1199.89
eigval :     1199.90  1202.51  1204.42  1204.51  1211.80  1230.62
eigval :     1231.02  1239.68  1245.50  1245.50  1250.71  1251.45
eigval :     1251.68  1254.77  1255.52  1281.67  1281.68  1284.73
eigval :     1284.78  1288.78  1291.28  1305.44  1305.62  1313.53
eigval :     1317.64  1317.94  1320.38  1320.51  1323.14  1325.13
eigval :     1325.15  1352.93  1353.09  1366.35  1379.18  1386.89
eigval :     1411.88  1412.16  1414.61  1415.10  1419.98  1422.64
eigval :     1433.42  1434.52  1439.03  1439.12  1448.29  1448.77
eigval :     1455.72  1472.88  1473.55  1486.20  1486.25  1487.98
eigval :     1488.00  1497.46  1503.05  1531.99  1560.98  1561.78
eigval :     1565.93  1568.08  1576.41  1576.46  1578.52  1578.55
eigval :     1584.64  1584.67  1585.97  1586.04  1592.54  1592.66
eigval :     1601.06  1601.07  1602.40  1602.43  1607.45  1607.82
eigval :     3062.99  3063.10  3068.77  3068.93  3069.10  3069.26
eigval :     3069.37  3069.44  3069.72  3069.83  3070.54  3070.57
eigval :     3071.83  3071.87  3072.32  3072.33  3075.68  3076.26
eigval :     3076.57  3076.66  3078.92  3078.95  3080.36  3080.49
eigval :     3081.05  3081.13  3082.64  3082.68  3083.81  3084.02
eigval :     3086.94  3087.20  3087.44  3088.86  3090.74  3090.78
eigval :     3090.97  3091.24  3091.98  3092.19  3096.38  3096.74
 reduced masses (amu)
   1: 11.30   2: 11.42   3: 11.34   4: 11.24   5: 11.26   6: 11.26   7: 11.03   8: 11.14
   9: 11.13  10: 11.10  11: 10.93  12: 10.82  13: 10.87  14: 10.72  15: 10.61  16:  9.84
  17: 10.08  18: 10.67  19: 10.66  20: 10.73  21: 10.75  22: 10.12  23: 10.01  24: 10.61
  25: 10.82  26: 10.56  27: 10.30  28: 10.37  29: 10.44  30: 10.48  31: 10.41  32: 10.82
  33: 10.53  34: 10.36  35: 10.41  36: 10.88  37: 10.36  38: 10.39  39: 10.48  40: 10.59
  41: 10.92  42: 10.28  43: 10.49  44: 10.66  45: 10.22  46: 10.53  47: 10.30  48: 10.62
  49: 10.38  50: 10.95  51: 10.85  52: 10.68  53: 10.55  54: 10.60  55: 10.39  56:  9.88
  57:  9.14  58:  9.06  59:  9.92  60:  9.52  61:  9.47  62: 10.37  63: 10.45  64: 11.14
  65: 10.76  66:  9.72  67: 10.40  68: 10.24  69: 10.15  70: 10.25  71: 10.54  72: 10.09
  73: 10.66  74: 10.58  75:  9.83  76: 10.82  77: 10.33  78: 10.48  79: 10.17  80: 10.34
  81: 11.03  82: 11.06  83: 11.06  84: 11.34  85: 11.34  86: 11.37  87: 11.21  88: 11.12
  89: 11.29  90: 11.00  91: 10.97  92: 11.10  93: 11.06  94: 11.02  95: 11.17  96: 11.20
  97: 11.19  98: 11.02  99: 10.20 100: 10.17 101:  9.01 102:  8.94 103: 10.79 104: 11.30
 105:  9.58 106:  9.63 107: 10.82 108: 11.24 109: 11.11 110: 11.08 111: 10.79 112: 11.17
 113:  4.41 114:  5.12 115:  5.08 116:  5.16 117:  3.59 118:  3.80 119:  4.20 120: 10.47
 121:  3.66 122: 10.67 123: 10.64 124: 11.15 125: 11.15 126:  4.01 127:  4.06 128:  4.67
 129:  4.46 130:  3.33 131:  3.32 132:  3.33 133:  3.33 134: 10.66 135:  3.49 136:  3.93
 137:  3.72 138:  3.76 139:  3.68 140:  3.68 141:  3.79 142:  3.79 143:  3.65 144:  3.67
 145:  3.56 146:  3.57 147:  3.98 148:  3.95 149:  3.10 150:  3.55 151:  3.45 152:  3.13
 153:  3.42 154:  3.43 155:  3.91 156:  3.80 157:  2.95 158:  2.97 159:  3.22 160:  3.22
 161: 11.39 162: 11.36 163: 10.86 164: 10.86 165: 10.95 166: 10.94 167: 11.26 168: 10.21
 169: 10.75 170: 11.14 171:  8.27 172:  6.84 173:  7.35 174:  6.73 175:  7.44 176:  6.04
 177:  6.31 178:  7.03 179:  7.34 180:  4.14 181:  4.14 182:  4.62 183:  4.99 184:  5.21
 185:  4.93 186:  5.94 187:  5.25 188:  4.34 189:  3.77 190:  3.14 191:  1.42 192:  1.41
 193:  1.32 194:  1.33 195:  1.33 196:  1.31 197:  2.99 198:  1.77 199:  1.76 200:  3.70
 201:  1.90 202:  1.93 203:  5.48 204:  5.53 205:  5.57 206:  5.82 207:  6.92 208:  6.92
 209:  6.87 210:  3.05 211:  3.26 212:  4.25 213:  4.29 214:  3.52 215:  3.53 216:  3.47
 217:  3.47 218:  9.23 219:  8.53 220: 11.63 221: 11.74 222: 10.20 223: 11.88 224: 11.85
 225: 11.85 226: 11.87 227:  9.21 228: 11.70 229: 11.59 230: 10.07 231: 10.07 232:  8.63
 233:  9.76 234: 10.67 235: 10.58 236:  9.01 237: 10.06 238:  9.24 239:  9.38 240:  9.44
 241:  9.14 242:  9.28 243:  9.22 244:  9.22 245:  9.61 246:  9.94 247: 11.11 248: 10.34
 249: 10.50 250:  9.72 251:  9.73 252:  9.64 253:  9.64 254: 11.18 255: 11.01 256: 11.47
 257: 11.48 258: 11.64 259: 11.48 260: 11.53 261: 11.41 262: 11.41 263: 11.45 264: 11.45
 265: 11.52 266: 11.53 267: 11.54 268: 11.54 269: 11.52 270: 11.52 271: 11.48 272: 11.48
 273: 11.49 274: 11.49 275: 11.60 276: 11.57 277:  1.77 278:  1.77 279:  1.78 280:  1.76
 281:  1.75 282:  1.77 283:  1.75 284:  1.75 285:  1.77 286:  1.77 287:  1.78 288:  1.78
 289:  1.78 290:  1.78 291:  1.79 292:  1.79 293:  1.87 294:  1.85 295:  1.82 296:  1.83
 297:  1.83 298:  1.83 299:  1.84 300:  1.84 301:  1.85 302:  1.85 303:  1.86 304:  1.86
 305:  1.86 306:  1.86 307:  1.85 308:  1.85 309:  1.86 310:  1.86 311:  1.92 312:  1.92
 313:  1.92 314:  1.92 315:  1.91 316:  1.91 317:  1.82 318:  1.82
 IR intensities (km·mol⁻¹)
   1:  0.11   2:  0.18   3:  0.46   4:  0.09   5:  0.05   6:  0.02   7:  0.22   8:  0.00
   9:  0.03  10:  0.03  11:  0.00  12:  0.08  13:  0.06  14:  0.00  15:  0.09  16:  0.00
  17:  0.50  18:  0.06  19:  0.00  20:  0.00  21:  0.86  22:  0.00  23:  0.15  24:  0.00
  25:  0.63  26:  0.00  27:  0.18  28:  0.00  29:  0.46  30:  0.01  31:  0.66  32:  0.24
  33:  0.00  34:  0.41  35:  0.00  36:  2.75  37:  0.00  38:  1.26  39:  0.00  40:  0.24
  41:  0.00  42:  0.37  43:  0.00  44:  0.28  45:  0.00  46:  0.55  47:  0.01  48:  0.00
  49:  0.09  50:  0.06  51:  0.00  52:  0.29  53:  0.01  54:  0.94  55:  0.00  56:  2.52
  57:  0.00  58:  0.36  59:  0.00  60:  0.01  61:  0.49  62:  0.29  63:  0.71  64:  0.00
  65:  0.00  66:  0.39  67:  0.00  68:  4.64  69:  0.00  70:  0.00  71:  0.00  72:  4.08
  73:  1.96  74:  0.00  75:  0.00  76:  2.38  77:  0.00  78:  1.75  79:  0.00  80:  1.55
  81:  3.14  82:  0.01  83:  1.43  84:  0.00  85:  6.10  86:  0.00  87:  0.65  88:  0.00
  89:  2.33  90:  0.00  91:  0.87  92:  0.00  93:  0.24  94:  0.00  95:  0.00  96:  0.25
  97:  0.00  98:  3.03  99:  5.14 100:  0.00 101:  0.10 102:  2.48 103:  0.00 104:  0.24
 105:  9.85 106:  0.01 107:  6.06 108:  0.16 109:  5.04 110:  0.62 111:  0.00 112:  0.01
 113:100.08 114:  0.08 115:  4.17 116:  0.02 117: 32.45 118:  0.00 119:  2.45 120:  1.09
 121:  0.00 122:  0.00 123:  1.85 124:  0.00 125:  0.77 126:  0.05 127: 30.18 128:  0.01
 129: 32.45 130:  0.04 131:  2.23 132:  1.22 133:  0.08 134:  0.00 135:  2.23 136:  0.00
 137:  0.86 138:  0.01 139:  0.02 140:  1.00 141:  0.27 142:  0.99 143:  4.02 144:  0.05
 145:  8.15 146:  0.01 147:  2.83 148:  0.00 149:  0.74 150:  0.00 151:  2.66 152:  0.03
 153:  2.99 154:  0.08 155:  1.30 156:  0.01 157:  1.14 158:  0.00 159:  0.07 160:  0.78
 161:  0.73 162:  0.00 163:  1.61 164:  0.14 165:  1.27 166:  0.00 167:  2.42 168:  4.53
 169:  0.00 170:  0.58 171:  0.00 172:  0.25 173:  0.00 174:  0.14 175:  0.00 176:  0.35
 177:  0.00 178:  0.21 179:  0.00 180:  0.00 181:  0.24 182:  0.00 183:  3.10 184:  0.01
 185:  5.85 186:  0.01 187:  1.58 188:  0.00 189:  1.16 190:  0.00 191:  2.08 192:  0.00
 193:  0.00 194:  0.39 195:  1.98 196:  0.01 197:  6.73 198:  0.23 199:  1.19 200:  0.00
 201:  0.08 202:  0.07 203:  1.65 204:  4.24 205:  0.01 206:  0.07 207:  0.03 208:  3.21
 209:  0.00 210:  3.87 211:  0.04 212:  1.07 213:  0.01 214:  0.28 215:  0.05 216:  0.03
 217:  0.03 218:  0.00 219:  0.36 220:  0.01 221:  1.78 222:  2.71 223:  0.00 224:  1.80
 225:  0.00 226:  0.19 227:  0.00 228:  1.12 229:  0.33 230:  0.02 231:  0.79 232:  0.00
 233:  0.69 234:  0.00 235:  0.00 236:  1.52 237:  0.00 238:  1.77 239:  0.00 240:  5.51
 241:  0.00 242:  3.64 243:  0.00 244:  3.66 245:  0.00 246:  3.42 247:  0.15 248:  0.00
 249:  1.62 250:  0.00 251:  2.02 252:  0.22 253:  1.51 254:  2.99 255:  0.00 256:  0.00
 257:  1.27 258:  0.00 259:  0.00 260:  0.95 261:  0.60 262:  3.50 263:  1.96 264:  3.66
 265:  0.27 266:  1.14 267:  0.96 268:  0.00 269:  5.03 270:  0.00 271:  7.07 272:  4.67
 273:  0.18 274:  6.17 275:  0.00 276:  2.54 277: 35.61 278:  0.40 279:  0.10 280: 31.02
 281:  0.02 282: 18.13 283:  9.56 284:  6.67 285:  9.50 286:  0.13 287: 12.67 288:  0.00
 289:  0.85 290:  9.45 291: 10.53 292: 15.31 293: 59.82 294:  0.24 295: 38.33 296:  5.91
 297: 70.23 298: 18.68 299:  2.30 300: 30.03 301:  1.25 302: 94.99 303:168.28 304:  6.75
 305: 88.60 306:  0.05 307:  0.38 308: 79.45 309: 91.80 310:  0.07 311:185.84 312:  2.55
 313:229.46 314:  0.06 315:  0.02 316: 28.48 317: 10.82 318:  8.58
 Raman intensities (Ä⁴*amu⁻¹)
   1:  0.00   2:  0.00   3:  0.00   4:  0.00   5:  0.00   6:  0.00   7:  0.00   8:  0.00
   9:  0.00  10:  0.00  11:  0.00  12:  0.00  13:  0.00  14:  0.00  15:  0.00  16:  0.00
  17:  0.00  18:  0.00  19:  0.00  20:  0.00  21:  0.00  22:  0.00  23:  0.00  24:  0.00
  25:  0.00  26:  0.00  27:  0.00  28:  0.00  29:  0.00  30:  0.00  31:  0.00  32:  0.00
  33:  0.00  34:  0.00  35:  0.00  36:  0.00  37:  0.00  38:  0.00  39:  0.00  40:  0.00
  41:  0.00  42:  0.00  43:  0.00  44:  0.00  45:  0.00  46:  0.00  47:  0.00  48:  0.00
  49:  0.00  50:  0.00  51:  0.00  52:  0.00  53:  0.00  54:  0.00  55:  0.00  56:  0.00
  57:  0.00  58:  0.00  59:  0.00  60:  0.00  61:  0.00  62:  0.00  63:  0.00  64:  0.00
  65:  0.00  66:  0.00  67:  0.00  68:  0.00  69:  0.00  70:  0.00  71:  0.00  72:  0.00
  73:  0.00  74:  0.00  75:  0.00  76:  0.00  77:  0.00  78:  0.00  79:  0.00  80:  0.00
  81:  0.00  82:  0.00  83:  0.00  84:  0.00  85:  0.00  86:  0.00  87:  0.00  88:  0.00
  89:  0.00  90:  0.00  91:  0.00  92:  0.00  93:  0.00  94:  0.00  95:  0.00  96:  0.00
  97:  0.00  98:  0.00  99:  0.00 100:  0.00 101:  0.00 102:  0.00 103:  0.00 104:  0.00
 105:  0.00 106:  0.00 107:  0.00 108:  0.00 109:  0.00 110:  0.00 111:  0.00 112:  0.00
 113:  0.00 114:  0.00 115:  0.00 116:  0.00 117:  0.00 118:  0.00 119:  0.00 120:  0.00
 121:  0.00 122:  0.00 123:  0.00 124:  0.00 125:  0.00 126:  0.00 127:  0.00 128:  0.00
 129:  0.00 130:  0.00 131:  0.00 132:  0.00 133:  0.00 134:  0.00 135:  0.00 136:  0.00
 137:  0.00 138:  0.00 139:  0.00 140:  0.00 141:  0.00 142:  0.00 143:  0.00 144:  0.00
 145:  0.00 146:  0.00 147:  0.00 148:  0.00 149:  0.00 150:  0.00 151:  0.00 152:  0.00
 153:  0.00 154:  0.00 155:  0.00 156:  0.00 157:  0.00 158:  0.00 159:  0.00 160:  0.00
 161:  0.00 162:  0.00 163:  0.00 164:  0.00 165:  0.00 166:  0.00 167:  0.00 168:  0.00
 169:  0.00 170:  0.00 171:  0.00 172:  0.00 173:  0.00 174:  0.00 175:  0.00 176:  0.00
 177:  0.00 178:  0.00 179:  0.00 180:  0.00 181:  0.00 182:  0.00 183:  0.00 184:  0.00
 185:  0.00 186:  0.00 187:  0.00 188:  0.00 189:  0.00 190:  0.00 191:  0.00 192:  0.00
 193:  0.00 194:  0.00 195:  0.00 196:  0.00 197:  0.00 198:  0.00 199:  0.00 200:  0.00
 201:  0.00 202:  0.00 203:  0.00 204:  0.00 205:  0.00 206:  0.00 207:  0.00 208:  0.00
 209:  0.00 210:  0.00 211:  0.00 212:  0.00 213:  0.00 214:  0.00 215:  0.00 216:  0.00
 217:  0.00 218:  0.00 219:  0.00 220:  0.00 221:  0.00 222:  0.00 223:  0.00 224:  0.00
 225:  0.00 226:  0.00 227:  0.00 228:  0.00 229:  0.00 230:  0.00 231:  0.00 232:  0.00
 233:  0.00 234:  0.00 235:  0.00 236:  0.00 237:  0.00 238:  0.00 239:  0.00 240:  0.00
 241:  0.00 242:  0.00 243:  0.00 244:  0.00 245:  0.00 246:  0.00 247:  0.00 248:  0.00
 249:  0.00 250:  0.00 251:  0.00 252:  0.00 253:  0.00 254:  0.00 255:  0.00 256:  0.00
 257:  0.00 258:  0.00 259:  0.00 260:  0.00 261:  0.00 262:  0.00 263:  0.00 264:  0.00
 265:  0.00 266:  0.00 267:  0.00 268:  0.00 269:  0.00 270:  0.00 271:  0.00 272:  0.00
 273:  0.00 274:  0.00 275:  0.00 276:  0.00 277:  0.00 278:  0.00 279:  0.00 280:  0.00
 281:  0.00 282:  0.00 283:  0.00 284:  0.00 285:  0.00 286:  0.00 287:  0.00 288:  0.00
 289:  0.00 290:  0.00 291:  0.00 292:  0.00 293:  0.00 294:  0.00 295:  0.00 296:  0.00
 297:  0.00 298:  0.00 299:  0.00 300:  0.00 301:  0.00 302:  0.00 303:  0.00 304:  0.00
 305:  0.00 306:  0.00 307:  0.00 308:  0.00 309:  0.00 310:  0.00 311:  0.00 312:  0.00
 313:  0.00 314:  0.00 315:  0.00 316:  0.00 317:  0.00 318:  0.00
 output can be read by thermo (or use thermo option).
 writing <g98.out> molden fake output.
 recommended (thermochemical) frequency scaling factor: 1.0
           -------------------------------------------------
          |             Thermodynamic Functions             |
           -------------------------------------------------

Molecule has no symmetry elements
It seems to be the C1 point group
c1  symmetry found (for desy threshold:  0.10E+00) used in thermo

          ...................................................
          :                      SETUP                      :
          :.................................................:
          :  # frequencies                         312      :
          :  # imaginary freq.                       0      :
          :  linear?                             false      :
          :  only rotor calc.                    false      :
          :  symmetry                               c1      :
          :  rotational number                       1      :
          :  scaling factor                  1.0000000      :
          :  rotor cutoff                   50.0000000 cm⁻¹ :
          :  imag. cutoff                  -20.0000000 cm⁻¹ :
          :.................................................:

    mode    ω/cm⁻¹     T·S(HO)/kcal·mol⁻¹    T·S(FR)/kcal·mol⁻¹   T·S(vib)
   ------------------------------------------------------------------------
       1     10.40    -2.36516 (  0.19%)    -1.52163 ( 99.81%)    -1.52321
       2     11.55    -2.30290 (  0.28%)    -1.49049 ( 99.72%)    -1.49281
       3     12.39    -2.26133 (  0.38%)    -1.46971 ( 99.62%)    -1.47269
       4     15.39    -2.13326 (  0.89%)    -1.40565 ( 99.11%)    -1.41212
       5     26.79    -1.80496 (  7.62%)    -1.24138 ( 92.38%)    -1.28430
       6     38.99    -1.58304 ( 27.00%)    -1.13019 ( 73.00%)    -1.25248
       7     39.11    -1.58136 ( 27.23%)    -1.12935 ( 72.77%)    -1.25242
       8     41.14    -1.55142 ( 31.42%)    -1.11433 ( 68.58%)    -1.25169
       9     42.54    -1.53163 ( 34.38%)    -1.10441 ( 65.62%)    -1.25130
      10     46.78    -1.47555 ( 43.38%)    -1.07626 ( 56.62%)    -1.24949
      11     48.58    -1.45324 ( 47.13%)    -1.06505 ( 52.87%)    -1.24801
      12     53.84    -1.39264 ( 57.35%)    -1.03460 ( 42.65%)    -1.23995
      13     55.52    -1.37457 ( 60.33%)    -1.02551 ( 39.67%)    -1.23608
      14     56.41    -1.36518 ( 61.84%)    -1.02079 ( 38.16%)    -1.23376
      15     56.97    -1.35945 ( 62.76%)    -1.01790 ( 37.24%)    -1.23224
      16     73.75    -1.20772 ( 82.56%)    -0.94141 ( 17.44%)    -1.16127
      17     76.87    -1.18343 ( 84.82%)    -0.92913 ( 15.18%)    -1.14482
      18     82.48    -1.14224 ( 88.10%)    -0.90828 ( 11.90%)    -1.11439
      19     87.01    -1.11098 ( 90.17%)    -0.89244 (  9.83%)    -1.08949
      20    105.00    -1.00156 ( 95.11%)    -0.83675 (  4.89%)    -0.99350
      21    116.06    -0.94364 ( 96.67%)    -0.80709 (  3.33%)    -0.93909
      22    119.29    -0.92782 ( 97.01%)    -0.79897 (  2.99%)    -0.92396
      23    126.99    -0.89180 ( 97.65%)    -0.78042 (  2.35%)    -0.88918
      24    130.03    -0.87822 ( 97.86%)    -0.77341 (  2.14%)    -0.87598
      25    132.86    -0.86591 ( 98.03%)    -0.76705 (  1.97%)    -0.86396
      26    138.98    -0.84013 ( 98.35%)    -0.75369 (  1.65%)    -0.83871
      27    159.64    -0.76150 ( 99.05%)    -0.71265 (  0.95%)    -0.76104
      28    170.67    -0.72394 ( 99.27%)    -0.69285 (  0.73%)    -0.72371
      29    192.69    -0.65645 ( 99.55%)    -0.65689 (  0.45%)    -0.65645
      30    195.63    -0.64813 ( 99.58%)    -0.65242 (  0.42%)    -0.64815
      31    197.60    -0.64261 ( 99.59%)    -0.64945 (  0.41%)    -0.64264
      32    221.81    -0.57969 ( 99.74%)    -0.61521 (  0.26%)    -0.57978
      33    231.33    -0.55712 ( 99.78%)    -0.60276 (  0.22%)    -0.55722
      34    232.95    -0.55338 ( 99.79%)    -0.60069 (  0.21%)    -0.55348
      35    253.79    -0.50808 ( 99.85%)    -0.57531 (  0.15%)    -0.50818
      36    258.07    -0.49933 ( 99.86%)    -0.57035 (  0.14%)    -0.49943
      37    259.97    -0.49552 ( 99.86%)    -0.56819 (  0.14%)    -0.49562
      38    264.40    -0.48674 ( 99.87%)    -0.56318 (  0.13%)    -0.48684
      39    272.93    -0.47036 ( 99.89%)    -0.55377 (  0.11%)    -0.47046
      40    283.85    -0.45031 ( 99.90%)    -0.54214 (  0.10%)    -0.45039
      41    289.24    -0.44079 ( 99.91%)    -0.53658 (  0.09%)    -0.44088
      42    294.44    -0.43181 ( 99.92%)    -0.53129 (  0.08%)    -0.43189
      43    298.06    -0.42569 ( 99.92%)    -0.52768 (  0.08%)    -0.42577
   ------------------------------------------------------------------------

   temp. (K)  partition function   enthalpy   heat capacity  entropy
                                   cal/mol     cal/K/mol   cal/K/mol   J/K/mol
 298.15  VIB  0.133E+24            29681.424    189.251    185.041
         ROT  0.111E+09              888.752      2.981     39.791
         INT  0.148E+32            30570.177    192.232    224.831
         TR   0.223E+29             1481.254      4.968     45.936
         TOT                       32051.4305   197.2000   270.7678  1132.8924

       T/K    H(0)-H(T)+PV         H(T)/Eh          T*S/Eh         G(T)/Eh
   ------------------------------------------------------------------------
    298.15    0.510772E-01    0.877744E+00    0.128651E+00    0.749094E+00
   ------------------------------------------------------------------------

         :::::::::::::::::::::::::::::::::::::::::::::::::::::
         ::                  THERMODYNAMIC                  ::
         :::::::::::::::::::::::::::::::::::::::::::::::::::::
         :: total free energy        -157.748355221685 Eh   ::
         ::.................................................::
         :: total energy             -158.497448942793 Eh   ::
         :: zero point energy           0.826667025235 Eh   ::
         :: G(RRHO) w/o ZPVE           -0.077573304127 Eh   ::
         :: G(RRHO) contrib.            0.749093721108 Eh   ::
         :::::::::::::::::::::::::::::::::::::::::::::::::::::

optimized geometry written to: xtbopt.xyz


           -------------------------------------------------
          | TOTAL ENERGY             -158.497448942793 Eh   |
          | TOTAL ENTHALPY           -157.619704711920 Eh   |
          | TOTAL FREE ENERGY        -157.748355221685 Eh   |
          | GRADIENT NORM               0.000102329735 Eh/α |
          | HOMO-LUMO GAP               2.123281910730 eV   |
           -------------------------------------------------

------------------------------------------------------------------------
 * finished run on 2025/09/10 at 10:58:23.432     
------------------------------------------------------------------------
 total:
 * wall-time:     0 d,  0 h,  0 min, 11.218 sec
 *  cpu-time:     0 d,  0 h,  6 min, 53.529 sec
 * ratio c/w:    36.863 speedup
 SCF:
 * wall-time:     0 d,  0 h,  0 min,  0.252 sec
 *  cpu-time:     0 d,  0 h,  0 min, 10.022 sec
 * ratio c/w:    39.782 speedup
 ANC optimizer:
 * wall-time:     0 d,  0 h,  0 min,  2.342 sec
 *  cpu-time:     0 d,  0 h,  1 min, 33.672 sec
 * ratio c/w:    39.995 speedup
 analytical hessian:
 * wall-time:     0 d,  0 h,  0 min,  8.351 sec
 *  cpu-time:     0 d,  0 h,  5 min,  0.758 sec
 * ratio c/w:    36.015 speedup

