$hessian                                                                        
        0.6121743547   0.0667881168  -0.1072056273  -0.3076156512  -0.0590462648
        0.0321445844  -0.0329921641   0.0573340079   0.0634510632  -0.0370294908
       -0.0160546094  -0.0071772384   0.0021565384  -0.0008912960  -0.0019928491
        0.0000161513   0.0003886421   0.0001402653  -0.0004778724   0.0001478945
        0.0000111954  -0.0001436085  -0.0002430307   0.0001089239  -0.0002155703
       -0.0001862138   0.0001809633   0.0001049638  -0.0002075096   0.0000635959
       -0.0000472115   0.0004406637  -0.0002414234   0.0006634998   0.0000250480
       -0.0002943230   0.0009924030  -0.0000275928  -0.0001857713   0.0000468447
       -0.0005756048   0.0003288104  -0.0000643433   0.0002994087  -0.0001462495
       -0.0001527761   0.0003404241   0.0000022615  -0.0002902296   0.0001742282
        0.0002295518  -0.0004476676  -0.0003520342   0.0002742147  -0.0029178759
       -0.0004993180   0.0005394758   0.0043224104  -0.0021115866  -0.0006153630
       -0.0088804478   0.0013995731   0.0028750162   0.0135764532   0.0001371748
        0.0021489652  -0.0094488834  -0.0054895343  -0.0040003475   0.0059859787
       -0.0077513507   0.0015642661  -0.0002317259  -0.0011272621   0.0000859616
        0.0010724983   0.0013927212   0.0001427088  -0.0017920308  -0.0007533561
       -0.0002045307   0.0007842627  -0.0013907981   0.0002015585   0.0001818239
        0.0010328854   0.0000020090  -0.0004833608   0.0004488805  -0.0001801079
       -0.0040639723  -0.0011618271  -0.0008644716   0.0012083762  -0.0019429267
        0.0004393551  -0.0015044482   0.0005189157  -0.0002933748   0.0025175218
        0.0001905915   0.0003868636  -0.0010919152   0.0034260650  -0.0005850793
        0.0065743204  -0.0034303532   0.0020384115  -0.0048416619   0.0082276074
       -0.0004187130  -0.0020881640   0.0095453366   0.0003945677  -0.0018488069
       -0.0032552039   0.0000940729  -0.0008489246   0.0020434904   0.0001108997
       -0.0013922425  -0.0008487797   0.0003095023   0.0006579926  -0.0009507364
       -0.0008259967  -0.0004409428  -0.0000020050   0.0007504541   0.0023823053
       -0.0003175716   0.0003869105   0.0005756625   0.0002120684  -0.0003849522
       -0.0000931462  -0.0001631676   0.0000827419  -0.0001701503   0.0000371186
        0.0000875558   0.0006170606   0.0009251430   0.0000601963   0.0439205759
       -0.0173178467  -0.0299291645  -0.1553113824  -0.0635688257  -0.0237210054
       -0.0837894791   0.0574498400   0.0762683733  -0.0193249719  -0.0040886123
        0.0033264527   0.0002682494   0.0011980622   0.0022537004  -0.0000138207
        0.0000075802  -0.0000137206  -0.0000055364   0.0000350663  -0.0000033226
       -0.0000027320   0.0000103667  -0.0000071893  -0.0000080061  -0.0000001463
       -0.0000081890  -0.0000134036   0.0000061770   0.0000298100  -0.0000283943
       -0.0000212080  -0.0000068446  -0.0000340631  -0.0000475165   0.0000249943
       -0.0002232454   0.0000641169  -0.0000583198   0.0000640726  -0.0000759163
        0.0002269302   0.0000391513   0.0000400480   0.0002429620   0.0000107033
        0.0000470971   0.0000230654  -0.0000263750   0.0000148840  -0.0000261549
       -0.0000121411  -0.0000205648  -0.0000020268   0.0000265691   0.0000482193
       -0.0000211830  -0.0000574673  -0.0000140408  -0.0000343081  -0.0000470124
        0.0000267290   0.0000108439  -0.0000109550   0.0000362979  -0.0000406757
        0.0000206909  -0.0000078372   0.0000364010   0.0000419418  -0.0000135657
       -0.0001023202   0.0000087212  -0.0000046893   0.0000759078  -0.0000952446
        0.0000252999  -0.0000405338   0.0000230256   0.0000270347  -0.0000106409
       -0.0000132562   0.0000627854   0.0000002705  -0.0000114058   0.0000678209
       -0.0000357709  -0.0000158616  -0.0002450504   0.0000096125  -0.0203750841
       -0.0204376775  -0.0124884578
        0.0667881168   0.3986289142   0.2554870743   0.0012337457  -0.0716584657
       -0.0267438893   0.0151264173   0.0132668731   0.0083411540  -0.0201403009
       -0.0002573458   0.0070250016   0.0033974097  -0.0072012689  -0.0061228293
       -0.0006823636   0.0004271021   0.0001107552  -0.0004547086   0.0002439603
        0.0000431333  -0.0001118730  -0.0002433524   0.0000649052  -0.0001687428
       -0.0001661745   0.0001316236   0.0000714222  -0.0001885770   0.0000582456
       -0.0000598932   0.0003763159  -0.0002070942   0.0005669914  -0.0000202103
       -0.0002351268   0.0006960170   0.0000758035  -0.0001544670   0.0000165468
       -0.0004148542   0.0002397507  -0.0000227493   0.0002032096  -0.0001204264
       -0.0001757317   0.0002040041   0.0000234911  -0.0001912505   0.0001720525
        0.0000325436  -0.0002930544  -0.0003140763   0.0001999218   0.0004500353
        0.0017952186   0.0014569370   0.0019358045  -0.0027750301  -0.0006746562
       -0.0054383641   0.0042526096  -0.0039626474   0.0084567880  -0.0008693902
        0.0010319585  -0.0062237001  -0.0032109328  -0.0019739982   0.0039586318
       -0.0049401436   0.0009941002  -0.0002839951  -0.0007530169  -0.0000447531
        0.0007255167   0.0009062253   0.0000994452  -0.0011822989  -0.0004394683
       -0.0001210053   0.0005377670  -0.0009141413   0.0001209219   0.0001003264
        0.0006901814   0.0000102985  -0.0002529028   0.0001750087  -0.0001151500
       -0.0025031167  -0.0006651587  -0.0005285729   0.0007536349  -0.0012417546
        0.0002739247  -0.0009044908   0.0003374150  -0.0001854787   0.0015575155
        0.0001077357   0.0002261822  -0.0006587869   0.0021147602  -0.0003476419
        0.0040379208  -0.0021006791   0.0012454391  -0.0031298022   0.0050833519
       -0.0002637980  -0.0011018530   0.0059770595   0.0003278467  -0.0012887004
       -0.0021809217  -0.0002282005  -0.0001476362   0.0009689594   0.0004734579
       -0.0004144426  -0.0004198932   0.0003345533  -0.0000904242  -0.0003929528
       -0.0007430517  -0.0001822801   0.0002622092   0.0004911670   0.0016309506
       -0.0005578530   0.0002914650   0.0003888682   0.0000910387  -0.0001218008
       -0.0000589842  -0.0000226545  -0.0000668540  -0.0001110551   0.0000262185
       -0.0000280720   0.0003868707   0.0006392774   0.0000836748   0.0156846367
       -0.0332464780  -0.0388641682  -0.1181282757  -0.1686083118  -0.0817748602
        0.0591397650  -0.1297896551  -0.1111288411  -0.0212213877  -0.0025411872
        0.0032594494   0.0014423543   0.0007974083  -0.0057777178  -0.0000027217
        0.0000265208  -0.0000283396   0.0000122452   0.0000148339  -0.0000068517
        0.0000130073  -0.0000093898  -0.0000061171   0.0000078664  -0.0000136541
        0.0000083900   0.0000097189   0.0000251135   0.0000232544  -0.0000040994
        0.0000003470  -0.0000149518   0.0000102444  -0.0000085069  -0.0000044630
       -0.0000033531  -0.0000334964  -0.0001318310  -0.0000131946   0.0001075509
        0.0000731085   0.0000815103   0.0001409236   0.0002533747  -0.0000043954
        0.0000336720   0.0000074197  -0.0000225792   0.0000257937  -0.0000194824
       -0.0000011047  -0.0000047445  -0.0000025190   0.0000317460   0.0000215374
       -0.0000069005  -0.0000112399   0.0000045175  -0.0000204090  -0.0000069250
        0.0000101311   0.0000191319  -0.0000130809   0.0000047067  -0.0000202950
       -0.0000403115   0.0000221729   0.0000094779   0.0000036446   0.0000538094
       -0.0000534964   0.0000036418  -0.0000321247   0.0000020188  -0.0000743259
       -0.0000012544  -0.0000310364   0.0000062287  -0.0000127434  -0.0000132009
        0.0000212105   0.0000216871   0.0000338676  -0.0000032823  -0.0000029629
        0.0000048004   0.0000311271  -0.0000369138   0.0000118059  -0.0034924663
       -0.0020464915  -0.0020300762
       -0.1072056273   0.2554870743   0.3832949000   0.0911477014  -0.0076378064
       -0.0815331446   0.0237820469  -0.0057242276  -0.0090152777  -0.0091060473
        0.0095957605   0.0037900406   0.0019515110  -0.0067233446  -0.0057456205
       -0.0004880088   0.0002291191   0.0000164497  -0.0002318394   0.0002129132
        0.0000578460  -0.0000380544  -0.0001428239   0.0000411879  -0.0000760021
       -0.0000920036   0.0000637424   0.0000347194  -0.0001323586   0.0000515486
       -0.0000533202   0.0002390392  -0.0001337385   0.0003423420  -0.0000778179
       -0.0001135535   0.0004459666   0.0000900539  -0.0000862582  -0.0000039743
       -0.0003214217   0.0001674111  -0.0000662201   0.0001704383  -0.0000776033
       -0.0000520111   0.0001304767   0.0000024882  -0.0001847496   0.0001802525
        0.0000760012  -0.0002628266  -0.0003250466   0.0002938787   0.0012160758
        0.0020945312   0.0011234608   0.0000879747  -0.0031140666  -0.0012929069
        0.0021079486  -0.0024603563   0.0022274095   0.0029961960   0.0002081287
        0.0012532275  -0.0022525308  -0.0011181162  -0.0011290075   0.0017012633
       -0.0022198551   0.0003889850  -0.0001144386  -0.0003173993   0.0000679003
        0.0003565949   0.0003783216   0.0000567639  -0.0005581508  -0.0001964759
       -0.0000706203   0.0002610576  -0.0004605728   0.0000673035   0.0000602389
        0.0003774913  -0.0000137159  -0.0001328556   0.0000159896  -0.0000225221
       -0.0010516076  -0.0002143887  -0.0002276222   0.0003295261  -0.0005948912
        0.0001272503  -0.0003535133   0.0001888438  -0.0000851888   0.0006186245
        0.0000604761   0.0000840769  -0.0002247910   0.0008802463  -0.0001437144
        0.0016410423  -0.0008362107   0.0005156930  -0.0010659811   0.0023622552
       -0.0002121690  -0.0008430174   0.0023338045   0.0001296909  -0.0003229088
       -0.0006615326  -0.0000392647  -0.0000970098   0.0005811640   0.0001877915
       -0.0004793384  -0.0000746783   0.0000796735   0.0001891003   0.0000041183
        0.0003339199  -0.0002180351  -0.0002156506   0.0000061205   0.0005769015
        0.0001020409  -0.0004608755   0.0002711457   0.0000368821  -0.0000913513
       -0.0000433618  -0.0000048345  -0.0000312078  -0.0001450453  -0.0000162309
        0.0000421120   0.0000455475   0.0000311611  -0.0001349432  -0.0002922676
       -0.0294999695  -0.0284857965  -0.0733790871  -0.0967495278  -0.1109941126
        0.0747870126  -0.1121971900  -0.1622819656  -0.0129883023  -0.0018352240
        0.0028614419   0.0029356652  -0.0057529555   0.0015008526   0.0000012323
        0.0000217799  -0.0000288862   0.0000118052   0.0000030566  -0.0000071792
        0.0000084924  -0.0000098461  -0.0000036666   0.0000041099  -0.0000161905
        0.0000086429   0.0000049430   0.0000141170   0.0000055249  -0.0000021246
        0.0000014894  -0.0000115184   0.0000133476  -0.0000045877  -0.0000014868
        0.0000310286  -0.0000400972  -0.0000691893   0.0000070065   0.0000479394
        0.0000984384   0.0001971057  -0.0002474821  -0.0001215748  -0.0000023320
        0.0000126974   0.0000034558  -0.0000077310   0.0000181060  -0.0000097169
        0.0000025735   0.0000001418   0.0000040916   0.0000255492   0.0000036789
       -0.0000042260   0.0000045436   0.0000071999  -0.0000049210   0.0000058254
       -0.0000019269   0.0000129040  -0.0000014644  -0.0000152668  -0.0000011978
       -0.0000236304   0.0000103116   0.0000133424  -0.0000029825   0.0000596626
       -0.0000203287   0.0000951779  -0.0001378471  -0.0000339041  -0.0000089046
       -0.0000206904  -0.0000095724   0.0000043483  -0.0000176383  -0.0000238081
        0.0000131602   0.0000039318   0.0000113651   0.0000076365  -0.0000105526
        0.0000084979   0.0000052425   0.0000066551   0.0000206173   0.0040507623
        0.0040377530   0.0036773089
       -0.3076156512   0.0012337457   0.0911477014   0.6225023577   0.0939811664
       -0.0735238541  -0.1231092138   0.0226803860   0.0389817684   0.0399988013
        0.0191695220   0.0062087540  -0.0015657859  -0.0101901738  -0.0061341232
       -0.0011182504  -0.0000596804   0.0008047590   0.0004378454  -0.0003532134
       -0.0002520966   0.0000797919   0.0000583018  -0.0000177944   0.0001218906
        0.0001681255  -0.0000778346  -0.0000582911   0.0001298009  -0.0000573306
        0.0000449544  -0.0002463920   0.0001651059  -0.0003693018  -0.0001402165
        0.0001670881  -0.0004003724   0.0001426477   0.0000788456  -0.0000373982
        0.0002859814  -0.0001661266  -0.0000111643  -0.0001384138   0.0000892165
        0.0002731713  -0.0001503962  -0.0000483003   0.0000001359  -0.0000577513
       -0.0002016668   0.0005702530   0.0004982355  -0.0001815325   0.0047556996
        0.0012445481   0.0002504880  -0.0026849132   0.0003268510  -0.0010118135
        0.0104462476   0.0040461304   0.0041330307  -0.0129534283   0.0000464334
       -0.0013323640   0.0084668648   0.0050096655   0.0033912062  -0.0052248809
        0.0064825984  -0.0013909214   0.0002661018   0.0009881202  -0.0000593834
       -0.0008730155  -0.0011973319  -0.0001201668   0.0014721830   0.0006226321
        0.0001673267  -0.0006446840   0.0011200026  -0.0001622760  -0.0001421512
       -0.0008050755  -0.0000060965   0.0003602414  -0.0003692096   0.0001574973
        0.0033426495   0.0009589783   0.0007111668  -0.0010074403   0.0015791568
       -0.0003511899   0.0012473662  -0.0004102427   0.0002399187  -0.0020651391
       -0.0001410540  -0.0003024723   0.0009231411  -0.0028019877   0.0004848442
       -0.0054515885   0.0028274720  -0.0017237153   0.0041945125  -0.0067736186
        0.0003717829   0.0019363891  -0.0084430902  -0.0004557878   0.0014180952
        0.0027586605   0.0000425873   0.0003215423  -0.0017907864  -0.0001225390
        0.0010953430   0.0008359756  -0.0001967315  -0.0004522983   0.0010194169
        0.0006835794   0.0006213281   0.0000427200  -0.0006744897  -0.0020793996
        0.0001116885  -0.0002908139  -0.0005241448  -0.0001094275   0.0002038503
        0.0000295793   0.0001109935  -0.0000284437   0.0002232100  -0.0000714821
       -0.0000326435  -0.0005010427  -0.0007502863  -0.0000874275  -0.0299041271
        0.0089084350   0.0179807530  -0.0489976937  -0.0570045116  -0.0379460398
       -0.0140681454   0.0013678184   0.0039259917  -0.1271471297  -0.1010656738
       -0.0634012379  -0.0155055666   0.0178677943   0.0209565430   0.0000081260
        0.0000294924  -0.0000386258  -0.0000016035   0.0000039019  -0.0000090501
       -0.0000093901   0.0000006133  -0.0000172254  -0.0000013117   0.0000117980
        0.0000174333  -0.0000045905  -0.0000155288  -0.0000183665   0.0000056256
        0.0000047731   0.0000094032   0.0000129641  -0.0000115395   0.0000237979
        0.0001487759  -0.0000186158   0.0001493155  -0.0000613599  -0.0002954455
       -0.0001021150  -0.0000054544   0.0001347083  -0.0002665026  -0.0000183719
       -0.0000326624  -0.0000206084   0.0000159929  -0.0000189630   0.0000191919
       -0.0000000008   0.0000133065   0.0000024999  -0.0000274828  -0.0000455344
        0.0000180371   0.0000417246   0.0000216073   0.0000314170   0.0000344186
       -0.0000181559  -0.0000147740   0.0000006350  -0.0000233034   0.0000349929
       -0.0000347362  -0.0000120528  -0.0000374201   0.0000812675  -0.0000247608
        0.0000042320   0.0000031183   0.0000366650  -0.0000710102   0.0000960456
        0.0000203476   0.0000325443  -0.0000420906  -0.0000000864   0.0000275399
       -0.0000137378  -0.0000746948  -0.0000421359  -0.0000088974  -0.0000524866
        0.0000136212  -0.0000051361   0.0001099439   0.0001261472  -0.0008520084
       -0.0032973161  -0.0008589315
       -0.0590462648  -0.0716584657  -0.0076378064   0.0939811664   0.4257789426
        0.2511367533   0.0799112696  -0.1610052979  -0.1261094151  -0.0143404440
       -0.0387933610  -0.0316671872  -0.0027615667   0.0057071499   0.0000234241
       -0.0004650203   0.0001941078  -0.0000545166   0.0000560803  -0.0002466973
        0.0002119921  -0.0001723303   0.0001045394  -0.0000094806   0.0000949967
       -0.0001699769   0.0000038028  -0.0000670635  -0.0001413942   0.0000981085
        0.0000111001   0.0002308406  -0.0001435964   0.0000768872  -0.0001219889
        0.0000645928   0.0003578578   0.0000972130  -0.0001631964   0.0000153959
       -0.0003552487   0.0001822066  -0.0001535995   0.0002004621  -0.0000942149
       -0.0000473939   0.0002167026  -0.0000799929  -0.0000820912   0.0000311983
        0.0004181649  -0.0003407359  -0.0000543787   0.0001918773  -0.0021790013
       -0.0022737402  -0.0007490078   0.0001404495   0.0016707006   0.0018083769
       -0.0072137917  -0.0068631061  -0.0045948420   0.0076170236   0.0001404876
        0.0004160911  -0.0043907921  -0.0026680586  -0.0018051927   0.0026025603
       -0.0033340171   0.0007285788  -0.0000768335  -0.0003735399   0.0000295761
        0.0004154070   0.0004778355   0.0000525254  -0.0006757733  -0.0002768710
       -0.0000688581   0.0003126420  -0.0005790115   0.0000694412   0.0000899433
        0.0004740824   0.0000035767  -0.0002327237   0.0001037514  -0.0000834415
       -0.0015933462  -0.0003704748  -0.0003467801   0.0004817081  -0.0008201586
        0.0001659820  -0.0005487408   0.0002575104  -0.0001208844   0.0009204946
        0.0000509995   0.0001238439  -0.0004177173   0.0013490628  -0.0002136850
        0.0026034286  -0.0014127188   0.0008452027  -0.0020575293   0.0034605107
       -0.0000650484  -0.0009662835   0.0043453447   0.0001216140  -0.0009352101
       -0.0015053910  -0.0000808762  -0.0001868857   0.0008944471   0.0000313388
       -0.0006070217  -0.0004712285   0.0001974593   0.0003816174  -0.0003700186
       -0.0004033051  -0.0005094802   0.0002177190   0.0003645263   0.0008863851
       -0.0002238499   0.0001498188   0.0005004645   0.0000423574  -0.0000466096
       -0.0000945164   0.0000223509  -0.0001091765  -0.0001053533   0.0000817952
       -0.0000876403   0.0002742229   0.0003780256  -0.0000197185   0.0156997443
        0.0019379340   0.0016696059  -0.0192155774   0.0028991781   0.0095677246
        0.0173261870   0.0008084701  -0.0056031845  -0.1014916759  -0.1597910445
       -0.0825327058   0.0005602685   0.0011811038  -0.0010178714  -0.0000097615
       -0.0000012803  -0.0000040130  -0.0000032749   0.0000123821  -0.0000266330
        0.0000011860   0.0000068929   0.0000012940  -0.0000142976  -0.0000160443
        0.0000068503  -0.0000312544   0.0000211891   0.0000328870  -0.0000305390
       -0.0000098543   0.0000122344   0.0000025148  -0.0000091298   0.0000172234
       -0.0001225692  -0.0000070369  -0.0002139477  -0.0000623788  -0.0000791406
        0.0001215065   0.0000117577   0.0000997135  -0.0000908100  -0.0000137393
        0.0000436681   0.0000156244  -0.0000226377   0.0000364913  -0.0000105339
        0.0000131765   0.0000055347   0.0000029155   0.0000369675   0.0000157865
       -0.0000077106   0.0000045239   0.0000027885  -0.0000161350   0.0000079283
       -0.0000026675   0.0000177068  -0.0000196185  -0.0000168236  -0.0000135261
       -0.0000146046  -0.0000138534   0.0000172920   0.0000324452  -0.0000145840
       -0.0000448614   0.0000373758   0.0000009907   0.0000409896  -0.0000461551
       -0.0000449296   0.0000189636   0.0000072043   0.0000095524   0.0000122161
        0.0000165328   0.0000145525   0.0000347593  -0.0000159543  -0.0000022371
        0.0000097172   0.0001718840   0.0000815954   0.0000553651  -0.0042792488
        0.0003916586  -0.0047573449
        0.0321445844  -0.0267438893  -0.0815331446  -0.0735238541   0.2511367533
        0.3532641079   0.0907358166  -0.1110355248  -0.1637775840  -0.0235826359
       -0.0386874707  -0.0279838881  -0.0022695710   0.0026779507   0.0072272469
        0.0006863404   0.0008044103   0.0003424862  -0.0004609646   0.0001575855
       -0.0001537810  -0.0001303634  -0.0001947736   0.0001429929  -0.0000652886
       -0.0001288616   0.0000984332  -0.0000102316  -0.0002101631   0.0001053206
       -0.0000277082   0.0003934051  -0.0001806724   0.0003013618  -0.0001206368
       -0.0000560013   0.0001711877   0.0001826907  -0.0001978112   0.0000592083
       -0.0003251436   0.0001372526  -0.0001296039   0.0001868124  -0.0000788404
       -0.0000517187   0.0001757356  -0.0000971237  -0.0000157265   0.0000174605
        0.0001566682   0.0000300628   0.0000079882  -0.0001802161  -0.0026627328
       -0.0029404676  -0.0005885210   0.0011988350   0.0010293226   0.0016995369
       -0.0101840911  -0.0065537720  -0.0054415341   0.0117870350   0.0001086397
        0.0012274059  -0.0073333813  -0.0043077670  -0.0028964492   0.0043847468
       -0.0057291098   0.0011791693  -0.0001525432  -0.0006832920   0.0000348337
        0.0007362026   0.0008512386   0.0001109396  -0.0011910532  -0.0005063232
       -0.0001295836   0.0005222382  -0.0009944599   0.0001405605   0.0001441877
        0.0008086358  -0.0000014866  -0.0003826928   0.0001809942  -0.0001219285
       -0.0027178094  -0.0006673083  -0.0005956338   0.0008064022  -0.0013991895
        0.0003011983  -0.0009465029   0.0004261379  -0.0002045757   0.0015814217
        0.0001439245   0.0002127154  -0.0006806638   0.0023054193  -0.0003807789
        0.0044014044  -0.0023526654   0.0013571815  -0.0032090126   0.0059191617
       -0.0002206713  -0.0018542777   0.0069476264   0.0001730849  -0.0012918653
       -0.0022727444  -0.0000289309  -0.0002991063   0.0011623522   0.0001387981
       -0.0007222936  -0.0005884600   0.0001334776   0.0005565402  -0.0002246835
       -0.0002661307  -0.0002717547  -0.0001117537   0.0004955382   0.0016450468
       -0.0001271161   0.0002782929   0.0003926315   0.0000464296  -0.0001116352
       -0.0000921437   0.0000400842  -0.0000098469   0.0001056600  -0.0000455691
       -0.0000180504   0.0000302985   0.0002749713  -0.0000788628   0.0219629801
        0.0028482534  -0.0086770127  -0.0014637992   0.0206609842   0.0223014032
        0.0212432104  -0.0002057695  -0.0060336094  -0.0628659470  -0.0828058866
       -0.0885065963   0.0045072271  -0.0044902273  -0.0049219114  -0.0000135492
       -0.0000141545  -0.0000252790  -0.0000071788   0.0000204346  -0.0000178422
       -0.0000055862   0.0000037908  -0.0000047972  -0.0000206003  -0.0000041814
        0.0000210803  -0.0000283208   0.0000168577   0.0000300479  -0.0000289948
       -0.0000158648   0.0000258054  -0.0000064105  -0.0000333959   0.0000324439
       -0.0001040706   0.0000108654  -0.0002291525  -0.0002114774  -0.0000886690
       -0.0002365914   0.0000106936   0.0000063568   0.0000095900  -0.0000030701
        0.0000548605   0.0000185724  -0.0000179594   0.0000436006  -0.0000150453
        0.0000142073   0.0000021162   0.0000029927   0.0000452352   0.0000269658
       -0.0000094427  -0.0000056163  -0.0000018607  -0.0000202020  -0.0000009573
        0.0000029725   0.0000229595  -0.0000062432  -0.0000147401  -0.0000225495
        0.0000017053  -0.0000135006   0.0000354352  -0.0000315908  -0.0000032992
       -0.0000283008   0.0000385323  -0.0000081841   0.0000533999  -0.0000564953
       -0.0000480706   0.0000270424   0.0000156771   0.0000030651   0.0000110152
       -0.0000126859   0.0000115395  -0.0000240254  -0.0000304382   0.0000217913
       -0.0000083739  -0.0000133175  -0.0002777696   0.0003102261  -0.0010667810
       -0.0047434652   0.0022551585
       -0.0329921641   0.0151264173   0.0237820469  -0.1231092138   0.0799112696
        0.0907358166   0.6250739440   0.0463934994  -0.0880857592  -0.1596410507
       -0.0966516064  -0.0568681233   0.0135085400  -0.0053939787  -0.0062241036
       -0.0011211716   0.0015483898   0.0001234281   0.0001516122  -0.0001731432
        0.0002639969  -0.0000567486  -0.0000352524  -0.0000869282  -0.0000288613
       -0.0001765347   0.0001113579   0.0000081669  -0.0001800072   0.0000692199
       -0.0000446989   0.0002114880  -0.0001574315   0.0003196926  -0.0000068189
       -0.0002343684   0.0005645142   0.0000342308  -0.0000421251  -0.0000203253
       -0.0003537650   0.0001316924  -0.0000014291   0.0001584176  -0.0001294252
       -0.0003447099   0.0000589483   0.0000268803  -0.0003295125   0.0000580850
       -0.0000074040  -0.0004201491   0.0003438866   0.0012818462   0.0016555810
        0.0038635376   0.0029166643   0.0000474377  -0.0023894905  -0.0002645135
       -0.0085439607   0.0018830620   0.0023314682   0.0026295571  -0.0006770918
        0.0000334007  -0.0020488906  -0.0011371668  -0.0011433010   0.0010300852
       -0.0014496907   0.0002328218  -0.0000100530  -0.0001055321   0.0000759355
        0.0001616743   0.0001742320   0.0000194152  -0.0002649262  -0.0000971692
       -0.0000341895   0.0001387398  -0.0002482706   0.0000294001   0.0000510717
        0.0002140927  -0.0000106537  -0.0001339374   0.0000549265  -0.0000252842
       -0.0007048437  -0.0001699486  -0.0001605483   0.0002203242  -0.0003758761
        0.0000744312  -0.0002163840   0.0001238191  -0.0000623422   0.0003837272
       -0.0000013791   0.0000763992  -0.0001654091   0.0006039654  -0.0000984405
        0.0011793629  -0.0006667430   0.0003895579  -0.0010326464   0.0014676522
       -0.0001348774  -0.0002761186   0.0017825026   0.0002249696  -0.0003669551
       -0.0007137523  -0.0000073065  -0.0001009743   0.0002934071   0.0000558837
       -0.0000458736  -0.0001057284   0.0000273389  -0.0001779564  -0.0002234724
       -0.0000548516  -0.0002505517  -0.0000473216   0.0001992367   0.0003256263
        0.0001146908  -0.0000197090   0.0004010646   0.0000182999  -0.0000535964
       -0.0000022604   0.0000667635  -0.0000302502  -0.0001064195   0.0000756542
       -0.0000696270   0.0001931489   0.0002941388   0.0000276814  -0.0314107618
       -0.0203529994  -0.0089429563   0.0045924408   0.0035543358   0.0001890489
       -0.0050653703  -0.0015033240   0.0030856081   0.0059059143  -0.0108996009
       -0.0108524575  -0.2911427154  -0.0154828780   0.0476659483   0.0000219108
       -0.0000462291  -0.0000069022   0.0000087484   0.0000102848  -0.0000072601
        0.0000042379  -0.0000065116  -0.0000075423  -0.0000038753   0.0000056539
        0.0000343181   0.0000147087   0.0000162672   0.0000294763   0.0000124102
        0.0000098774   0.0000156780   0.0000292958   0.0000013396   0.0000017808
        0.0003254067   0.0000429120  -0.0001566245   0.0002779204   0.0007487666
        0.0002674368   0.0000576106   0.0001628580   0.0000416229  -0.0000223369
        0.0000384941   0.0000164417  -0.0000225187   0.0000292806  -0.0000007632
        0.0000121720   0.0000061607   0.0000078421   0.0000271224   0.0000077262
       -0.0000043799   0.0000111613   0.0000006107  -0.0000084232   0.0000140866
       -0.0000096286  -0.0000042108  -0.0000245104  -0.0000208713  -0.0000072716
       -0.0000277955  -0.0000199793  -0.0000056788   0.0000554117   0.0000096517
       -0.0000617771   0.0000236249  -0.0000312359  -0.0000175402  -0.0000496320
       -0.0000416195   0.0000011423   0.0000149557  -0.0000345885   0.0000266731
        0.0000064165   0.0000071222   0.0000357101   0.0000017478  -0.0000141030
       -0.0000099199   0.0001260365   0.0000016783  -0.0000823703   0.0007405009
        0.0003149123  -0.0004783802
        0.0573340079   0.0132668731  -0.0057242276   0.0226803860  -0.1610052979
       -0.1110355248   0.0463934994   0.4024758265   0.2488920285  -0.0795601176
       -0.1442620064  -0.0679312298  -0.0004575613  -0.0478128833  -0.0373799870
       -0.0037648973  -0.0004636409   0.0012620390   0.0000282916   0.0000478264
       -0.0000896497   0.0001345224  -0.0000527133  -0.0000447014  -0.0002089861
        0.0001342222   0.0000857900   0.0001425554   0.0001208172  -0.0001323347
       -0.0000115536  -0.0000947537   0.0000360689  -0.0000673414   0.0000031042
       -0.0000953054   0.0000542868  -0.0000638347   0.0000307101  -0.0000896901
        0.0000206934  -0.0000213672   0.0000165368  -0.0000521663   0.0000055424
        0.0000399861   0.0001653705  -0.0000504098   0.0001747396  -0.0001953913
        0.0004015519   0.0001498484  -0.0001517849   0.0003071675   0.0099335351
        0.0050275171  -0.0011054918  -0.0009657934  -0.0056858657  -0.0031770614
        0.0088545695   0.0161356854   0.0067128244  -0.0099595092  -0.0002381487
       -0.0005905507   0.0062653621   0.0037918185   0.0026762263  -0.0037097171
        0.0050407608  -0.0010980642   0.0001338584   0.0005645816  -0.0000643773
       -0.0006426953  -0.0006906112  -0.0000972757   0.0010427749   0.0004650196
        0.0001203819  -0.0004397588   0.0009032140  -0.0001304594  -0.0001485745
       -0.0007715212   0.0000061238   0.0003496851  -0.0000637467   0.0000929332
        0.0022849973   0.0004601847   0.0005001704  -0.0006841048   0.0012545286
       -0.0002614868   0.0007651337  -0.0004342462   0.0001667185  -0.0012731885
       -0.0001572259  -0.0001380330   0.0005203118  -0.0019575385   0.0003084082
       -0.0036295861   0.0019726067  -0.0011403509   0.0025030745  -0.0052241844
        0.0001292966   0.0016940091  -0.0057770768  -0.0000966798   0.0010272157
        0.0017177290   0.0000614106   0.0003377585  -0.0012196282  -0.0000732899
        0.0009373013   0.0006614493  -0.0002864817  -0.0006328696   0.0004847693
        0.0004729399  -0.0000663186  -0.0001437748  -0.0003428631  -0.0014064843
        0.0004607552  -0.0003219663  -0.0000705807  -0.0000663199   0.0000994916
       -0.0000013526   0.0001004731  -0.0000355168   0.0000121644   0.0000425733
       -0.0000543363  -0.0000822893  -0.0002903233  -0.0000210483  -0.0401580098
       -0.0064400356   0.0055369861  -0.0057973290  -0.0197019482  -0.0148960929
       -0.0016675097   0.0037680465  -0.0025078167   0.0065926092  -0.0149070741
       -0.0160533525  -0.0146620809  -0.0402379281  -0.0027026620   0.0000355327
        0.0000565225  -0.0001030124   0.0000278217  -0.0000188367   0.0000211040
        0.0000220281  -0.0000166938  -0.0000209262   0.0000487630   0.0000006103
        0.0000119655   0.0000009430   0.0000223862  -0.0000059945  -0.0000282137
        0.0000221027  -0.0000105567  -0.0000086356   0.0000606003  -0.0000260538
       -0.0000199710   0.0002049111  -0.0002757830  -0.0003988117  -0.0007488279