84
 energy: -126.538761567722 gnorm: 0.000111484711 xtb: 6.7.1 (edcfbbe)
C            3.68352993458047       -3.74044644421898       -0.88119087138839
C            3.86051404228155       -2.83793989595415        0.35389484503459
C            4.55503453944321       -3.61617473469990        1.48685370748098
C            4.73096200461373       -1.65799184732941       -0.03078526918520
C            6.02580395330914       -1.87515117830995       -0.48112676817143
C            6.85667943086303       -0.83390739124568       -0.85225574069968
C            6.39168296670352        0.46851484894319       -0.77830905467000
C            5.11032390326099        0.71424563079651       -0.33628550491458
C            4.26871341742365       -0.33789870445826        0.04242196344428
N            2.99189448443151       -0.05703067495096        0.48911525140527
C            2.50451819810366        1.27998024582496        0.42042487589871
C            2.63015630524787        2.14578728679732        1.50197858678375
C            2.06358726845914        3.40336067692203        1.44747118077143
C            1.33301680830711        3.79798422406413        0.32464449995479
C            0.63392685125216        5.09821032785675        0.32204032003585
O            1.11525847898247        6.12547889534640        0.80825012457879
C           -0.69760911252737        5.08815803400215       -0.34452465251215
O           -1.19220280713800        6.10715102068547       -0.83503288558703
C           -1.37982886421728        3.77904076206949       -0.34171838209229
C           -1.32853939272312        2.94429069997870        0.77815554275475
C           -1.89414692746442        1.68847605957433        0.73411052159275
C           -2.51875958071407        1.24574925710564       -0.42692473082815
N           -2.98896360406984       -0.09767456005078       -0.48992676603904
C           -2.10377136799331       -1.08241313917711       -0.88766955846502
C           -0.83683912114231       -0.72157228209000       -1.36010605549338
C            0.07061612443590       -1.68045919774215       -1.75224031902010
C           -0.26642100420730       -3.02008807207816       -1.67737812868440
C           -1.52106570650414       -3.37886048442350       -1.22107370336399
C           -2.45876000649764       -2.43569549802433       -0.82610100395155
C           -3.82184192018409       -2.88887290414509       -0.34225836909011
C           -3.63362421468472       -3.78293442644135        0.89729982964511
C           -4.50577001858906       -3.68161842509421       -1.47158618195277
C           -4.70764673552040       -1.71843373970416        0.03638051236938
C           -5.99986184808740       -1.95013871757396        0.48701908664778
C           -6.84427188387120       -0.91795832367204        0.85288107711928
C           -6.39598690511570        0.38997282440379        0.77322100399584
C           -5.11761111285481        0.65010824722638        0.33079531730313
C           -4.26234572727359       -0.39286423814553       -0.04263943511963
C           -2.65539392749648        2.10527359396268       -1.51215371709101
C           -2.10510977771322        3.37027061829314       -1.46292425992462
C            1.29245199315573        2.95793622700964       -0.79169512068868
C            1.87419137577057        1.70970427576128       -0.74240515216625
C            2.11951915162881       -1.05122710236082        0.89160375441393
C            0.84815261656172       -0.70454878431149        1.36274677995579
C           -0.04682360489989       -1.67321648861968        1.75948521642917
C            0.30738785574552       -3.00873233199654        1.69065882319212
C            1.56644008049508       -3.35342960937366        1.23564636199269
C            2.49183544058977       -2.40011146763025        0.83606693667353
H            3.19657477014983       -3.18387686631002       -1.67958752596138
H            4.64506390133694       -4.09167053260468       -1.24501447008678
H            3.07195566218341       -4.60605332446921       -0.64270889005537
H            5.53498492971803       -3.96520821299483        1.17425967178326
H            3.96511392751085       -4.47901694972876        1.78256191701436
H            4.68046058755200       -2.97203918572283        2.35503047158332
H            6.40276963028856       -2.88430500206864       -0.54859029754729
H            7.85837535162099       -1.03854341236620       -1.19735905094728
H            7.02628583488034        1.29323521787369       -1.06461891496788
H            4.74786614283970        1.72893681938349       -0.27886144165888
H            3.15664920860998        1.81876467922586        2.38636398114095
H            2.14348631871063        4.07990400018733        2.28470099431034
H           -0.84820009724742        3.28385205764469        1.68274249237185
H           -1.85076172724320        1.03600183216539        1.59333342071357
H           -0.57103445354491        0.32238898296369       -1.41322720904179
H            1.04303538308615       -1.38292912312408       -2.11553925130510
H            0.43843495951355       -3.78046940327628       -1.97555657070182
H           -1.77050470968343       -4.42785827078913       -1.17370375805595
H           -4.59067073536656       -4.14470456005931        1.26262289908839
H           -3.01086605499658       -4.64175134694782        0.66323676063153
H           -3.15411908609054       -3.21620258101575        1.69304849479733
H           -4.63906760602815       -3.04347587763560       -2.34300480222479
H           -5.48129172902918       -4.04168626245493       -1.15766220407063
H           -3.90467405869567       -4.53826481328827       -1.76276313618249
H           -6.36386219495938       -2.96373219562769        0.55897063206892
H           -7.84347275931904       -1.13385756093901        1.19835032729941
H           -7.04130399377352        1.20778337041105        1.05536978852715
H           -4.76817120980781        1.66909719979970        0.26895204037719
H           -3.17754715336009        1.76776221657388       -2.39516850873617
H           -2.19365146758052        4.04219758991928       -2.30299336029266
H            0.80775606214736        3.28745099180492       -1.69767419622817
H            1.83917860207253        1.05310521244232       -1.59886469563094
H            0.56895473925135        0.33613800561274        1.41117722925745
H           -1.02291751016829       -1.38655373140529        2.12166729404537
H           -0.38757847884945       -3.77673415904158        1.99250404547932
H            1.82934194511662       -4.39933944708341        1.19302668386525
