55
 energy: -80.242204001277 gnorm: 0.000125618804 xtb: 6.7.1 (edcfbbe)
C           -4.89394937397048        0.29654361395848       -0.55425185709320
C           -3.39991544729936       -0.01590331753790       -0.63754993980219
C           -3.06028115839546       -0.35626200550068       -2.10494431758796
C           -2.99776588456757       -1.19227475029892        0.22990383354836
C           -3.89358145875128       -2.09958509170444        0.77415494416590
C           -3.45556221484315       -3.17533185367130        1.52817359335780
C           -2.10356699606498       -3.34331394656186        1.77166927180339
C           -1.19463888046297       -2.43968541113727        1.25788187223426
C           -1.63074302870190       -1.37806375842266        0.46810451826138
N           -0.73078792007810       -0.41905396183357       -0.00837407507984
C            0.60707624571668       -0.69822168503509       -0.23123059975412
C            0.91363256864033       -1.97129109287473       -0.77070057670158
C            2.19858656477702       -2.33747417092477       -1.00368992746686
C            3.25530800956662       -1.46413962602884       -0.66377363572252
C            4.58442304377683       -1.88374096313945       -0.82253965910700
C            5.63382793264054       -1.06328123649627       -0.46630614789854
C            6.96710911779418       -1.48912181641350       -0.62161016089280
N            8.05705225890938       -1.83217277772495       -0.74620219829830
C            5.35647694642984        0.21127793575720        0.07477825239988
C            4.06859591911677        0.63813060204659        0.21472768718183
C            2.95752553198863       -0.16242521839361       -0.15926922500133
C            1.60095885459339        0.24467284870573       -0.01218289540950
C            1.22601678282300        1.66186786786139        0.40664705385395
C            1.99284436429183        2.69825805611172       -0.45593723059047
C            1.50089785494899        1.83101855835596        1.91655038616793
C           -0.26150041204566        1.92793280965744        0.22644280390334
C           -0.75391227288475        3.22259422054124        0.33655131234888
C           -2.10338983699035        3.48278356343649        0.19924056765107
C           -2.98653567449880        2.45740090034556       -0.09574991121430
C           -2.53191957362860        1.15623385121228       -0.21726674334774
C           -1.17092355546394        0.90313479372274       -0.00364412877105
H           -5.13772541698581        1.13290620119775       -1.20432929659150
H           -5.18634405372019        0.54094732491370        0.46473112890047
H           -5.47529423944384       -0.55603153809640       -0.89602299446986
H           -3.30814365265340        0.48586400890295       -2.74791702528329
H           -2.00247324007950       -0.57718026813134       -2.22345753238572
H           -3.63220959359862       -1.22441023988138       -2.42638450657007
H           -4.95212131323378       -1.98062975261470        0.61026067304521
H           -4.17162342954357       -3.87588651143831        1.93125373862536
H           -1.75493084928904       -4.16798558797457        2.37566986982888
H           -0.14273819847873       -2.54742563697426        1.47808166018734
H            0.09800797916725       -2.63496405774235       -1.01565335596420
H            2.43060957766645       -3.29878543858907       -1.43728641384903
H            4.77905004705806       -2.86994760211819       -1.22054846559003
H            6.17954438846635        0.84215735896441        0.37797055120914
H            3.91222915929386        1.61160447778518        0.64259470713395
H            2.70734589097646        2.21655256384389       -1.11652642213841
H            1.29901420249880        3.24490513320233       -1.09066422393146
H            2.52088024770423        3.41921694255754        0.16355501980423
H            2.53043146398181        1.60293905354155        2.17418032217365
H            1.27722132966416        2.84898283087004        2.22683048300991
H            0.85714261671039        1.15612913831726        2.47990789899702
H           -0.07938124692063        4.03773750901636        0.54903854767255
H           -2.47001289076750        4.49298350377647        0.30600734037252
H           -4.02983508582871        2.68981564865223       -0.23089457134196
