$hessian                                                                        
        0.6667144515  -0.0219861031   0.0099496459  -0.3414170322  -0.0424083119
       -0.0214806390  -0.0422686129   0.0783841127   0.0194099161  -0.0474351166
       -0.0268298583  -0.0087486440   0.0619868835  -0.0207140694  -0.0046229521
       -0.1434514342  -0.0567341116  -0.0154333440  -0.0070258271   0.0021132784
        0.0002764877   0.0011987112  -0.0014903502  -0.0002849164  -0.0001340692
        0.0031535522   0.0007900808   0.0026983048  -0.0017567470  -0.0005226993
       -0.0028559252  -0.0018212126  -0.0004301572   0.0002028962   0.0033028804
        0.0008974855  -0.0011912733  -0.0036132942  -0.0005898236   0.0058971311
        0.0003757922   0.0003170561  -0.0015711457  -0.0001683049  -0.0000563492
        0.0003626978   0.0005604413   0.0001036498  -0.0000000368   0.0001388430
        0.0000539270   0.0003133035   0.0001144593  -0.0001668136  -0.0002179820
       -0.0000073212  -0.0000202227   0.0000268607  -0.0000150854  -0.0000116303
        0.0000332963   0.0000247497   0.0000318186  -0.0000777188  -0.0000079256
       -0.0000004860   0.0000408245  -0.0000004839   0.0000002928  -0.0000141329
        0.0000048370  -0.0000309369   0.0000271120   0.0000239222  -0.0000334849
       -0.0001047282  -0.0000006229  -0.0000011305   0.0001045516   0.0000078351
       -0.0000022985  -0.0000174198   0.0000239372  -0.0000330701  -0.0000044441
       -0.0000055183   0.0000012133   0.0000074665   0.0000037418  -0.0000009853
       -0.0000112846  -0.0000055738   0.0000016310  -0.0000056733   0.0000150654
       -0.0000042456  -0.0000073299  -0.0000314823   0.0000117931   0.0000267557
        0.0000049721  -0.0000020853  -0.0000010499   0.0000246733  -0.0000100948
       -0.0000063699  -0.0000159127   0.0000046098  -0.0000118246   0.0000059605
       -0.0000015526   0.0000114193  -0.0000024759   0.0000006400  -0.0000051692
        0.0000042809   0.0000000261  -0.0000237526  -0.0000336345   0.0000360249
        0.0000264131  -0.0000228919   0.0000340948  -0.0000145150  -0.0000036111
        0.0000300711   0.0000293331  -0.0000051595  -0.0000280370   0.0000371844
        0.0000096784  -0.0000014621  -0.0004425569  -0.0001503029   0.0001558717
        0.0007687262  -0.0005541245   0.0001910134  -0.1186383515   0.1147414288
        0.0274664761  -0.0166667347  -0.0028392568  -0.0007904824  -0.0007383168
        0.0028699130   0.0006106542  -0.0160382979  -0.0247800464  -0.0069315041
       -0.0000304151  -0.0000123922   0.0000151899   0.0000027866  -0.0000238801
       -0.0000031288  -0.0000048997  -0.0000229026  -0.0000085435   0.0000152584
       -0.0000253365   0.0000084161  -0.0000990316   0.0001649063  -0.0001389312
        0.0000190440   0.0000149496  -0.0000409330  -0.0000025714  -0.0000178295
        0.0000115126  -0.0000045676  -0.0000059796  -0.0000027864   0.0000036651
       -0.0000002403   0.0000057697   0.0000025137   0.0000036259  -0.0000008735
       -0.0000013607  -0.0000013867   0.0000003206   0.0000021022  -0.0000035820
        0.0000006577   0.0000029175  -0.0000005599  -0.0000007207   0.0000027080
        0.0000000548   0.0000000512   0.0000025209   0.0000041457  -0.0000017669
       -0.0000020450   0.0000026317  -0.0000017836   0.0000013095  -0.0000045179
        0.0000005482   0.0000033200  -0.0000008288  -0.0000054207  -0.0000048183
        0.0000040450   0.0000033524  -0.0000035565   0.0000127944  -0.0000046065
        0.0000138816   0.0000320174   0.0000442898  -0.0000349590  -0.0000242968
       -0.0000150457
       -0.0219861031   0.6303503358   0.1331681089   0.0330339439  -0.0891488246
       -0.0110623167   0.0224204386   0.0235951988   0.0065923275  -0.0319899448
       -0.0065494368  -0.0015377725   0.0331645837  -0.0624695127  -0.0151192194
       -0.1304831046  -0.2606926288  -0.0579771626  -0.0003604285   0.0010989534
       -0.0013616300   0.0014315362  -0.0056785333  -0.0017164098   0.0003075461
        0.0023880354   0.0005595499   0.0017580590  -0.0016669370  -0.0003924590
       -0.0019937043  -0.0009102102  -0.0002148095   0.0001734159   0.0017541706
        0.0004810817  -0.0003312078  -0.0005023521   0.0001425574   0.0058327286
       -0.0055837661  -0.0011286453  -0.0014527163  -0.0001015289  -0.0000814158
        0.0004031362   0.0002938364   0.0000561042  -0.0000793078   0.0000664315
        0.0000265040   0.0001276498   0.0000508158  -0.0000720076  -0.0001836150
       -0.0000015676  -0.0000062441   0.0000283133  -0.0000131516  -0.0000272708
        0.0000635036   0.0000238157   0.0000255298  -0.0000775601  -0.0000081509
       -0.0000015784   0.0000459641   0.0000012694   0.0000007000  -0.0000101018
        0.0000033883  -0.0000292792   0.0000271596   0.0000210689  -0.0000238285
       -0.0000764472  -0.0000008355  -0.0000009838   0.0000870937   0.0000061319
       -0.0000008847  -0.0000129294   0.0000199652  -0.0000268185  -0.0000011768
       -0.0000017588   0.0000000874   0.0000087979   0.0000031197  -0.0000007305
       -0.0000062526  -0.0000069177   0.0000020973  -0.0000003850   0.0000142461
       -0.0000038489  -0.0000028151  -0.0000214264   0.0000074376   0.0000212152
        0.0000022755  -0.0000015088   0.0000013554   0.0000169613  -0.0000068282
       -0.0000008977  -0.0000138808   0.0000034554  -0.0000068321   0.0000071678
       -0.0000025139   0.0000113272  -0.0000027226   0.0000004674  -0.0000010270
        0.0000021307   0.0000004672  -0.0000185043  -0.0000279484   0.0000285466
        0.0000265645  -0.0000199374   0.0000243997  -0.0000100611  -0.0000013565
        0.0000289646   0.0000585605  -0.0000051117  -0.0000195861   0.0000342237
        0.0000085641   0.0000158800  -0.0002175175  -0.0000818034   0.0000259555
        0.0004847500  -0.0002673702   0.0000474245   0.1147610675  -0.2187842771
       -0.0454968563  -0.0259338813  -0.0024562555  -0.0014576130   0.0034609004
       -0.0031893151  -0.0025735949  -0.0024812765  -0.0014229290  -0.0008157049
       -0.0000223102  -0.0000289010  -0.0000205874  -0.0000108745  -0.0000654383
        0.0000149870   0.0000060947  -0.0000236195  -0.0000050046  -0.0000858666
        0.0000149296   0.0000189065   0.0000182459  -0.0000112006  -0.0000062323
        0.0000309229   0.0000132030  -0.0000494798  -0.0000078735  -0.0000242232
        0.0000121579  -0.0000020880  -0.0000044859  -0.0000030345   0.0000068905
       -0.0000001603   0.0000032028   0.0000036207   0.0000030067  -0.0000009253
        0.0000008999  -0.0000014826   0.0000013593   0.0000036712  -0.0000023738
        0.0000011350   0.0000045690  -0.0000008011  -0.0000004650   0.0000040675
        0.0000001057  -0.0000005060   0.0000041933   0.0000024516  -0.0000021688
        0.0000011194   0.0000022602  -0.0000024388   0.0000027484  -0.0000045987
        0.0000005053   0.0000065113  -0.0000009380  -0.0000031607  -0.0000026717
        0.0000017659   0.0000031419  -0.0000091187   0.0000194096  -0.0000077589
        0.0000259478  -0.0000010280   0.0000489595  -0.0000347357   0.0000146828
       -0.0000807182
        0.0099496459   0.1331681089   0.1449802812  -0.0008765079  -0.0130556121
       -0.0491881426   0.0046254045   0.0080203201   0.0041647756  -0.0092830990
       -0.0015235430  -0.0047551744   0.0099178867  -0.0158320195  -0.0060700484
       -0.0353133964  -0.0571267204  -0.0579301053  -0.0003274090  -0.0012201008
        0.0055802718   0.0003930041  -0.0018217748   0.0011002378   0.0000755896
        0.0006682770   0.0001532537   0.0005235287  -0.0003928650  -0.0003421007
       -0.0005941156  -0.0002849500  -0.0000507677   0.0000510238   0.0005552436
        0.0000515608  -0.0001693003  -0.0002750868  -0.0001052253   0.0016589587
       -0.0012145300  -0.0003345534  -0.0004175273   0.0000717401   0.0000718113
        0.0001616545   0.0000908091  -0.0000249373  -0.0000962357   0.0000407175
       -0.0000176674   0.0000777723  -0.0000271265   0.0000294140  -0.0000838927
       -0.0000016378   0.0000056546   0.0000069752  -0.0000059489  -0.0000201421
        0.0000201179   0.0000086152   0.0000164134  -0.0000216320  -0.0000016543
       -0.0000028088   0.0000172053   0.0000003066   0.0000015076  -0.0000040325
        0.0000015711  -0.0000130561   0.0000078489   0.0000077048  -0.0000075987
       -0.0000286914  -0.0000003199  -0.0000002613   0.0000322815   0.0000003065
        0.0000014055  -0.0000062899   0.0000065654  -0.0000100820   0.0000003013
       -0.0000020938   0.0000010786   0.0000028440   0.0000033661  -0.0000007108
       -0.0000023786  -0.0000009410   0.0000006176  -0.0000009663   0.0000034193
       -0.0000002904  -0.0000014375  -0.0000088766   0.0000026505   0.0000102024
        0.0000010122   0.0000005500  -0.0000018914   0.0000077713  -0.0000038901
       -0.0000004843  -0.0000044282   0.0000012754  -0.0000023403   0.0000018536
       -0.0000005347   0.0000026906  -0.0000025651   0.0000009049   0.0000005917
        0.0000018975  -0.0000000534  -0.0000051894  -0.0000061739   0.0000087307
        0.0000084139  -0.0000073507   0.0000074730  -0.0000058988  -0.0000008789
        0.0000102462   0.0000188686  -0.0000047955  -0.0000063197   0.0000051261
        0.0000060378   0.0000005099  -0.0000453750  -0.0000129320  -0.0000192732
        0.0001877397  -0.0000966704   0.0000401019   0.0275168468  -0.0454293713
       -0.0433405781  -0.0075832143  -0.0007837214  -0.0002659266   0.0005274072
       -0.0027829321   0.0064346576  -0.0008700516  -0.0007021526  -0.0002098969
       -0.0000027857  -0.0000145877   0.0000295684  -0.0000028264  -0.0000166302
        0.0000067609   0.0000042369  -0.0000159755   0.0000458599  -0.0000260155
        0.0000068505  -0.0000022670  -0.0000363452   0.0000266572  -0.0000040262
        0.0000002162  -0.0000029141  -0.0000197740  -0.0000026270  -0.0000074849
        0.0000079237  -0.0000007361  -0.0000018498  -0.0000001674   0.0000030899
       -0.0000001152   0.0000015768   0.0000005434   0.0000012826  -0.0000006475
       -0.0000004113  -0.0000017280   0.0000007710   0.0000018634  -0.0000017135
        0.0000007033   0.0000017635  -0.0000000476  -0.0000003020   0.0000012592
       -0.0000001570  -0.0000001189   0.0000014117   0.0000007699  -0.0000007199
        0.0000001552   0.0000008167  -0.0000009839   0.0000009637  -0.0000016072
       -0.0000000760   0.0000019477  -0.0000002271  -0.0000007102  -0.0000008012
        0.0000010898   0.0000011521  -0.0000016061   0.0000059386  -0.0000024709
        0.0000068340  -0.0000050940   0.0000134163  -0.0000087030  -0.0000091437
       -0.0000207066
       -0.3414170322   0.0330339439  -0.0008765079   0.6681617477   0.0102678404
        0.0214760108  -0.1574849330   0.0659266640   0.0137142540   0.0604585422
        0.0284699757   0.0098174653  -0.0527372502   0.0236105437   0.0054482549
       -0.0337691548  -0.0820709034  -0.0227708280   0.0057193601   0.0014144711
        0.0005115384  -0.0008774673   0.0030496808   0.0006672147  -0.0000644620
       -0.0034382794  -0.0008547288  -0.0028573108   0.0019932212   0.0005934945
        0.0028889183   0.0017030788   0.0004035592  -0.0003946241  -0.0032801211
       -0.0008727061   0.0017825056   0.0026186054   0.0001718190  -0.0080377279
       -0.0035996883  -0.0015810887   0.0014518777   0.0005231762   0.0002764003
       -0.0006155880  -0.0004153653  -0.0000426476   0.0003571419  -0.0001406184
        0.0001035900  -0.0003443843  -0.0000476891   0.0000759173   0.0002832328
        0.0000015488  -0.0000033699  -0.0000698529   0.0000262434  -0.0000204006
       -0.0000047220  -0.0000227419  -0.0000490918   0.0000287679   0.0000105416
        0.0000051141  -0.0000079456  -0.0000004249  -0.0000011437   0.0000058878
       -0.0000048732   0.0000250187  -0.0000180453  -0.0000197538   0.0000265980
        0.0000825547   0.0000013253   0.0000021656  -0.0000931904  -0.0000118201
        0.0000026033   0.0000127375  -0.0000187655   0.0000290048   0.0000065239
       -0.0000001087   0.0000007755  -0.0000058397   0.0000007293  -0.0000001763
        0.0000069707   0.0000087434  -0.0000022191   0.0000024769  -0.0000157603
        0.0000048615   0.0000089002   0.0000241608  -0.0000085363  -0.0000158085
       -0.0000127815   0.0000039763  -0.0000033185  -0.0000135019   0.0000055754
        0.0000021083   0.0000163221  -0.0000060033   0.0000101625  -0.0000111579
        0.0000023456  -0.0000081012   0.0000032107  -0.0000025298   0.0000039823
       -0.0000034230  -0.0000013311   0.0000267672   0.0000349524  -0.0000332689
       -0.0000175939   0.0000181919  -0.0000270704   0.0000075031   0.0000025804
       -0.0000237633  -0.0000057399   0.0000014940   0.0000364662  -0.0000795286
       -0.0000142617   0.0000443919   0.0004231452   0.0001584212  -0.0001235525
       -0.0005994194   0.0004753909   0.0000225024  -0.0183605939   0.0020125664
        0.0000325336  -0.1036281739  -0.1043463122  -0.0314701702  -0.0196699488
        0.0245345890   0.0057917227  -0.0003778804  -0.0026438892  -0.0006371256
        0.0000082961   0.0000393160  -0.0000099605  -0.0000026155   0.0000237683
        0.0000086888   0.0000106064   0.0000212816  -0.0000002194  -0.0000267226
        0.0000105856  -0.0000062760  -0.0000704628   0.0000202743   0.0001365191
       -0.0000441117   0.0000422634   0.0000176278   0.0000075337   0.0000116028
        0.0000098767   0.0000058530   0.0000076730   0.0000035537  -0.0000050884
        0.0000016859  -0.0000053201  -0.0000020151  -0.0000022160   0.0000012352
        0.0000006145   0.0000008164   0.0000014980  -0.0000011059   0.0000019988
        0.0000012052  -0.0000015748   0.0000010168   0.0000010243  -0.0000006287
       -0.0000016466   0.0000002081  -0.0000010743  -0.0000028149   0.0000000128
        0.0000024120  -0.0000035581   0.0000007936   0.0000006704   0.0000044609
       -0.0000007899  -0.0000040684   0.0000010665   0.0000040793   0.0000058761
       -0.0000025680  -0.0000048897   0.0000042072  -0.0000037839  -0.0000183741
       -0.0000267763  -0.0000422989  -0.0000229498  -0.0000260021   0.0000611043
       -0.0000044573
       -0.0424083119  -0.0891488246  -0.0130556121   0.0102678404   0.6242960193
        0.1384873698   0.1396009231  -0.2474987136  -0.0507612917  -0.0236284978
       -0.0612443722  -0.0167858125   0.0293212642  -0.0051237863   0.0001668570
       -0.0266618083   0.0184403001   0.0039302226  -0.0048074795  -0.0047826438
       -0.0013303701   0.0005817928  -0.0003886192  -0.0000803313   0.0000084832
        0.0016251722   0.0004350977   0.0018206514  -0.0009090537  -0.0002843652
       -0.0017017232  -0.0012815473  -0.0002368332  -0.0001237391   0.0020857993
        0.0005778040  -0.0014731770  -0.0051589112  -0.0015516665   0.0003549414
        0.0014440348  -0.0008379859  -0.0007876159   0.0000203104  -0.0002061175
        0.0000841279   0.0003808526   0.0002255691   0.0000686885   0.0001211168
        0.0000107269   0.0001944223   0.0001158158  -0.0001965355  -0.0000720427
        0.0000034283  -0.0000203728   0.0000773451  -0.0000210356   0.0000454686
       -0.0001251532  -0.0000148744   0.0000191354   0.0001345673   0.0000057530
        0.0000042131  -0.0000738539  -0.0000018074  -0.0000000654   0.0000203262
       -0.0000054729   0.0000269837  -0.0000246369  -0.0000150638   0.0000198329
        0.0000573326   0.0000007255   0.0000002127  -0.0000570553  -0.0000062817
        0.0000024330   0.0000087243  -0.0000108512   0.0000167059   0.0000040784
        0.0000008907  -0.0000010169  -0.0000022310   0.0000002407  -0.0000022605
        0.0000049418   0.0000042357  -0.0000035511   0.0000021194  -0.0000082630
        0.0000010593   0.0000058403   0.0000172763  -0.0000066733  -0.0000141112
       -0.0000049414   0.0000021977  -0.0000004914  -0.0000106358   0.0000045489
        0.0000010526   0.0000114305  -0.0000025123   0.0000037079  -0.0000041772
        0.0000031907  -0.0000060489   0.0000005372   0.0000014971   0.0000033054
       -0.0000010655   0.0000000700   0.0000134444   0.0000191439  -0.0000186235
       -0.0000255342   0.0000132605  -0.0000189543   0.0000206229   0.0000028045
       -0.0000245416  -0.0001212764  -0.0000019208  -0.0000232919   0.0000874361
        0.0000244975  -0.0000464945  -0.0003240684  -0.0001018322   0.0001172274
        0.0002756456  -0.0004164801   0.0001997944   0.0251990569  -0.0011773480
        0.0004039830  -0.1046915934  -0.2270737031  -0.0559436309   0.0018238393
       -0.0004396460  -0.0001446119  -0.0029802489  -0.0037546173  -0.0028783282
        0.0000719905   0.0000450380   0.0000205519  -0.0000072105  -0.0000262305
       -0.0000113597   0.0000066242  -0.0000527353   0.0000077981  -0.0000002928
       -0.0000313952  -0.0000000205   0.0000387964   0.0000000453  -0.0001948351
       -0.0000123663  -0.0000172322   0.0000093353   0.0000098847   0.0000065195
        0.0000080229   0.0000050190   0.0000019049   0.0000031970  -0.0000024483
       -0.0000005793  -0.0000031832  -0.0000003700  -0.0000017412  -0.0000007093
        0.0000016936  -0.0000004945  -0.0000018764   0.0000002108   0.0000016842
       -0.0000022004  -0.0000008942   0.0000009812  -0.0000010169  -0.0000020892
        0.0000012965   0.0000006913  -0.0000020602   0.0000000113   0.0000023477
       -0.0000003857   0.0000003497   0.0000033566  -0.0000013320   0.0000028265
        0.0000011836  -0.0000021948   0.0000013888   0.0000031860   0.0000046881
       -0.0000021609  -0.0000023655   0.0000075794  -0.0000118122  -0.0000038830
       -0.0000384151   0.0000511262  -0.0000056753  -0.0000122507   0.0000040532
       -0.0000728953
       -0.0214806390  -0.0110623167  -0.0491881426   0.0214760108   0.1384873698
        0.1500837327   0.0336912598  -0.0528560661  -0.0559720741  -0.0046396674
       -0.0157025097  -0.0060632993   0.0065425456   0.0004002658  -0.0043455868
       -0.0079317982   0.0025643644   0.0023060157  -0.0010955776  -0.0011095084
       -0.0003119285   0.0001507660  -0.0001040068  -0.0001067064   0.0000091658
        0.0003936555   0.0000374661   0.0004297721  -0.0002143021  -0.0000505591
       -0.0004029414  -0.0002367468  -0.0002687395  -0.0000465251   0.0004647299
        0.0000823883  -0.0002377088  -0.0016727038   0.0008310290  -0.0009963773
       -0.0009520026   0.0046894213   0.0002700405   0.0002372388   0.0006990167
        0.0000746262  -0.0000499906  -0.0001935115  -0.0001519271   0.0000180634
       -0.0001018908   0.0000418540  -0.0000909011   0.0001320211  -0.0000066440
        0.0000074597   0.0000255062   0.0000240849  -0.0000047560  -0.0000073741
       -0.0000349544  -0.0000051271   0.0000147204   0.0000448689   0.0000029792
       -0.0000037728  -0.0000235054   0.0000000021   0.0000025186   0.0000073357
       -0.0000013878   0.0000060230  -0.0000094551  -0.0000053895   0.0000086718
        0.0000215060   0.0000001241  -0.0000000859  -0.0000219603  -0.0000044168
        0.0000032090   0.0000016975  -0.0000045840   0.0000060181   0.0000023430
       -0.0000009487   0.0000008665  -0.0000014854   0.0000021361  -0.0000009268
        0.0000022095   0.0000029392  -0.0000010934   0.0000004718  -0.0000046271
        0.0000015734   0.0000020804   0.0000054835  -0.0000026421  -0.0000023129
       -0.0000031603   0.0000023160  -0.0000027947  -0.0000019806   0.0000000030
        0.0000006127   0.0000052270  -0.0000012707   0.0000022642  -0.0000026809
        0.0000013432  -0.0000035949  -0.0000008947   0.0000008532   0.0000019889
        0.0000005710  -0.0000001316   0.0000069695   0.0000111664  -0.0000093074
       -0.0000094768   0.0000048148  -0.0000081529   0.0000046408   0.0000007447
       -0.0000097749  -0.0000410573  -0.0000063250   0.0000045639   0.0000200601
        0.0000095526  -0.0000294371   0.0001600827  -0.0000191116  -0.0000504676
        0.0000603923   0.0000704039   0.0000239153   0.0061175675  -0.0002351663
        0.0000349171  -0.0309208437  -0.0561607371  -0.0491458879  -0.0002545127
        0.0007659146   0.0004950491  -0.0008680765  -0.0028292284   0.0063444119
        0.0000182052   0.0000155162  -0.0000033861  -0.0000016591  -0.0000172896
        0.0000368326   0.0000022704  -0.0000165684   0.0000077533   0.0000000576
       -0.0000185219   0.0000179546   0.0000186921  -0.0000096348  -0.0000286684
       -0.0000309876  -0.0000297688  -0.0000020842   0.0000038378   0.0000013862
        0.0000075995   0.0000021095   0.0000005577   0.0000023549   0.0000000661
       -0.0000002048  -0.0000006388  -0.0000006760  -0.0000004950  -0.0000005440
        0.0000001099  -0.0000010557  -0.0000002263   0.0000004730   0.0000000099
       -0.0000003671  -0.0000002992   0.0000004838  -0.0000004035  -0.0000007402
       -0.0000000311   0.0000001284  -0.0000006731  -0.0000004439   0.0000005672
       -0.0000000487  -0.0000003831   0.0000007469  -0.0000001877   0.0000010891
       -0.0000002167  -0.0000013118   0.0000005016   0.0000018178   0.0000015770
       -0.0000003928  -0.0000004909   0.0000014232  -0.0000028230   0.0000036658
        0.0000049395  -0.0000160357  -0.0000113635  -0.0000005594  -0.0000195257
        0.0000041623
       -0.0422686129   0.0224204386   0.0046254045  -0.1574849330   0.1396009231
        0.0336912598   0.6666185192  -0.0127526274   0.0195977897  -0.1485632734
       -0.1267504027  -0.0388957889  -0.0243187380  -0.0264264761  -0.0074633080
        0.0026103310   0.0057105829   0.0016272515  -0.0079944086   0.0010029036
        0.0001370109   0.0011301151  -0.0012693149  -0.0003304829  -0.0000144312
        0.0002182892   0.0000446991   0.0002041686  -0.0001739381  -0.0000511205
       -0.0003958700   0.0001229030   0.0000462341   0.0004217209   0.0013410459
        0.0003275826  -0.0028141732   0.0017835827   0.0006737678   0.0128816909
        0.0130550610   0.0036408206   0.0002399857   0.0017655349   0.0005060670
       -0.0011781708   0.0011610055   0.0006911530   0.0007237093  -0.0001247187
        0.0002421774  -0.0002665717   0.0003405355  -0.0004297119   0.0000451769
       -0.0000193069  -0.0000128630  -0.0000651511   0.0000106152   0.0000259793
        0.0000994903  -0.0000127740  -0.0000210839  -0.0001123778   0.0000220090
        0.0000026966   0.0000576706  -0.0000059115  -0.0000020214  -0.0000164058
        0.0000008285  -0.0000179196   0.0000214650   0.0000116935  -0.0000205844
       -0.0000605160   0.0000010187   0.0000006265   0.0000595315  -0.0000034201
        0.0000001690  -0.0000117626   0.0000157339  -0.0000184853  -0.0000017533
       -0.0000056584   0.0000004204   0.0000078673   0.0000048549  -0.0000030322
       -0.0000075206  -0.0000026066  -0.0000009431  -0.0000030400   0.0000083961
       -0.0000031215  -0.0000028735  -0.0000155606   0.0000059945   0.0000201737
       -0.0000017005   0.0000011840  -0.0000058070   0.0000184138  -0.0000066992
       -0.0000040109  -0.0000060544   0.0000022221  -0.0000088753   0.0000026523
        0.0000010061   0.0000064573  -0.0000041351   0.0000024828  -0.0000033544
        0.0000054031  -0.0000012324  -0.0000091848  -0.0000108257   0.0000179763
        0.0000215990  -0.0000123050   0.0000205840  -0.0000152404  -0.0000051202
        0.0000208283   0.0001136969  -0.0000104768   0.0000007319  -0.0000535879
       -0.0000125745   0.0000288661  -0.0004264895  -0.0003136202   0.0000997412
        0.0005935174  -0.0000149523   0.0001091436  -0.0058601103   0.0001636494
       -0.0004217234   0.0063302821  -0.0108493258  -0.0024958954  -0.3014536424
       -0.0102200411  -0.0164102482   0.0009111077   0.0000820600   0.0000062244
        0.0000559356   0.0000485701   0.0000077507   0.0000005256   0.0000113559
        0.0000067261   0.0000374484   0.0000607905   0.0000285685   0.0000382307
        0.0000315684   0.0000237594   0.0000412204  -0.0000203075   0.0001315134
        0.0000429188   0.0000653767   0.0000941571  -0.0000094785   0.0000082893
       -0.0000341325  -0.0000067423  -0.0000020564  -0.0000053457   0.0000041671
       -0.0000002999   0.0000034109  -0.0000007103   0.0000034591  -0.0000011497
       -0.0000014808  -0.0000028951   0.0000001004   0.0000035867  -0.0000032021
        0.0000005163   0.0000031950   0.0000005060  -0.0000009911   0.0000023995
        0.0000010038   0.0000008593   0.0000022500   0.0000044790  -0.0000004595
       -0.0000030870   0.0000025804   0.0000010074  -0.0000008215  -0.0000023151
        0.0000016984   0.0000046894   0.0000013627  -0.0000037348  -0.0000060339
        0.0000038471   0.0000052996  -0.0000046400   0.0000024307   0.0000167417
        0.0000452154  -0.0000088059   0.0000279293   0.0000538212  -0.0000520244
        0.0001039451
        0.0783841127   0.0235951988   0.0080203201   0.0659266640  -0.2474987136
       -0.0528560661  -0.0127526274   0.6167903549   0.1403679145  -0.0562118096
       -0.2421641242  -0.0566615700  -0.0794834305   0.0080662180   0.0010095892
       -0.0006594729  -0.0524398309  -0.0131161509   0.0087321030   0.0107204685
        0.0010032512   0.0009691425  -0.0008535832  -0.0001745640   0.0000384158
       -0.0031005748  -0.0007750919  -0.0033034360   0.0017531804   0.0005544955
        0.0032792478   0.0020868534   0.0004653184  -0.0013389845  -0.0055954071
       -0.0013334392   0.0066177780   0.0041428340   0.0005369951  -0.0105275101
       -0.0475211806  -0.0139577763   0.0003037603  -0.0014075826  -0.0001051793
        0.0003103109  -0.0014797079  -0.0002216108  -0.0003578225  -0.0002035933
       -0.0002290726  -0.0003985069  -0.0002431112   0.0003508283   0.0001564901
        0.0000469070   0.0000233075  -0.0001347872   0.0000408531  -0.0000663812
        0.0001851199   0.0000059767  -0.0000389281  -0.0001902073  -0.0000096549
       -0.0000047641   0.0000966172   0.0000035167  -0.0000010610  -0.0000306543
        0.0000063189  -0.0000323348   0.0000280485   0.0000147280  -0.0000236919
       -0.0000680231  -0.0000005669  -0.0000006438   0.0000621495   0.0000071670
       -0.0000018762  -0.0000087407   0.0000100164  -0.0000175281  -0.0000052775
       -0.0000017265   0.0000004186   0.0000036742   0.0000013815   0.0000003987
       -0.0000080630  -0.0000041301   0.0000019084  -0.0000043334   0.0000094654
       -0.0000025095  -0.0000079790  -0.0000180990   0.0000065418   0.0000160212
        0.0000028143  -0.0000019288  -0.0000026408   0.0000129978  -0.0000046394
       -0.0000042126  -0.0000108226   0.0000029566  -0.0000074599   0.0000046523
       -0.0000018616   0.0000060803  -0.0000018027  -0.0000000365  -0.0000050640
        0.0000021067  -0.0000000156  -0.0000151711  -0.0000189887   0.0000204422
        0.0000276076  -0.0000136070   0.0000235945  -0.0000290126  -0.0000043139
        0.0000338346   0.0001903723   0.0000048126   0.0000421481  -0.0001507728
       -0.0000434680   0.0000759040   0.0005834376   0.0001741396  -0.0003838958
       -0.0013122047   0.0011760724  -0.0005938853  -0.0002334908   0.0015266543
       -0.0014971498   0.0120324332  -0.0245698646  -0.0067423411  -0.0107678131
       -0.0424702942  -0.0033997310   0.0000632930  -0.0006072692   0.0001540240
       -0.0001047847  -0.0000549629  -0.0000176638  -0.0000284214   0.0000628118
        0.0000084137  -0.0000972358  -0.0000801954  -0.0000806094  -0.0002343749
        0.0002032259   0.0000565657   0.0003566101  -0.0000866296  -0.0002513371
        0.0000738059   0.0000264084  -0.0000078642  -0.0000091446  -0.0000040356
       -0.0000255681  -0.0000071158  -0.0000032688  -0.0000060839   0.0000019656
        0.0000000697   0.0000027411  -0.0000003409   0.0000017381   0.0000002178
       -0.0000027715  -0.0000002129   0.0000008567   0.0000000530  -0.0000022946
        0.0000012638   0.0000012091  -0.0000007999   0.0000003096   0.0000012539
       -0.0000002429  -0.0000001303   0.0000012122   0.0000019993  -0.0000015965
       -0.0000015545   0.0000008586  -0.0000018172  -0.0000002982  -0.0000033227
        0.0000000696   0.0000025244  -0.0000007663  -0.0000029820  -0.0000067222
        0.0000021799   0.0000050943  -0.0000065980   0.0000050858   0.0000200100
        0.0000560773  -0.0000620733  -0.0000547450   0.0000112797   0.0000707561
       -0.0000936118
        0.0194099161   0.0065923275   0.0041647756   0.0137142540  -0.0507612917
       -0.0559720741   0.0195977897   0.1403679145   0.1460659019  -0.0208216031
       -0.0599291959  -0.0619060081  -0.0211558505   0.0019346892  -0.0023595367
        0.0000790806  -0.0127452672  -0.0068465119   0.0021789946   0.0011910073
        0.0068823048   0.0002832748  -0.0002068345  -0.0001178052  -0.0000014324
       -0.0007746116  -0.0003832768  -0.0008976207   0.0004807078   0.0000513378
        0.0008724823   0.0005781017   0.0000825475  -0.0003270354  -0.0013335109
       -0.0006061699   0.0016200758   0.0010649998   0.0010831968  -0.0020916341
       -0.0128951179  -0.0007862169   0.0002343642  -0.0004999402  -0.0006113713
        0.0003391937  -0.0005075699  -0.0006332563  -0.0001821191  -0.0002361273
       -0.0001666567  -0.0000892776  -0.0000080551   0.0000476890   0.0000639386
       -0.0000007814   0.0000998921  -0.0000344672   0.0000171477  -0.0000844971
        0.0000870022   0.0000029073   0.0000149275  -0.0000739644  -0.0000003287
       -0.0000020385   0.0000342077   0.0000001139   0.0000066319  -0.0000080141
        0.0000028750  -0.0000191870   0.0000113749   0.0000067871  -0.0000088328
       -0.0000304684  -0.0000003568  -0.0000008683   0.0000293550  -0.0000024388
        0.0000040666  -0.0000079193   0.0000085239  -0.0000106326  -0.0000012836
       -0.0000019080   0.0000013712   0.0000021874   0.0000024113  -0.0000000957
       -0.0000032883  -0.0000015550   0.0000010540  -0.0000017125   0.0000040600
       -0.0000005301  -0.0000009635  -0.0000074568   0.0000018139   0.0000094188
       -0.0000028393   0.0000023682  -0.0000044754   0.0000091184  -0.0000045272
       -0.0000013623  -0.0000041497   0.0000014858  -0.0000025845   0.0000014914
       -0.0000002744   0.0000013548  -0.0000008625   0.0000005019  -0.0000018815