$hessian                                                                        
        0.5091691901   0.0184839662   0.0228597657  -0.1013527940   0.0411634082
        0.0447768290  -0.0223793576   0.0181160028   0.0198802555  -0.0044411608
       -0.0007651449  -0.0007104850  -0.0003044367   0.0008153920   0.0008160533
       -0.0000838986   0.0000731859  -0.0000294649   0.0000523737  -0.0000224099
        0.0000199684  -0.0000372151   0.0000390894  -0.0000275140  -0.0000178338
        0.0000088657   0.0000009820   0.0000298200  -0.0000001572  -0.0000022144
       -0.0000205889  -0.0000147076  -0.0000595264  -0.0000129749   0.0000075676
       -0.0000076944   0.0000909955   0.0000090964   0.0000300500  -0.0000185223
        0.0000054117  -0.0000289086   0.0000112451  -0.0000054214  -0.0000019242
       -0.0000022465  -0.0000002680  -0.0000014360   0.0000158255   0.0000019225
        0.0000063447  -0.0000178042  -0.0000105351   0.0000385638  -0.0000652119
       -0.0000072424  -0.0000902259   0.0000166006  -0.0000034531   0.0000072673
       -0.0000146615  -0.0000155072   0.0000094518  -0.0000268601  -0.0000296380
        0.0000188089   0.0000600141   0.0000154452   0.0000048319  -0.0002652714
       -0.0000892575   0.0000251631  -0.0005250523   0.0004961470   0.0005003857
       -0.0006290196  -0.0020955718  -0.0026681750   0.0071547514  -0.0047544712
       -0.0055259641  -0.0000135762  -0.0009971597  -0.0007866509  -0.0000485790
       -0.0002262534  -0.0004249483   0.0001511298   0.0000564316  -0.0000715569
        0.0000100764  -0.0000081996   0.0000116462   0.0000538129  -0.0000070122
       -0.0000172391  -0.0000010848   0.0000207426   0.0000087858  -0.0000226743
        0.0000027633   0.0000017797   0.0000031753   0.0000045077   0.0000005068
        0.0000000663   0.0000009774  -0.0000003122   0.0000005021  -0.0000005752
       -0.0000012070   0.0000033084  -0.0000067540  -0.0000033904   0.0000031307
       -0.0000026696  -0.0000008213  -0.0000051016  -0.0000037215  -0.0000013069
       -0.0000041798  -0.0000020121   0.0000030217   0.0000013207  -0.0000001239
       -0.0000010842   0.0000020184  -0.0000005336  -0.0000006086   0.0000001964
       -0.0000003358   0.0000022712  -0.0000071872   0.0000006652   0.0000047163
        0.0000119187  -0.0000028451   0.0000011844  -0.0000118135   0.0000007632
        0.0000002933   0.0000127690   0.0000039339   0.0000019130   0.0000069092
       -0.0000006664  -0.0000058650   0.0000610226  -0.0000065130  -0.0000170492
       -0.0000099704   0.0000157990   0.0000101840   0.0000913373  -0.0000156585
        0.0000679959   0.0000342872  -0.0004962191  -0.0001854830  -0.0001493661
        0.0000193813   0.0001635064  -0.0951220614  -0.0650705565   0.0751012861
       -0.1496833635   0.0874551499  -0.0801037761  -0.1428279171  -0.0927756247
       -0.0740904921   0.0008316248   0.0011454173   0.0012871732  -0.0000710076
        0.0001150210  -0.0000405793   0.0000045126  -0.0000398540   0.0000211034
       -0.0000177960  -0.0000280086   0.0000127718  -0.0000293207  -0.0000173876
        0.0000005075   0.0000073639  -0.0000007939  -0.0000001989  -0.0000200066
        0.0000011351   0.0000097929  -0.0000190148   0.0000010223  -0.0000014875
       -0.0000222874   0.0000005258  -0.0000148672   0.0000110515   0.0000054885
       -0.0000094625  -0.0000308333   0.0000163740  -0.0000115114  -0.0000125428
        0.0000255326  -0.0000067339   0.0000045016   0.0000235082  -0.0000096889
       -0.0000596559  -0.0000827299   0.0000417080   0.0001167831  -0.0000260027
        0.0000441902   0.0002766865  -0.0006142818  -0.0006083537  -0.0000454628
        0.0000281097  -0.0000572035   0.0000107047   0.0000225488   0.0000114331
        0.0000077614   0.0000026778   0.0000019028  -0.0000017234  -0.0000087368
       -0.0000035849  -0.0000023640  -0.0000036199  -0.0000010240  -0.0000014553
       -0.0000035095  -0.0000013599  -0.0000005009   0.0000004923  -0.0000029204
       -0.0000004725  -0.0000000133   0.0000007930  -0.0000027525   0.0000000536
       -0.0000003408  -0.0000022748   0.0000002014  -0.0000019245   0.0000002829
        0.0000003279   0.0000000096  -0.0000064833  -0.0000004303   0.0000008098
       -0.0000112105  -0.0000005025   0.0000018809  -0.0000040357  -0.0000119040
        0.0000038737  -0.0000166636  -0.0000072581   0.0000269662   0.0000055313
        0.0000221555   0.0000019392   0.0000223417   0.0000220329  -0.0000216496
        0.0000717700   0.0000474905  -0.0000037499   0.0000809355  -0.0000144785
       -0.0001787027
        0.0184839662   0.4904506790   0.0007244313   0.0460751902  -0.1154838919
       -0.0611562506   0.0053227971  -0.0014369738  -0.0040940501  -0.0000123737
        0.0044863785  -0.0032080732  -0.0000651000  -0.0001317244  -0.0000275574
        0.0000584485   0.0000541749   0.0000358190  -0.0000462008   0.0000200500
       -0.0000153549   0.0000279409  -0.0000164041   0.0000093178   0.0000073113
        0.0000091405  -0.0000146166  -0.0000212972  -0.0000188214   0.0000032234
        0.0000047419   0.0000112855   0.0000136307   0.0000297232  -0.0000143004
        0.0000098013  -0.0000651509   0.0000013921  -0.0000066379  -0.0000056442
        0.0000004715   0.0000122001  -0.0000048737   0.0000002544  -0.0000022131
        0.0000059604   0.0000000366   0.0000001358  -0.0000086410   0.0000008231
        0.0000005828  -0.0000070257  -0.0000004192  -0.0000100572   0.0000354196
        0.0000068190  -0.0000036748  -0.0000121300   0.0000118932  -0.0000011716
        0.0000114662  -0.0000073944  -0.0000076071   0.0000336819   0.0000260329
       -0.0000086882  -0.0000784818  -0.0000036615   0.0000275628   0.0000438228
       -0.0000081888  -0.0000568526   0.0003661935  -0.0003942883  -0.0000972105
       -0.0025237740   0.0023356955  -0.0047565972   0.0064454281  -0.0144347072
       -0.0166756930   0.0008098849  -0.0011719997   0.0011122084  -0.0003190330
        0.0000143292  -0.0001421253   0.0000755384  -0.0001355809  -0.0000760590
       -0.0000127944  -0.0000060659  -0.0000008053   0.0000110653   0.0000234162
        0.0000141418  -0.0000197974  -0.0000084610  -0.0000041120   0.0000196870
       -0.0000036914   0.0000033933  -0.0000076134   0.0000005651   0.0000026916
        0.0000016579   0.0000000596   0.0000018103  -0.0000055423  -0.0000013578
        0.0000011614   0.0000008782  -0.0000006846   0.0000004301  -0.0000029138
        0.0000012849   0.0000001752   0.0000025163   0.0000027352   0.0000010002
       -0.0000038500   0.0000013472  -0.0000047746  -0.0000006649   0.0000002668
       -0.0000008650   0.0000001272   0.0000002314   0.0000015815  -0.0000010264
        0.0000002601  -0.0000005727   0.0000008201  -0.0000004106  -0.0000030024
       -0.0000015531   0.0000067501   0.0000007858   0.0000048722   0.0000022763
        0.0000024016  -0.0000104056   0.0000072018   0.0000020189  -0.0000217594
       -0.0000143909  -0.0000008056  -0.0000147501   0.0000020946   0.0000248719
       -0.0000180581  -0.0000157114  -0.0000096564   0.0001418920  -0.0000411105
        0.0000501672   0.0004808767  -0.0001886548  -0.0000093381  -0.0000244226
       -0.0001938889  -0.0000329746  -0.0681906197  -0.1161129551   0.0914367566
        0.0870087251  -0.1138720312   0.0628071065  -0.0931687441  -0.1317437538
       -0.0679581067  -0.0012757487  -0.0006409301   0.0017355105   0.0000943025
       -0.0000186692  -0.0000309896   0.0000047654   0.0000198087  -0.0000020555
       -0.0000019899   0.0000109479   0.0000004199   0.0000072667   0.0000085217
       -0.0000012695  -0.0000020706   0.0000003735  -0.0000064358   0.0000090495
        0.0000001867  -0.0000038900   0.0000078833   0.0000009194   0.0000006958
        0.0000085104   0.0000016538   0.0000053075  -0.0000042504   0.0000014711
        0.0000052355   0.0000110998  -0.0000043105   0.0000053308   0.0000046342
       -0.0000085464   0.0000019283  -0.0000052067  -0.0000052183   0.0000043130
        0.0000124540   0.0000194501  -0.0000136465  -0.0000315419  -0.0007966439
        0.0008399671   0.0004559510  -0.0006374174  -0.0006049257  -0.0000638802
       -0.0000323063  -0.0000414724  -0.0000781577  -0.0000316696   0.0000109024
        0.0000025370   0.0000041097  -0.0000033402   0.0000015495   0.0000057511
        0.0000007556  -0.0000023772   0.0000016059   0.0000004543  -0.0000011518
        0.0000008803  -0.0000003226   0.0000014563   0.0000003490   0.0000030519
       -0.0000005752   0.0000009682   0.0000008600   0.0000007380   0.0000005030
        0.0000004999   0.0000017076  -0.0000001387   0.0000010757   0.0000004426
       -0.0000001827   0.0000020711   0.0000034254   0.0000046253  -0.0000000010
        0.0000019960   0.0000026187  -0.0000033635  -0.0000040602   0.0000132854
       -0.0000027545   0.0000456483  -0.0000118071  -0.0000333125   0.0000001946
       -0.0000101135  -0.0000012755   0.0000205898   0.0000440908   0.0000112887
        0.0000086046  -0.0000079537   0.0000438202  -0.0000701876   0.0000473661
        0.0001616627
        0.0228597657   0.0007244313   0.4844703374   0.0484919707  -0.0594469085
       -0.1245705447   0.0056734018  -0.0038101745  -0.0013791161  -0.0007189716
       -0.0034402002   0.0041622433   0.0002478802   0.0000704302  -0.0000894102
       -0.0000043177  -0.0000985867  -0.0000338596  -0.0000837785   0.0000523244
       -0.0000359489   0.0000097391  -0.0000549383   0.0000252148   0.0000179104
       -0.0000017906   0.0000142926  -0.0000133910   0.0000084190   0.0000048699
        0.0000531938  -0.0000405881   0.0000043478   0.0000151645   0.0000091988
       -0.0000054550  -0.0000737971   0.0000023179   0.0000069608  -0.0000048774
       -0.0000020076   0.0000156985  -0.0000095335   0.0000008279   0.0000025057
        0.0000028159   0.0000003885   0.0000012430  -0.0000087229   0.0000002268
        0.0000007448  -0.0000011312   0.0000019492  -0.0000210640   0.0000586868
        0.0000196755  -0.0000112297  -0.0000265238   0.0000078290  -0.0000035525
        0.0000231115   0.0000008127   0.0000094406   0.0000212654   0.0000332309
       -0.0000079831  -0.0000693017  -0.0000599783   0.0000531664   0.0000509254
        0.0000622872  -0.0000095583   0.0006719206  -0.0001213404  -0.0003491010
       -0.0030422287  -0.0045298329   0.0017741656   0.0070563087  -0.0166992167
       -0.0175403897   0.0007555388   0.0011863120  -0.0010879501   0.0004278439
       -0.0001445575  -0.0002220531   0.0001513731  -0.0000158695  -0.0000331169
       -0.0000365474   0.0000402938  -0.0000338700   0.0000194890   0.0000227976
        0.0000206304  -0.0000254472  -0.0000112786  -0.0000054950   0.0000345118
        0.0000090119   0.0000033047  -0.0000055125  -0.0000036934  -0.0000002244
        0.0000038444  -0.0000002480   0.0000012680  -0.0000121628   0.0000019382
        0.0000013121   0.0000104466  -0.0000038815  -0.0000001123  -0.0000016529
        0.0000093550   0.0000029450  -0.0000048882   0.0000053475   0.0000022839
       -0.0000002141   0.0000038127  -0.0000011152  -0.0000037057   0.0000005278
        0.0000007453   0.0000002534   0.0000005519  -0.0000003216  -0.0000003660
        0.0000006462  -0.0000000456  -0.0000001342   0.0000004877  -0.0000045589
        0.0000055348   0.0000100383   0.0000036484   0.0000129454   0.0000046429
        0.0000014165  -0.0000108017   0.0000096792   0.0000025949   0.0000015646
       -0.0000266755  -0.0000102340  -0.0001083309   0.0000140361   0.0000051120
        0.0000104899  -0.0000325951  -0.0000138034  -0.0000233889  -0.0000217620
       -0.0001210039  -0.0001587901  -0.0000497304   0.0000978409   0.0001546475
        0.0000341135   0.0002492878   0.0752822498   0.0880807966  -0.1472027815
       -0.0825676467   0.0643280238  -0.0981848839  -0.0742326611  -0.0683081899
       -0.0976788883  -0.0011961352   0.0019708768  -0.0005205211   0.0000234386
       -0.0000395339   0.0000352458  -0.0000046015   0.0000076038  -0.0000027345
        0.0000105264   0.0000144168  -0.0000019163   0.0000149782   0.0000051833
       -0.0000015517  -0.0000047583   0.0000004424  -0.0000058605   0.0000115371
       -0.0000001616  -0.0000055792   0.0000110941   0.0000004884   0.0000022210
        0.0000126075   0.0000008043   0.0000084250  -0.0000034112  -0.0000001371
        0.0000070016   0.0000128523  -0.0000065065  -0.0000008854   0.0000036246
       -0.0000127697   0.0000024213  -0.0000044799  -0.0000097307  -0.0000002125
        0.0000304448   0.0000180526  -0.0000630299   0.0000061906   0.0009079981
       -0.0007027906   0.0004884744  -0.0005835517  -0.0007130592  -0.0000420569
       -0.0000076500  -0.0000305706  -0.0000039844  -0.0000226644  -0.0000247432
       -0.0000028935  -0.0000002552   0.0000000213  -0.0000002507   0.0000115236
        0.0000049585  -0.0000014256   0.0000040232   0.0000028700   0.0000001111
        0.0000009229   0.0000006961  -0.0000001311  -0.0000012698   0.0000009331
        0.0000013939   0.0000001834  -0.0000009592   0.0000021918  -0.0000001056
        0.0000005137   0.0000027208  -0.0000006566   0.0000011781   0.0000014967
       -0.0000009694  -0.0000000506   0.0000092500   0.0000047392   0.0000022283
        0.0000093927   0.0000008285  -0.0000015172  -0.0000104327   0.0000388544
        0.0000129520   0.0000250770  -0.0000388307  -0.0000254612  -0.0000736450
       -0.0000204369  -0.0000424657  -0.0000312564  -0.0000304176  -0.0000542121
       -0.0001023991   0.0000033670   0.0000516536  -0.0000715092  -0.0000473789
       -0.0002151491
       -0.1013527940   0.0460751902   0.0484919707   0.6545007596  -0.0012105284
        0.0052451334  -0.3236577770  -0.0232897167  -0.0281956969  -0.0353792190
        0.0566212658   0.0620073503   0.0013388705   0.0017908617   0.0015671362
       -0.0005286811  -0.0003384171  -0.0005002696   0.0000847592   0.0004992745
       -0.0004166559   0.0001123478  -0.0001023238   0.0000668379   0.0001455634
        0.0000057212   0.0001095989   0.0000122921   0.0001439607  -0.0000041136
        0.0001299780  -0.0002103790  -0.0002095640  -0.0000474639   0.0000539018
       -0.0000588532   0.0000179427   0.0000293580   0.0000799142   0.0000177405
       -0.0000209718   0.0000069543  -0.0000039977   0.0000045944   0.0000220606
       -0.0000253983   0.0000012704  -0.0000023836   0.0000056423  -0.0000103152
       -0.0000220369   0.0000409124   0.0000124383  -0.0000052664   0.0000725082
       -0.0000638477  -0.0002120711  -0.0000249626   0.0000263134  -0.0000276151
       -0.0000353673   0.0000360354   0.0000703927  -0.0000279485   0.0000082432
       -0.0000245748  -0.0002313073   0.0000177699  -0.0001911077  -0.0007014414
        0.0006781477   0.0001196977  -0.0483704309  -0.0201175433  -0.0228897008
        0.0585610072  -0.0198334984  -0.0205594422  -0.1378240541  -0.0377160331
       -0.0421961891  -0.0255873826  -0.0167747404  -0.0184780465  -0.0011082716
        0.0011002349  -0.0015202859  -0.0006307914   0.0007158917   0.0012565769
        0.0003448379  -0.0000034859  -0.0000367739   0.0000442387  -0.0002274895
       -0.0001841924  -0.0000512986   0.0000180975  -0.0000087304   0.0000058376
        0.0000109991   0.0000042235  -0.0000047184   0.0000052630   0.0000033119
        0.0000112540   0.0000143244   0.0000054659  -0.0000066150   0.0000010440
       -0.0000011038   0.0000073597  -0.0000157410   0.0000039445   0.0000134438
        0.0000119410   0.0000040598  -0.0000031100   0.0000072688  -0.0000034040
       -0.0000085163   0.0000017385  -0.0000076218   0.0000011960   0.0000039524
       -0.0000047249   0.0000049126   0.0000025512   0.0000004092   0.0000033339
        0.0000007444   0.0000026731  -0.0000070751   0.0000049194   0.0000005660
        0.0000006017  -0.0000102272   0.0000039901   0.0000205382   0.0000060558
        0.0000009890  -0.0000010647  -0.0000075170  -0.0000068432  -0.0000013610
       -0.0000179383  -0.0000082743  -0.0000803398   0.0000043508   0.0000144506
        0.0000714113  -0.0000434561  -0.0000057584  -0.0007429452   0.0013681137
        0.0006211891  -0.0017162461  -0.0013651258   0.0009814443   0.0000521575
       -0.0004844687  -0.0001575475  -0.0112311967   0.0084809158   0.0143067258
       -0.0154765261   0.0153576768   0.0133255408   0.0085682485  -0.0104563926
       -0.0111657596  -0.0184263009  -0.0023316017  -0.0027460528  -0.0000089096
       -0.0002641880   0.0004148745  -0.0000035998  -0.0000005399  -0.0000527988
        0.0000486464   0.0000268813  -0.0000099219   0.0000345821  -0.0000011315
       -0.0000089712  -0.0000074638   0.0000086372  -0.0000169831   0.0000140234
       -0.0000003013  -0.0000127026   0.0000154027   0.0000007440  -0.0000013285
        0.0000153746  -0.0000000829   0.0000127698  -0.0000171669  -0.0000013065
        0.0000118362   0.0000324664  -0.0000105440  -0.0000182896   0.0000070237
       -0.0000265542   0.0000041987  -0.0000196039  -0.0000293480  -0.0000213374
       -0.0001832733   0.0001650455  -0.0000200192  -0.0002466323  -0.0004412139
       -0.0005067378  -0.0007702771   0.0023010318   0.0023479207   0.0002172462
       -0.0005457420  -0.0002053937  -0.0001513869  -0.0000125053   0.0000080202
       -0.0000039385   0.0000354868   0.0000163136   0.0000008382   0.0000036447
       -0.0000007066  -0.0000042987  -0.0000020552  -0.0000021129  -0.0000056731
       -0.0000009022   0.0000003028   0.0000050712   0.0000016208   0.0000013033
       -0.0000010364   0.0000016361   0.0000028729  -0.0000013526   0.0000018781
        0.0000002500   0.0000006508   0.0000015277  -0.0000010900   0.0000039454
        0.0000002812   0.0000036082   0.0000021589   0.0000051707   0.0000001351
        0.0000025021   0.0000077480   0.0000018702   0.0000061206   0.0000293270
        0.0000123542   0.0000176753  -0.0000194714  -0.0000264572  -0.0001838992
       -0.0000292362  -0.0000377532   0.0001065245  -0.0000732822   0.0001043147
        0.0001494108   0.0000747817  -0.0000551207   0.0000337564   0.0003242905
       -0.0004171680
        0.0411634082  -0.1154838919  -0.0594469085  -0.0012105284   0.3586413773
        0.2347711271   0.0306202771  -0.0675928404  -0.0212353236   0.0173782653
        0.0107325288   0.0128156923   0.0021411344   0.0022117237  -0.0055535409
        0.0009450403  -0.0001662532  -0.0001060598   0.0000533561  -0.0000965325
       -0.0000177341  -0.0000495009   0.0000090938  -0.0000356691  -0.0000142698
       -0.0000116884  -0.0000033454   0.0000925511   0.0000207396  -0.0000113542
        0.0001159714   0.0002413599   0.0002106751  -0.0000381857   0.0000303910
       -0.0000050907   0.0000701193  -0.0000465716  -0.0000952673   0.0000169902
        0.0000042114  -0.0000295545   0.0000210184   0.0000039821   0.0000040883
       -0.0000115205   0.0000002118  -0.0000000925   0.0000176002   0.0000051622
       -0.0000053417  -0.0000193604  -0.0000014666   0.0000314309  -0.0000651666
        0.0002703260   0.0002157756  -0.0000580360  -0.0000290124  -0.0000247819
       -0.0000204063   0.0000003859   0.0000027035  -0.0000634015  -0.0000404269
        0.0000024557  -0.0000509756  -0.0000353811  -0.0001762857  -0.0006549877
        0.0001938928   0.0001707095  -0.0209439326  -0.0080300631  -0.0038485543
        0.0190799025  -0.0300594944  -0.0332026902  -0.0839862173  -0.1364131247
       -0.0951766097  -0.0075245262   0.0008574348  -0.0012424999   0.0006382422
        0.0002897325  -0.0004324487   0.0001307112  -0.0000127065   0.0000008047
        0.0001255525   0.0000523343  -0.0000519250  -0.0000884538   0.0000069361
        0.0000140261   0.0000175126  -0.0000025579   0.0000042762  -0.0000198580
       -0.0000254238  -0.0000137745  -0.0000055237   0.0000111841   0.0000049573
       -0.0000068782  -0.0000037774  -0.0000038235   0.0000133068  -0.0000017615
       -0.0000015781  -0.0000173098   0.0000106246   0.0000033484  -0.0000057657
       -0.0000112593  -0.0000042506   0.0000131756  -0.0000034956  -0.0000013741
        0.0000075852  -0.0000003668   0.0000074967   0.0000012932  -0.0000001822
        0.0000005056  -0.0000003097   0.0000007378  -0.0000016444  -0.0000010442
        0.0000014746   0.0000007510   0.0000047855  -0.0000014769   0.0000007517
       -0.0000026282  -0.0000075332  -0.0000062426  -0.0000123248  -0.0000001232
       -0.0000038392   0.0000058099  -0.0000003620  -0.0000000444  -0.0000127586
        0.0000196427  -0.0000001189   0.0001188683   0.0000177490  -0.0000145959
       -0.0000161239   0.0000473463   0.0000184555  -0.0000652657  -0.0001916337
       -0.0000826091   0.0013440095  -0.0013928517   0.0000427020   0.0004784729
       -0.0001731220   0.0000466328  -0.0039473628   0.0100589981   0.0065569802
        0.0135997753  -0.0120468657  -0.0111151537   0.0068818507  -0.0137328155
       -0.0155174077  -0.0173217919  -0.0008365576  -0.0022650124  -0.0000829297
        0.0001529728   0.0000152839  -0.0000046018  -0.0000376406   0.0000367460
       -0.0000162928  -0.0000187126   0.0000148580  -0.0000133233   0.0000132068
        0.0000280556  -0.0000024311   0.0000011154   0.0000078454  -0.0000127107
        0.0000024828   0.0000057444  -0.0000103911   0.0000009880   0.0000003692
       -0.0000165171   0.0000023748  -0.0000082055   0.0000038964   0.0000011659
       -0.0000055228  -0.0000380091   0.0000429377   0.0000254333  -0.0000273083
        0.0000240578  -0.0000060380   0.0000042679   0.0000273600  -0.0000009963
        0.0000127814  -0.0001417413   0.0000680042  -0.0003907113   0.0002046620
        0.0002453666   0.0018043652   0.0023647569  -0.0061013136  -0.0001499750
        0.0000185783   0.0001968036   0.0000937070   0.0000737465  -0.0000189465
       -0.0000002070  -0.0000038708  -0.0000041107   0.0000018855  -0.0000052771
       -0.0000008962   0.0000049862   0.0000002648   0.0000012739   0.0000050712
        0.0000025712  -0.0000001861  -0.0000001667   0.0000035178  -0.0000027326
        0.0000013286   0.0000023733  -0.0000013061  -0.0000010630   0.0000018844
       -0.0000006625  -0.0000012199   0.0000017870  -0.0000016261   0.0000009020
        0.0000022988  -0.0000037028  -0.0000042603  -0.0000037755  -0.0000001953
       -0.0000035765  -0.0000030263  -0.0000010823   0.0000020014  -0.0000404557
       -0.0000148254  -0.0000269960   0.0000107030   0.0000334959   0.0000773564
        0.0000599787   0.0001332230   0.0001289144  -0.0001054080   0.0000435185
       -0.0001265360  -0.0000448226  -0.0003251638  -0.0000744086   0.0001009845
        0.0004476914
        0.0447768290  -0.0611562506  -0.1245705447   0.0052451334   0.2347711271
        0.4022017194   0.0294835494  -0.0229906815  -0.0710475382   0.0184524943
        0.0145730595   0.0149289826   0.0019391327  -0.0058973155   0.0012746440
       -0.0008966888   0.0000860070  -0.0000802474   0.0000892443   0.0001955087
       -0.0002097432   0.0000248771   0.0000430919  -0.0000459258   0.0000272564
        0.0000266663  -0.0000066494  -0.0000427007   0.0000450136   0.0000048215
       -0.0000446062  -0.0001807326   0.0000280588  -0.0000159637   0.0000119826
       -0.0000156926   0.0000232812   0.0000078237  -0.0000012427  -0.0000202555
        0.0000103430  -0.0000293908   0.0000168473  -0.0000041798   0.0000014504
       -0.0000002425   0.0000006998  -0.0000003308   0.0000180378   0.0000048532
        0.0000054021  -0.0000307101  -0.0000045240   0.0000410892   0.0000948337
       -0.0003175963   0.0001901919   0.0001131196   0.0000218976  -0.0000290343
       -0.0000356673   0.0000109680   0.0000416169  -0.0000387095  -0.0000125486
       -0.0000199622   0.0000214104   0.0001683313  -0.0001278497   0.0013610331
        0.0000721480   0.0000526779  -0.0233005508  -0.0034288518  -0.0096346384
        0.0210447829  -0.0336621143  -0.0353386367  -0.0924889670  -0.0946550777
       -0.1554805412  -0.0088743667  -0.0014531954   0.0005815612   0.0018553496
       -0.0003347455  -0.0015651055  -0.0001323976  -0.0000513636  -0.0001376135
        0.0002332227  -0.0000038807   0.0000555006  -0.0001405338   0.0000143311
       -0.0000095803   0.0000246600   0.0000071884   0.0000001780  -0.0000174884
       -0.0000323245  -0.0000210529  -0.0000057083   0.0000137512   0.0000052659
       -0.0000082325  -0.0000036904  -0.0000039756   0.0000146335  -0.0000032407
       -0.0000016609  -0.0000232722   0.0000135671   0.0000055779  -0.0000054809
       -0.0000136919  -0.0000049940   0.0000158860  -0.0000039372  -0.0000021676
        0.0000096909  -0.0000002599   0.0000090385   0.0000013819   0.0000000534
        0.0000009617  -0.0000001817   0.0000010437  -0.0000028206  -0.0000002580
        0.0000018387   0.0000017094   0.0000037182  -0.0000015055   0.0000029648
       -0.0000099355  -0.0000117352  -0.0000059178  -0.0000164254  -0.0000024080
       -0.0000062318   0.0000026813  -0.0000018878  -0.0000011538  -0.0000157658
        0.0000271923   0.0000016559   0.0001489665   0.0000178867  -0.0000196532
       -0.0000198362   0.0000494675   0.0000259281  -0.0000547405  -0.0000901453
        0.0000669549   0.0009543949  -0.0000597236   0.0002597411  -0.0001786000
        0.0000009222   0.0001116179   0.0157392978  -0.0117102935  -0.0175841978
       -0.0024703205   0.0057169362   0.0090048601   0.0049425297  -0.0120872742
       -0.0130724097  -0.0192405926  -0.0021838739  -0.0014442333   0.0001941635
        0.0002591362  -0.0000607325  -0.0000021065  -0.0000482458   0.0000393787
       -0.0000305546  -0.0000273762   0.0000188879  -0.0000431762  -0.0000315986
        0.0000078268  -0.0000001376  -0.0000009182  -0.0000053371  -0.0000152179
        0.0000014066   0.0000082789  -0.0000156675   0.0000018887  -0.0000009994
       -0.0000185189   0.0000016928  -0.0000138716   0.0000072243   0.0000017255
       -0.0000057951  -0.0000045977  -0.0000063628   0.0000228471  -0.0000302096
        0.0000270088  -0.0000072187  -0.0000002814   0.0000258488  -0.0000325931
       -0.0000095044  -0.0000925267   0.0000762852  -0.0004120876   0.0001877372
        0.0002523241   0.0018351910  -0.0061475628   0.0014068811  -0.0000468361
        0.0001065907   0.0000911889   0.0000756945   0.0001456073   0.0000150094
       -0.0000026417  -0.0000067355  -0.0000007080   0.0000022623  -0.0000048933
        0.0000006909   0.0000051973   0.0000002532   0.0000019505   0.0000054175
        0.0000030076   0.0000002062  -0.0000005745   0.0000041507  -0.0000041304
        0.0000016020   0.0000028486  -0.0000017268  -0.0000015529   0.0000022662
       -0.0000007066  -0.0000020940   0.0000020265  -0.0000024520   0.0000015443
        0.0000026475  -0.0000049550  -0.0000058825  -0.0000047536   0.0000000298
       -0.0000047483  -0.0000034825  -0.0000008684   0.0000098734  -0.0000515135
       -0.0000193686  -0.0000138779   0.0000306488   0.0000418701   0.0000951126
       -0.0000345582   0.0000523965   0.0001753755  -0.0001084834   0.0001054427
        0.0001778927  -0.0002013429  -0.0003067021  -0.0004753602   0.0004092125
       -0.0000567636
       -0.0223793576   0.0053227971   0.0056734018  -0.3236577770   0.0306202771
        0.0294835494   0.6574346398  -0.0009839135   0.0065936850  -0.1409006331
        0.0433053482   0.0440204855  -0.0272840212   0.0175880066   0.0176884496
        0.0000542571   0.0021148042   0.0003847515  -0.0005138078  -0.0005171788
        0.0009112325   0.0001085523   0.0002010430  -0.0000095131  -0.0001804008
        0.0000855608  -0.0000716445   0.0000257825  -0.0000383522  -0.0000017183
       -0.0004125049  -0.0003040703  -0.0008269128   0.0002751736   0.0000016151
       -0.0000099881   0.0000553739   0.0001290191   0.0003222489  -0.0000767152
        0.0000001427  -0.0000678807   0.0000114393  -0.0000114113   0.0000228816
       -0.0000158772   0.0000021625   0.0000064830   0.0000294449  -0.0000111101
        0.0000022469   0.0000215369  -0.0000143515   0.0000890071  -0.0008194419
        0.0000817659  -0.0012914020  -0.0001355062  -0.0000525454   0.0000618222
       -0.0000578153  -0.0001268281   0.0000552932   0.0003244287  -0.0000920171
        0.0000705528   0.0002455305   0.0000199846   0.0006263780  -0.0024068935
       -0.0020817626   0.0008171813   0.0566383295   0.0171094540   0.0204721146
       -0.0468863797   0.0201105599   0.0211124025  -0.0369812724  -0.0543207671
       -0.0596260107   0.0004300793  -0.0016205040  -0.0019763966  -0.0004466683
       -0.0000158688   0.0003030772   0.0000593138   0.0001715545   0.0001556538
        0.0000053572  -0.0000368914   0.0000168505  -0.0000208608  -0.0000355922
       -0.0000295476   0.0000006337  -0.0000070443   0.0000006162   0.0000160558
        0.0000000318   0.0000039771  -0.0000053062   0.0000024020   0.0000043947
       -0.0000034020  -0.0000016851   0.0000009728  -0.0000057796  -0.0000008768
        0.0000009941   0.0000050838  -0.0000027037   0.0000011753   0.0000002419
        0.0000028023   0.0000007257  -0.0000072826   0.0000007210  -0.0000002023
        0.0000000897   0.0000013882   0.0000047229  -0.0000006686   0.0000019253
       -0.0000002696   0.0000000213   0.0000011493  -0.0000000219  -0.0000020911
        0.0000002323  -0.0000001415   0.0000000653   0.0000004230  -0.0000035384
        0.0000071934   0.0000002134  -0.0000006229  -0.0000098953   0.0000048711
       -0.0000016665   0.0000050356   0.0000035243  -0.0000021937   0.0000091462
        0.0000097398  -0.0000016882   0.0000117016   0.0000052572  -0.0000035942
        0.0000112941   0.0000078711  -0.0000005228   0.0000861653   0.0001860653
        0.0000941582  -0.0007352443   0.0000686745  -0.0000571307   0.0000866172
       -0.0001373356  -0.0000258674  -0.0005097657   0.0006101781  -0.0001562912
       -0.0007290338   0.0006019991   0.0009427080   0.0009113169  -0.0016051501
       -0.0015434634  -0.1103428870  -0.0741086042  -0.0827984055  -0.0004442833
       -0.0010698119   0.0007888998   0.0000173356  -0.0000126266   0.0000265479
       -0.0000082883  -0.0000110283   0.0000123179   0.0000035135  -0.0000646796