92
 energy: -134.953423901246 gnorm: 0.000069164278 xtb: 6.7.1 (edcfbbe)
C           -0.69731436990677       -1.64793197276163       -1.83946867957488
C           -1.44076514050463       -0.75973159002312       -0.88746641037250
C           -2.82519325282224       -0.74350172864479       -0.86612472037439
C           -3.53269361885566        0.09093831148811       -0.00302739192615
C           -5.00292161947818        0.08679010102781       -0.00038125100812
C           -5.70100358889864       -1.08901506449455        0.36563094241836
C           -5.02528128344785       -2.25169711877844        0.78171940620618
C           -5.70995018280006       -3.40565834717652        1.09650633263137
C           -7.09774372494390       -3.44059162839234        1.00117346329243
C           -7.79338276700068       -2.30943429057905        0.63194179685735
C           -7.12898758450850       -1.10312304277662        0.34017911101902
C           -7.83743530120880        0.07567593356406        0.00435669825269
C           -9.30817892217745        0.06996814602103        0.00629761435905
C          -10.01620307168887       -0.16680260883964        1.18369909772913
C          -11.39844262402135       -0.16728912612298        1.18468056894458
C          -12.09672737858427        0.05987194208742        0.01002056225524
C          -11.40325608109611        0.29200990555574       -1.16651616309496
C          -10.02105279084262        0.30151644006455       -1.16921696611308
C           -7.13922960872837        1.26014425162362       -0.33308388394963
C           -7.81388495036379        2.46136381071292       -0.62210009502626
C           -7.12806226715972        3.59822422624070       -0.99228681384435
C           -5.74028796790766        3.57437161414406       -1.09125484673142
C           -5.04561837852694        2.42547448926831       -0.77974957270923
C           -5.71125959486098        1.25727632560676       -0.36303708574332
C           -2.81989734505828        0.92391044086857        0.85591761296664
C           -1.43895439786925        0.90461728256348        0.85394778102001
C           -0.73982539306865        0.07071216394584       -0.00888546579010
C            0.74053273637265        0.06924366095362        0.00528305558102
C            1.44143278283689        0.90186863439524       -0.85738835118865
C            2.82238972088044        0.91894267466632       -0.85870420919863
C            3.53353735263278        0.08519411541881        0.00093054727889
C            5.00368259184488        0.07986628831592       -0.00044955857692
C            5.71235898991293        1.25101338240728        0.35953733996591
C            5.04707751840245        2.42027585178781        0.77388372043485
C            5.74196182787661        3.56984242194090        1.08224126023985
C            7.12970081313671        3.59341874845593        0.98228481334280
C            7.81521070195811        2.45556645696035        0.61473767553419
C            7.14031332284447        1.25359647451511        0.32929927172504
C            7.83826332130544        0.06804039679322       -0.00472362242165
C            9.30898154160355        0.06210168966284       -0.00744468396423
C           10.01617190562050       -0.17908120183586       -1.18445895837800
C           11.39841317900166       -0.17978038126186       -1.18640917350329
C           12.09755779952337        0.05158499189210       -0.01307279762816
C           11.40492128075139        0.28811699439257        1.16308344614713
C           10.02271199233222        0.29782122991505        1.16672128343708
C            7.12951643666140       -1.11168817600141       -0.33656190575656
C            7.79371563110360       -2.31920202698830       -0.62386508506531
C            7.09797468971224       -3.45137838461689       -0.98959904412499
C            5.71023581917213       -3.41622704949568       -1.08611789336427
C            5.02576787310863       -2.26101563546896       -0.77566311496155
C            5.70155009419246       -1.09723682630109       -0.36268610251045
C            2.82425339766438       -0.74821809766960        0.86354943686062
C            1.43976259188238       -0.76246878235961        0.88397845957472
C            0.69473356820100       -1.64885824431574        1.83645312964036
H           -0.12959630095929       -1.04812357371577       -2.55041331301924
H            0.01381188470211       -2.27709441778925       -1.30546899113887
H           -1.38467037729990       -2.28406928987057       -2.39170585435463
H           -3.37657235455292       -1.37917224996491       -1.54538349207904
H           -3.94862631198053       -2.23171430552756        0.85782439547503
H           -5.16759438321168       -4.28528674778161        1.41077424692672
H           -7.63195808528575       -4.35260590623609        1.22336826430946
H           -8.86994877267286       -2.34508317484632        0.56030432137227
H           -9.47140463736254       -0.33405079726032        2.10201471606312
H          -11.93401318226177       -0.34485065492339        2.10613579025716
H          -13.17671563655523        0.05604941405880        0.01148533199284
H          -11.94255508191363        0.46576957176792       -2.08651976184596
H           -9.47993577183417        0.47282979796771       -2.08896019180554
H           -8.89049177967183        2.48859594593046       -0.54731827340248
H           -7.67007229681792        4.50619414662724       -1.21213526342737
H           -5.20562938267486        4.45861187197992       -1.40559911190501
H           -3.96901136094515        2.41419993335462       -0.85814761542187
H           -3.35512959341286        1.56973534580955        1.53681862281614
H           -0.88803762088356        1.54543293375950        1.52819242005597
H            0.89184564123691        1.54355667776631       -1.53189587455219
H            3.35893225095332        1.56372916092181       -1.53955271541244
H            3.97052531592296        2.40928367192725        0.85305723671634
H            5.20759393328434        4.45488484478451        1.39485951046577
H            7.67182313966703        4.50197839520914        1.19943277102738
H            8.89178276283796        2.48248071862038        0.53932224121978
H            9.47069453996270       -0.34960332766208       -2.10176208734675
H           11.93328527735553       -0.36082584438439       -2.10758317036905
H           13.17754578054169        0.04759700467086       -0.01527299313754
H           11.94486868996089        0.46517342007747        2.08207202264252
H            9.48225918946497        0.47249489079483        2.08621478856469
H            8.87023312060950       -2.35489209164078       -0.55147167218211
H            7.63200937619803       -4.36436301164976       -1.20824456854902
H            5.16782186487585       -4.29671616675963       -1.39790535002240
H            3.94918873724456       -2.24093745629275       -0.85276723161803
H            3.37414844496342       -1.38450636056628        1.54342668211263
H            1.37941115315141       -2.29867283362483        2.37598240642435
H            0.14340274730128       -1.04729572945961        2.55883201333929
H           -0.03094641713664       -2.26358704457340        1.30538536391573
