$hessian                                                                        
        0.5093797941  -0.0177381863  -0.0233165103  -0.1012378661  -0.0394999277
       -0.0462542422  -0.0223440803  -0.0173900682  -0.0205458863  -0.0044658730
        0.0006282800   0.0007762637  -0.0003075746  -0.0007352852  -0.0008856795
       -0.0002447254  -0.0000439210   0.0000894702   0.0000539101  -0.0000007910
       -0.0000183161  -0.0000272005  -0.0000192455   0.0000265831  -0.0000145565
       -0.0000126958   0.0000107596   0.0000196491  -0.0000030547   0.0000024002
       -0.0000739809   0.0000742398   0.0000227229  -0.0000131279   0.0000085751
       -0.0000064473   0.0000936060  -0.0000246245  -0.0000162850  -0.0000192390
        0.0000147363   0.0000239414   0.0000117247  -0.0000028037  -0.0000082525
       -0.0000022218   0.0000021108   0.0000017321   0.0000166016   0.0000026045
        0.0000028254  -0.0000183088  -0.0000211288  -0.0000365474  -0.0000197505
        0.0000681487   0.0000365047   0.0000252205  -0.0000007193  -0.0000007184
       -0.0000162141   0.0000044955  -0.0000097428  -0.0000382840   0.0000282092
       -0.0000436978   0.0000670168  -0.0000239594   0.0000116512  -0.0001068650
        0.0000357755  -0.0000589816  -0.0005173332  -0.0004458564  -0.0005297832
       -0.0006367132   0.0019738877   0.0027344910   0.0071300488   0.0044760074
        0.0057960750  -0.0000273582   0.0010357195   0.0008547023  -0.0000470367
        0.0002777955   0.0004037537   0.0001540454  -0.0000667978   0.0000809855
        0.0000050216   0.0000085871  -0.0000285058   0.0000474194   0.0000057103
        0.0000296173  -0.0000009027  -0.0000120255  -0.0000199621  -0.0000250728
       -0.0000016272  -0.0000022390   0.0000043758  -0.0000024942  -0.0000041090
        0.0000002367  -0.0000003866  -0.0000014396   0.0000014650   0.0000013427
        0.0000004262   0.0000007008   0.0000047445   0.0000065753   0.0000030190
        0.0000035945   0.0000033267  -0.0000042489   0.0000025041   0.0000019979
       -0.0000065286   0.0000019149   0.0000018220   0.0000019493  -0.0000015752
        0.0000009449   0.0000024762   0.0000000574   0.0000019463   0.0000004408
        0.0000023783  -0.0000015197  -0.0000074008   0.0000013882  -0.0000036825
        0.0000095555   0.0000043004   0.0000034803  -0.0000157851   0.0000004489
        0.0000000179   0.0000157159  -0.0000011608  -0.0000036600   0.0000052977
       -0.0000033325  -0.0000049999   0.0000869019   0.0000031171   0.0000182636
       -0.0000156310  -0.0000148109  -0.0000229097   0.0000752079   0.0000113660
       -0.0000650976   0.0000494994   0.0004864597   0.0001137048  -0.0001221670
       -0.0000127661  -0.0001071906  -0.0896835400   0.0639885699  -0.0711001881
       -0.1561419776  -0.0893461326   0.0787333000  -0.1421201611   0.0928653158
        0.0737602042   0.0008357760  -0.0011120728  -0.0013096667  -0.0000549171
       -0.0000567298   0.0000720783   0.0000044352   0.0000138780  -0.0000238750
       -0.0000128498   0.0000102374  -0.0000245794  -0.0000320182   0.0000155157
       -0.0000097809   0.0000071965   0.0000023359   0.0000004280  -0.0000193909
       -0.0000042816  -0.0000081478  -0.0000188135   0.0000009422   0.0000011420
       -0.0000233047   0.0000078837   0.0000117759   0.0000104094   0.0000048191
        0.0000092884  -0.0000287048  -0.0000046866   0.0000134120  -0.0000172697
       -0.0000147535   0.0000236237   0.0000057892  -0.0000192496   0.0000303175
       -0.0000722464   0.0000661124  -0.0000942007   0.0001177301   0.0000109715
       -0.0000283569   0.0002753500   0.0005921740   0.0006261987  -0.0000717866
       -0.0000287727   0.0000972643   0.0000144760  -0.0000217197  -0.0000059892
        0.0000074377   0.0000002041  -0.0000026647  -0.0000015206   0.0000050623
        0.0000082498  -0.0000024183   0.0000010742   0.0000033072  -0.0000018317
        0.0000029657   0.0000032974   0.0000000637  -0.0000019817   0.0000004305
       -0.0000014622  -0.0000005789  -0.0000018245  -0.0000028791  -0.0000000471
       -0.0000002963  -0.0000019891   0.0000005669   0.0000008012  -0.0000000303
        0.0000009512  -0.0000010380  -0.0000081265   0.0000006865   0.0000007063
       -0.0000136156   0.0000005177  -0.0000005473   0.0000011173   0.0000097276
        0.0000160900  -0.0000131247  -0.0000025603  -0.0000225414   0.0000075682
       -0.0000213915   0.0000008926   0.0000884566   0.0000058413   0.0001180412
        0.0000184947  -0.0000181250   0.0000259612   0.0000648245  -0.0000425253
        0.0000163074
       -0.0177381863   0.4906221467   0.0006253238  -0.0441739206  -0.1116212864
       -0.0610379117  -0.0050965882  -0.0011545061  -0.0039743795   0.0003180213
        0.0045430784  -0.0033469222  -0.0002694110  -0.0000982740   0.0000083087
       -0.0000511235  -0.0000014915   0.0000558243   0.0000558662   0.0000426171
       -0.0000487543  -0.0000160115  -0.0000097962   0.0000247476  -0.0000198600
        0.0000089152  -0.0000010522   0.0000195657  -0.0000025765   0.0000026527
       -0.0000425880  -0.0000063377   0.0000148116  -0.0000111389  -0.0000086959
        0.0000113873   0.0000542551   0.0000071400   0.0000024847   0.0000061250
        0.0000069244   0.0000068685   0.0000040136  -0.0000052374  -0.0000039088
       -0.0000031474   0.0000008436   0.0000001380   0.0000058029   0.0000072708
        0.0000053053   0.0000053425  -0.0000051563  -0.0000056541  -0.0000419425
        0.0000106890  -0.0000345128   0.0000094774  -0.0000008525   0.0000102690
       -0.0000167685   0.0000106735   0.0000028090  -0.0000062456   0.0000333425
       -0.0000491595   0.0000545137  -0.0000235345   0.0000407255   0.0000233907
       -0.0000157027  -0.0001037377  -0.0004580429  -0.0002831662   0.0000123538
        0.0024657023   0.0026887986  -0.0046644267  -0.0063651969  -0.0132519640
       -0.0165222105  -0.0007414643  -0.0012805331   0.0010640789   0.0003730789
       -0.0000208895  -0.0001657074  -0.0001047108  -0.0001327473  -0.0000650044
        0.0000078072   0.0000094278  -0.0000183780  -0.0000241727   0.0000214493
        0.0000168290   0.0000222682  -0.0000019464  -0.0000052182  -0.0000240762
        0.0000002675   0.0000029522   0.0000037138  -0.0000011263  -0.0000024635
        0.0000016749   0.0000002145  -0.0000012207   0.0000085806   0.0000006301
        0.0000010478  -0.0000040685  -0.0000008359  -0.0000021586   0.0000042873
        0.0000030150   0.0000028091   0.0000016989   0.0000023277   0.0000021446
        0.0000019551   0.0000026164  -0.0000005445   0.0000008103   0.0000006539
       -0.0000009512   0.0000007891  -0.0000006856   0.0000012515   0.0000015239
        0.0000014283  -0.0000012978  -0.0000008667   0.0000020417  -0.0000021422
       -0.0000051694   0.0000036325   0.0000050451  -0.0000063746   0.0000020240
        0.0000030100   0.0000133755   0.0000059596   0.0000078880   0.0000116872
       -0.0000187339  -0.0000180459   0.0000386648  -0.0000171295   0.0000220327
        0.0000053356  -0.0000095144  -0.0000170091  -0.0000995473  -0.0000480634
        0.0000758705  -0.0005282224  -0.0002056031   0.0000500736   0.0000126033
       -0.0001146825  -0.0000108913   0.0670745229  -0.1217236922   0.0947428020
       -0.0889009932  -0.1129606544   0.0595450314   0.0932495168  -0.1327925863
       -0.0682090657   0.0012223749  -0.0007489865   0.0017130603  -0.0000327773
       -0.0000515440   0.0000022342   0.0000004029   0.0000009503  -0.0000077461
       -0.0000012822   0.0000021306  -0.0000072540  -0.0000074591   0.0000004516
       -0.0000028708   0.0000033796  -0.0000031823  -0.0000047362  -0.0000077925
       -0.0000009246  -0.0000037253  -0.0000075779   0.0000015693   0.0000005086
       -0.0000073511   0.0000018618   0.0000035538   0.0000030862   0.0000027585
        0.0000023568  -0.0000079852  -0.0000000898   0.0000022360  -0.0000063792
        0.0000002812   0.0000086307   0.0000017709  -0.0000041786   0.0000085043
       -0.0000055594   0.0000323041  -0.0000336328   0.0000040304  -0.0008596640
        0.0008230009  -0.0004356778  -0.0005952353  -0.0006105062   0.0000938022
       -0.0000659417  -0.0000701974   0.0000844556  -0.0000311695   0.0000148939
       -0.0000021283   0.0000034471   0.0000018223  -0.0000003302   0.0000041081
        0.0000060437   0.0000014921   0.0000025648   0.0000018777   0.0000004884
        0.0000008427  -0.0000010162  -0.0000016022  -0.0000017504   0.0000009732
       -0.0000000276   0.0000006592  -0.0000000697  -0.0000010187   0.0000001430
       -0.0000001350  -0.0000014995  -0.0000013030   0.0000005804   0.0000002087
       -0.0000012023   0.0000010847  -0.0000047960   0.0000039484   0.0000039071
       -0.0000031938   0.0000010330   0.0000001695   0.0000087756   0.0000181317
        0.0000196205  -0.0000370242   0.0000030281  -0.0000543911  -0.0000007725
       -0.0000032921  -0.0000002012   0.0000710965   0.0000293701   0.0000659999
       -0.0000139405   0.0000434288   0.0000073145  -0.0000153217  -0.0000046747
        0.0000539614
       -0.0233165103   0.0006253238   0.4841478927  -0.0499623922  -0.0587605605
       -0.1284887523  -0.0059479471  -0.0039392950  -0.0017285008   0.0004242316
       -0.0032401692   0.0040994851   0.0000776550   0.0000501711  -0.0001326221
       -0.0000584951  -0.0000620889  -0.0000121177   0.0000997561   0.0000345952
       -0.0000059592  -0.0000378686  -0.0000182226   0.0000344489  -0.0000117192
       -0.0000084760  -0.0000059041   0.0000161759  -0.0000007640   0.0000142571
       -0.0000422181  -0.0000139196   0.0000040396  -0.0000326909   0.0000063320
       -0.0000075772   0.0000838102  -0.0000009704   0.0000042914   0.0000058094
        0.0000105273   0.0000120057   0.0000087053  -0.0000074477  -0.0000074344
       -0.0000056201   0.0000014487   0.0000010398   0.0000119531   0.0000092597
        0.0000074534   0.0000037941  -0.0000133944  -0.0000148945  -0.0000229067
        0.0000139242   0.0000006974   0.0000293085   0.0000087611  -0.0000174236
       -0.0000123963  -0.0000098417   0.0000073311  -0.0000312289   0.0000202249
       -0.0000253109   0.0000450309  -0.0000099306   0.0000362618  -0.0000580012
        0.0000285187   0.0000327465  -0.0005823320  -0.0001995329  -0.0004941730
        0.0030869193  -0.0045936313   0.0014579365  -0.0071174407  -0.0165145017
       -0.0186355830  -0.0007481557   0.0011907380  -0.0010732865  -0.0003560563
       -0.0002146819  -0.0002513861  -0.0001838363  -0.0000511771  -0.0000262816
        0.0000436337   0.0000714900  -0.0000629141  -0.0000140649   0.0000261238
        0.0000293107   0.0000235076  -0.0000105236  -0.0000126428  -0.0000334591
        0.0000076184   0.0000018280   0.0000087678   0.0000005131  -0.0000015266
       -0.0000064459   0.0000026541   0.0000001600   0.0000115256   0.0000013068
       -0.0000011050  -0.0000096380  -0.0000010454  -0.0000023702   0.0000001598
        0.0000060094   0.0000061419   0.0000039817   0.0000028030   0.0000049407
       -0.0000003394   0.0000006100   0.0000032854   0.0000029414   0.0000002421
       -0.0000003680  -0.0000013124   0.0000008511   0.0000003914   0.0000019044
        0.0000007604   0.0000005197   0.0000014515   0.0000030355  -0.0000014149
       -0.0000042178   0.0000042742   0.0000118790  -0.0000139849   0.0000055706
        0.0000030675   0.0000096764   0.0000043216   0.0000082030   0.0000097007
       -0.0000078549  -0.0000271908   0.0001014312   0.0000376250  -0.0000036177
       -0.0000016489  -0.0000242828  -0.0000326110   0.0000446105  -0.0000417443
       -0.0001202479   0.0001024257  -0.0000428733   0.0001313143  -0.0001071292
        0.0000116557   0.0002310467  -0.0713159357   0.0912377074  -0.1466554186
        0.0811197174   0.0608710515  -0.0932583705   0.0738630597  -0.0686202817
       -0.0972343517   0.0012328129   0.0019735825  -0.0004296999  -0.0000237893
       -0.0000285796   0.0000276930   0.0000060734   0.0000055346  -0.0000067861
       -0.0000083660   0.0000043488  -0.0000122836  -0.0000172310   0.0000055836
       -0.0000033336   0.0000040941  -0.0000036652  -0.0000051120  -0.0000118183
       -0.0000022261  -0.0000047737  -0.0000112834   0.0000014111   0.0000014433
       -0.0000131676   0.0000038772   0.0000069031   0.0000044324   0.0000065170
        0.0000057745  -0.0000116035  -0.0000029029   0.0000068536   0.0000001360
       -0.0000027003   0.0000149818   0.0000007813  -0.0000114745   0.0000233413
       -0.0000849600  -0.0000368541  -0.0000349442   0.0000198009   0.0009133362
       -0.0006382464  -0.0005073332  -0.0005674729  -0.0007530122   0.0000488232
       -0.0000080571  -0.0000232967   0.0000060662  -0.0000297723  -0.0000303152
        0.0000026263  -0.0000030670   0.0000003036  -0.0000012161   0.0000052058
        0.0000105474   0.0000021400   0.0000023855   0.0000036809  -0.0000000208
        0.0000005848   0.0000009339  -0.0000001084  -0.0000004685  -0.0000018418
       -0.0000022945   0.0000017249  -0.0000018312  -0.0000019677   0.0000000491
       -0.0000005510  -0.0000020566  -0.0000012430  -0.0000001062  -0.0000016926
        0.0000007872  -0.0000024750  -0.0000086485   0.0000021249   0.0000059169
       -0.0000090103  -0.0000032411   0.0000017305   0.0000086771   0.0000136033
        0.0000327588  -0.0000359852  -0.0000561514  -0.0000085426   0.0000704014
       -0.0000248306  -0.0000414116   0.0000350227  -0.0000458853  -0.0001201928
        0.0000296163  -0.0000156204  -0.0000450850   0.0000753961   0.0000147190
        0.0000703595
       -0.1012378661  -0.0441739206  -0.0499623922   0.6538509426  -0.0000034237
       -0.0042474494  -0.3231132092   0.0222780909   0.0290928007  -0.0352377693
       -0.0554536748  -0.0636146875   0.0011771678  -0.0014136886  -0.0018833091
       -0.0006510476  -0.0000117045  -0.0005692096  -0.0002280810   0.0001905106
        0.0000207431  -0.0000143869   0.0000203169  -0.0000054416  -0.0000361074
       -0.0000516854  -0.0000407299  -0.0000210299   0.0000156192  -0.0000154577
        0.0000616178   0.0001904583   0.0001058004  -0.0000422117   0.0000558444
       -0.0000368538   0.0000154666  -0.0000740123  -0.0000359327   0.0000192683
       -0.0000021808  -0.0000161642  -0.0000013033  -0.0000014745  -0.0000007515
       -0.0000259211   0.0000026256   0.0000054206   0.0000011583   0.0000037604
       -0.0000024967   0.0000406329  -0.0000081795   0.0000077870   0.0001230684
        0.0001650186   0.0002259414   0.0000120219   0.0000319253  -0.0001222341
        0.0001292401  -0.0000812329  -0.0000248000   0.0001351227  -0.0000698976
        0.0001050181   0.0000371889   0.0004521634  -0.0003835704  -0.0005725405
        0.0004019336   0.0003897051  -0.0484577875   0.0197409376   0.0233266318
        0.0585568699   0.0187799293   0.0215763090  -0.1379509477   0.0364373230
        0.0432819642  -0.0256496346   0.0160551638   0.0191126758  -0.0008817117
       -0.0010164462   0.0016950937  -0.0005949530  -0.0007949658  -0.0011778797
        0.0003643816   0.0000287680   0.0000092027   0.0000481464   0.0002265090
        0.0001846406  -0.0000520835   0.0000010308  -0.0000148010   0.0000077032
       -0.0000075427  -0.0000087293  -0.0000053744  -0.0000059141  -0.0000029237
        0.0000108138  -0.0000111539  -0.0000099588  -0.0000078805  -0.0000009975
        0.0000012085   0.0000101211  -0.0000043555   0.0000201314   0.0000119991
       -0.0000099644  -0.0000087165  -0.0000036904  -0.0000009375  -0.0000063613
       -0.0000077681  -0.0000040323   0.0000030761   0.0000012443  -0.0000059362
        0.0000037874   0.0000047810  -0.0000020846  -0.0000000555   0.0000028134
        0.0000006662  -0.0000039887  -0.0000065845  -0.0000038872  -0.0000037570
        0.0000011124  -0.0000008095   0.0000098701   0.0000210605  -0.0000034769
       -0.0000041632  -0.0000013876   0.0000071643   0.0000063394  -0.0000013245
        0.0000146238   0.0000233872  -0.0000868042  -0.0000050016  -0.0000069853
        0.0000715640   0.0000110566   0.0000445143  -0.0008194581  -0.0013996637
       -0.0005458253  -0.0018991840   0.0012318434  -0.0010476479   0.0000497278
        0.0005284427   0.0001013326  -0.0106753941  -0.0076669587  -0.0142396310
       -0.0157946277  -0.0150641810  -0.0142151581   0.0085270551   0.0100473054
        0.0114179468  -0.0184190908   0.0021871050   0.0028632794  -0.0001526962
        0.0000276905  -0.0001532374  -0.0000166720   0.0000100483   0.0000300784
        0.0000100942  -0.0000112220   0.0000238752   0.0000309646   0.0000105678
        0.0000077295  -0.0000051377   0.0000088290   0.0000167882   0.0000140290
        0.0000036290   0.0000111271   0.0000151279  -0.0000007216   0.0000018994
        0.0000151625  -0.0000068609  -0.0000110557  -0.0000170056  -0.0000049060
       -0.0000073374   0.0000353422   0.0000085734   0.0000093775   0.0000457235
        0.0000153718  -0.0000214329  -0.0000065322   0.0000474031   0.0000077557
        0.0000251871  -0.0004227838   0.0001806380  -0.0002472438   0.0004393447
        0.0005133368  -0.0007714933  -0.0021713579  -0.0024680609   0.0002179334
        0.0005797173   0.0001599845  -0.0001317294   0.0000030693  -0.0000051967
       -0.0000042793  -0.0000261020  -0.0000304463   0.0000008060  -0.0000039210
       -0.0000013219  -0.0000039120  -0.0000012883   0.0000039906  -0.0000050564
       -0.0000011759   0.0000045312   0.0000042953  -0.0000008697   0.0000020581
       -0.0000003420   0.0000005610  -0.0000005778  -0.0000012063  -0.0000016017
        0.0000004289   0.0000003045  -0.0000032362   0.0000011073   0.0000042229
       -0.0000002669  -0.0000008034   0.0000023699  -0.0000038778  -0.0000046626
        0.0000027227  -0.0000053987  -0.0000060508   0.0000055234  -0.0000236437
       -0.0000275378   0.0000164944   0.0000169756   0.0000245094  -0.0002021975
        0.0000188193   0.0000449584   0.0000615695  -0.0002689900   0.0003643947
        0.0001009869   0.0000733154  -0.0000946939   0.0001615146  -0.0000584427
        0.0000473020
       -0.0394999277  -0.1116212864  -0.0587605605  -0.0000034237   0.3427231910
        0.2328171827  -0.0284307547  -0.0660988958  -0.0217863969  -0.0168371654
        0.0107670583   0.0137864132  -0.0016318149   0.0026374380  -0.0058101472
       -0.0014228444  -0.0000100039   0.0000289405  -0.0000396686  -0.0001239528
        0.0001516368   0.0000247970  -0.0000167881  -0.0000163493   0.0000357589
        0.0000320873   0.0000128350  -0.0001131595  -0.0000261789   0.0000197698
       -0.0001211404   0.0002452650  -0.0002788657   0.0000130486  -0.0000114864
       -0.0000046300  -0.0000090248  -0.0000009830   0.0000084423   0.0000237745
       -0.0000062282  -0.0000236334  -0.0000129987  -0.0000081140  -0.0000025276
       -0.0000010027   0.0000018031   0.0000011322  -0.0000154621   0.0000150144
        0.0000078164   0.0000272499   0.0000102082   0.0000292126   0.0000606017
        0.0000593921  -0.0001986153   0.0000604678   0.0000022766   0.0000335164
       -0.0000175374  -0.0000181580   0.0000221703  -0.0000359062  -0.0000486610
        0.0000310713  -0.0000505341  -0.0002211109   0.0001280267   0.0009880376
       -0.0000654521   0.0001178385   0.0203224238  -0.0083316613  -0.0037145935
       -0.0186327628  -0.0274797168  -0.0331427212   0.0814183974  -0.1298748188
       -0.0944249283   0.0066625249   0.0008616167  -0.0011878562  -0.0005313074
        0.0001722095  -0.0003551924  -0.0001737651  -0.0000259948  -0.0000136182
       -0.0000872853   0.0000414545  -0.0000389241   0.0000870578   0.0000057416
        0.0000111912  -0.0000153101   0.0000034456  -0.0000037076   0.0000182601
       -0.0000163021  -0.0000224159   0.0000050829   0.0000068257   0.0000086704
        0.0000060271  -0.0000017205  -0.0000048984  -0.0000141301   0.0000000865
       -0.0000023928   0.0000207955   0.0000079606   0.0000097235   0.0000047928
       -0.0000075426  -0.0000118395  -0.0000165100  -0.0000008455  -0.0000053449
       -0.0000043344  -0.0000004346  -0.0000008361  -0.0000023003  -0.0000016476
       -0.0000004570   0.0000001377   0.0000015047  -0.0000014856  -0.0000004894
        0.0000035699  -0.0000010153  -0.0000053165  -0.0000016261  -0.0000022818
        0.0000085514  -0.0000029314  -0.0000102514   0.0000133331  -0.0000036366
       -0.0000042691  -0.0000042972  -0.0000007691  -0.0000033479   0.0000124015
        0.0000112310   0.0000165142  -0.0001271012  -0.0000012080   0.0000040712
        0.0000248351   0.0000286985   0.0000437967   0.0000002770  -0.0001487027
       -0.0000827630  -0.0012339925  -0.0012914290   0.0001380511  -0.0004857295
       -0.0002053742   0.0000435006   0.0045466684   0.0102243272   0.0073999873
       -0.0133387889  -0.0113585815  -0.0114774770  -0.0069707861  -0.0131913361
       -0.0159498076   0.0168448705  -0.0008873020  -0.0021719207   0.0000077147
        0.0000718436  -0.0000656975   0.0000008914  -0.0000316724   0.0000145761
        0.0000264546  -0.0000110296   0.0000199951  -0.0000009132   0.0000240742
       -0.0000076089   0.0000011356  -0.0000019922  -0.0000026935   0.0000120864
        0.0000091619   0.0000052955   0.0000129989   0.0000011376  -0.0000003549
        0.0000142297  -0.0000090005  -0.0000089212  -0.0000088968   0.0000018499
       -0.0000038652   0.0000374527   0.0000201286  -0.0000278825   0.0000266849
        0.0000248378  -0.0000204707   0.0000005776   0.0000435660  -0.0000333876
       -0.0002022058  -0.0001049081   0.0002200443   0.0003691122   0.0001678031
        0.0002385565  -0.0017153995   0.0028174991  -0.0060614730   0.0001572251
        0.0000594055   0.0001738404  -0.0000910474   0.0000723843  -0.0000172468
        0.0000004681  -0.0000001017  -0.0000061496  -0.0000027442  -0.0000005984
       -0.0000070923  -0.0000040828   0.0000024774  -0.0000026958  -0.0000033739
        0.0000023776   0.0000000219  -0.0000006853   0.0000024473   0.0000010519
        0.0000010287   0.0000021434   0.0000007526   0.0000018246   0.0000023084
        0.0000000170   0.0000011241   0.0000025871  -0.0000003482  -0.0000005285
        0.0000040825   0.0000005453   0.0000064121  -0.0000000402  -0.0000046818
        0.0000043013  -0.0000009857  -0.0000031860  -0.0000073456  -0.0000278827
       -0.0000402749   0.0000167036   0.0000205977   0.0000299724  -0.0000777736
        0.0000524911   0.0001212837   0.0000894119   0.0001684367   0.0003648079
       -0.0001396701  -0.0000799642   0.0000670789   0.0001232274  -0.0000569906
       -0.0002992491
       -0.0462542422  -0.0610379117  -0.1284887523  -0.0042474494   0.2328171827
        0.4184202878  -0.0314538854  -0.0219831961  -0.0725655975  -0.0191441400
        0.0136070215   0.0148728102  -0.0022677346  -0.0055484158   0.0008553909
        0.0005486622   0.0001422074   0.0002064677   0.0000288654  -0.0001802852
       -0.0000432618   0.0000581779   0.0000137194  -0.0000503272   0.0000306786
        0.0000053736  -0.0000059193   0.0000438403  -0.0000173738  -0.0000311878
        0.0000288689   0.0001804843   0.0002689730   0.0000411825  -0.0000017605
        0.0000224681  -0.0000732881  -0.0000812804  -0.0000587015  -0.0000138623
       -0.0000110617  -0.0000283002  -0.0000266321   0.0000033433  -0.0000001239
        0.0000125524  -0.0000002625  -0.0000015586  -0.0000167557   0.0000048782
       -0.0000039094   0.0000236448   0.0000265361   0.0000329648  -0.0000855651
        0.0001490881   0.0002652658  -0.0000897471  -0.0000199602   0.0000210797
        0.0000128460   0.0000011614  -0.0000110843   0.0000417722  -0.0000391298
        0.0000067581  -0.0000518499  -0.0000420730  -0.0000912312  -0.0008895518
       -0.0001119170  -0.0001353257   0.0238435312  -0.0036280626  -0.0093419798
       -0.0213653503  -0.0330346518  -0.0379046496   0.0946719460  -0.0937613603
       -0.1620638092   0.0097155441  -0.0014363447   0.0004876805  -0.0019545509
       -0.0004631057  -0.0016105870   0.0001950602  -0.0000543405  -0.0002009764
       -0.0002596480   0.0000093297   0.0000545045   0.0001431206   0.0000129085
       -0.0000129046  -0.0000275219   0.0000012404   0.0000010901   0.0000251574
       -0.0000177127  -0.0000324367   0.0000050034   0.0000094457   0.0000106749
        0.0000075237  -0.0000031652  -0.0000064964  -0.0000149856  -0.0000010890
       -0.0000061531   0.0000226075   0.0000065794   0.0000117566   0.0000053209
       -0.0000093391  -0.0000143048  -0.0000140197  -0.0000013577  -0.0000074186
       -0.0000069857  -0.0000027327   0.0000030129  -0.0000010137  -0.0000021555
       -0.0000004479  -0.0000002193   0.0000020110  -0.0000009046   0.0000015726
        0.0000041022  -0.0000005601  -0.0000064799  -0.0000010916  -0.0000052954
        0.0000053747  -0.0000041330  -0.0000144639   0.0000186424  -0.0000023577
       -0.0000012286  -0.0000064293   0.0000017234  -0.0000023589   0.0000184060
        0.0000114259   0.0000208909  -0.0001586590  -0.0000048146   0.0000151561
        0.0000141749   0.0000390206   0.0000509481   0.0001333947  -0.0000623240
        0.0001236244  -0.0010442649  -0.0001349035   0.0003935388   0.0001145892
       -0.0000494295   0.0001314005  -0.0156933741  -0.0110646078  -0.0182862085
        0.0019145430   0.0050494784   0.0086466311  -0.0048702339  -0.0117743341
       -0.0136122967   0.0196795887  -0.0022669915  -0.0013928809  -0.0000135432
        0.0001072782  -0.0001501791  -0.0000037556  -0.0000069323   0.0000294393
        0.0000326197  -0.0000142371   0.0000249522   0.0000398522   0.0000150338
        0.0000390070   0.0000022561   0.0000011881   0.0000041995   0.0000138585
        0.0000096487   0.0000046256   0.0000125086   0.0000000660   0.0000003609
        0.0000199029  -0.0000099966  -0.0000085811  -0.0000069136  -0.0000067331
       -0.0000072551   0.0000175900   0.0000308922   0.0000159947   0.0000184490
        0.0000267146  -0.0000203736   0.0000030500   0.0000513400  -0.0000400811
        0.0000512439  -0.0000142217   0.0001852259   0.0004360662   0.0001874300
        0.0002885646  -0.0019206363  -0.0060737676   0.0009448128   0.0000367695
        0.0001556320   0.0000704992  -0.0000815412   0.0001550164   0.0000163453
        0.0000006190  -0.0000070799  -0.0000086293  -0.0000022798  -0.0000010024
       -0.0000072225  -0.0000061731   0.0000037427  -0.0000011528  -0.0000065991
        0.0000028863   0.0000010029  -0.0000000386   0.0000036026   0.0000000144
       -0.0000008427   0.0000036344  -0.0000004243   0.0000005290   0.0000028337
       -0.0000000770   0.0000000111   0.0000025378   0.0000002588  -0.0000006897
        0.0000053198   0.0000006163   0.0000050728  -0.0000012671  -0.0000065043
        0.0000048632  -0.0000027417  -0.0000059754  -0.0000055941  -0.0000325180
       -0.0000527950   0.0000223886   0.0000420364   0.0000252658  -0.0000999029
       -0.0000395551   0.0000530430   0.0004460469   0.0004749299  -0.0001177577
       -0.0002023363  -0.0001111114   0.0001202110  -0.0001806035  -0.0002038287
       -0.0002871637
       -0.0223440803  -0.0050965882  -0.0059479471  -0.3231132092  -0.0284307547
       -0.0314538854   0.6568082005   0.0000017188  -0.0051616768  -0.1411982021
       -0.0397922676  -0.0472406583  -0.0270368451  -0.0158304666  -0.0192576072
       -0.0021664067  -0.0012217955   0.0018565088   0.0002388779  -0.0006148011
       -0.0001137657   0.0002889169  -0.0000790983   0.0000609407  -0.0000417072
       -0.0000831829   0.0001046039  -0.0001290445  -0.0000766254   0.0000457535
       -0.0008843451   0.0012677429   0.0001983317   0.0002731293   0.0000299543
       -0.0000147113   0.0000646312  -0.0003128678  -0.0001885939  -0.0000811565
        0.0000337063   0.0000627222   0.0000114067   0.0000256811   0.0000001964
       -0.0000154460  -0.0000057896  -0.0000034951   0.0000316274  -0.0000240746
       -0.0000343456   0.0000232249  -0.0000389460  -0.0000867482  -0.0003842054
        0.0007645365   0.0005483469   0.0000107858   0.0000041087   0.0000205695
       -0.0001584975   0.0000555164  -0.0000801999   0.0000975503   0.0000305258
       -0.0001495278  -0.0003625661  -0.0008975620   0.0002511433  -0.0001582855
       -0.0000106552  -0.0020497200   0.0567914251  -0.0175396241  -0.0202168713
       -0.0469414971  -0.0190244277  -0.0221307779  -0.0369637411   0.0522744173
        0.0613152126   0.0004908791   0.0014974451   0.0020701873  -0.0003625588
       -0.0000655583  -0.0003833955   0.0000589588  -0.0001776849  -0.0001267279
       -0.0000001896   0.0000581724  -0.0000448168  -0.0000225282   0.0000351625
        0.0000253530   0.0000014183   0.0000005337   0.0000073556   0.0000178338
       -0.0000041231   0.0000011208  -0.0000056852  -0.0000036176  -0.0000015851
       -0.0000036566  -0.0000009544   0.0000023662  -0.0000049589  -0.0000011160
        0.0000022791   0.0000039169  -0.0000023936   0.0000040783   0.0000007836
       -0.0000029282  -0.0000010189  -0.0000066336  -0.0000007277   0.0000001803
       -0.0000009110   0.0000003030  -0.0000012229  -0.0000005360  -0.0000012818
        0.0000021036   0.0000001540  -0.0000013311   0.0000018505  -0.0000015518
       -0.0000018550   0.0000004079   0.0000000725  -0.0000037950   0.0000038088
        0.0000058766  -0.0000021600   0.0000031941  -0.0000111179  -0.0000025208
       -0.0000022454   0.0000056659  -0.0000014548  -0.0000006029   0.0000099494
       -0.0000050349  -0.0000079551   0.0000121435   0.0000006157  -0.0000019418
        0.0000094586  -0.0000030366  -0.0000048935   0.0001146000  -0.0002160110
       -0.0000553429  -0.0008194041  -0.0000000379   0.0001334019   0.0000750781
        0.0000996582   0.0000443628  -0.0005365666  -0.0005668821   0.0002134237
       -0.0007538954  -0.0006379321  -0.0010053459   0.0008864759   0.0015583740
        0.0015819976  -0.1104549049   0.0721393836   0.0845985279   0.0002932778
        0.0000993454  -0.0002826945   0.0000111510   0.0000448107  -0.0000034632
        0.0000107068   0.0000234589  -0.0000127030  -0.0000398958   0.0001253126