$hessian                                                                        
        0.6639399554   0.0543080993   0.0550897331  -0.1665734418  -0.1145104094
        0.0943323205  -0.0435428090  -0.0179860283   0.0101934665   0.0060692861
       -0.0023365600   0.0049270080  -0.0023783345   0.0000393837  -0.0001710416
        0.0005891140   0.0006464170  -0.0001918952  -0.0000710998  -0.0002544432
       -0.0000592174   0.0001609271   0.0001376272   0.0000252520  -0.0001038955
        0.0000439365   0.0000321616  -0.0000033598  -0.0000922468  -0.0000023054
       -0.0000461426   0.0001276635  -0.0000187054   0.0001009851  -0.0000913173
       -0.0000391860  -0.0000272492  -0.0000024720   0.0000182195  -0.0000249600
       -0.0000374731   0.0000246391   0.0000144068  -0.0000134878   0.0000055156
       -0.0000568515   0.0000013051   0.0000069120   0.0000630196   0.0000000232
       -0.0000029736  -0.0000115988  -0.0000181041   0.0000059566   0.0000048621
        0.0000039783  -0.0000060791  -0.0000051899   0.0000003021   0.0000023650
       -0.0000016815  -0.0000039226  -0.0000025528   0.0000026865   0.0000017485
       -0.0000055673   0.0000042070   0.0000081630   0.0000019198  -0.0000123002
        0.0000177508  -0.0000076940   0.0000050237  -0.0000033997   0.0000034407
       -0.0000057732  -0.0000006846  -0.0000034676  -0.0000010996   0.0000050749
        0.0000006558   0.0000020728  -0.0000011875   0.0000042194   0.0000033903
       -0.0000074345  -0.0000035624   0.0000089219   0.0000110170  -0.0000127318
       -0.0000211842   0.0000278986  -0.0000211644  -0.0000151956   0.0000433419
       -0.0000511682   0.0000412743   0.0000775196   0.0000088058  -0.0000757977
       -0.0001715307  -0.0000546540   0.0001372795   0.0002704403   0.0001319739
        0.0003142293  -0.0007779743   0.0002987080  -0.0280094132   0.0169280737
       -0.0238373306  -0.1386864666   0.0822804523  -0.1028139531  -0.2932990693
       -0.0141713102  -0.0386007522   0.0065445504   0.0073955818  -0.0068441186
       -0.0055879704  -0.0012757584  -0.0015204494  -0.0001941839  -0.0000763638
        0.0000003820  -0.0000099866  -0.0000137974  -0.0000272319   0.0000091480
        0.0000072860   0.0000000608   0.0000079411  -0.0000032243  -0.0000003693
        0.0000064539   0.0000083854  -0.0000062470  -0.0000002553   0.0000025587
        0.0000022517  -0.0000014789   0.0000011419   0.0000014220   0.0000000709
       -0.0000011501  -0.0000025669  -0.0000001818   0.0000006114  -0.0000029822
       -0.0000005840  -0.0000004494  -0.0000033482  -0.0000008636   0.0000020144
       -0.0000064370  -0.0000015251  -0.0000002306  -0.0000028428   0.0000004836
        0.0000016298   0.0000007028  -0.0000003885  -0.0000001388   0.0000014456
       -0.0000010503   0.0000016229   0.0000014950  -0.0000011112  -0.0000010145
        0.0000054087   0.0000000024   0.0000004054  -0.0000041462   0.0000033852
       -0.0000041639   0.0000018821  -0.0055707938  -0.0008712264  -0.0019308071
        0.0063096098  -0.0096739505   0.0111292248
        0.0543080993   0.3802896743  -0.2607350345  -0.0600343404  -0.1647659334
        0.1096130353  -0.0596387184   0.0096316029  -0.0210309349  -0.0024161822
       -0.0353844943   0.0294395053   0.0001825031  -0.0002886868   0.0000286975
        0.0000718812  -0.0002020343  -0.0000601735  -0.0001324331  -0.0001684773
       -0.0000588671   0.0000018963   0.0000505412  -0.0000213712  -0.0000662960
       -0.0000022548   0.0000924564  -0.0000079006  -0.0000738635  -0.0000134374
        0.0000369364   0.0000776466  -0.0000986127   0.0000035452  -0.0000254472
       -0.0000189176   0.0000076602   0.0000084262   0.0000305461   0.0000013978
       -0.0000153882   0.0000124099   0.0000049501  -0.0000032766  -0.0000019055
       -0.0000035238   0.0000025952   0.0000001420   0.0000005213   0.0000144914
       -0.0000041451  -0.0000045194  -0.0000087582   0.0000003180   0.0000010637
        0.0000023661  -0.0000033247  -0.0000002394  -0.0000002047   0.0000004792
       -0.0000006244   0.0000013971  -0.0000023570   0.0000007502  -0.0000021506
       -0.0000006368   0.0000014667   0.0000014442  -0.0000025890   0.0000043623
       -0.0000088940  -0.0000002803   0.0000003924   0.0000011423  -0.0000002619
       -0.0000010996  -0.0000029241   0.0000002216  -0.0000006429   0.0000004198
        0.0000002146   0.0000010862  -0.0000028153  -0.0000005866   0.0000001238
        0.0000019426  -0.0000001891  -0.0000053914   0.0000006070  -0.0000016092
        0.0000029885  -0.0000070010   0.0000108962  -0.0000548767  -0.0000286904
       -0.0000938203   0.0001148150  -0.0000739571   0.0000497754  -0.0000788661
        0.0001874456   0.0000256847   0.0000703343  -0.0000032413   0.0000000361
        0.0001146205  -0.0000409500  -0.0000541538   0.0585122808   0.0181026082
       -0.0051125296   0.0274016112  -0.1520172362   0.1117117848  -0.0142054822
       -0.0397432122   0.0028519275  -0.0089002824  -0.0125613272   0.0116420740
       -0.0008314793   0.0048965050   0.0032424521  -0.0001285262   0.0000627158
        0.0000200682  -0.0000131506   0.0000118498  -0.0000317540  -0.0000123835
        0.0000020296  -0.0000031009   0.0000002498   0.0000110170  -0.0000083852
        0.0000024130   0.0000087639  -0.0000083783   0.0000001765   0.0000016554
       -0.0000030821   0.0000008715  -0.0000034690  -0.0000001853  -0.0000007754
        0.0000018911  -0.0000007147  -0.0000003882   0.0000002979  -0.0000027001
       -0.0000011304   0.0000046561  -0.0000011288   0.0000006202  -0.0000020668
       -0.0000008231   0.0000004581   0.0000007143   0.0000005847   0.0000000793
        0.0000008564  -0.0000006733   0.0000004684   0.0000015457   0.0000009676
        0.0000001662   0.0000002004   0.0000005637   0.0000001434  -0.0000006006
       -0.0000001445  -0.0000003310   0.0000019996  -0.0000023398  -0.0000019893
        0.0000059557  -0.0000068840  -0.0012879650   0.0048092945   0.0033423860
        0.0069786050  -0.0127589433   0.0152688052
        0.0550897331  -0.2607350345   0.3946619362   0.0372577755   0.0975598184
       -0.1418690075   0.0527986129  -0.0126281556   0.0251215126   0.0048596358
        0.0296615118  -0.0355006313  -0.0005520210   0.0001452740  -0.0004438792
       -0.0000163109   0.0003252425   0.0000547311   0.0001227786   0.0001546203
        0.0001523838   0.0000519498  -0.0000387034   0.0000209661   0.0000377902
        0.0000165504  -0.0001090933  -0.0000010530   0.0000616518   0.0000136942
       -0.0000762798  -0.0000477894   0.0001246666  -0.0000196697  -0.0000181931
        0.0000075595   0.0000242603  -0.0000074610  -0.0000400518   0.0000016158
        0.0000108064  -0.0000094078  -0.0000005609  -0.0000036948   0.0000090584
       -0.0000177925   0.0000002747  -0.0000037787   0.0000257207  -0.0000087487
        0.0000097642  -0.0000005519   0.0000024080   0.0000005463  -0.0000000708
       -0.0000017151  -0.0000009620  -0.0000023152   0.0000022107  -0.0000029658
        0.0000032054  -0.0000022839   0.0000014704  -0.0000036944   0.0000019493
       -0.0000045838   0.0000009198  -0.0000010690   0.0000007641  -0.0000025369
        0.0000134337  -0.0000078504  -0.0000036918  -0.0000016038   0.0000069779
       -0.0000024146   0.0000026610  -0.0000014444  -0.0000032117   0.0000012001
        0.0000065619   0.0000043952  -0.0000001453  -0.0000065734   0.0000017379
       -0.0000031502  -0.0000004944   0.0000066827   0.0000031412  -0.0000072165
       -0.0000043680   0.0000109236  -0.0000104571   0.0000615906   0.0000736034
        0.0001041198  -0.0000749348   0.0000890815  -0.0000538497  -0.0000293779
       -0.0002375368  -0.0000443408  -0.0000821383   0.0000817798   0.0001208660
       -0.0000400454  -0.0001027191   0.0001258019  -0.0661721668  -0.0140093427
        0.0016840630  -0.0459667711   0.1230916200  -0.1826503320  -0.0385546855
        0.0028833800  -0.0449725943   0.0105117011   0.0155244082  -0.0127489693
       -0.0019787906   0.0032108515   0.0043046090   0.0001935750  -0.0000493427
        0.0000053590   0.0000173545  -0.0000128989   0.0000373310   0.0000195323
       -0.0000021575   0.0000034371   0.0000018360  -0.0000122765   0.0000144565
       -0.0000006861  -0.0000101292   0.0000080107  -0.0000025544   0.0000004012
        0.0000040373   0.0000005156   0.0000014843  -0.0000003313   0.0000001927
       -0.0000011544  -0.0000000517   0.0000000735  -0.0000013229  -0.0000008515
       -0.0000003229  -0.0000014597  -0.0000023439  -0.0000004483   0.0000008742
       -0.0000024803  -0.0000005842  -0.0000004825  -0.0000025840  -0.0000007106
       -0.0000011564  -0.0000011472  -0.0000004930  -0.0000000427  -0.0000004904
        0.0000003112   0.0000000188  -0.0000002386  -0.0000009191  -0.0000015488
        0.0000007659  -0.0000038314  -0.0000039201  -0.0000012868   0.0000054983
       -0.0000060649   0.0000031498  -0.0014778387   0.0031532417   0.0043609661
       -0.0060051522   0.0118668814  -0.0124692770
       -0.1665734418  -0.0600343404   0.0372577755   0.6448282807   0.0496304619
        0.0586622908  -0.3280083242  -0.0449320722  -0.0127373661  -0.0289771250
        0.0560955236  -0.0642124237   0.0029919645   0.0010534333  -0.0018218081
       -0.0008911714  -0.0006961411   0.0005227071   0.0002999342   0.0008702291
        0.0003255117  -0.0000398204  -0.0001586771  -0.0000479945   0.0002877739
       -0.0000541782  -0.0001753949  -0.0000296535   0.0002217415  -0.0000135230
        0.0003465258  -0.0003617696   0.0003576590  -0.0002184863   0.0000750905
        0.0000773538   0.0001011118   0.0000171444  -0.0001283227   0.0000036933
       -0.0000456244   0.0000120004   0.0000314160  -0.0000084415   0.0000050923
       -0.0000192877  -0.0000017075   0.0000029731  -0.0000095194   0.0000023702
       -0.0000038117   0.0000035476   0.0000090905   0.0000017031   0.0000005530
        0.0000016779   0.0000007023   0.0000013136   0.0000010765   0.0000015395
        0.0000022924  -0.0000007669   0.0000002633   0.0000045741  -0.0000004441
        0.0000019410   0.0000079125  -0.0000013076  -0.0000001809   0.0000042671
       -0.0000147719  -0.0000041119   0.0000009138  -0.0000028015  -0.0000030626
        0.0000006999  -0.0000050609  -0.0000032468   0.0000013675  -0.0000014988
       -0.0000041653   0.0000022539  -0.0000022112  -0.0000010317   0.0000075667
       -0.0000006910   0.0000012447   0.0000225787   0.0000187355  -0.0000023912
       -0.0000328908   0.0000435308  -0.0000069682   0.0001230746   0.0001564326
        0.0002273120  -0.0001301013   0.0000174347  -0.0000693326  -0.0000989179
       -0.0000279680   0.0000434277  -0.0000867979  -0.0003377870   0.0000241376
       -0.0007664604   0.0010356802  -0.0006251094  -0.0514396352  -0.0224529571
        0.0142188439   0.0583505322  -0.0206743814   0.0332190555  -0.0199895526
       -0.0191601048   0.0154346830  -0.0903757416   0.0625287458  -0.0761658277
       -0.0193304470  -0.0031460280  -0.0012745526  -0.0002544546  -0.0004463539
       -0.0004439596  -0.0000110752  -0.0000220930   0.0000696170   0.0000190880
       -0.0000015815   0.0000209964   0.0000114690  -0.0000222901   0.0000284460
       -0.0000178226   0.0000102114  -0.0000050211  -0.0000005236   0.0000034824
       -0.0000003154  -0.0000012764  -0.0000010141   0.0000001418  -0.0000022046
       -0.0000000701   0.0000022926  -0.0000014685  -0.0000014538   0.0000040701
       -0.0000002160  -0.0000014331   0.0000049695  -0.0000007976  -0.0000018132
        0.0000050443  -0.0000025925  -0.0000009496  -0.0000017388  -0.0000032429
       -0.0000013065  -0.0000042099  -0.0000033406   0.0000003882  -0.0000056240
       -0.0000021721   0.0000004147  -0.0000041363  -0.0000009988   0.0000035060
       -0.0000067552  -0.0000027383  -0.0000010702  -0.0000003439  -0.0000041184
       -0.0000124768   0.0000045713  -0.0002409459  -0.0005489128   0.0002496062
        0.0001126580   0.0013881490  -0.0030152430
       -0.1145104094  -0.1647659334   0.0975598184   0.0496304619   0.3853499534
       -0.2701983357   0.0098909491  -0.0711054219   0.0268175470   0.0157959696
        0.0168270404  -0.0130469131   0.0021479318   0.0021484071   0.0057671079
        0.0006849047  -0.0004363335   0.0002872138   0.0000737450   0.0001069610
        0.0000545650  -0.0001050108  -0.0000757878  -0.0000014228   0.0000926336
       -0.0000234857   0.0000124773   0.0000373960   0.0000402472   0.0000151999
        0.0001642503   0.0000837046  -0.0003088168  -0.0000184104   0.0000630722
       -0.0000079141  -0.0000562360  -0.0000235756   0.0001713560  -0.0000224522
       -0.0000023891   0.0000152565  -0.0000204883   0.0000002689  -0.0000130454
        0.0000409559  -0.0000015512  -0.0000019527  -0.0000408271   0.0000077331
       -0.0000000702   0.0000073841   0.0000142951  -0.0000032669  -0.0000033740
        0.0000001286   0.0000008726   0.0000023923   0.0000013473   0.0000012026
       -0.0000015587   0.0000044083  -0.0000013818  -0.0000002282   0.0000016914
        0.0000009494  -0.0000005960  -0.0000045706  -0.0000065900   0.0000100817
       -0.0000172335   0.0000084405  -0.0000018499   0.0000054379  -0.0000004217
        0.0000021020   0.0000004134   0.0000071323   0.0000002674  -0.0000001069
        0.0000035417   0.0000017187  -0.0000002144   0.0000012655   0.0000018177
        0.0000080781   0.0000072940  -0.0000086735  -0.0000170290   0.0000075735
        0.0000199665   0.0000049477  -0.0000143032   0.0001437120   0.0001474449
       -0.0003310933  -0.0002915904   0.0000032573  -0.0000889839   0.0001416390
        0.0001266616   0.0001071564  -0.0002464446  -0.0003505877   0.0000202837
       -0.0004670218   0.0006871842  -0.0004116071  -0.0239091364  -0.0113185365
        0.0015655127   0.0200888031  -0.0329371194   0.0391001730  -0.0024967392
       -0.0012181461   0.0015659527   0.0621260459  -0.1238211438   0.1071910308
       -0.0193467817  -0.0017632087  -0.0013593706  -0.0001340417  -0.0000160966
       -0.0000794124  -0.0000098795   0.0000106747  -0.0000282097  -0.0000240660
       -0.0000100396  -0.0000115064  -0.0000094360   0.0000203317  -0.0000318065
        0.0000037261   0.0000070965  -0.0000063603  -0.0000017960  -0.0000019903
       -0.0000041179   0.0000009593  -0.0000028700   0.0000003150  -0.0000014966
        0.0000033464   0.0000018909  -0.0000024361   0.0000018671  -0.0000020717
       -0.0000027898   0.0000067869  -0.0000008093  -0.0000019318  -0.0000005263
        0.0000037746   0.0000006900   0.0000033956   0.0000042407  -0.0000005300
        0.0000042577   0.0000020862   0.0000016989   0.0000051599   0.0000045668
        0.0000025217  -0.0000003164   0.0000030056   0.0000020092   0.0000005957
       -0.0000017258   0.0000051943   0.0000015981   0.0000035267  -0.0000005375
       -0.0000007241   0.0000100905  -0.0003859069   0.0000975040  -0.0004896549
        0.0010007479   0.0021196403   0.0061287440
        0.0943323205   0.1096130353  -0.1418690075   0.0586622908  -0.2701983357
        0.4104319002  -0.0683054655   0.0163534039  -0.0780925722  -0.0234758116
       -0.0063016626   0.0018343895  -0.0021560315   0.0060286806   0.0007964218
        0.0008163933  -0.0000601549   0.0001203008  -0.0001031644  -0.0001660128
       -0.0000942338  -0.0000301679  -0.0000320541  -0.0000461373  -0.0000273304
       -0.0000187287   0.0000276659   0.0000168378  -0.0000282507   0.0000239990
        0.0000427429   0.0001324828  -0.0000959686  -0.0000560574  -0.0000519559
       -0.0000134997   0.0000726994  -0.0000200003   0.0000213740  -0.0000495554
       -0.0000674673   0.0000227756   0.0000449276  -0.0000425788   0.0000231889
       -0.0001452365   0.0000011843   0.0000094324   0.0001553788  -0.0000001084
        0.0000018880  -0.0000254575  -0.0000411258   0.0000234766   0.0000087951
        0.0000094516  -0.0000037763  -0.0000082195   0.0000010908   0.0000051249
        0.0000047102  -0.0000019910   0.0000008689  -0.0000047611  -0.0000032681
       -0.0000058460   0.0000077850   0.0000148990   0.0000054097  -0.0000194473
        0.0000422225  -0.0000250926   0.0000015463  -0.0000089879   0.0000087473
       -0.0000085462   0.0000014980  -0.0000021131  -0.0000009051   0.0000032719
        0.0000080323   0.0000050388   0.0000036177  -0.0000030045   0.0000072808
       -0.0000140342  -0.0000035810   0.0000457261   0.0000321504  -0.0000243302
       -0.0000373277   0.0000715042  -0.0000232151   0.0000013763   0.0003897382
        0.0000113455  -0.0000535287   0.0001420443   0.0000654349  -0.0001487852
       -0.0000504786  -0.0000693282   0.0000772544  -0.0001577725   0.0000742714
       -0.0015755456  -0.0000907441  -0.0001255587   0.0151964997   0.0014286675
       -0.0043596111  -0.0089346471   0.0306109018  -0.0319130704  -0.0017182161
       -0.0020016787   0.0022751416  -0.0765203317   0.1068451302  -0.1622750291
        0.0163258667   0.0019966707   0.0019314420  -0.0002028282  -0.0002803420
       -0.0000945464   0.0000133413   0.0000186601   0.0000128788   0.0000189998
        0.0000176737   0.0000052692   0.0000191185   0.0000222224  -0.0000064478
       -0.0000077702   0.0000048186   0.0000015061   0.0000048471   0.0000090485
        0.0000027113   0.0000001078   0.0000012397   0.0000026576   0.0000038566
        0.0000006442  -0.0000000854   0.0000016885   0.0000031938   0.0000000090
       -0.0000016158   0.0000013889   0.0000003609  -0.0000033507  -0.0000000205
       -0.0000062992  -0.0000003006   0.0000017659  -0.0000014970   0.0000027648
        0.0000001562   0.0000021633   0.0000022799  -0.0000005645   0.0000013428
        0.0000003407   0.0000003792  -0.0000003731  -0.0000017888   0.0000002348
        0.0000066840   0.0000045941  -0.0000073353  -0.0000043670   0.0000050770
       -0.0000057808  -0.0000036551   0.0003644462  -0.0004307254   0.0003235502
       -0.0026447394   0.0062790878   0.0010804819
       -0.0435428090  -0.0596387184   0.0527986129  -0.3280083242   0.0098909491
       -0.0683054655   0.6532168931   0.0654638586   0.0428112366  -0.1228904189
        0.0269959003  -0.0442984062  -0.0273489426   0.0165337417  -0.0216862395
        0.0011103934   0.0031606362  -0.0008187133  -0.0007301954  -0.0015500444
       -0.0009469505   0.0005746631   0.0005240026   0.0000435872  -0.0005069407
        0.0001885227   0.0000959087   0.0000319101  -0.0003046198  -0.0000318119
       -0.0005898903   0.0003937309   0.0006781641   0.0006459931  -0.0001319744
       -0.0000335285  -0.0002868389   0.0000371184  -0.0003210852   0.0001673063
        0.0001945580  -0.0000557276  -0.0001130778   0.0001258900  -0.0000308151
        0.0003641144  -0.0000053924  -0.0000227150  -0.0003436357   0.0000035248
        0.0000166280   0.0000504290   0.0000960681  -0.0000581512  -0.0000115250
       -0.0000250959   0.0000089219   0.0000151506   0.0000011744  -0.0000058484
       -0.0000045473  -0.0000007103   0.0000051855   0.0000057769   0.0000158359
        0.0000093898  -0.0000195193  -0.0000324864  -0.0000015690   0.0000497422
       -0.0000939059   0.0000532379  -0.0000087455   0.0000259190   0.0000016989
        0.0000152958  -0.0000020775   0.0000143652  -0.0000043654  -0.0000006572
        0.0000026928   0.0000033970  -0.0000170187  -0.0000001806  -0.0000209616
        0.0000304630   0.0000116207  -0.0001453217  -0.0000783547   0.0000729886
        0.0000844212  -0.0001925406   0.0000522334  -0.0007965971   0.0001869216
        0.0009091764  -0.0003570071   0.0004215069   0.0002212334   0.0001359698
       -0.0003162009  -0.0001251112   0.0005554283   0.0009519698  -0.0001871092
       -0.0030870258  -0.0036114076  -0.0004452123   0.0545846071   0.0164176475
       -0.0082174216  -0.0430718376   0.0187808977  -0.0269636725  -0.0008435473
       -0.0031103022   0.0013114379  -0.0155210923   0.0004989791  -0.0046240881
       -0.1220012731  -0.0881222299   0.0774583191  -0.0002068818  -0.0010505529
       -0.0007991658   0.0000099344  -0.0000389324  -0.0000498193  -0.0000146375
       -0.0000346312  -0.0000104976  -0.0000114395  -0.0000539450   0.0000585715
       -0.0000068618  -0.0000145543  -0.0000196674  -0.0000203024  -0.0000184503
       -0.0000023014  -0.0000006023   0.0000024454  -0.0000001734  -0.0000060166
       -0.0000020285   0.0000075537  -0.0000046273  -0.0000051784   0.0000029675
       -0.0000006285  -0.0000040353  -0.0000015955   0.0000042586   0.0000048325
        0.0000099705  -0.0000018332  -0.0000023747   0.0000074456  -0.0000071849
        0.0000028432   0.0000028377  -0.0000035000   0.0000046645   0.0000054682
        0.0000005948   0.0000036194   0.0000074954   0.0000048491  -0.0000030617
       -0.0000088327  -0.0000225273   0.0000193856   0.0000086899   0.0000063300
        0.0000010114   0.0000092843  -0.0009867362  -0.0031475284   0.0017697182
       -0.0000892396   0.0006303921  -0.0003947658
       -0.0179860283   0.0096316029  -0.0126281556  -0.0449320722  -0.0711054219
        0.0163534039   0.0654638586   0.3721841738  -0.2581440698   0.0662959394
       -0.1417984028   0.1112127228   0.0139720714   0.0014083539   0.0024726809
       -0.0022952203  -0.0033692558   0.0005323681  -0.0013000038   0.0001129727
       -0.0003974550  -0.0004688643  -0.0002237771  -0.0001732580   0.0003023578
       -0.0000988748   0.0001767081   0.0000948605   0.0000897128  -0.0000860747
        0.0006816038  -0.0002196720  -0.0001285519  -0.0000971288   0.0003530415
        0.0000473290  -0.0001159943   0.0000058406   0.0000228332   0.0000389318
        0.0001927777  -0.0000533595  -0.0001384914   0.0001191657  -0.0000468678
        0.0004707149  -0.0000228930  -0.0000136794  -0.0004281051   0.0000121217
        0.0000254033   0.0000644015   0.0001131375  -0.0000911076  -0.0000199336
       -0.0000336322  -0.0000001840   0.0000149592   0.0000045159  -0.0000054489
       -0.0000103436  -0.0000089866   0.0000043947   0.0000153683   0.0000217087
        0.0000036665  -0.0000286483  -0.0000461309   0.0000052743   0.0000680804
       -0.0001233629   0.0000733693  -0.0000171132   0.0000316683  -0.0000020466
        0.0000119526  -0.0000139140   0.0000042655  -0.0000140254   0.0000031362
       -0.0000078370   0.0000090115  -0.0000298729  -0.0000078686  -0.0000352503
        0.0000412462  -0.0000036736  -0.0001307090  -0.0001261027   0.0000696011
        0.0000473806  -0.0001935818   0.0000348661   0.0003132310  -0.0001671972
        0.0000902867  -0.0005468256  -0.0000531892  -0.0000799427   0.0001331231
        0.0005131573   0.0001249653  -0.0002108964  -0.0009564968  -0.0001538895
       -0.0014047956   0.0028084598  -0.0005269565  -0.0179550813  -0.0293356191
        0.0293967851   0.0171668643  -0.0070198904   0.0051892710  -0.0033426269
        0.0017164900   0.0056115174   0.0171196123   0.0003082947   0.0039484585
       -0.0879513075  -0.1358201483   0.0924905896  -0.0003499914  -0.0002079847
       -0.0004338544   0.0000118949  -0.0000468324  -0.0000832222  -0.0000711500
       -0.0000568263  -0.0000106749  -0.0000580894  -0.0000002926  -0.0000000641
       -0.0000032933  -0.0000460668   0.0000045439  -0.0000350213  -0.0000234524
        0.0000167770  -0.0000001024   0.0000061296  -0.0000046597  -0.0000041458
       -0.0000012251   0.0000018703  -0.0000004391  -0.0000058410  -0.0000033845
        0.0000030234  -0.0000057203  -0.0000075034   0.0000086141   0.0000064222
       -0.0000035949   0.0000006068  -0.0000125288  -0.0000013937  -0.0000049589
       -0.0000019023  -0.0000076988  -0.0000023458   0.0000030815  -0.0000033146
        0.0000017180   0.0000065292   0.0000000418   0.0000059136  -0.0000069409
       -0.0000043218  -0.0000255357   0.0000249398  -0.0000193082   0.0000282704
        0.0000338890  -0.0000040994  -0.0028709527   0.0012857341   0.0056432766
        0.0005111266   0.0001437329  -0.0004197487
        0.0101934665  -0.0210309349   0.0251215126  -0.0127373661   0.0268175470
       -0.0780925722   0.0428112366  -0.2581440698   0.3977601314  -0.0937045717
        0.1046165835  -0.1753726971  -0.0109900294   0.0038958449  -0.0037980146
        0.0016441409   0.0003753192  -0.0005031183  -0.0001727814  -0.0005745628
       -0.0009489018   0.0000036071   0.0002306412   0.0000136002  -0.0002069017
       -0.0000375157   0.0002217288   0.0000181284  -0.0001021113   0.0000108513
       -0.0000404105   0.0002763905   0.0000397086   0.0000401813  -0.0000443192
       -0.0000242664   0.0000319277   0.0000035997   0.0000302760   0.0000092404
       -0.0000445960   0.0000132040   0.0000301862  -0.0000203990  -0.0000001064
       -0.0001165103   0.0000107306  -0.0000122612   0.0000926210   0.0000048116
       -0.0000134720  -0.0000165461  -0.0000284681   0.0000297446   0.0000083422
        0.0000072077  -0.0000022949  -0.0000027734  -0.0000071000  -0.0000050897
        0.0000079701   0.0000055202  -0.0000021998  -0.0000095418  -0.0000106261
       -0.0000021779   0.0000085864   0.0000109270  -0.0000122673  -0.0000083922
        0.0000133497  -0.0000313185  -0.0000016721  -0.0000106227  -0.0000049291
       -0.0000006838   0.0000025802  -0.0000020594   0.0000014151  -0.0000077641
        0.0000001014  -0.0000049757   0.0000074050  -0.0000137179   0.0000077885
       -0.0000095272   0.0000018470   0.0000278576   0.0000265831  -0.0000119905
        0.0000110052   0.0000660025  -0.0000037559  -0.0002291875   0.0000457201
       -0.0000165633   0.0003229104   0.0000906646   0.0000698220  -0.0002104284
        0.0000424703  -0.0000579871   0.0003178850   0.0003964020   0.0001761232
        0.0009021630  -0.0018791863   0.0005244910   0.0306896798   0.0363596620
       -0.0308210379  -0.0258615793   0.0057712681  -0.0168681461   0.0017346628
        0.0057839459   0.0023415545  -0.0214334683   0.0005495431  -0.0044158485
        0.0774073799   0.0923513092  -0.1170975222  -0.0013126779  -0.0012819763
       -0.0005873179  -0.0000290202   0.0000661392  -0.0000518775  -0.0000304071
        0.0000060944   0.0000118149   0.0000380802   0.0000382485  -0.0000302580
        0.0000056049   0.0000207804  -0.0000132230   0.0000152691   0.0000008726
       -0.0000152067  -0.0000012339  -0.0000062641  -0.0000045991  -0.0000007682
       -0.0000014828  -0.0000021568  -0.0000001036  -0.0000012370  -0.0000000984
        0.0000022474   0.0000024117   0.0000042500   0.0000022030  -0.0000080058
        0.0000098708   0.0000019793   0.0000026227  -0.0000006565  -0.0000007317
       -0.0000040421  -0.0000059446  -0.0000020271  -0.0000022135  -0.0000079504
       -0.0000041200  -0.0000048264  -0.0000059613   0.0000010394  -0.0000011414
       -0.0000108844   0.0000105711  -0.0000113326   0.0000107637  -0.0000189667
       -0.0000218032   0.0000069085   0.0012774615   0.0056455467   0.0022930047
       -0.0005289620  -0.0002486165   0.0001791412
        0.0060692861  -0.0024161822   0.0048596358  -0.0289771250   0.0157959696
       -0.0234758116  -0.1228904189   0.0662959394  -0.0937045717   0.6066194496
        0.0445592589   0.0460324843  -0.2145682364  -0.0058067636  -0.0228488914
       -0.0245775318  -0.0189869000  -0.0005460526  -0.0010169321   0.0043576059
        0.0005226847  -0.0020456092  -0.0013199404  -0.0004647763   0.0013243847
       -0.0004183069   0.0003307372  -0.0005218651   0.0006819695  -0.0001135645
        0.0028680826  -0.0026662258  -0.0013720565  -0.0019058274   0.0007522416
        0.0002716557   0.0006222102  -0.0001157108   0.0003135939  -0.0001809622
       -0.0001952998   0.0000166032   0.0001417646  -0.0000798757  -0.0000602065
       -0.0002450959   0.0000064926  -0.0000093653   0.0001176952   0.0000060135
       -0.0000318216  -0.0000054404   0.0000048883   0.0000755503   0.0000057200
        0.0000188976   0.0000202049   0.0000012682  -0.0000106540  -0.0000008619
        0.0000126197   0.0000161024   0.0000025567  -0.0000166248  -0.0000310110
        0.0000136958   0.0000161872   0.0000187968  -0.0000202133  -0.0000040267
       -0.0000155977  -0.0000628843  -0.0000059212  -0.0000188449  -0.0000148864
        0.0000054232   0.0000035031   0.0000099426   0.0000123783  -0.0000204324
        0.0000053113  -0.0000202409   0.0000346331  -0.0000063056   0.0000209237
       -0.0000222895   0.0000225727   0.0001840717   0.0000452218   0.0000314570
       -0.0000865834   0.0003033188  -0.0000206935   0.0016940474   0.0015671116
       -0.0005543183  -0.0002850482   0.0004014405  -0.0000238692  -0.0004242766
        0.0014325181   0.0006123977  -0.0006645523  -0.0049049894  -0.0000933357
       -0.0291493323   0.0198137471  -0.0072838984  -0.1504021634  -0.0982115766
        0.0867193540  -0.0442157151  -0.0176041294   0.0092472042   0.0007255615
        0.0000456957   0.0001857082  -0.0056623035  -0.0006171228  -0.0016866626
        0.0057623806  -0.0083499879   0.0113336359   0.0009821400   0.0002069328
        0.0002196180   0.0000138757   0.0003126763   0.0000046656   0.0000324345
        0.0000299515   0.0000681438   0.0001195514   0.0000505616  -0.0000604748
       -0.0000572245   0.0000522847  -0.0000312336   0.0000388755  -0.0000148516
       -0.0000329689   0.0000014115  -0.0000185088  -0.0000034449  -0.0000025855
        0.0000015106   0.0000061108  -0.0000038978   0.0000006081   0.0000109417
       -0.0000007692   0.0000099643   0.0000194948   0.0000172116  -0.0000169900
        0.0000352803  -0.0000026151   0.0000150130   0.0000137851  -0.0000060123
       -0.0000048033   0.0000052712  -0.0000054286  -0.0000056555  -0.0000023374
       -0.0000086541  -0.0000184162  -0.0000034200   0.0000246625   0.0000142887
       -0.0000365456   0.0000510396  -0.0000164557   0.0000345330  -0.0000511613
       -0.0000494438   0.0000423655   0.0061681305   0.0065720156  -0.0066810356
       -0.0056426065  -0.0014702077  -0.0018406879
       -0.0023365600  -0.0353844943   0.0296615118   0.0560955236   0.0168270404
       -0.0063016626   0.0269959003  -0.1417984028   0.1046165835   0.0445592589
        0.4023802138  -0.2389661876  -0.0060195530  -0.0635375623   0.0020140322