$hessian                                                                        
        0.5161700591   0.2033676574   0.1160999914  -0.2494453115  -0.1104155182
       -0.0493002175  -0.0056364360  -0.0459176909   0.0646234819  -0.0443977519
       -0.0125924166  -0.0237071477   0.0381793801   0.0466703036  -0.0315074584
       -0.1693780873  -0.0227436257  -0.0959234736  -0.0010472298  -0.0060978409
        0.0019671130   0.0006621811   0.0011770292  -0.0024686672   0.0003211691
       -0.0011856236   0.0022131632   0.0011865365   0.0017074432  -0.0013054474
       -0.0021251625  -0.0005537616  -0.0012183137   0.0010331309  -0.0007848466
        0.0022954025  -0.0011983044   0.0005363209  -0.0020502728   0.0025538476
        0.0016418890   0.0005280578   0.0005511431   0.0006014474  -0.0001571550
        0.0001235681  -0.0002746448   0.0001924798   0.0000966808   0.0001350680
        0.0000274182   0.0005228711  -0.0006315122  -0.0000349617  -0.0004153919
        0.0004975107   0.0000231302   0.0000621525   0.0001818540  -0.0000335409
        0.0000125018  -0.0001873445  -0.0000225763  -0.0000015367   0.0001752815
        0.0000256436  -0.0003237971   0.0001362322   0.0000109165   0.0003066037
       -0.0003093827  -0.0000894577  -0.0000859287   0.0003037279   0.0003830959
       -0.0002274405  -0.0000722403  -0.0003265367  -0.0003652914   0.0002937340
        0.0000993552   0.0003735573  -0.0001890194   0.0001955012   0.0000560304
       -0.0002477435  -0.0003075255   0.0005807670  -0.0000193654   0.0004958243
       -0.0005186426   0.0001737575  -0.0000752677   0.0001888501  -0.0004009480
       -0.0004299656   0.0002410769   0.0000507508   0.0003316283   0.0003287529
       -0.0002898443  -0.0001885715  -0.0004440972   0.0002189071  -0.0000898319
       -0.0000470832   0.0002015498   0.0003435504  -0.0002778477  -0.0000252434
       -0.0002946541   0.0000122271  -0.0000666252  -0.0000059280  -0.0000161831
       -0.0000425357   0.0000015697  -0.0000878674   0.0004623203  -0.0000146214
        0.0003548731  -0.0007896451   0.0000133889  -0.0004448966   0.0014399099
        0.0000196181   0.0001334985  -0.0012096688  -0.0000246020   0.0000324609
        0.0003568999   0.0000346583   0.0000179510   0.0000754589   0.0000380307
       -0.0001008026  -0.0000796266  -0.0000000054  -0.0000412644   0.0000158051
        0.0000482975   0.0001025998  -0.0000103828  -0.0000764159  -0.0000455575
       -0.0000251152   0.0000035169   0.0000527785   0.0000727458   0.0000579597
       -0.0000046810  -0.0000273698  -0.0000262168  -0.0000061064  -0.0000852999
       -0.0000222015  -0.0001050014   0.0000622794  -0.0000192158  -0.0000405423
       -0.0000111390  -0.0000421209   0.0001083166  -0.0000083312   0.0000803228
       -0.0000530660   0.0000545479   0.0000062189   0.0000599731  -0.0001336518
       -0.0000799193  -0.0000108746   0.0000701856   0.0000474553   0.0001296599
       -0.0003706876  -0.0000099100  -0.0001073785   0.0012671453  -0.0000602319
        0.0000732389  -0.0018846080   0.0000339379  -0.0001475035   0.0010256645
        0.0000275824  -0.0553004961  -0.0427513269   0.0427270564  -0.0176192502
       -0.0099535600  -0.0030541766   0.0023502210  -0.0031036330  -0.0003869518
       -0.0169195150   0.0006840564  -0.0196807113  -0.0000074412  -0.0000002436
       -0.0000300534   0.0000070504  -0.0000214278   0.0000360778  -0.0000013802
       -0.0000425255   0.0000570338  -0.0000574638  -0.0000208958   0.0000802027
        0.0000611099  -0.0002168928  -0.0000415625  -0.0000421011   0.0000695410
        0.0000240054  -0.0000050289   0.0000766932   0.0000062292  -0.0000549926
        0.0000539634  -0.0000161950   0.0000432804  -0.0000102441  -0.0000060332
        0.0000414353   0.0000192844   0.0000424927   0.0000057128   0.0000383456
        0.0000327780  -0.0000238272   0.0000304944  -0.0000068887  -0.0000197981
        0.0000235894  -0.0000067710  -0.0000247583  -0.0000022441  -0.0000461102
        0.0000122663  -0.0000317893  -0.0000783496   0.0000503752   0.0000000371
       -0.0000013222  -0.0000323282  -0.0000037197   0.0000123744   0.0000259019
       -0.0001017226  -0.0000020037   0.0000073826   0.0000507554  -0.0000124976
        0.0000044958  -0.0000148740   0.0000015633   0.0000047824   0.0000005192
       -0.0000038907  -0.0000082392   0.0000008603  -0.0000132508   0.0000053325
        0.0000129794  -0.0000085029   0.0000039836  -0.0000042387   0.0000007990
       -0.0000111603  -0.0000008640   0.0000098098   0.0000230783  -0.0000710448
        0.0000089707
        0.2033676574   0.3778619684  -0.1982366274  -0.1464506511  -0.1410315934
       -0.0106505264  -0.0190580746  -0.0310634322   0.0312026245  -0.0113733265
       -0.0033015479  -0.0141035273   0.0202394127   0.0041532166   0.0115091489
        0.0128517087  -0.0676860122   0.0531645107  -0.0041024738   0.0008141367
        0.0037149086  -0.0000530359   0.0001990149   0.0019364668  -0.0001090867
       -0.0003876227   0.0004420860   0.0004402361   0.0001939777  -0.0002434770
       -0.0005288744  -0.0000463841  -0.0004137452   0.0003690089  -0.0003648927
        0.0007711294  -0.0006949076   0.0003189086  -0.0013964505   0.0004900805
       -0.0017652165   0.0030597872   0.0004173998   0.0003803163   0.0000304551
       -0.0000317466  -0.0001889794   0.0001058264   0.0000373549   0.0000706936
        0.0000063743   0.0002573555  -0.0002437641  -0.0000233004  -0.0001823053
        0.0002210984   0.0000335864  -0.0000068845   0.0001012077  -0.0000302983
        0.0000056501  -0.0000812131  -0.0000050748   0.0000059562   0.0000721967
        0.0000118211  -0.0001250097   0.0000456477   0.0000014981   0.0001459855
       -0.0001426371  -0.0000267170  -0.0000478681   0.0001631594   0.0001784748
       -0.0000990209  -0.0000437360  -0.0001569049  -0.0001487880   0.0001298743
        0.0000560531   0.0001644110  -0.0000719241   0.0000894232   0.0000092143
       -0.0001089370  -0.0001446015   0.0002512960  -0.0000102157   0.0002123745
       -0.0002265521   0.0001005649  -0.0000260792   0.0000933414  -0.0001799600
       -0.0001886250   0.0000962652   0.0000303017   0.0001519198   0.0001322003
       -0.0001340451  -0.0000883480  -0.0001923176   0.0000821824  -0.0000504222
       -0.0000149358   0.0000880770   0.0001612184  -0.0001381728  -0.0000093663
       -0.0001446206  -0.0000039999  -0.0000271466  -0.0000033216  -0.0000104509
       -0.0000342863  -0.0000030889  -0.0000276842   0.0001898356  -0.0000073874
        0.0001784480  -0.0003306237   0.0000072292  -0.0002340239   0.0006141248
        0.0000170412   0.0001061527  -0.0005475051  -0.0000189510  -0.0000142551
        0.0001441072   0.0000189601   0.0000065591   0.0000314260   0.0000164715
       -0.0000417175  -0.0000319667  -0.0000005908  -0.0000129071   0.0000066341
        0.0000174130   0.0000388678  -0.0000030416  -0.0000300629  -0.0000203390
       -0.0000109629   0.0000012213   0.0000198231   0.0000285586   0.0000239606
       -0.0000021987  -0.0000089700  -0.0000095922  -0.0000238189  -0.0000377382
       -0.0000093319  -0.0000357700   0.0000214914  -0.0000055162  -0.0000188306
       -0.0000046562  -0.0000172210   0.0000434633  -0.0000039200   0.0000323627
       -0.0000250785   0.0000193826   0.0000006356   0.0000234190  -0.0000485181
       -0.0000307707  -0.0000041170   0.0000240532   0.0000167963   0.0000528822
       -0.0001557058  -0.0000015261  -0.0000359196   0.0005606913  -0.0000295360
        0.0000433346  -0.0007992181   0.0000148343  -0.0000566723   0.0004456311
        0.0000121794  -0.0427845787  -0.1421498586   0.1260018254   0.0004716861
        0.0011837730  -0.0002707454  -0.0034975188   0.0016675139   0.0051138211
       -0.0098284232   0.0011540924  -0.0118704194  -0.0000239139   0.0000139082
        0.0000162580   0.0000039841  -0.0000069909   0.0000311624  -0.0000178193
        0.0000120084   0.0000463584  -0.0000038533   0.0000110803   0.0000034325
       -0.0000066509  -0.0001708411   0.0000122889  -0.0000377451   0.0000070753
        0.0000159391  -0.0000217214   0.0000647346   0.0000093585  -0.0000325082
        0.0000274924  -0.0000047057   0.0000162939  -0.0000027918   0.0000007558
        0.0000135361   0.0000076103   0.0000158683   0.0000014761   0.0000135235
        0.0000124770  -0.0000074210   0.0000104042  -0.0000016410  -0.0000065254
        0.0000070020  -0.0000032060  -0.0000101165  -0.0000012055  -0.0000176431
        0.0000024210  -0.0000110399  -0.0000311845   0.0000207073   0.0000014836
       -0.0000036674  -0.0000141885  -0.0000011775   0.0000076939   0.0000055301
       -0.0000354694  -0.0000011102   0.0000086957   0.0000223773  -0.0000057495
        0.0000008912  -0.0000059152   0.0000011144   0.0000026729   0.0000014802
       -0.0000012735  -0.0000043852   0.0000005722  -0.0000049889   0.0000012462
        0.0000056069  -0.0000027774   0.0000027650  -0.0000024356   0.0000003980
       -0.0000039152  -0.0000012528   0.0000040369   0.0000137098  -0.0000295003
        0.0000037738
        0.1160999914  -0.1982366274   0.5450848043   0.0089217922   0.0291456857
       -0.0836039285   0.0218896963   0.0021372124   0.0227634825  -0.0248887292
       -0.0145206966  -0.0079601424   0.0106929019   0.0396878994  -0.0534868080
       -0.1534464024   0.0150014618  -0.2275220827  -0.0006274730   0.0016374889
        0.0023694710  -0.0007467089   0.0032327157  -0.0040665190   0.0005492059
       -0.0007133507   0.0015827196   0.0007825509   0.0011430285  -0.0012323562
       -0.0014217234  -0.0004937490  -0.0006273774   0.0006124418  -0.0003977648
        0.0011418235  -0.0001840351  -0.0000146167  -0.0000490914   0.0021211351
        0.0041349232  -0.0040102838  -0.0001393711  -0.0000513220  -0.0000185030
        0.0002057509  -0.0000277038   0.0001321312  -0.0000104499  -0.0000590030
        0.0000588416   0.0001926092  -0.0002525942  -0.0000356039  -0.0001837379
        0.0002161229  -0.0000476930   0.0000969909   0.0001006451  -0.0000273652
       -0.0000045044  -0.0000981202  -0.0000058083  -0.0000024690   0.0000903991
        0.0000089910  -0.0001866301   0.0000860463   0.0000015113   0.0001033371
       -0.0001131616  -0.0000381872  -0.0000075195   0.0000619589   0.0001154178
       -0.0001020626  -0.0000103291  -0.0001105493  -0.0001723574   0.0001160310
        0.0000172056   0.0001534201  -0.0000989476   0.0000757091   0.0000482321
       -0.0001091663  -0.0001143764   0.0002324151   0.0000003156   0.0001974329
       -0.0002024928   0.0000225115  -0.0000258508   0.0000602781  -0.0001512148
       -0.0001766357   0.0001167856   0.0000024238   0.0001265719   0.0001555604
       -0.0001078707  -0.0000623984  -0.0001850718   0.0001118990  -0.0000125648
       -0.0000355212   0.0000814446   0.0001216553  -0.0000766052  -0.0000115565
       -0.0000884593   0.0000336032  -0.0000295503  -0.0000006869  -0.0000184312
        0.0000197641  -0.0000001249  -0.0000205049   0.0002148643   0.0000112711
        0.0000406889  -0.0004161478   0.0000144760  -0.0001167416   0.0007798687
        0.0000030622   0.0000277478  -0.0005709386   0.0000018705   0.0000601146
        0.0001856539  -0.0000007787   0.0000079316   0.0000362624   0.0000141386
       -0.0000466884  -0.0000348525   0.0000057461  -0.0000231476   0.0000047664
        0.0000227455   0.0000476285  -0.0000059670  -0.0000342747  -0.0000169359
       -0.0000110462   0.0000004868   0.0000297864   0.0000379235   0.0000273310
       -0.0000041503  -0.0000201422  -0.0000156556   0.0000251018  -0.0000394958
       -0.0000125985  -0.0000542207   0.0000332057  -0.0000093250  -0.0000200223
       -0.0000062417  -0.0000223801   0.0000521910  -0.0000013082   0.0000387439
       -0.0000195992   0.0000257007   0.0000039381   0.0000291465  -0.0000638506
       -0.0000379970  -0.0000065589   0.0000356240   0.0000227667   0.0000665437
       -0.0001836096  -0.0000101257  -0.0000168130   0.0006043772   0.0000077587
        0.0000068204  -0.0009542245  -0.0000176555  -0.0001291353   0.0004811592
       -0.0000007397   0.0428598725   0.1260578289  -0.1846814167  -0.0207088062
       -0.0124080288  -0.0025675621  -0.0001080981   0.0055295974  -0.0014984424
       -0.0024339792  -0.0008535921  -0.0017044626  -0.0000036149   0.0000330519
       -0.0000247515  -0.0000102227   0.0000084111   0.0000016951  -0.0000144305
        0.0000031931   0.0000340498  -0.0000496171  -0.0000494212   0.0000727809
        0.0000341274  -0.0000391424  -0.0000389958   0.0000097896   0.0000648271
       -0.0000097259   0.0000293123   0.0000033333  -0.0000198809  -0.0000110639
        0.0000167576  -0.0000127958   0.0000271469  -0.0000080233  -0.0000097207
        0.0000270991   0.0000112773   0.0000242564   0.0000046278   0.0000234489
        0.0000182254  -0.0000155625   0.0000203191  -0.0000055095  -0.0000133651
        0.0000181525  -0.0000030868  -0.0000119276  -0.0000001191  -0.0000252841
        0.0000105455  -0.0000178158  -0.0000387538   0.0000263457  -0.0000023133
        0.0000034717  -0.0000147472  -0.0000033131   0.0000050389   0.0000212351
       -0.0000619151  -0.0000016796  -0.0000042226   0.0000226339  -0.0000083191
        0.0000032648  -0.0000058031   0.0000007375   0.0000008321  -0.0000016508
       -0.0000017893  -0.0000024415  -0.0000004278  -0.0000064030   0.0000039633
        0.0000059468  -0.0000041945  -0.0000003861  -0.0000000935   0.0000002567
       -0.0000058719   0.0000014308   0.0000052479   0.0000046097  -0.0000327639
        0.0000098371
       -0.2494453115  -0.1464506511   0.0089217922   0.5271078247   0.2004544270
        0.1392240032  -0.0927507522  -0.0352356521   0.0008573180   0.0368248540
        0.0189413691   0.0116344267  -0.0239968199  -0.0248539896   0.0186167737
       -0.0444649862   0.0058741886  -0.0594896977   0.0014064179   0.0019293756
       -0.0012680960   0.0001857699  -0.0012862950   0.0020525515  -0.0003704041
        0.0009021281  -0.0017045289  -0.0008593258  -0.0011955378   0.0010304285
        0.0013159652   0.0004640179   0.0007715489  -0.0009736736   0.0004737576
       -0.0014817532   0.0012694370  -0.0000783431   0.0000430373  -0.0027661294
       -0.0017801812  -0.0060642419  -0.0006655570  -0.0009831151   0.0002070672
       -0.0003000394   0.0001496918   0.0000751582   0.0002172782   0.0001589528
        0.0000573740  -0.0004413166   0.0004087569   0.0000369758   0.0002435742
       -0.0004932251   0.0000178461  -0.0000162940   0.0001724448   0.0000804746
       -0.0000273097   0.0002370685   0.0000244126   0.0000082142  -0.0001882468
       -0.0000222083   0.0003001606  -0.0001144249  -0.0000030815  -0.0002931257
        0.0002826144   0.0000605369   0.0000781544  -0.0002857411  -0.0003446847
        0.0002111190   0.0000747571   0.0003062617   0.0003300900  -0.0002676507
       -0.0000963046  -0.0003409058   0.0001643867  -0.0001833645  -0.0000386491
        0.0002271817   0.0002894755  -0.0005186844   0.0000160753  -0.0004389091
        0.0004620752  -0.0001685903   0.0000527690  -0.0001793635   0.0003682236
        0.0003938041  -0.0002128160  -0.0000532294  -0.0003093474  -0.0002887097
        0.0002681118   0.0001755742   0.0004014989  -0.0001903487   0.0000859165
        0.0000382507  -0.0001821915  -0.0003225578   0.0002691583   0.0000225958
        0.0002850895  -0.0000110473   0.0000458693   0.0000059185   0.0000226847
        0.0000452930   0.0000031328   0.0000533960  -0.0004359105  -0.0000023129
       -0.0003320613   0.0007231338  -0.0000171523   0.0004391377  -0.0014142659
       -0.0000293199  -0.0001815867   0.0011954394   0.0000261169  -0.0000112767
       -0.0003404970  -0.0000264397  -0.0000196513  -0.0000718265  -0.0000351211
        0.0000911175   0.0000700214  -0.0000023661   0.0000320730  -0.0000134492
       -0.0000390960  -0.0000883942   0.0000091228   0.0000652790   0.0000417486
        0.0000225953  -0.0000009573  -0.0000450639  -0.0000641888  -0.0000551654
        0.0000006221   0.0000222155   0.0000246506   0.0000184543   0.0000824931
        0.0000245301   0.0000873610  -0.0000565864   0.0000144732   0.0000381282
        0.0000108793   0.0000407875  -0.0000978203   0.0000088887  -0.0000768906
        0.0000473044  -0.0000460402  -0.0000020008  -0.0000498795   0.0001161907
        0.0000680833   0.0000078622  -0.0000559311  -0.0000366202  -0.0001277371
        0.0003543189   0.0000081687   0.0000908050  -0.0012220309   0.0000316920
       -0.0000997520   0.0017968474  -0.0000040156   0.0002421560  -0.0009476018
       -0.0000306115  -0.0068722132  -0.0055411627   0.0010302523  -0.1373505938
        0.0068696965  -0.1278776002  -0.0075549402  -0.0169663433   0.0179271376
       -0.0000759485  -0.0017949122  -0.0046299956   0.0000214705  -0.0000121084
        0.0000396528   0.0000039273   0.0000028127  -0.0000408540   0.0000080468
        0.0000235131  -0.0000850428   0.0000386304   0.0000078975  -0.0000642021
       -0.0000618426   0.0000493396   0.0001028287   0.0000421918  -0.0000979396
        0.0000038634  -0.0000094518  -0.0001494296  -0.0000160284   0.0000441721
       -0.0000559021   0.0000156069  -0.0000414921   0.0000113528   0.0000073362
       -0.0000361171  -0.0000194692  -0.0000386014  -0.0000041911  -0.0000338040
       -0.0000280958   0.0000192161  -0.0000270911   0.0000045557   0.0000177072
       -0.0000196568   0.0000075755   0.0000224393   0.0000009957   0.0000399640
       -0.0000096093   0.0000258422   0.0000694540  -0.0000475109   0.0000002288
        0.0000018057   0.0000301353   0.0000023399  -0.0000135283  -0.0000206058
        0.0000885079   0.0000041025  -0.0000131119  -0.0000463514   0.0000159579
       -0.0000024133   0.0000124552  -0.0000027044  -0.0000046976  -0.0000012732
        0.0000033189   0.0000088966  -0.0000003405   0.0000122707  -0.0000038990
       -0.0000128543   0.0000078432  -0.0000043834   0.0000035456  -0.0000008123
        0.0000106300  -0.0000004532  -0.0000102524  -0.0000226907   0.0000628725
       -0.0000124119
       -0.1104155182  -0.1410315934   0.0291456857   0.2004544270   0.3629083211
       -0.1773161753  -0.0707101989  -0.1593822957   0.1073995815   0.0444370977
        0.0040918723   0.0397447176  -0.0259797273  -0.0302367575   0.0131134720
       -0.0203583170   0.0181935917  -0.0483787443   0.0033916410   0.0015213225
        0.0012704331  -0.0000167662  -0.0010291047   0.0013940576  -0.0003280358
        0.0008932285  -0.0018238802  -0.0011355736  -0.0013677639   0.0010701393
        0.0017461666   0.0002671583   0.0009493237  -0.0008832865   0.0006213688
       -0.0019401411   0.0014304481   0.0002879101   0.0029121928  -0.0043383508
        0.0033868213  -0.0023985888  -0.0006433357  -0.0003636520   0.0006609739
       -0.0000760543   0.0001318227  -0.0002667451   0.0000164147  -0.0000054001
        0.0000003456  -0.0005645266   0.0006615460   0.0000597189   0.0005101009
       -0.0004181629  -0.0000605648   0.0001063390  -0.0000457022   0.0001378601
       -0.0000029017   0.0001964480   0.0000022493   0.0000249368  -0.0001597506
       -0.0000153602   0.0003226469  -0.0001334252  -0.0000102929  -0.0002583595
        0.0002631027   0.0000814938   0.0000450056  -0.0002229411  -0.0003022937
        0.0001889813   0.0000470536   0.0002504095   0.0002827475  -0.0002182570
       -0.0000681825  -0.0002813584   0.0001504348  -0.0001445419  -0.0000510842
        0.0001906786   0.0002296172  -0.0004362750   0.0000143848  -0.0003619829
        0.0003709154  -0.0000832878   0.0000673158  -0.0001305229   0.0002810982
        0.0003046526  -0.0001903838  -0.0000346091  -0.0002514096  -0.0002554899
        0.0002173401   0.0001401061   0.0003365838  -0.0001733408   0.0000592290
        0.0000539879  -0.0001593673  -0.0002685256   0.0002054904   0.0000317249
        0.0002238461  -0.0000102648   0.0000297788  -0.0000027319   0.0000106247
        0.0000351751   0.0000006873   0.0001075289  -0.0004788941   0.0000145728
       -0.0003525269   0.0008556026  -0.0000135628   0.0005381422  -0.0016014234
       -0.0000162968  -0.0002932587   0.0013181492   0.0000213588  -0.0000140670
       -0.0003559216  -0.0000238624  -0.0000056535  -0.0000829701  -0.0000250768
        0.0000722609   0.0000600910   0.0000024655   0.0000342436  -0.0000108868
       -0.0000383545  -0.0000781467   0.0000096152   0.0000560095   0.0000336968
        0.0000178903  -0.0000028213  -0.0000375488  -0.0000496766  -0.0000410576
        0.0000008882   0.0000177700   0.0000183555   0.0000256642   0.0000930413
        0.0000117605   0.0000726672  -0.0000399934   0.0000160330   0.0000315479
        0.0000081170   0.0000314663  -0.0000797131   0.0000083624  -0.0000588883
        0.0000388134  -0.0000432454  -0.0000062996  -0.0000442067   0.0001066889
        0.0000599350   0.0000076719  -0.0000590996  -0.0000388910  -0.0001283293
        0.0003731201   0.0000055208   0.0000004070  -0.0013594067   0.0000496807
       -0.0000533248   0.0020456245  -0.0000273949   0.0002701910  -0.0010868089
       -0.0000218763  -0.0165048058  -0.0117575202   0.0010497869   0.0075453068
       -0.0399421909   0.0178597538  -0.0061399587  -0.0118416905   0.0126241595
       -0.0017507058   0.0044241312   0.0027738584  -0.0000180324  -0.0000288312
        0.0000051815  -0.0000102744   0.0000335023  -0.0000090735   0.0000010442
        0.0000301487  -0.0000531535   0.0000269800   0.0000241552  -0.0000549440
       -0.0001081107   0.0001221625   0.0001526567   0.0000340970  -0.0001043134
       -0.0000229005  -0.0000299019  -0.0000817120   0.0000049274   0.0000420202
       -0.0000580084   0.0000148044  -0.0000426671   0.0000109757   0.0000035147
       -0.0000344063  -0.0000161213  -0.0000345101  -0.0000053292  -0.0000309878
       -0.0000246121   0.0000198633  -0.0000265060   0.0000058273   0.0000167070
       -0.0000192973   0.0000067922   0.0000186901   0.0000008652   0.0000362335
       -0.0000099084   0.0000247536   0.0000672125  -0.0000489977   0.0000010106
        0.0000036433   0.0000279749   0.0000079539  -0.0000089362  -0.0000189532
        0.0001010115   0.0000033077  -0.0000100561  -0.0000445395   0.0000084767
       -0.0000027853   0.0000107627  -0.0000007623  -0.0000018306   0.0000020521
        0.0000033880   0.0000068155   0.0000024639   0.0000115718  -0.0000030426
       -0.0000078016   0.0000073702  -0.0000002401   0.0000019225  -0.0000004161
        0.0000097169  -0.0000021966  -0.0000083602  -0.0000243815   0.0000613277
       -0.0000055218
       -0.0493002175  -0.0106505264  -0.0836039285   0.1392240032  -0.1773161753
        0.5503430645   0.0579275721   0.1463229634  -0.2131904351  -0.0294494428
        0.0123551271  -0.0535443814   0.0202215319   0.0138159847  -0.0052555102
       -0.0176398054  -0.0198090064   0.0145393254  -0.0036495658  -0.0004651302
       -0.0033840289   0.0002509894   0.0002427416  -0.0000751926   0.0001877769
       -0.0005467507   0.0010201482   0.0008772277   0.0009122888  -0.0005859154
       -0.0011655793  -0.0002519487  -0.0008981590   0.0004393372  -0.0006425121
        0.0013371697  -0.0020564689   0.0015997724  -0.0035299859  -0.0025581678
       -0.0001011245   0.0026119147   0.0003292548   0.0005060305   0.0002760114
        0.0000513304  -0.0002137264   0.0001761271  -0.0000043588  -0.0000543303
       -0.0000246310   0.0003688399  -0.0003526109  -0.0000358262  -0.0002714962
        0.0003486082   0.0000106979  -0.0000595708   0.0000673516  -0.0000145835
       -0.0000088285  -0.0001374435  -0.0000023743  -0.0000440206   0.0000982410
        0.0000064412  -0.0002321917   0.0000830073   0.0000042344   0.0000969959
       -0.0001169419  -0.0000374817   0.0000266658   0.0000314005   0.0000825502
       -0.0000865793   0.0000049941  -0.0000697783  -0.0001013182   0.0000579341
        0.0000029400   0.0000822521  -0.0000670961   0.0000350441   0.0000419585
       -0.0000676722  -0.0000576980   0.0001170704   0.0000001282   0.0000826398
       -0.0000718485  -0.0000618836  -0.0000285871   0.0000132200  -0.0000441756
       -0.0000608558   0.0000782768  -0.0000083582   0.0000677718   0.0000981220
       -0.0000558154  -0.0000272353  -0.0001031585   0.0000705929   0.0000033375
       -0.0000525401   0.0000584421   0.0000823467  -0.0000327799  -0.0000244803
       -0.0000518991   0.0000241377   0.0000037293   0.0000104316  -0.0000135563
       -0.0000051193  -0.0000047004  -0.0000659190   0.0003058006  -0.0000040903
        0.0001941080  -0.0005734453   0.0000117575  -0.0004365658   0.0011369953
        0.0000106414   0.0003140049  -0.0009002829  -0.0000150757   0.0000146059
        0.0002134889   0.0000031050  -0.0000219631   0.0000707745  -0.0000012654
       -0.0000147939  -0.0000134435  -0.0000019729  -0.0000179727   0.0000001009
        0.0000156209   0.0000244182  -0.0000043887  -0.0000165278  -0.0000080866
       -0.0000056404   0.0000021644   0.0000134355   0.0000137943   0.0000076654
       -0.0000019277  -0.0000097697  -0.0000059810  -0.0000506301  -0.0000790801
        0.0000064748  -0.0000064387  -0.0000048462  -0.0000050758  -0.0000172473
       -0.0000036703  -0.0000104180   0.0000220166  -0.0000018645   0.0000093094
       -0.0000137494   0.0000147607   0.0000062149   0.0000173571  -0.0000320848
       -0.0000183378  -0.0000054678   0.0000289555   0.0000177766   0.0001003351
       -0.0002338539   0.0000014348   0.0001062298   0.0008999191  -0.0000223931
       -0.0000290150  -0.0013846562   0.0000074032  -0.0002135343   0.0007000584
        0.0000173258   0.0183959254   0.0129334987  -0.0003156105  -0.1280284100
        0.0180834951  -0.2041257411   0.0009554253   0.0007055980   0.0003429070
       -0.0049053372   0.0025444950  -0.0019929071   0.0000593013   0.0000216680
        0.0000282348  -0.0000124629   0.0000039086   0.0000051182  -0.0000127204
        0.0000056025   0.0000096754  -0.0000257549   0.0000075598   0.0000315399
        0.0001056475  -0.0000980122  -0.0001370504  -0.0000501188   0.0000604261
        0.0000071895   0.0000182601   0.0000346470  -0.0000236524  -0.0000303093
        0.0000421628  -0.0000157590   0.0000322148  -0.0000055073   0.0000000010
        0.0000198664   0.0000080210   0.0000171219   0.0000055910   0.0000148796
        0.0000104616  -0.0000111357   0.0000154514  -0.0000048153  -0.0000089561
        0.0000120849  -0.0000029615  -0.0000051855  -0.0000004530  -0.0000161027
        0.0000065057  -0.0000122311  -0.0000332734   0.0000308776  -0.0000021374
       -0.0000073839  -0.0000150502  -0.0000128784   0.0000042852   0.0000121107
       -0.0000740737  -0.0000022779   0.0000028023   0.0000235957  -0.0000012543
        0.0000016457  -0.0000025318  -0.0000009809  -0.0000025326  -0.0000046047
       -0.0000012635  -0.0000012482  -0.0000042791  -0.0000044500   0.0000013020
       -0.0000011432  -0.0000018376  -0.0000047617   0.0000018931  -0.0000000518
       -0.0000031851   0.0000033322   0.0000035654   0.0000114254  -0.0000285992
        0.0000025087
       -0.0056364360  -0.0190580746   0.0218896963  -0.0927507522  -0.0707101989
        0.0579275721   0.5158892046   0.2143516595   0.1182283698  -0.1657063029
        0.0028104699  -0.1411124776  -0.0372534018  -0.0127856631  -0.0177789257
       -0.0011132983   0.0059308522  -0.0070893442  -0.0023924250  -0.0062294909
        0.0006478395   0.0006712645   0.0012169743  -0.0011422516   0.0000392803
        0.0002523340  -0.0001450931  -0.0002489103  -0.0001430373   0.0000862876
        0.0001356473  -0.0001080590   0.0003766312  -0.0001411744  -0.0000200515
        0.0001204669   0.0002227877  -0.0015678189   0.0018896066   0.0081395560
        0.0057063385  -0.0033427286  -0.0004764920  -0.0010452623   0.0013996093
       -0.0009014725  -0.0001001731   0.0009961703   0.0004211914   0.0003605876
        0.0000707576  -0.0005896640  -0.0000293928   0.0000039771  -0.0000286961
       -0.0005374761  -0.0002281611   0.0004391746   0.0002528958   0.0001276725
       -0.0000082989   0.0002236708  -0.0000164079   0.0000336291  -0.0001448534
       -0.0000347013   0.0002258751  -0.0000337052   0.0000050394  -0.0003089895
        0.0002916424   0.0000408336   0.0000984677  -0.0003320639  -0.0003384840
        0.0001510209   0.0000666567   0.0002286268   0.0002211173  -0.0002015272
       -0.0000912867  -0.0002366929   0.0001064176  -0.0001182872  -0.0000193816
        0.0001430021   0.0001783420  -0.0003990614   0.0000236837  -0.0003275096
        0.0003599604  -0.0001697642   0.0000462354  -0.0001584312   0.0002816844
        0.0002873435  -0.0001307532  -0.0000344315  -0.0001938936  -0.0001944013
        0.0001892675   0.0001160732   0.0002945919  -0.0001199613   0.0000804834
        0.0000205453  -0.0001301930  -0.0002429787   0.0002748691   0.0000244006
        0.0002906758  -0.0000318477   0.0000248622   0.0000034930   0.0000242671
        0.0000814592   0.0000130903   0.0000320163  -0.0003147858  -0.0000008120
       -0.0004737285   0.0003508205  -0.0000028644   0.0006292937  -0.0009111730
       -0.0000431837  -0.0002448901   0.0009051520   0.0000303414   0.0000188216
       -0.0001997452  -0.0000097653   0.0000412801  -0.0000896334  -0.0000109811
        0.0000457040   0.0000309105  -0.0000013856   0.0000125847  -0.0000083049
       -0.0000192590  -0.0000337616   0.0000028132   0.0000251456   0.0000198456
        0.0000099110  -0.0000002505  -0.0000199115  -0.0000261213  -0.0000214392
       -0.0000001989   0.0000112185   0.0000119086   0.0001268950   0.0001114229
        0.0000064691   0.0000259418  -0.0000110987   0.0000061373   0.0000250379
        0.0000060978   0.0000215775  -0.0000396490   0.0000088065  -0.0000270402
        0.0000247199  -0.0000225413  -0.0000002244  -0.0000257609   0.0000487405
        0.0000251922   0.0000047838  -0.0000359082  -0.0000209424  -0.0001472358
        0.0002252725  -0.0000022117   0.0000565872  -0.0008987080   0.0000101144
       -0.0000309193   0.0013229605  -0.0000135594   0.0001583734  -0.0006020299