$hessian                                                                        
        0.5188435648   0.0215840902   0.0028065459  -0.0694430383   0.0264787147
        0.0058384923   0.0010374989  -0.0144904378  -0.0011335076   0.0009002094
       -0.0043957209  -0.0016631898  -0.0118684672   0.0275186316   0.0049719209
       -0.0012592848   0.0000712316  -0.0001782797   0.0003785281   0.0009833830
        0.0003714932   0.0000585049  -0.0000044752   0.0000717043  -0.0001744112
        0.0001568251  -0.0000433060  -0.0002430187  -0.0001333426  -0.0000525727
        0.0001412751   0.0003320645  -0.0000625918  -0.0003918175  -0.0000157638
       -0.0001760429   0.0002692915   0.0000437387   0.0001683784   0.0000024439
        0.0000402518  -0.0000479384  -0.0000054183  -0.0000040670  -0.0000016544
        0.0000141667  -0.0000136481   0.0000529518   0.0000359028  -0.0000459683
       -0.0000015345  -0.0000801399  -0.0001802931   0.0000586644   0.0003837992
       -0.0000017271   0.0000252773   0.0000355946  -0.0000916994   0.0004995021
       -0.0001114758   0.0000496796  -0.0001661972   0.0000781355  -0.0001879698
       -0.0006168567   0.0002077026   0.0001286849   0.0003813718   0.0001379147
       -0.0001776069  -0.0001385182   0.0000214225   0.0001323026   0.0002287945
       -0.0001512887  -0.0001660257  -0.0002819712  -0.0002697359   0.0002180025
        0.0002481307   0.0000167439   0.0000071285  -0.0000467528   0.0000203617
        0.0000359308  -0.0000006217  -0.0000006330   0.0000000919   0.0000038328
       -0.0000169917  -0.0000161185   0.0000103620   0.0000083595  -0.0000161819
       -0.0000131154   0.0000264474  -0.0000213080  -0.0000243838  -0.0009497476
        0.0013715925   0.0001520439  -0.0043277831   0.0003184839  -0.0010196067
       -0.1088969781  -0.0782453607   0.0734437049  -0.2710648569   0.0318218415
       -0.0405793796  -0.0513687284  -0.0092288437  -0.0426385460  -0.0012534249
       -0.0029415282   0.0017882752   0.0007913926  -0.0012881739   0.0000487803
        0.0002165497  -0.0000225872  -0.0003140150   0.0005937514  -0.0009543242
       -0.0005580158   0.0001496310   0.0002848533   0.0001330992   0.0001338546
       -0.0006535241  -0.0014145730  -0.0021296154   0.0014470362  -0.0001576346
        0.0000401211   0.0000473792   0.0000215370   0.0000111516   0.0000000790
       -0.0000083112   0.0000068839  -0.0000265700  -0.0000091186   0.0000032799
        0.0000057270   0.0000014649   0.0000027472   0.0000084491  -0.0000037423
       -0.0000214854  -0.0000143699  -0.0000034362  -0.0000200636  -0.0000134377
       -0.0000164710   0.0000034325   0.0000081500   0.0000004050   0.0000040136
        0.0000034017  -0.0000030295  -0.0000302147  -0.0000063184   0.0000040926
       -0.0000003328   0.0000087125   0.0000076484   0.0000068348   0.0000085484
       -0.0000019097  -0.0000284120   0.0000070007  -0.0000241470   0.0000071061
        0.0000106229  -0.0000100582   0.0000096234   0.0000047993   0.0000087141
       -0.0000043120   0.0000170236   0.0000028250  -0.0000149661   0.0000091585
        0.0000091357   0.0000029325   0.0000074657  -0.0000087216  -0.0000107126
        0.0000053711   0.0000172650  -0.0000018009   0.0000032333  -0.0000027752
        0.0000057735   0.0000122065  -0.0000036612   0.0000022780   0.0000174538
        0.0000040034  -0.0000140518   0.0000017526   0.0000090781  -0.0004379095
        0.0001573432   0.0000069284  -0.0000181080  -0.0000110455   0.0000297635
        0.0215840902   0.4579027840  -0.0154388326   0.0248617983  -0.1741607659
       -0.0250467428  -0.0002114657  -0.0275216809  -0.0000127026   0.0013182997
       -0.0123970602  -0.0080703031   0.0078218006  -0.0093018363  -0.0010968273
       -0.0007908724  -0.0003468679   0.0000296994  -0.0000907973  -0.0000178405
       -0.0000592714  -0.0000216178  -0.0001828681  -0.0000740851   0.0000891610
        0.0001688008   0.0000301684  -0.0001433100  -0.0001871157   0.0000140076
        0.0000760411   0.0001438427  -0.0000307789  -0.0000952073  -0.0000582922
       -0.0000070393   0.0000544725   0.0000490002   0.0000221063  -0.0000249583
       -0.0000166161  -0.0000151774   0.0000050584  -0.0000088500   0.0000039278
        0.0000011119  -0.0000114636   0.0000019442   0.0000007282  -0.0000058507
        0.0000012315  -0.0000655589  -0.0000908628   0.0000265051   0.0001226715
        0.0000519528  -0.0000526664  -0.0000728551  -0.0000014551   0.0001570509
        0.0000233742   0.0000120721  -0.0000335641   0.0000242007  -0.0000178766
       -0.0000904331  -0.0000460745   0.0000344607   0.0000347660  -0.0000079602
       -0.0000262599  -0.0000376091   0.0000043865   0.0000062481   0.0000058694
        0.0000039615  -0.0000309319  -0.0000364080   0.0000071972   0.0000231096
        0.0000423282   0.0000095382  -0.0000048030  -0.0000284515   0.0000043713
        0.0000215887   0.0000029165   0.0000151878  -0.0000046884  -0.0000005214
       -0.0000047181  -0.0000034782   0.0000037036   0.0000001763  -0.0000014050
        0.0000029612   0.0000040802  -0.0000184533  -0.0000061378   0.0002588543
       -0.0004588436  -0.0001079493   0.0007840593   0.0004111114  -0.0001867504
       -0.0782462803  -0.1347292876   0.0869233108   0.0320793129  -0.0466411721
        0.0063832053  -0.0091044948  -0.0517085539  -0.0443745226  -0.0020784303
       -0.0030044937   0.0024259867   0.0010130021   0.0004132949  -0.0006032929
        0.0004849718   0.0005443425  -0.0008561768   0.0003267444   0.0002264488
        0.0008464112   0.0001807041   0.0006296981   0.0008941230  -0.0002644211
       -0.0000724111  -0.0017076333  -0.0000557987   0.0001817640  -0.0000576858
       -0.0000101087   0.0000286833   0.0000082287  -0.0000088778  -0.0000050988
       -0.0000018917   0.0000085895   0.0000055257  -0.0000092495   0.0000023726
        0.0000037836  -0.0000002235  -0.0000034470   0.0000034992   0.0000111512
        0.0000044509   0.0000060973   0.0000086949   0.0000019592   0.0000080506
        0.0000016380   0.0000035707  -0.0000002175   0.0000003761  -0.0000007787
        0.0000064030  -0.0000003795   0.0000061861  -0.0000007596   0.0000012503
        0.0000011622  -0.0000059474   0.0000015807   0.0000070815   0.0000020434
        0.0000018638   0.0000088808   0.0000034950   0.0000019267   0.0000121216
       -0.0000037621  -0.0000044499   0.0000055166   0.0000150727   0.0000090241
        0.0000016727   0.0000016957  -0.0000058723   0.0000080941   0.0000052539
        0.0000109890  -0.0000082521  -0.0000018676  -0.0000066777   0.0000063613
        0.0000141018   0.0000024745   0.0000005999   0.0000085258  -0.0000007503
       -0.0000001711   0.0000026855  -0.0000108032   0.0000006296   0.0000017833
       -0.0000026308  -0.0000056074   0.0000069128   0.0000035877   0.0000628943
        0.0000065780   0.0000813949   0.0000605640   0.0000990273   0.0000780879
        0.0028065459  -0.0154388326   0.5274210047   0.0056906641  -0.0247734890
       -0.0678020159  -0.0007363966   0.0158643005   0.0012957802   0.0032845235
       -0.0279627316  -0.0141676021  -0.0006987544   0.0030199428   0.0011431674
        0.0000688112   0.0001159017  -0.0012418490  -0.0001640404   0.0002473908
        0.0000983027   0.0001901220  -0.0001824041   0.0000218264  -0.0001668915
        0.0001258677   0.0000531630   0.0000899192  -0.0000702754   0.0000456420
        0.0000076533   0.0000307428  -0.0000215904   0.0000782958  -0.0000385555
        0.0000705410  -0.0001152846   0.0000559410  -0.0000952936   0.0000382175
        0.0000053022   0.0000048812   0.0000005425  -0.0000010681  -0.0000104156
        0.0000050478   0.0000024853  -0.0000138830   0.0000013329   0.0000089956
       -0.0000050797  -0.0000389072  -0.0000416901   0.0000257084  -0.0000601630
        0.0000905814  -0.0000786646   0.0000233757  -0.0000284156   0.0000321492
       -0.0000141080   0.0000108561   0.0000059297   0.0000120369  -0.0000451215
       -0.0001240480   0.0000602793   0.0000199407   0.0001038881   0.0000338248
       -0.0000364885  -0.0000427178   0.0000055279   0.0000363387   0.0000599160
       -0.0000389857  -0.0000352666  -0.0000822509  -0.0000829926   0.0000405217
        0.0000617667  -0.0000060309   0.0000038820  -0.0000086910   0.0000067146
       -0.0000084702  -0.0000056299   0.0000102002  -0.0000002869   0.0000023491
        0.0000063359  -0.0000109087  -0.0000071001   0.0000043715  -0.0000044698
       -0.0000115457   0.0000091196   0.0000006645   0.0000016444  -0.0002918329
        0.0001693929   0.0000955652  -0.0007934134  -0.0002894541   0.0011394099
        0.0735126944   0.0869165563  -0.1260646226  -0.0405109310   0.0063192805
       -0.0512842111  -0.0425525392  -0.0443933335  -0.2662368654   0.0016836548
        0.0029760159  -0.0014602314  -0.0004616995   0.0002021967   0.0002486976
        0.0000048402   0.0009511614   0.0007686948   0.0009284357  -0.0007236311
        0.0005581022  -0.0000682457  -0.0010560539   0.0008245320  -0.0009872452
       -0.0025288483  -0.0057376462  -0.0008035001   0.0002521949   0.0005519651
        0.0000405073  -0.0000262538   0.0000954025   0.0000149912  -0.0000095033
        0.0000008523   0.0000054983   0.0000057238   0.0000151756   0.0000014540
       -0.0000024404   0.0000017248   0.0000001337  -0.0000014845   0.0000082203
       -0.0000007047  -0.0000020100   0.0000036381  -0.0000003030   0.0000023017
        0.0000040095   0.0000033311  -0.0000000470   0.0000006136  -0.0000028564
        0.0000028749   0.0000037335   0.0000039059  -0.0000023711  -0.0000013549
        0.0000009130  -0.0000037153   0.0000012929   0.0000004071   0.0000032906
        0.0000009302  -0.0000001841   0.0000026083  -0.0000045184  -0.0000072716
        0.0000050104  -0.0000014917   0.0000000498   0.0000053028  -0.0000013978
        0.0000010030  -0.0000022946  -0.0000051276   0.0000078843   0.0000012644
        0.0000052057   0.0000039383  -0.0000001867   0.0000026068  -0.0000095220
        0.0000073684   0.0000073358  -0.0000108187   0.0000182542   0.0000069702
       -0.0000049639   0.0000067601   0.0000089379  -0.0000015603   0.0000020845
        0.0000028919  -0.0000078909   0.0000087610   0.0000059224  -0.0000317988
        0.0001026633  -0.0001627352   0.0000227320   0.0000793794  -0.0001315118
       -0.0694430383   0.0248617983   0.0056906641   0.4653565341  -0.0187606254
       -0.0013408101  -0.0924531404  -0.0316154648   0.0350113198  -0.0629106890
       -0.0012046702  -0.0197223523  -0.1688197574   0.0214483665  -0.0173790968
       -0.0275053551  -0.0038244851  -0.0076334648   0.0031921724  -0.0055078875
       -0.0019782308  -0.0052360240   0.0016304637  -0.0007417802   0.0019285693
       -0.0004907289   0.0013614578  -0.0028057366   0.0016754434  -0.0026368790
       -0.0003062601  -0.0005607780  -0.0002434602  -0.0023137163   0.0015742330
       -0.0017957581   0.0027604138  -0.0011056338   0.0021202942  -0.0004647730
       -0.0000495046  -0.0003545274  -0.0000184573   0.0000396621   0.0000083007
       -0.0000152682  -0.0000704024   0.0002663756   0.0001093239  -0.0001922285
        0.0000169908   0.0007784760   0.0008369496  -0.0000623962   0.0021651522
       -0.0028055340   0.0023610860   0.0002775761   0.0008126374  -0.0003453801
       -0.0001606746  -0.0000514274  -0.0001067804  -0.0002454977  -0.0001490514
        0.0002717553  -0.0000895343   0.0000212639  -0.0003435064  -0.0002186245
        0.0000827516   0.0001858539   0.0000140434  -0.0001235291  -0.0001818621
        0.0000206629   0.0001717701   0.0003399919   0.0005554906   0.0000029844
       -0.0002006434  -0.0001717600  -0.0001944884   0.0002224801   0.0000074288
       -0.0000176240   0.0000030274  -0.0000893415  -0.0001130803  -0.0000836577
       -0.0000008796  -0.0000323024   0.0000087623  -0.0000351090  -0.0000018541
       -0.0000151203   0.0000382110   0.0000451323  -0.0000433424   0.0059883960
        0.0022366223   0.0006096529  -0.0186899428   0.0170905416   0.0008240759
        0.0033063976  -0.0147599820  -0.0028895621  -0.0112814060   0.0288886787
        0.0054273115   0.0012586617  -0.0049401218  -0.0007530208   0.0017462484
        0.0007672227  -0.0023056420  -0.0219760717  -0.0172444095   0.0178057945
        0.0026600250   0.0031377195  -0.0015019836  -0.0106816441  -0.0037153893
       -0.0284579541   0.0031760061   0.0020066970   0.0139966347   0.0007754517
        0.0003928567   0.0039170486   0.0005630888   0.0010028617   0.0005794469
       -0.0004251228   0.0001188728   0.0001956215  -0.0000068209   0.0000065100
        0.0000035805  -0.0000447813  -0.0000683610  -0.0000462809  -0.0000192302
        0.0000113822   0.0000268041   0.0000151218   0.0000139683  -0.0001151941
       -0.0000591073  -0.0000187418  -0.0000707882  -0.0000387132  -0.0000887366
       -0.0000900727  -0.0000334178   0.0000241747   0.0000032272  -0.0000009522
       -0.0000590401   0.0000042936  -0.0001170934   0.0000282611   0.0000308840
       -0.0000292027   0.0001170627   0.0000287313  -0.0000507572   0.0000088536
       -0.0000183123  -0.0001067640  -0.0000116336   0.0000657764  -0.0000892570
        0.0000991376  -0.0000239439   0.0000099470  -0.0000830578   0.0000849968
       -0.0000005773   0.0000965497   0.0000604348  -0.0000812829  -0.0000149194
       -0.0000232681   0.0000670328   0.0000060946   0.0000071396  -0.0000214970
       -0.0000720681   0.0000307172   0.0000559632  -0.0000779658  -0.0000388078
        0.0001214176   0.0000048185   0.0000024837   0.0000369596   0.0000800847
       -0.0000122060   0.0000688587  -0.0000867544  -0.0000384361  -0.0000682523
       -0.0001197498  -0.0000980414   0.0000719002  -0.0011101954   0.0001195473
        0.0264787147  -0.1741607659  -0.0247734890  -0.0187606254   0.4826430954
        0.0069699017  -0.0394413145  -0.1019480963   0.0400082170  -0.0036202133
       -0.0643497039  -0.0200294498   0.0316844621  -0.0702080550   0.0012006732
       -0.0163316387   0.0047838767  -0.0030535286  -0.0013964537  -0.0030473554
       -0.0029208259  -0.0011976437   0.0000437152  -0.0003536058   0.0012403620
        0.0004461645   0.0008171988  -0.0017944198  -0.0006910746  -0.0006828826
        0.0003055529   0.0008901916  -0.0003145487  -0.0013050992   0.0001506014
       -0.0006031110   0.0011130154   0.0001930498   0.0006091995  -0.0002636302
       -0.0000127500  -0.0002642587  -0.0000480567  -0.0000212856   0.0000065838
       -0.0000408044  -0.0000869564   0.0001544235   0.0000500646  -0.0001467134
        0.0000120760  -0.0002038988  -0.0005248769   0.0002712136   0.0014003815
       -0.0005101507   0.0004094901   0.0000107190   0.0000718829   0.0007477188
       -0.0001346869   0.0000367148  -0.0002750439   0.0000575971  -0.0002093691
       -0.0006507241   0.0000876339   0.0001769659   0.0003076038   0.0000372034
       -0.0001743331  -0.0001311684   0.0000388758   0.0000675837   0.0001316325
       -0.0000842747  -0.0001516711  -0.0001905109  -0.0000488535   0.0002236782
        0.0002543326  -0.0000438660  -0.0000663046  -0.0000399132   0.0000554202
        0.0001023299  -0.0000151654  -0.0000006068  -0.0000093962  -0.0000130134
       -0.0000146873   0.0000022220   0.0000043768  -0.0000025044  -0.0000135470
       -0.0000154685   0.0000639091  -0.0000166351  -0.0000382887   0.0028484320
       -0.0041233231  -0.0019041564   0.0240705890  -0.0059437498   0.0034122088
        0.0024900262  -0.0225890490  -0.0016138442   0.0053716376  -0.0081876485
       -0.0010947539   0.0011355890  -0.0087121463  -0.0050113707  -0.0150740444
       -0.0215201539   0.0158990846   0.0008412414   0.0019275167  -0.0021413835
        0.0014251742   0.0015604130  -0.0003181039   0.0016706790   0.0009680366
        0.0053017123   0.0032182244   0.0017888821   0.0160242421  -0.0058849892
       -0.0080522746  -0.0269346050  -0.0003741806  -0.0004276478   0.0002691119
       -0.0010287385   0.0000043420   0.0000143288   0.0000295677  -0.0000142424
       -0.0000124275   0.0000220556  -0.0000311671  -0.0000194467   0.0000169854
        0.0000205285  -0.0000003734   0.0000157504   0.0000217135  -0.0000110537
       -0.0000280000  -0.0000119179  -0.0000101161  -0.0000288820  -0.0000257267
       -0.0000550208   0.0000165865   0.0000106009   0.0000168613   0.0000132648
        0.0000047000  -0.0000133571  -0.0000580880   0.0000034895   0.0000177886
        0.0000006731   0.0000249765   0.0000116943   0.0000316782   0.0000013668
        0.0000009155  -0.0000424093   0.0000041088   0.0000156446  -0.0000371694
        0.0000357560  -0.0000338210   0.0000191593   0.0000159350   0.0000447731
       -0.0000062704   0.0000442080   0.0000153449  -0.0000399842   0.0000132358
        0.0000304665  -0.0000104009  -0.0000001347  -0.0000301590  -0.0000308832
       -0.0000150092   0.0000378573   0.0000151479  -0.0000035626  -0.0000180013
        0.0000216816   0.0000040054  -0.0000047182   0.0000129268   0.0000223004
       -0.0000017336  -0.0000221939  -0.0000121396   0.0000119110   0.0012975961
       -0.0004906049  -0.0000090997   0.0001909342   0.0002013510   0.0005739550
        0.0058384923  -0.0250467428  -0.0678020159  -0.0013408101   0.0069699017
        0.4412421546   0.0428515285   0.0397665888  -0.0981012593  -0.0309706421
       -0.0179417001  -0.1630197231  -0.0142047335  -0.0006181200  -0.0538121040
       -0.0118858569  -0.0018257788   0.0027207190   0.0001058208  -0.0034210040
        0.0044393554  -0.0023478305   0.0001863021  -0.0006325328   0.0015937101
        0.0004969444  -0.0003358816  -0.0015705672   0.0004689578  -0.0008971363
       -0.0001048998  -0.0001855505  -0.0001975382  -0.0014566262   0.0005811198
       -0.0012836310   0.0018124079  -0.0008000630   0.0013401046  -0.0003846896
        0.0000862263  -0.0000435804  -0.0000373055   0.0000026904  -0.0000123896
        0.0000392578  -0.0000397620   0.0001542461   0.0000400006  -0.0001896193
       -0.0000132261   0.0007156420   0.0004650598  -0.0001724157   0.0008545708
       -0.0011173296   0.0011938071   0.0000954943   0.0003817898   0.0003925156
       -0.0001384377  -0.0000144472  -0.0002042947  -0.0000890820  -0.0002162304
       -0.0004129981   0.0001280190   0.0001318247   0.0001053842  -0.0000845867
       -0.0000980781  -0.0000176003   0.0000497214   0.0000054830   0.0000493965
       -0.0000834656  -0.0000492926  -0.0000382829   0.0001631037   0.0001639437
        0.0001218202  -0.0001112786  -0.0001198759   0.0000308867   0.0000498143
        0.0000452200  -0.0000092857  -0.0000094297  -0.0000467082  -0.0000249689
        0.0000236281  -0.0000064374   0.0000071959  -0.0000015734  -0.0000085736
       -0.0000192939   0.0000588219   0.0000282075  -0.0000321702   0.0015731943
       -0.0013564372   0.0040828357   0.0022796082   0.0016770389   0.0009056412
       -0.0034193089   0.0161174461   0.0024561907  -0.0009093825   0.0039576092
        0.0006562053   0.0063306222  -0.0276175154  -0.0093974591  -0.0029762639
       -0.0019511008   0.0027261645   0.0014087394   0.0001253969   0.0005187070
        0.0154713828   0.0163217242  -0.0212179549  -0.0057040168  -0.0014460551
       -0.0099059221  -0.0028146075  -0.0005632925  -0.0219630024  -0.0015202908
       -0.0047117418  -0.0098329250   0.0005977508   0.0007113561  -0.0015691985
       -0.0003636404   0.0003583324  -0.0008205972   0.0000612667   0.0000752814
        0.0001232313   0.0000020139  -0.0000495970  -0.0000481125   0.0000044539
        0.0000128247   0.0000051585   0.0000174712   0.0000203133  -0.0000350428
       -0.0000354597  -0.0000158732  -0.0000229498  -0.0000244547  -0.0000385265
       -0.0000367262  -0.0000019180   0.0000141591   0.0000076542   0.0000074228
       -0.0000186519  -0.0000081007  -0.0000850989   0.0000267525   0.0000258595
       -0.0000084496   0.0000469586   0.0000135211  -0.0000025295   0.0000113161
       -0.0000049793  -0.0000160691  -0.0000094440  -0.0000376399  -0.0001071370
        0.0000976034  -0.0000124535   0.0000140413  -0.0000186716   0.0000550784
       -0.0000030173   0.0000674798   0.0000169197  -0.0000459267   0.0000036644
        0.0000238251   0.0000183780  -0.0000030907  -0.0000104513  -0.0000396138
       -0.0000300392   0.0000324549   0.0000174517  -0.0000305820  -0.0000338914
        0.0000403842   0.0000098250  -0.0000006126   0.0000112075   0.0000390134
       -0.0000018770  -0.0000059111  -0.0000330763   0.0000007800   0.0002734974
       -0.0001661257  -0.0000182131   0.0003559916   0.0003307792  -0.0013873755
        0.0010374989  -0.0002114657  -0.0007363966  -0.0924531404  -0.0394413145
        0.0428515285   0.4935049409  -0.0287250693   0.0293068569   0.0024021435
        0.0008420084  -0.0007603989  -0.0286142488  -0.0147349864   0.0133749544
       -0.0009206962   0.0021780148   0.0008390684  -0.0017331637   0.0006443212
       -0.0014272591   0.0006398212  -0.0002767348   0.0000016746   0.0001058760
        0.0001371869   0.0000517660  -0.0000872686  -0.0008529966   0.0004213022
        0.0003306629   0.0007582744  -0.0000848295  -0.0001125498  -0.0004209608
        0.0002277830  -0.0002227326   0.0005020472  -0.0002992660   0.0000269523
        0.0000134009  -0.0000524230  -0.0000102490  -0.0000033151  -0.0000042078
       -0.0000118856  -0.0000155358   0.0000305755   0.0000113308  -0.0000251519
        0.0000016401  -0.0004631498  -0.0006365402   0.0001923200   0.0002309974
        0.0006085182  -0.0005204692  -0.0000432701  -0.0002341792   0.0005527732
       -0.0000753470   0.0000404207  -0.0001415410   0.0001319549  -0.0001177365
       -0.0005998484   0.0001828768   0.0001170250   0.0004014957   0.0001499378
       -0.0001721125  -0.0001606685   0.0000297309   0.0001249843   0.0002085316
       -0.0001073966  -0.0001793621  -0.0002902898  -0.0003233529   0.0001960531
        0.0002661166   0.0000343579   0.0000467040  -0.0000671656   0.0000252475
        0.0000199950  -0.0000026681  -0.0000130735  -0.0000130758  -0.0000027718
       -0.0000091801  -0.0000135809   0.0000210475   0.0000278196  -0.0000253705
       -0.0000204859   0.0000279837  -0.0000199360  -0.0000133411  -0.0003808604
       -0.0006731482  -0.0007830931   0.0000793061  -0.0007702565  -0.0000009096
        0.0003332242   0.0011639566  -0.0000856197   0.0007614178   0.0011199300
       -0.0003442389   0.0001335631   0.0002406443   0.0000284452  -0.0480947700
        0.0354624925   0.0076424027  -0.2674783083   0.0519525134  -0.0292398472
       -0.0591852142  -0.0085698458  -0.0594917271   0.0008006745   0.0003479778
       -0.0005725358   0.0004730162   0.0001329246  -0.0013163882   0.0001532184
       -0.0000379809  -0.0002564751  -0.0001175930  -0.0000308434   0.0003362109
       -0.0002846882   0.0000250271   0.0000042628   0.0000096236  -0.0000233771
       -0.0000283675  -0.0000040631  -0.0000031321  -0.0000141801   0.0000004720
        0.0000054382   0.0000021241   0.0000041885   0.0000093126  -0.0000232417
       -0.0000247095  -0.0000088979  -0.0000215509  -0.0000184706  -0.0000261537
       -0.0000152403  -0.0000033225   0.0000136384   0.0000040183   0.0000026971
       -0.0000088188   0.0000094685  -0.0000313891  -0.0000060993   0.0000021818
       -0.0000009227   0.0000301075   0.0000055963  -0.0000069945   0.0000104600
       -0.0000046778  -0.0000188484  -0.0000089653  -0.0000251334   0.0000165815
       -0.0000013387  -0.0000062937   0.0000184977  -0.0000097599   0.0000247947
       -0.0000073820   0.0000213707   0.0000345772  -0.0000398410   0.0000158116
       -0.0000241828   0.0000072506   0.0000209185  -0.0000079588  -0.0000320294
       -0.0000285954   0.0000222892   0.0000014138  -0.0000216790  -0.0000134048
        0.0000264650   0.0000089992  -0.0000006141   0.0000071534   0.0000340173
        0.0000022549  -0.0000146340  -0.0000222502  -0.0000002799  -0.0000233654
       -0.0000890198   0.0001670873  -0.0007607851  -0.0003849075   0.0004248421
       -0.0144904378  -0.0275216809   0.0158643005  -0.0316154648  -0.1019480963
        0.0397665888  -0.0287250693   0.5016792435   0.0298520667  -0.0000253189
        0.0004196947   0.0006067013  -0.0063889069   0.0038250160  -0.0016526472
        0.0017278548   0.0005173472   0.0010988805  -0.0008147464   0.0009698295
        0.0002105481   0.0011498794  -0.0004035894   0.0001827947  -0.0008689295
       -0.0002086214  -0.0004677094   0.0013397119   0.0001853328   0.0006770677
       -0.0001080936  -0.0004682679   0.0002463021   0.0009868187  -0.0002618413
        0.0005502642  -0.0009561326  -0.0000379251  -0.0005603976   0.0002156972
       -0.0000078121   0.0002048258   0.0000469420   0.0000083581  -0.0000036118
        0.0000329265   0.0000613101  -0.0001310835  -0.0000404377   0.0001181492
       -0.0000087407  -0.0000202558   0.0002403283  -0.0001666706  -0.0009918543
        0.0005932473  -0.0005021413  -0.0001159557  -0.0001291027  -0.0004388038
        0.0001479072  -0.0000081714   0.0002082317   0.0000025006   0.0001354455
        0.0003234651  -0.0000253578  -0.0001047733  -0.0001192265   0.0000111471
        0.0000921254   0.0000687665  -0.0000277931  -0.0000184344  -0.0000517013
        0.0000344235   0.0000668203   0.0000739470  -0.0000666150  -0.0001146768
       -0.0001247130   0.0000676723   0.0000544805  -0.0000004578  -0.0000458231
       -0.0000704886   0.0000180015  -0.0000100189  -0.0000046806   0.0000184586
       -0.0000211125  -0.0000199531   0.0000006569  -0.0000021530   0.0000175918
        0.0000045794  -0.0000522422  -0.0000101669   0.0000286192  -0.0015105663
       -0.0001514234  -0.0004105559   0.0016731400  -0.0024879469  -0.0000760966
        0.0004668496  -0.0066756177  -0.0003057383  -0.0011927938   0.0005657015
        0.0004319293  -0.0003559643   0.0007450240   0.0010171851   0.0354397273
       -0.2673915901  -0.0544339333   0.0522694220  -0.0542373934   0.0056545316
       -0.0085983815  -0.0492618228  -0.0355928743  -0.0000507591   0.0000065722
       -0.0001998385  -0.0000829160   0.0003935654  -0.0007135613   0.0003255423
        0.0007985149  -0.0008768861   0.0001482180   0.0000209030   0.0001479228
        0.0000105844   0.0000468858  -0.0001241096  -0.0000298185   0.0000204793
       -0.0000178877  -0.0000159382   0.0000309198   0.0000058101  -0.0000118211
       -0.0000134008  -0.0000010651  -0.0000141386  -0.0000151012   0.0000085944
        0.0000210065   0.0000164358   0.0000065618   0.0000203194   0.0000236006
        0.0000453228  -0.0000125320  -0.0000050158  -0.0000149111  -0.0000109710
        0.0000025041   0.0000133557   0.0000459484  -0.0000078679  -0.0000147794
        0.0000015075  -0.0000180093  -0.0000093118  -0.0000252019   0.0000045698
        0.0000001351   0.0000382028  -0.0000006611  -0.0000166737   0.0000237051
       -0.0000219222   0.0000216437  -0.0000083855  -0.0000090972  -0.0000342322
        0.0000081313  -0.0000381186  -0.0000113908   0.0000353617  -0.0000084880
       -0.0000234564   0.0000149327   0.0000061036   0.0000209966   0.0000316764
        0.0000244375  -0.0000241527  -0.0000144670   0.0000151394   0.0000100560
       -0.0000057095   0.0000204620  -0.0000065841  -0.0000026814  -0.0000097831
       -0.0000000634   0.0000280784   0.0000126926  -0.0000143284  -0.0000066896
        0.0000320619   0.0000609717   0.0009966197  -0.0000793516  -0.0002997479
       -0.0011335076  -0.0000127026   0.0012957802   0.0350113198   0.0400082170
       -0.0981012593   0.0293068569   0.0298520667   0.4906928195   0.0143455235
        0.0166366721  -0.0269909729   0.0040949385  -0.0011031860   0.0013282910
       -0.0012117535   0.0000163542  -0.0014250591   0.0003155873  -0.0004136937
       -0.0002025757  -0.0002283717   0.0000904845  -0.0000249316   0.0001933930
        0.0000723471   0.0001983009  -0.0003284561  -0.0000663361  -0.0001868365
        0.0000254699   0.0001552657  -0.0000831733  -0.0002146268   0.0000572204
       -0.0000881128   0.0001978453   0.0000725611   0.0000865743  -0.0000544379
       -0.0000072112  -0.0000739672  -0.0000156565  -0.0000049532  -0.0000017305
       -0.0000125810  -0.0000205607   0.0000278577   0.0000104175  -0.0000270084
        0.0000001634  -0.0000255246  -0.0001058842   0.0000684660   0.0002494551
       -0.0001478095   0.0001091439   0.0001052685   0.0000653376   0.0000664540
       -0.0000615215  -0.0000018004  -0.0000407025  -0.0000186573  -0.0000227626
       -0.0000113473  -0.0000453069   0.0000151425  -0.0000170025  -0.0000287806
       -0.0000147667  -0.0000261646   0.0000011742  -0.0000110743  -0.0000149493
        0.0000139243  -0.0000102701  -0.0000036356   0.0000658671   0.0000066532
        0.0000191021  -0.0000384420  -0.0000283636  -0.0000016733   0.0000207592
        0.0000076187  -0.0000171333   0.0000233945   0.0000066925   0.0000084094
        0.0000290182  -0.0000056876  -0.0000107161   0.0000064260  -0.0000107112
       -0.0000227686   0.0000223982   0.0000069633  -0.0000084828   0.0004232289
        0.0001816962   0.0001355837  -0.0008259124   0.0005210801   0.0004787794
        0.0001107157  -0.0012320919   0.0004277391   0.0000024889  -0.0002415647
        0.0000933400  -0.0001716570  -0.0009286175   0.0008113573   0.0076999616
       -0.0546964970  -0.0559268359  -0.0296995017   0.0055082708  -0.0468439521
       -0.0592481101  -0.0353843255  -0.2613471218   0.0009892199   0.0002892076
        0.0009911779  -0.0006334356  -0.0000696145  -0.0065547813   0.0004551080
        0.0009592549   0.0010703661   0.0000417732  -0.0000212296   0.0000496625
       -0.0000343790  -0.0000725634   0.0001609012   0.0000081585  -0.0000136778
        0.0000022955   0.0000063063  -0.0000050936   0.0000065804   0.0000038689
        0.0000031144   0.0000026826   0.0000042946   0.0000024236   0.0000064995
       -0.0000022874  -0.0000029305   0.0000043240  -0.0000043003  -0.0000011109
       -0.0000105063   0.0000074469  -0.0000019048   0.0000077742   0.0000014523
        0.0000035818  -0.0000020708  -0.0000067079   0.0000007833   0.0000039782