 Entering Gaussian System
 *********************************************
 Gaussian 98:
 frequency output generated by the xtb code
 *********************************************
                         Standard orientation:
 --------------------------------------------------------------------
  Center     Atomic     Atomic              Coordinates (Angstroms)
  Number     Number      Type              X           Y           Z
 --------------------------------------------------------------------
    1          7             0       -1.936709   -8.405452   -0.259799
    2          6             0       -1.404155   -7.392679   -0.185010
    3          6             0       -0.704096   -6.165884   -0.088645
    4          7             0       -1.380491   -5.031530   -0.170563
    5          6             0       -0.705910   -3.884554   -0.082922
    6          6             0       -1.424281   -2.642843   -0.153539
    7          6             0       -2.819193   -2.654434   -0.292175
    8          6             0       -3.529589   -1.482126   -0.349878
    9          6             0       -2.849176   -0.261367   -0.264929
   10          7             0       -3.552408    0.969385   -0.298267
   11          6             0       -4.204643    1.343316   -1.476231
   12          6             0       -4.242276    0.479721   -2.573185
   13          6             0       -4.899302    0.819732   -3.742191
   14          6             0       -5.541535    2.038783   -3.855935
   15          6             0       -5.479042    2.927017   -2.797676
   16          6             0       -4.805941    2.596207   -1.631859
   17         16             0       -4.671213    3.882767   -0.420564
   18          6             0       -4.176927    2.956148    1.004446
   19          6             0       -4.292081    3.593623    2.230343
   20          6             0       -3.911632    2.956790    3.397513
   21          6             0       -3.438607    1.658964    3.328963
   22          6             0       -3.339523    1.014828    2.109072
   23          6             0       -3.683280    1.652676    0.914377
   24          6             0       -1.471769   -0.238812   -0.124572
   25          6             0       -0.724078   -1.417909   -0.068782
   26          6             0        0.724445   -1.417966    0.066464
   27          6             0        1.472150   -0.238899    0.122708
   28          6             0        2.849659   -0.261524    0.261977
   29          7             0        3.552514    0.969395    0.297112
   30          6             0        4.204875    1.341961    1.475465
   31          6             0        4.246511    0.475566    2.570045
   32          6             0        4.903453    0.814747    3.739339
   33          6             0        5.541677    2.035651    3.855716
   34          6             0        5.475539    2.926334    2.799733
   35          6             0        4.802484    2.596297    1.633682
   36         16             0        4.662704    3.885252    0.425466
   37          6             0        4.173528    2.959557   -1.001918
   38          6             0        4.288920    3.598993   -2.226756
   39          6             0        3.911293    2.962923   -3.395268
   40          6             0        3.440707    1.664079   -3.329117
   41          6             0        3.341604    1.017942   -2.110284
   42          6             0        3.682844    1.654809   -0.914366
   43          6             0        3.530257   -1.482355    0.344376
   44          6             0        2.819774   -2.654634    0.286865
   45          6             0        1.424646   -2.642952    0.150451
   46          6             0        0.705945   -3.884617    0.082057
   47          7             0        1.380068   -5.031618    0.172694
   48          6             0        0.703163   -6.165927    0.094147
   49          6             0        1.402522   -7.392801    0.194465
   50          7             0        1.934237   -8.405745    0.272772
   51          1             0       -3.317920   -3.609672   -0.339671
   52          1             0       -4.605115   -1.491806   -0.438911
   53          1             0       -3.737411   -0.471333   -2.522353
   54          1             0       -4.902867    0.121128   -4.564900
   55          1             0       -6.066554    2.307515   -4.758859
   56          1             0       -5.937661    3.901964   -2.867504
   57          1             0       -4.676898    4.602122    2.251404
   58          1             0       -3.993924    3.467024    4.344109
   59          1             0       -3.151770    1.133565    4.227060
   60          1             0       -2.990360   -0.005342    2.084457
   61          1             0       -0.991966    0.723593   -0.054257
   62          1             0        0.992247    0.723558    0.053795
   63          1             0        3.744872   -0.477077    2.517157
   64          1             0        4.910119    0.114032    4.560236
   65          1             0        6.066448    2.303832    4.758948
   66          1             0        5.931083    3.902567    2.871651
   67          1             0        4.671498    4.608378   -2.245940
   68          1             0        3.993704    3.474631   -4.341060
   69          1             0        3.155858    1.139466   -4.228305
   70          1             0        2.994441   -0.002963   -2.087401
   71          1             0        4.605942   -1.492109    0.431475
   72          1             0        3.318571   -3.609904    0.333042
 --------------------------------------------------------------------
     1 basis functions        1 primitive gaussians
     1 alpha electrons        1 beta electrons
 
 Harmonic frequencies (cm**-1), IR intensities (km*mol⁻¹),
 Raman scattering activities (A**4/amu), Raman depolarization ratios,
 reduced masses (AMU), force constants (mDyne/A) and normal coordinates:
                      1                      2                      3
                        a                      a                      a 
 Frequencies --     8.3072                 9.9052                13.2545
 Red. masses --    17.6566                14.9064                17.7542
 Frc consts  --     0.0000                 0.0000                 0.0000
 IR Inten    --     0.3130                 2.1318                 0.0971
 Raman Activ --     0.0000                 0.0000                 0.0000
 Depolar     --     0.0000                 0.0000                 0.0000
 Atom AN      X      Y      Z        X      Y      Z        X      Y      Z
   1   7     0.01  -0.03   0.07     0.07  -0.01  -0.08    -0.03   0.03   0.15
   2   6     0.01  -0.02   0.04     0.05  -0.01  -0.06    -0.02   0.03   0.10
   3   6     0.01  -0.02   0.02     0.03   0.00  -0.04    -0.01   0.02   0.04
   4   7     0.00  -0.03   0.04     0.02  -0.01  -0.05    -0.01   0.03   0.09
   5   6     0.00  -0.02   0.01     0.01   0.00  -0.03    -0.01   0.02   0.03
   6   6    -0.00  -0.02   0.02    -0.00  -0.01  -0.03    -0.01   0.03   0.05
   7   6    -0.01  -0.03   0.05    -0.00  -0.02  -0.02    -0.01   0.02   0.09
   8   6    -0.01  -0.03   0.05    -0.02  -0.03  -0.01    -0.01   0.02   0.09
   9   6    -0.01  -0.03  -0.00    -0.03  -0.02  -0.01    -0.00   0.02   0.04
  10   7    -0.00  -0.03  -0.03    -0.04  -0.03   0.01    -0.02   0.02   0.01
  11   6    -0.05  -0.05  -0.01    -0.08  -0.02   0.03    -0.04  -0.05  -0.00
  12   6    -0.21  -0.12   0.05    -0.18  -0.04   0.05     0.04  -0.07   0.01
  13   6    -0.27  -0.14   0.08    -0.23  -0.03   0.08     0.02  -0.14   0.00
  14   6    -0.17  -0.09   0.05    -0.19  -0.00   0.10    -0.07  -0.19  -0.03
  15   6    -0.02  -0.03  -0.01    -0.09   0.01   0.08    -0.15  -0.17  -0.04
  16   6     0.04  -0.01  -0.04    -0.03   0.00   0.04    -0.13  -0.09  -0.03
  17  16     0.43   0.09  -0.22     0.17   0.03   0.02    -0.41  -0.10  -0.08
  18   6     0.17   0.07  -0.09     0.06   0.00   0.01    -0.10   0.03  -0.05
  19   6     0.22   0.12  -0.12     0.09   0.00   0.02    -0.09   0.07  -0.07
  20   6     0.17   0.13  -0.10     0.07  -0.02   0.01     0.01   0.14  -0.06
  21   6     0.07   0.09  -0.05     0.02  -0.04   0.01     0.10   0.17  -0.03
  22   6     0.02   0.04  -0.03    -0.01  -0.04   0.00     0.09   0.13  -0.00
  23   6     0.06   0.03  -0.05     0.01  -0.02   0.01    -0.01   0.06  -0.02
  24   6    -0.01  -0.02  -0.02    -0.03  -0.01  -0.02    -0.00   0.03  -0.00
  25   6    -0.01  -0.02  -0.00    -0.02   0.00  -0.02    -0.00   0.03   0.01
  26   6    -0.00  -0.02  -0.01    -0.02   0.01  -0.02     0.00   0.02  -0.02
  27   6    -0.01  -0.01   0.01    -0.03   0.02  -0.02     0.00   0.02  -0.01
  28   6    -0.01  -0.01  -0.00    -0.03   0.03  -0.00     0.01   0.02  -0.04
  29   7    -0.02  -0.00   0.03    -0.03   0.04  -0.01     0.02   0.02  -0.00
  30   6    -0.01  -0.03   0.02    -0.10   0.05   0.02     0.02  -0.04   0.01
  31   6     0.04  -0.06  -0.01    -0.26   0.11   0.07    -0.04  -0.06  -0.01
  32   6     0.06  -0.08  -0.01    -0.33   0.12   0.11    -0.04  -0.13   0.01
  33   6     0.02  -0.07   0.02    -0.25   0.07   0.10     0.03  -0.17   0.04
  34   6    -0.03  -0.03   0.05    -0.08   0.02   0.05     0.10  -0.14   0.06
  35   6    -0.05  -0.01   0.06    -0.01   0.01   0.00     0.10  -0.08   0.04
  36  16    -0.19   0.04   0.18     0.37  -0.07  -0.13     0.33  -0.08   0.10
  37   6    -0.09   0.06   0.08     0.16  -0.05  -0.05     0.11   0.02   0.05
  38   6    -0.11   0.09   0.10     0.22  -0.09  -0.07     0.12   0.05   0.07
  39   6    -0.10   0.12   0.08     0.20  -0.09  -0.06     0.07   0.11   0.05
  40   6    -0.06   0.10   0.04     0.10  -0.05  -0.03    -0.00   0.13   0.02
  41   6    -0.04   0.06   0.03     0.02  -0.01  -0.02    -0.02   0.10   0.00
  42   6    -0.05   0.04   0.04     0.05  -0.01  -0.03     0.04   0.04   0.02
  43   6    -0.00  -0.01  -0.04    -0.02   0.04   0.03     0.01   0.02  -0.09
  44   6     0.00  -0.01  -0.05    -0.01   0.03   0.03     0.01   0.02  -0.10
  45   6     0.00  -0.01  -0.03    -0.01   0.02  -0.00     0.00   0.02  -0.06
  46   6     0.01  -0.02  -0.03     0.01   0.01  -0.01     0.00   0.02  -0.04
  47   7     0.02  -0.02  -0.06     0.02   0.02  -0.00     0.01   0.03  -0.10
  48   6     0.02  -0.02  -0.03     0.03   0.01  -0.02     0.00   0.02  -0.05
  49   6     0.03  -0.01  -0.06     0.04   0.02  -0.01     0.01   0.02  -0.11
  50   7     0.04  -0.01  -0.09     0.06   0.03  -0.01     0.02   0.03  -0.16
  51   1    -0.00  -0.01   0.02     0.00  -0.01  -0.00    -0.00   0.01   0.04
  52   1    -0.00  -0.01   0.02    -0.01  -0.01   0.00    -0.00   0.01   0.03
  53   1    -0.08  -0.05   0.02    -0.06  -0.02   0.01     0.03  -0.01   0.01
  54   1    -0.11  -0.05   0.04    -0.09  -0.01   0.03     0.02  -0.04   0.00
  55   1    -0.06  -0.03   0.02    -0.06   0.00   0.04    -0.03  -0.07  -0.01
  56   1     0.02   0.00  -0.01    -0.01   0.01   0.02    -0.06  -0.06  -0.02
  57   1     0.09   0.04  -0.04     0.04   0.01   0.01    -0.05   0.01  -0.03
  58   1     0.06   0.05  -0.03     0.03  -0.00   0.00     0.01   0.05  -0.02
  59   1     0.01   0.03  -0.01     0.00  -0.01   0.00     0.05   0.07  -0.01
  60   1    -0.02   0.00   0.00    -0.02  -0.02  -0.00     0.05   0.04   0.01
  61   1    -0.00  -0.01  -0.02    -0.01  -0.00  -0.00     0.00   0.01  -0.01
  62   1    -0.01  -0.00   0.01    -0.01   0.01  -0.01     0.00   0.01   0.01
  63   1     0.02  -0.02  -0.01    -0.10   0.04   0.02    -0.03  -0.01  -0.01
  64   1     0.03  -0.03  -0.01    -0.13   0.05   0.04    -0.03  -0.04  -0.00
  65   1     0.01  -0.02   0.01    -0.09   0.02   0.04     0.01  -0.06   0.02
  66   1    -0.02  -0.01   0.02    -0.00  -0.00   0.01     0.05  -0.05   0.02
  67   1    -0.04   0.03   0.04     0.09  -0.04  -0.03     0.05   0.01   0.03
  68   1    -0.03   0.04   0.03     0.07  -0.04  -0.02     0.02   0.04   0.02
  69   1    -0.01   0.03   0.01     0.02  -0.02  -0.01    -0.01   0.05   0.00
  70   1    -0.00   0.01  -0.00    -0.02   0.00   0.00    -0.02   0.04  -0.01
  71   1    -0.00  -0.00  -0.02    -0.01   0.02   0.02     0.00   0.01  -0.03
  72   1     0.00  -0.00  -0.02    -0.00   0.01   0.01     0.00   0.01  -0.04
                      4                      5                      6
                        a                      a                      a 
 Frequencies --    18.0613                21.1848                21.9470
 Red. masses --    15.6209                13.0989                13.9048
 Frc consts  --     0.0000                 0.0000                 0.0000
 IR Inten    --     0.5860                 2.5620                 2.3383
 Raman Activ --     0.0000                 0.0000                 0.0000
 Depolar     --     0.0000                 0.0000                 0.0000
 Atom AN      X      Y      Z        X      Y      Z        X      Y      Z
   1   7    -0.02   0.01  -0.22    -0.02   0.01   0.05     0.07   0.00  -0.46
   2   6    -0.02   0.00  -0.15    -0.01   0.00   0.02     0.04   0.01  -0.29
   3   6    -0.02  -0.00  -0.09    -0.01   0.00  -0.01     0.02   0.01  -0.13
   4   7    -0.01   0.00  -0.08    -0.02   0.00   0.10     0.02   0.01  -0.11
   5   6    -0.01  -0.00  -0.03    -0.01   0.00   0.07    -0.00   0.01   0.01
   6   6     0.00   0.00  -0.01    -0.01   0.00   0.12    -0.01   0.00   0.05
   7   6     0.00   0.01  -0.01    -0.02   0.00   0.17    -0.01  -0.00   0.03
   8   6     0.01   0.02  -0.00    -0.02   0.00   0.17    -0.01  -0.00   0.03
   9   6     0.02   0.02   0.01    -0.01   0.00   0.12    -0.01   0.00   0.05
  10   7     0.02   0.02   0.01    -0.01   0.01   0.08    -0.02  -0.00   0.02
  11   6    -0.01  -0.01   0.02     0.04  -0.02   0.04    -0.01  -0.03   0.00
  12   6     0.05   0.00   0.01     0.04  -0.06   0.07    -0.01  -0.06   0.02
  13   6     0.02  -0.03   0.02     0.09  -0.08   0.04    -0.01  -0.09   0.02
  14   6    -0.07  -0.08   0.03     0.13  -0.06  -0.02    -0.01  -0.09  -0.01
  15   6    -0.12  -0.08   0.03     0.13  -0.03  -0.05    -0.01  -0.06  -0.04
  16   6    -0.09  -0.05   0.03     0.08  -0.01  -0.02    -0.01  -0.03  -0.03
  17  16    -0.30  -0.06   0.05     0.14   0.04  -0.09     0.02   0.00  -0.12
  18   6     0.04   0.04  -0.00    -0.04   0.04   0.00    -0.01   0.04  -0.04
  19   6     0.14   0.08  -0.01    -0.11   0.06  -0.02    -0.02   0.07  -0.06
  20   6     0.28   0.14  -0.03    -0.20   0.07   0.02    -0.04   0.10  -0.04
  21   6     0.32   0.15  -0.02    -0.20   0.07   0.07    -0.05   0.09  -0.00
  22   6     0.23   0.11  -0.01    -0.13   0.05   0.08    -0.05   0.06   0.02
  23   6     0.09   0.06  -0.00    -0.06   0.03   0.05    -0.02   0.03  -0.00
  24   6     0.02   0.00   0.00    -0.01   0.00   0.10    -0.02   0.00   0.08
  25   6     0.01  -0.00   0.00    -0.01   0.00   0.10    -0.01   0.01   0.09
  26   6     0.01  -0.01   0.02    -0.01  -0.00   0.06    -0.02   0.01   0.11
  27   6     0.01  -0.02   0.02    -0.01  -0.00   0.06    -0.02   0.01   0.11
  28   6     0.01  -0.03   0.05    -0.00  -0.00   0.02    -0.02   0.01   0.12
  29   7     0.01  -0.03   0.04    -0.01  -0.00   0.01    -0.01   0.01   0.08
  30   6    -0.02   0.02   0.03    -0.01   0.03   0.00     0.05   0.02   0.03
  31   6     0.05   0.03   0.04     0.02   0.03   0.01     0.04   0.06   0.07
  32   6     0.02   0.08   0.03     0.00   0.07   0.01     0.10   0.07   0.03
  33   6    -0.06   0.13   0.03    -0.04   0.09  -0.00     0.18   0.03  -0.04
  34   6    -0.12   0.12   0.02    -0.06   0.08  -0.02     0.20  -0.01  -0.07
  35   6    -0.10   0.06   0.02    -0.05   0.05  -0.01     0.13  -0.01  -0.04
  36  16    -0.33   0.06   0.02    -0.14   0.03  -0.06     0.26  -0.06  -0.11
  37   6    -0.04  -0.04   0.00     0.02  -0.04  -0.04    -0.02  -0.04  -0.01
  38   6     0.00  -0.07  -0.01     0.07  -0.08  -0.05    -0.10  -0.05  -0.02
  39   6     0.11  -0.13  -0.01     0.13  -0.13  -0.05    -0.21  -0.05   0.01
  40   6     0.17  -0.16   0.01     0.13  -0.13  -0.02    -0.24  -0.04   0.07
  41   6     0.13  -0.12   0.02     0.08  -0.09  -0.00    -0.17  -0.02   0.08
  42   6     0.03  -0.06   0.02     0.03  -0.04  -0.01    -0.06  -0.02   0.05
  43   6     0.00  -0.03   0.07    -0.00  -0.00  -0.00    -0.02   0.01   0.16
  44   6    -0.01  -0.03   0.07    -0.00  -0.00  -0.01    -0.02   0.01   0.16
  45   6    -0.00  -0.02   0.03    -0.00  -0.00   0.02    -0.02   0.01   0.13
  46   6    -0.01  -0.01   0.01    -0.00  -0.00  -0.01    -0.01   0.01   0.08
  47   7    -0.02  -0.02   0.00     0.01  -0.00  -0.14    -0.01   0.01   0.08
  48   6    -0.03  -0.01  -0.04     0.01  -0.00  -0.15     0.01   0.01  -0.02
  49   6    -0.04  -0.02  -0.04     0.03  -0.00  -0.32     0.01   0.01  -0.02
  50   7    -0.05  -0.03  -0.05     0.06  -0.01  -0.49     0.01   0.01  -0.02
  51   1    -0.00   0.01  -0.01    -0.01   0.00   0.06    -0.00  -0.00   0.00
  52   1     0.00   0.01  -0.00    -0.01   0.00   0.06    -0.00  -0.00   0.01
  53   1     0.03   0.01  -0.00     0.00  -0.02   0.04    -0.00  -0.02   0.01
  54   1     0.02  -0.01   0.00     0.02  -0.03   0.02    -0.00  -0.03   0.01
  55   1    -0.03  -0.03   0.01     0.05  -0.02  -0.01    -0.00  -0.03  -0.01
  56   1    -0.05  -0.03   0.01     0.05  -0.00  -0.03    -0.00  -0.02  -0.02
  57   1     0.03   0.02  -0.00    -0.03   0.02  -0.02    -0.00   0.02  -0.03
  58   1     0.10   0.05  -0.01    -0.07   0.03   0.00    -0.01   0.03  -0.02
  59   1     0.12   0.06  -0.01    -0.07   0.02   0.03    -0.02   0.03   0.00
  60   1     0.08   0.04  -0.00    -0.04   0.01   0.03    -0.02   0.01   0.01
  61   1     0.01  -0.00   0.00    -0.00   0.00   0.02    -0.01   0.00   0.03
  62   1     0.01  -0.00   0.00    -0.00  -0.00   0.02    -0.01   0.00   0.03
  63   1     0.03  -0.00   0.01     0.02   0.00   0.00    -0.01   0.03   0.04
  64   1     0.02   0.02   0.01     0.01   0.02   0.00     0.02   0.03   0.02
  65   1    -0.02   0.05   0.01    -0.02   0.03  -0.00     0.07   0.01  -0.02
  66   1    -0.06   0.04   0.00    -0.03   0.03  -0.01     0.07  -0.01  -0.04
  67   1    -0.01  -0.02  -0.01     0.02  -0.02  -0.02    -0.02  -0.02  -0.02
  68   1     0.04  -0.05  -0.01     0.05  -0.05  -0.02    -0.08  -0.02   0.00
  69   1     0.07  -0.06   0.00     0.05  -0.05  -0.00    -0.09  -0.01   0.03
  70   1     0.05  -0.04   0.01     0.02  -0.02   0.01    -0.05  -0.00   0.03
  71   1    -0.00  -0.01   0.03     0.00  -0.00  -0.01    -0.01   0.00   0.05
  72   1    -0.00  -0.01   0.02     0.00  -0.00  -0.01    -0.01   0.00   0.05
                      7                      8                      9
                        a                      a                      a 
 Frequencies --    25.2362                32.4526                40.6067
 Red. masses --    11.8511                12.2541                11.7813
 Frc consts  --     0.0000                 0.0000                 0.0000
 IR Inten    --     0.4660                 0.0393                 2.3532
 Raman Activ --     0.0000                 0.0000                 0.0000
 Depolar     --     0.0000                 0.0000                 0.0000
 Atom AN      X      Y      Z        X      Y      Z        X      Y      Z
   1   7    -0.00  -0.05   0.10    -0.05   0.01   0.37     0.17  -0.10   0.01
   2   6     0.00  -0.04   0.06    -0.03   0.01   0.21     0.10  -0.06   0.01
   3   6     0.00  -0.04   0.02    -0.01   0.01   0.06     0.04  -0.03   0.01
   4   7    -0.00  -0.04   0.05    -0.01   0.01   0.06    -0.00  -0.06   0.01
   5   6    -0.00  -0.04   0.02     0.00   0.01  -0.01    -0.05  -0.03   0.01
   6   6    -0.01  -0.04   0.02     0.01   0.01  -0.07    -0.09  -0.05   0.01
   7   6    -0.01  -0.03   0.03     0.02   0.01  -0.15    -0.08  -0.08  -0.02
   8   6    -0.00  -0.03   0.03     0.02   0.01  -0.18    -0.12  -0.10  -0.02
   9   6    -0.00  -0.03   0.03     0.01   0.01  -0.13    -0.15  -0.08   0.02
  10   7     0.01  -0.03   0.04     0.01   0.01  -0.11    -0.19  -0.10   0.04
  11   6     0.08   0.01   0.01    -0.04   0.03  -0.07    -0.07  -0.02   0.00
  12   6     0.15   0.03  -0.01    -0.05   0.07  -0.10    -0.04   0.00  -0.02
  13   6     0.24   0.06  -0.05    -0.10   0.09  -0.06     0.08   0.07  -0.07
  14   6     0.26   0.07  -0.07    -0.14   0.08   0.01     0.18   0.12  -0.10
  15   6     0.19   0.04  -0.05    -0.12   0.05   0.03     0.14   0.09  -0.07
  16   6     0.10   0.01  -0.01    -0.07   0.03  -0.01     0.02   0.02  -0.02
  17  16    -0.02  -0.02   0.05    -0.06  -0.01   0.04    -0.07  -0.03   0.05
  18   6     0.08   0.01   0.01     0.02  -0.04  -0.02     0.03  -0.01   0.01
  19   6     0.16   0.04   0.01     0.04  -0.08   0.00     0.17   0.04  -0.01
  20   6     0.21   0.07   0.00     0.07  -0.11  -0.03     0.21   0.06  -0.01
  21   6     0.19   0.06   0.01     0.07  -0.11  -0.08     0.09   0.01   0.00
  22   6     0.12   0.03   0.02     0.04  -0.07  -0.10    -0.04  -0.03   0.02
  23   6     0.07   0.00   0.02     0.02  -0.03  -0.07    -0.06  -0.04   0.02
  24   6    -0.00  -0.04   0.03     0.00   0.01  -0.08    -0.16  -0.05   0.05
  25   6    -0.01  -0.04   0.02     0.00   0.01  -0.04    -0.12  -0.03   0.04
  26   6    -0.01  -0.04   0.00    -0.00   0.01   0.04    -0.12   0.03   0.04
  27   6    -0.01  -0.03  -0.00    -0.01   0.01   0.08    -0.16   0.05   0.05
  28   6    -0.01  -0.02  -0.02    -0.01   0.01   0.14    -0.15   0.08   0.02
  29   7    -0.02  -0.02  -0.03    -0.01   0.01   0.11    -0.19   0.10   0.04
  30   6    -0.08   0.02  -0.00     0.04   0.03   0.07    -0.07   0.02   0.00
  31   6    -0.18   0.05   0.03     0.05   0.07   0.10    -0.04  -0.00  -0.02
  32   6    -0.25   0.07   0.06     0.10   0.09   0.06     0.08  -0.07  -0.07
  33   6    -0.23   0.06   0.07     0.15   0.08  -0.01     0.18  -0.12  -0.10
  34   6    -0.14   0.02   0.03     0.13   0.05  -0.03     0.15  -0.09  -0.07
  35   6    -0.06   0.00  -0.01     0.07   0.02   0.00     0.02  -0.02  -0.02
  36  16     0.15  -0.05  -0.09     0.08  -0.01  -0.04    -0.09   0.03   0.05
  37   6    -0.08   0.01  -0.02    -0.02  -0.04   0.02     0.03   0.01   0.01
  38   6    -0.18   0.04  -0.02    -0.05  -0.08  -0.00     0.17  -0.04  -0.00
  39   6    -0.27   0.07  -0.00    -0.09  -0.11   0.03     0.21  -0.06  -0.01
  40   6    -0.26   0.07  -0.00    -0.08  -0.11   0.08     0.09  -0.01   0.00
  41   6    -0.18   0.04  -0.01    -0.05  -0.07   0.10    -0.04   0.03   0.02
  42   6    -0.09   0.01  -0.02    -0.03  -0.03   0.07    -0.06   0.04   0.02
  43   6    -0.01  -0.02  -0.01    -0.02   0.01   0.18    -0.12   0.10  -0.02
  44   6     0.00  -0.02  -0.01    -0.02   0.01   0.15    -0.08   0.08  -0.02
  45   6     0.00  -0.03  -0.00    -0.01   0.01   0.07    -0.09   0.05   0.01
  46   6     0.00  -0.03  -0.01    -0.00   0.01   0.01    -0.05   0.02   0.01
  47   7     0.01  -0.04  -0.04     0.01   0.01  -0.06    -0.00   0.06   0.01
  48   6     0.01  -0.04  -0.03     0.01   0.01  -0.06     0.04   0.03   0.01
  49   6     0.02  -0.03  -0.08     0.03   0.01  -0.21     0.10   0.06   0.01
  50   7     0.03  -0.04  -0.14     0.05   0.01  -0.36     0.17   0.10   0.02
  51   1    -0.00  -0.01   0.01     0.01   0.00  -0.05    -0.02  -0.03  -0.01
  52   1    -0.00  -0.01   0.01     0.01   0.00  -0.07    -0.03  -0.04  -0.01
  53   1     0.04   0.01   0.00    -0.01   0.02  -0.04    -0.03  -0.01   0.00
  54   1     0.08   0.02  -0.02    -0.03   0.04  -0.02     0.03   0.02  -0.02
  55   1     0.09   0.03  -0.03    -0.05   0.03   0.01     0.08   0.05  -0.04
  56   1     0.06   0.01  -0.02    -0.04   0.01   0.02     0.06   0.03  -0.02
  57   1     0.05   0.01   0.00     0.01  -0.02   0.01     0.07   0.02  -0.00
  58   1     0.08   0.03  -0.00     0.03  -0.04  -0.00     0.09   0.03  -0.01
  59   1     0.06   0.02   0.00     0.03  -0.04  -0.03     0.03   0.00  -0.00
  60   1     0.03   0.01   0.01     0.01  -0.02  -0.04    -0.04  -0.02   0.01
  61   1     0.00  -0.01   0.01    -0.00   0.00  -0.01    -0.05  -0.01   0.02
  62   1    -0.01  -0.01  -0.00    -0.00   0.00   0.01    -0.05   0.01   0.02
  63   1    -0.06   0.02   0.01     0.00   0.03   0.04    -0.03   0.01   0.00
  64   1    -0.09   0.03   0.02     0.03   0.04   0.03     0.03  -0.03  -0.02
  65   1    -0.08   0.02   0.03     0.06   0.03  -0.01     0.08  -0.05  -0.04
  66   1    -0.03   0.00   0.01     0.05   0.01  -0.02     0.06  -0.03  -0.02
  67   1    -0.05   0.01  -0.01    -0.01  -0.02  -0.01     0.07  -0.02  -0.00
  68   1    -0.10   0.03   0.00    -0.03  -0.04   0.00     0.09  -0.03  -0.01
  69   1    -0.10   0.03   0.00    -0.03  -0.04   0.03     0.03  -0.00   0.00
  70   1    -0.05   0.01  -0.00    -0.01  -0.02   0.04    -0.04   0.02   0.01
  71   1    -0.00  -0.00  -0.00    -0.01   0.00   0.07    -0.03   0.04  -0.01
  72   1     0.00  -0.01  -0.00    -0.01   0.00   0.05    -0.02   0.03  -0.01
                     10                     11                     12
                        a                      a                      a 
 Frequencies --    73.1228                75.3451                85.2124
 Red. masses --    12.5937                13.5617                10.0953
 Frc consts  --     0.0000                 0.0000                 0.0000
 IR Inten    --     1.9386                 2.8736                 9.5317
 Raman Activ --     0.0000                 0.0000                 0.0000
 Depolar     --     0.0000                 0.0000                 0.0000
 Atom AN      X      Y      Z        X      Y      Z        X      Y      Z
   1   7    -0.16   0.06   0.29     0.39  -0.22   0.14     0.03  -0.02  -0.01
   2   6    -0.06   0.02   0.03     0.15  -0.09   0.03     0.01  -0.01  -0.01
   3   6     0.01   0.00  -0.17     0.04  -0.02  -0.05    -0.01  -0.00  -0.01
   4   7     0.03   0.01  -0.27    -0.00  -0.04  -0.09    -0.01  -0.00  -0.00
   5   6     0.04   0.00  -0.27    -0.04  -0.01  -0.09    -0.01  -0.00  -0.02
   6   6     0.03  -0.00  -0.18    -0.03   0.01  -0.07    -0.01   0.00  -0.02
   7   6     0.02  -0.02  -0.12    -0.03   0.06  -0.06    -0.04   0.00   0.22
   8   6    -0.00  -0.03   0.02    -0.01   0.08  -0.02    -0.04   0.00   0.25
   9   6    -0.02  -0.03   0.08     0.00   0.07   0.01    -0.00   0.00  -0.02
  10   7    -0.05  -0.05   0.10     0.04   0.10   0.01     0.00   0.01  -0.00
  11   6    -0.01  -0.06   0.07     0.02   0.09   0.02    -0.04  -0.00   0.02
  12   6     0.00  -0.09   0.09     0.03   0.09   0.01    -0.16  -0.07   0.07
  13   6     0.05  -0.10   0.06    -0.01   0.07   0.03    -0.09  -0.04   0.04
  14   6     0.09  -0.08   0.01    -0.07   0.04   0.04     0.11   0.06  -0.05
  15   6     0.08  -0.06  -0.01    -0.07   0.04   0.04     0.17   0.08  -0.08
  16   6     0.03  -0.05   0.02    -0.02   0.07   0.02     0.07   0.04  -0.03
  17  16     0.03  -0.04  -0.01    -0.03   0.15  -0.01    -0.03   0.00   0.04
  18   6    -0.00   0.01   0.02    -0.04   0.09  -0.00    -0.07  -0.03   0.02
  19   6     0.01   0.05   0.00    -0.11   0.09  -0.01    -0.16  -0.08   0.03
  20   6    -0.01   0.08   0.02    -0.12   0.10   0.01    -0.08  -0.05   0.02
  21   6    -0.03   0.07   0.07    -0.05   0.13   0.02     0.13   0.03  -0.01
  22   6    -0.04   0.03   0.09     0.01   0.13   0.02     0.18   0.05  -0.02
  23   6    -0.03  -0.00   0.07     0.01   0.11   0.01     0.04   0.01   0.00
  24   6    -0.02  -0.01   0.05     0.01   0.02   0.01     0.02   0.00  -0.27
  25   6     0.01  -0.00  -0.08    -0.02   0.00  -0.03     0.01  -0.00  -0.22
  26   6     0.01   0.00  -0.08    -0.02  -0.00  -0.03     0.01  -0.00  -0.22
  27   6    -0.02   0.01   0.05     0.01  -0.02   0.02     0.02  -0.00  -0.25
  28   6    -0.02   0.03   0.08     0.00  -0.07   0.01    -0.00  -0.00  -0.01
  29   7    -0.05   0.05   0.10     0.04  -0.10   0.01    -0.00  -0.01   0.01
  30   6    -0.01   0.06   0.07     0.02  -0.09   0.02    -0.03   0.00   0.02
  31   6    -0.00   0.09   0.09     0.03  -0.09   0.01    -0.14   0.06   0.07
  32   6     0.04   0.10   0.06    -0.01  -0.07   0.03    -0.07   0.04   0.04
  33   6     0.09   0.08   0.01    -0.07  -0.04   0.04     0.11  -0.04  -0.04
  34   6     0.08   0.06  -0.01    -0.07  -0.04   0.04     0.15  -0.07  -0.07
  35   6     0.03   0.05   0.02    -0.02  -0.07   0.02     0.05  -0.03  -0.02
  36  16     0.03   0.04  -0.01    -0.04  -0.15  -0.01    -0.04   0.00   0.03
  37   6    -0.01  -0.01   0.02    -0.04  -0.09  -0.00    -0.06   0.03   0.02
  38   6     0.01  -0.05   0.00    -0.11  -0.09  -0.01    -0.12   0.05   0.03
  39   6    -0.01  -0.08   0.02    -0.12  -0.11   0.01    -0.06   0.03   0.02
  40   6    -0.03  -0.07   0.07    -0.05  -0.13   0.02     0.10  -0.03  -0.00
  41   6    -0.04  -0.03   0.09     0.01  -0.13   0.02     0.14  -0.04  -0.01
  42   6    -0.03   0.00   0.07     0.01  -0.11   0.01     0.02  -0.01   0.01
  43   6    -0.00   0.03   0.02    -0.01  -0.08  -0.02    -0.03  -0.00   0.23
  44   6     0.02   0.02  -0.12    -0.03  -0.06  -0.06    -0.03  -0.00   0.19
  45   6     0.03   0.00  -0.18    -0.03  -0.01  -0.07    -0.01  -0.00  -0.03
  46   6     0.04  -0.00  -0.27    -0.04   0.01  -0.09    -0.01   0.00  -0.03
  47   7     0.03  -0.01  -0.27    -0.00   0.04  -0.08    -0.01   0.00  -0.02
  48   6     0.01  -0.00  -0.16     0.04   0.02  -0.05    -0.01   0.00  -0.01
  49   6    -0.06  -0.02   0.04     0.15   0.09   0.03     0.01   0.01  -0.00
  50   7    -0.16  -0.06   0.29     0.39   0.22   0.14     0.03   0.02   0.01
  51   1     0.01  -0.01  -0.05    -0.02   0.02  -0.03    -0.02   0.00   0.11
  52   1    -0.00  -0.01   0.02    -0.00   0.03  -0.01    -0.02   0.00   0.13
  53   1    -0.01  -0.03   0.03     0.02   0.03  -0.00    -0.09  -0.04   0.04
  54   1     0.01  -0.04   0.02    -0.00   0.02   0.01    -0.06  -0.03   0.03
  55   1     0.04  -0.03  -0.00    -0.03   0.00   0.02     0.06   0.03  -0.03
  56   1     0.03  -0.01  -0.02    -0.03   0.01   0.01     0.08   0.04  -0.04
  57   1     0.01   0.02  -0.01    -0.04   0.02  -0.01    -0.08  -0.03   0.02
  58   1     0.00   0.03   0.00    -0.05   0.03   0.00    -0.05  -0.02   0.01
  59   1    -0.01   0.03   0.02    -0.01   0.04   0.01     0.07   0.02  -0.01
  60   1    -0.02   0.01   0.03     0.02   0.04   0.01     0.10   0.03  -0.01
  61   1    -0.01  -0.00   0.03     0.01   0.00   0.01     0.01   0.00  -0.13
  62   1    -0.01   0.00   0.03     0.01  -0.00   0.01     0.01  -0.00  -0.12
  63   1    -0.01   0.03   0.03     0.02  -0.03  -0.00    -0.08   0.04   0.04
  64   1     0.01   0.04   0.02     0.00  -0.02   0.01    -0.04   0.03   0.02
  65   1     0.04   0.03  -0.01    -0.03  -0.00   0.02     0.05  -0.02  -0.02
  66   1     0.03   0.01  -0.02    -0.03  -0.01   0.01     0.07  -0.03  -0.03
  67   1     0.01  -0.02  -0.01    -0.04  -0.02  -0.01    -0.06   0.03   0.01
  68   1    -0.00  -0.03   0.00    -0.05  -0.03   0.00    -0.03   0.02   0.01
  69   1    -0.01  -0.03   0.02    -0.01  -0.04   0.01     0.06  -0.02  -0.00
  70   1    -0.02  -0.01   0.03     0.02  -0.04   0.01     0.07  -0.02  -0.01
  71   1    -0.00   0.01   0.02    -0.00  -0.03  -0.01    -0.01  -0.00   0.12
  72   1     0.01   0.01  -0.05    -0.02  -0.02  -0.03    -0.01  -0.00   0.10
                     13                     14                     15
                        a                      a                      a 
 Frequencies --    93.1134                95.8914               101.3485
 Red. masses --    11.3670                13.4067                12.7849
 Frc consts  --     0.0000                 0.0000                 0.0000
 IR Inten    --     5.2558                 3.2830                 8.6366
 Raman Activ --     0.0000                 0.0000                 0.0000
 Depolar     --     0.0000                 0.0000                 0.0000
 Atom AN      X      Y      Z        X      Y      Z        X      Y      Z
   1   7    -0.12   0.09  -0.16    -0.53   0.30  -0.03    -0.18   0.06  -0.10
   2   6    -0.04   0.04  -0.02    -0.17   0.10  -0.02    -0.06  -0.01  -0.01
   3   6    -0.01   0.01   0.06     0.00   0.01  -0.02    -0.00  -0.04   0.04
   4   7    -0.02   0.02   0.17     0.02   0.02  -0.06    -0.01  -0.04   0.10
   5   6    -0.01   0.02   0.10     0.01   0.02  -0.03    -0.01  -0.03   0.06
   6   6    -0.01   0.01   0.14     0.01   0.01  -0.04    -0.02  -0.04   0.07
   7   6    -0.02  -0.00   0.22     0.01  -0.01  -0.06    -0.03   0.01   0.09
   8   6    -0.02  -0.01   0.13    -0.00  -0.02  -0.03     0.02   0.04   0.04
   9   6    -0.01  -0.01  -0.06    -0.02  -0.02   0.02     0.06   0.02  -0.03
  10   7    -0.02  -0.01  -0.08    -0.05  -0.04   0.03     0.17   0.08  -0.05
  11   6    -0.07  -0.00  -0.04    -0.02  -0.04   0.02     0.15   0.06  -0.03
  12   6    -0.19  -0.03  -0.01     0.00  -0.04   0.01     0.24   0.09  -0.06
  13   6    -0.13   0.02  -0.03     0.03  -0.04   0.00     0.11   0.03  -0.01
  14   6     0.05   0.11  -0.08     0.03  -0.04  -0.01    -0.12  -0.08   0.09
  15   6     0.11   0.11  -0.08     0.01  -0.04  -0.01    -0.15  -0.08   0.09
  16   6     0.02   0.04  -0.05    -0.01  -0.04   0.01     0.02   0.01   0.02
  17  16    -0.09  -0.03   0.03    -0.01  -0.05   0.00     0.20   0.05  -0.03
  18   6    -0.04  -0.06  -0.01     0.02  -0.01   0.01     0.04   0.00  -0.01
  19   6    -0.05  -0.10   0.01     0.09   0.03  -0.00    -0.09  -0.06   0.01
  20   6     0.02  -0.10  -0.02     0.07   0.02   0.00    -0.10  -0.07   0.01
  21   6     0.11  -0.07  -0.06    -0.05  -0.03   0.02     0.06  -0.01  -0.02
  22   6     0.11  -0.03  -0.08    -0.10  -0.05   0.03     0.17   0.04  -0.04
  23   6     0.01  -0.03  -0.05    -0.05  -0.03   0.02     0.13   0.03  -0.03
  24   6    -0.01   0.01  -0.12    -0.02   0.00   0.03     0.06  -0.03  -0.04
  25   6    -0.00   0.02   0.02    -0.00   0.01  -0.01     0.00  -0.05   0.01
  26   6     0.00   0.02   0.02     0.00   0.01  -0.01    -0.01  -0.05   0.00
  27   6    -0.00   0.01   0.16     0.02   0.00  -0.06    -0.06  -0.03   0.06
  28   6     0.01  -0.00   0.06     0.02  -0.02  -0.03    -0.07   0.02   0.03
  29   7     0.02  -0.00   0.08     0.05  -0.04  -0.03    -0.18   0.08   0.05
  30   6     0.07   0.00   0.04     0.02  -0.04  -0.02    -0.15   0.06   0.03
  31   6     0.20  -0.04   0.01    -0.01  -0.04  -0.01    -0.23   0.09   0.06
  32   6     0.14   0.02   0.03    -0.03  -0.04   0.00    -0.11   0.03   0.01
  33   6    -0.06   0.12   0.09    -0.03  -0.04   0.01     0.12  -0.08  -0.09
  34   6    -0.12   0.12   0.09    -0.01  -0.04   0.00     0.15  -0.08  -0.09
  35   6    -0.02   0.04   0.05     0.01  -0.04  -0.01    -0.02   0.01  -0.02
  36  16     0.10  -0.03  -0.03     0.00  -0.05   0.00    -0.19   0.05   0.03
  37   6     0.05  -0.06   0.01    -0.02  -0.01  -0.01    -0.04   0.00   0.01
  38   6     0.06  -0.10  -0.01    -0.09   0.03   0.00     0.09  -0.06  -0.01
  39   6    -0.02  -0.11   0.02    -0.07   0.02  -0.00     0.09  -0.07  -0.00
  40   6    -0.13  -0.07   0.07     0.05  -0.02  -0.02    -0.06  -0.01   0.02
  41   6    -0.12  -0.03   0.08     0.10  -0.05  -0.03    -0.16   0.03   0.04
  42   6    -0.01  -0.03   0.06     0.05  -0.03  -0.02    -0.13   0.04   0.03
  43   6     0.03  -0.01  -0.17     0.00  -0.02   0.05    -0.02   0.04  -0.05
  44   6     0.03  -0.00  -0.25    -0.01  -0.01   0.08     0.03   0.01  -0.11
  45   6     0.01   0.01  -0.14    -0.01   0.01   0.04     0.02  -0.04  -0.07
  46   6     0.01   0.01  -0.10    -0.01   0.02   0.03     0.01  -0.03  -0.06
  47   7     0.02   0.02  -0.17    -0.02   0.02   0.06     0.01  -0.04  -0.10
  48   6     0.01   0.01  -0.06    -0.01   0.01   0.02     0.00  -0.04  -0.03
  49   6     0.04   0.04   0.02     0.17   0.10   0.02     0.06  -0.01   0.01
  50   7     0.11   0.08   0.16     0.53   0.30   0.03     0.17   0.05   0.10
  51   1    -0.01  -0.00   0.10     0.01  -0.01  -0.03    -0.02   0.01   0.04
  52   1    -0.01  -0.00   0.06    -0.00  -0.01  -0.01     0.01   0.02   0.01
  53   1    -0.09  -0.03   0.01     0.00  -0.01   0.01     0.11   0.05  -0.03
  54   1    -0.07  -0.00  -0.00     0.01  -0.01   0.00     0.05   0.02  -0.01
  55   1     0.04   0.05  -0.03     0.01  -0.01  -0.01    -0.07  -0.04   0.04
  56   1     0.06   0.04  -0.03     0.01  -0.01  -0.01    -0.08  -0.04   0.04
  57   1    -0.03  -0.04   0.01     0.05   0.02  -0.00    -0.05  -0.03   0.01
  58   1     0.00  -0.04  -0.00     0.04   0.01  -0.00    -0.06  -0.04   0.01
  59   1     0.06  -0.02  -0.03    -0.03  -0.01   0.01     0.02  -0.00  -0.01
  60   1     0.05  -0.00  -0.03    -0.05  -0.02   0.01     0.08   0.02  -0.02
  61   1    -0.00   0.01  -0.08    -0.01   0.00   0.02     0.02  -0.01  -0.03
  62   1    -0.00   0.01   0.10     0.01   0.00  -0.03    -0.03  -0.01   0.04
  63   1     0.10  -0.03  -0.01    -0.00  -0.01  -0.00    -0.11   0.05   0.03
  64   1     0.07  -0.00  -0.00    -0.01  -0.01   0.00    -0.05   0.02   0.01
  65   1    -0.04   0.05   0.03    -0.01  -0.01   0.00     0.07  -0.04  -0.04
  66   1    -0.07   0.05   0.03    -0.00  -0.01   0.00     0.08  -0.04  -0.04
  67   1     0.04  -0.04  -0.01    -0.05   0.02   0.00     0.05  -0.03  -0.01
  68   1    -0.00  -0.04  -0.00    -0.04   0.01   0.00     0.06  -0.03  -0.01
  69   1    -0.06  -0.02   0.03     0.03  -0.01  -0.01    -0.02  -0.00   0.01
  70   1    -0.06  -0.00   0.03     0.05  -0.02  -0.01    -0.08   0.02   0.02
  71   1     0.01  -0.00  -0.08     0.00  -0.01   0.02    -0.01   0.02  -0.02
  72   1     0.01  -0.00  -0.12    -0.01  -0.01   0.04     0.02   0.01  -0.05
                     16                     17                     18
                        a                      a                      a 
 Frequencies --   106.3024               115.0812               135.8729
 Red. masses --    10.6949                10.3833                15.1219
 Frc consts  --     0.0000                 0.0000                 0.0000
 IR Inten    --     1.2199                12.7337                 3.5334
 Raman Activ --     0.0000                 0.0000                 0.0000
 Depolar     --     0.0000                 0.0000                 0.0000
 Atom AN      X      Y      Z        X      Y      Z        X      Y      Z
   1   7    -0.12   0.02   0.10    -0.05   0.07  -0.04    -0.07   0.12   0.03
   2   6    -0.03  -0.02  -0.01     0.02   0.03   0.01     0.08   0.04  -0.01
   3   6     0.01  -0.03  -0.06     0.05   0.01   0.04     0.14   0.00  -0.03
   4   7     0.02  -0.03  -0.16     0.06   0.01   0.05     0.15   0.00  -0.01
   5   6     0.01  -0.03  -0.09     0.05   0.01   0.04     0.13   0.01   0.01
   6   6     0.01  -0.03  -0.12     0.05  -0.00   0.02     0.11   0.01   0.03
   7   6     0.02  -0.01  -0.20     0.07  -0.01  -0.19     0.10   0.02   0.08
   8   6     0.02  -0.01  -0.11     0.06  -0.02  -0.21     0.10   0.03   0.06
   9   6     0.01  -0.01   0.01     0.01  -0.00   0.00     0.08   0.05  -0.01
  10   7     0.04  -0.00   0.04    -0.02  -0.02   0.00     0.03   0.05  -0.03
  11   6    -0.01  -0.02   0.04    -0.06  -0.02   0.01    -0.03   0.05  -0.00
  12   6    -0.11  -0.06   0.08    -0.18  -0.04   0.03    -0.13   0.03   0.01
  13   6    -0.09  -0.06   0.07    -0.15   0.00   0.02    -0.12   0.06   0.01
  14   6     0.06   0.01   0.00     0.04   0.09  -0.04     0.00   0.12  -0.03
  15   6     0.13   0.04  -0.03     0.12   0.10  -0.05     0.04   0.11  -0.03
  16   6     0.08   0.02  -0.00     0.04   0.03  -0.02    -0.02   0.06  -0.00
  17  16     0.07   0.02  -0.00    -0.06   0.01   0.01    -0.31   0.07   0.05
  18   6    -0.07  -0.02   0.02    -0.06  -0.02  -0.01     0.01   0.07  -0.03
  19   6    -0.25  -0.06   0.02    -0.15  -0.03  -0.01     0.12   0.11  -0.04
  20   6    -0.17   0.01   0.03    -0.08   0.02  -0.00     0.05   0.09  -0.03
  21   6     0.16   0.13   0.02     0.10   0.09  -0.01    -0.17   0.01  -0.01
  22   6     0.26   0.14   0.02     0.14   0.08  -0.00    -0.20   0.00  -0.01
  23   6     0.09   0.04   0.02     0.03   0.02  -0.01    -0.06   0.04  -0.02
  24   6     0.01  -0.03   0.05    -0.00  -0.00   0.20     0.09   0.03  -0.03
  25   6     0.00  -0.03  -0.00     0.01   0.01   0.18     0.09   0.01  -0.01
  26   6    -0.01  -0.03   0.05     0.01   0.00   0.17     0.09  -0.03  -0.01
  27   6    -0.02  -0.02   0.00     0.00   0.01   0.20     0.08  -0.04  -0.03
  28   6    -0.02  -0.00  -0.00     0.01   0.00  -0.00     0.07  -0.05  -0.00
  29   7    -0.04   0.01  -0.04    -0.01   0.02   0.00     0.02  -0.04  -0.03
  30   6     0.00  -0.01  -0.04    -0.06   0.02   0.02    -0.04  -0.04  -0.00
  31   6     0.10  -0.06  -0.08    -0.20   0.05   0.04    -0.13  -0.03   0.01
  32   6     0.08  -0.06  -0.07    -0.16   0.00   0.03    -0.11  -0.05   0.01
  33   6    -0.06   0.01  -0.00     0.04  -0.10  -0.04     0.01  -0.11  -0.03
  34   6    -0.13   0.04   0.03     0.14  -0.11  -0.05     0.04  -0.10  -0.03
  35   6    -0.07   0.02   0.00     0.05  -0.03  -0.02    -0.02  -0.05  -0.01
  36  16    -0.05   0.02  -0.01    -0.05  -0.01   0.01    -0.30  -0.06   0.05
  37   6     0.07  -0.01  -0.02    -0.08   0.02  -0.01     0.01  -0.07  -0.03
  38   6     0.23  -0.05  -0.02    -0.20   0.04  -0.00     0.14  -0.11  -0.04
  39   6     0.15   0.01  -0.03    -0.11  -0.02  -0.00     0.06  -0.08  -0.03
  40   6    -0.15   0.12  -0.02     0.13  -0.11  -0.01    -0.19   0.00  -0.01
  41   6    -0.24   0.13  -0.02     0.19  -0.10  -0.01    -0.22   0.01  -0.00
  42   6    -0.08   0.04  -0.02     0.05  -0.03  -0.01    -0.07  -0.03  -0.02
  43   6    -0.02   0.00   0.06     0.06   0.02  -0.21     0.10  -0.03   0.07
  44   6    -0.01  -0.01   0.15     0.07   0.01  -0.20     0.10  -0.03   0.08
  45   6    -0.01  -0.03   0.13     0.05   0.01   0.01     0.11  -0.02   0.03
  46   6    -0.01  -0.03   0.09     0.05   0.00   0.04     0.13  -0.02   0.01
  47   7    -0.02  -0.03   0.16     0.06   0.00   0.04     0.15  -0.02  -0.01
  48   6    -0.01  -0.03   0.06     0.05   0.00   0.04     0.14  -0.02  -0.03
  49   6     0.03  -0.02   0.01     0.02  -0.02   0.01     0.08  -0.05  -0.01
  50   7     0.11   0.01  -0.10    -0.07  -0.07  -0.03    -0.05  -0.13   0.03
  51   1     0.00  -0.00  -0.08     0.02  -0.00  -0.09     0.02   0.01   0.04
  52   1     0.01  -0.00  -0.04     0.02  -0.01  -0.10     0.03   0.00   0.03
  53   1    -0.06  -0.03   0.03    -0.08  -0.03   0.01    -0.06  -0.00   0.01
  54   1    -0.05  -0.03   0.03    -0.07  -0.01   0.01    -0.06   0.01   0.01
  55   1     0.03   0.01  -0.01     0.03   0.04  -0.02     0.01   0.04  -0.01
  56   1     0.07   0.02  -0.02     0.07   0.04  -0.02     0.03   0.04  -0.01
  57   1    -0.13  -0.04   0.00    -0.08  -0.02  -0.00     0.06   0.04  -0.02
  58   1    -0.09  -0.01   0.01    -0.04   0.00  -0.00     0.04   0.03  -0.01
  59   1     0.09   0.06   0.00     0.06   0.04  -0.00    -0.09  -0.01   0.00
  60   1     0.14   0.06   0.01     0.07   0.03   0.00    -0.09  -0.01   0.00
  61   1     0.00  -0.01   0.04    -0.01  -0.00   0.10     0.03   0.01  -0.02
  62   1    -0.01  -0.01  -0.02    -0.00   0.00   0.10     0.03  -0.01  -0.02
  63   1     0.05  -0.03  -0.03    -0.09   0.03   0.01    -0.06   0.00   0.01
  64   1     0.05  -0.03  -0.03    -0.08   0.01   0.02    -0.05  -0.01   0.01
  65   1    -0.03   0.01   0.01     0.03  -0.04  -0.02     0.01  -0.04  -0.01
  66   1    -0.06   0.02   0.02     0.08  -0.05  -0.02     0.02  -0.04  -0.01
  67   1     0.11  -0.03  -0.00    -0.10   0.03  -0.00     0.08  -0.05  -0.02
  68   1     0.08  -0.00  -0.01    -0.06  -0.00  -0.00     0.04  -0.03  -0.01
  69   1    -0.08   0.05  -0.00     0.07  -0.05  -0.00    -0.09   0.02   0.00
  70   1    -0.12   0.05  -0.01     0.09  -0.04   0.00    -0.10   0.02   0.00
  71   1    -0.00   0.00   0.01     0.02   0.01  -0.10     0.03  -0.00   0.03
  72   1    -0.00  -0.00   0.06     0.02   0.00  -0.10     0.03  -0.01   0.04
                     19                     20                     21
                        a                      a                      a 
 Frequencies --   143.1522               145.2542               151.0879
 Red. masses --    12.2001                13.3935                12.6797
 Frc consts  --     0.0000                 0.0000                 0.0000
 IR Inten    --     4.3810                 0.3014                 7.2501
 Raman Activ --     0.0000                 0.0000                 0.0000
 Depolar     --     0.0000                 0.0000                 0.0000
 Atom AN      X      Y      Z        X      Y      Z        X      Y      Z
   1   7    -0.03  -0.00   0.28    -0.15  -0.13  -0.08     0.17  -0.20   0.03
   2   6     0.02   0.00  -0.13    -0.06  -0.17   0.01    -0.13  -0.03  -0.02
   3   6     0.04   0.01  -0.30    -0.01  -0.19   0.04    -0.22   0.03  -0.04
   4   7     0.02   0.00  -0.20    -0.01  -0.18   0.09    -0.17   0.06  -0.03
   5   6    -0.01   0.00   0.05    -0.01  -0.16   0.04    -0.09   0.03  -0.00
   6   6    -0.03  -0.00   0.22    -0.01  -0.14   0.04    -0.02   0.06   0.01
   7   6    -0.03  -0.00   0.22    -0.01  -0.08  -0.00    -0.01   0.10  -0.05
   8   6    -0.02  -0.00   0.09     0.00  -0.06  -0.04     0.04   0.12  -0.05
   9   6    -0.01  -0.01   0.00    -0.02  -0.05   0.01     0.10   0.08  -0.00
  10   7     0.03   0.01  -0.08    -0.02  -0.02  -0.00     0.12   0.07  -0.03
  11   6     0.01   0.02  -0.06    -0.03   0.05   0.01     0.03  -0.02  -0.01
  12   6    -0.00   0.03  -0.07    -0.06   0.10  -0.03    -0.07  -0.11   0.06
  13   6    -0.03   0.05  -0.05    -0.07   0.15  -0.02    -0.09  -0.16   0.06
  14   6    -0.05   0.04  -0.02    -0.06   0.16   0.01     0.07  -0.08  -0.03
  15   6    -0.04   0.03  -0.01    -0.04   0.11   0.05     0.14  -0.02  -0.09
  16   6    -0.00   0.02  -0.03    -0.03   0.06   0.03     0.07  -0.01  -0.05
  17  16     0.02  -0.00  -0.02    -0.15   0.11   0.01    -0.14  -0.08   0.04
  18   6     0.00  -0.03  -0.03    -0.02   0.05  -0.04     0.05  -0.00   0.02
  19   6    -0.03  -0.07  -0.01    -0.02   0.10  -0.06     0.11  -0.03   0.04
  20   6     0.01  -0.09  -0.03    -0.06   0.14  -0.04     0.08  -0.09   0.02
  21   6     0.07  -0.06  -0.06    -0.09   0.12  -0.00    -0.04  -0.13  -0.01
  22   6     0.07  -0.03  -0.07    -0.07   0.09   0.02    -0.05  -0.08  -0.03
  23   6     0.03  -0.01  -0.06    -0.02   0.04  -0.02     0.04  -0.00  -0.01
  24   6    -0.02  -0.00   0.13    -0.01  -0.12   0.05     0.08   0.05   0.08
  25   6    -0.03   0.00   0.23    -0.01  -0.13   0.03     0.04   0.03   0.08
  26   6    -0.03   0.01   0.23     0.01  -0.13  -0.01     0.04  -0.03   0.08
  27   6    -0.02   0.01   0.14     0.01  -0.12  -0.04     0.08  -0.05   0.08
  28   6    -0.01   0.01   0.00     0.02  -0.05  -0.01     0.09  -0.08  -0.00
  29   7     0.03  -0.01  -0.08     0.02  -0.02  -0.00     0.12  -0.07  -0.03
  30   6     0.01  -0.02  -0.06     0.03   0.05  -0.01     0.02   0.02  -0.01
  31   6    -0.01  -0.04  -0.07     0.06   0.10   0.03    -0.08   0.10   0.06
  32   6    -0.03  -0.06  -0.05     0.06   0.15   0.02    -0.09   0.15   0.06
  33   6    -0.05  -0.05  -0.02     0.06   0.16  -0.01     0.07   0.08  -0.03
  34   6    -0.04  -0.03  -0.01     0.04   0.11  -0.05     0.14   0.01  -0.09
  35   6    -0.00  -0.02  -0.03     0.03   0.06  -0.03     0.06   0.01  -0.05
  36  16     0.01  -0.00  -0.02     0.17   0.12  -0.02    -0.14   0.08   0.04
  37   6    -0.00   0.03  -0.03     0.02   0.06   0.04     0.05   0.00   0.01
  38   6    -0.03   0.07  -0.01     0.02   0.11   0.06     0.11   0.02   0.03
  39   6     0.00   0.08  -0.03     0.06   0.15   0.04     0.08   0.08   0.01
  40   6     0.07   0.05  -0.06     0.11   0.13  -0.00    -0.05   0.13  -0.00
  41   6     0.07   0.02  -0.07     0.08   0.09  -0.02    -0.05   0.08  -0.03
  42   6     0.03   0.01  -0.06     0.03   0.05   0.02     0.03   0.00  -0.01
  43   6    -0.02   0.01   0.08    -0.00  -0.07   0.04     0.04  -0.11  -0.06
  44   6    -0.03   0.01   0.22     0.00  -0.08   0.01    -0.01  -0.09  -0.05
  45   6    -0.03   0.01   0.22     0.00  -0.14  -0.02    -0.02  -0.06   0.01
  46   6    -0.01   0.01   0.05     0.00  -0.16  -0.04    -0.09  -0.02  -0.00
  47   7     0.02   0.01  -0.20    -0.00  -0.19  -0.11    -0.17  -0.06  -0.02
  48   6     0.04   0.01  -0.30     0.00  -0.19  -0.06    -0.22  -0.02  -0.03
  49   6     0.02   0.01  -0.13     0.06  -0.16  -0.02    -0.13   0.03  -0.02
  50   7    -0.04   0.01   0.27     0.16  -0.12   0.09     0.16   0.20   0.03
  51   1    -0.01  -0.00   0.08    -0.01  -0.02  -0.00    -0.01   0.03  -0.03
  52   1    -0.00   0.00   0.01     0.00  -0.02  -0.03     0.01   0.05  -0.02
  53   1     0.00   0.01  -0.02    -0.02   0.02  -0.02    -0.04  -0.04   0.03
  54   1    -0.01   0.02  -0.02    -0.02   0.05  -0.01    -0.06  -0.07   0.04
  55   1    -0.02   0.01  -0.00    -0.02   0.05   0.01     0.03  -0.03  -0.02
  56   1    -0.02   0.01   0.01    -0.01   0.03   0.03     0.06   0.00  -0.05
  57   1    -0.02  -0.03   0.01    -0.00   0.03  -0.03     0.04  -0.00   0.02
  58   1    -0.00  -0.03  -0.00    -0.02   0.05  -0.01     0.03  -0.03   0.01
  59   1     0.03  -0.02  -0.02    -0.04   0.04   0.00    -0.03  -0.05  -0.00
  60   1     0.03  -0.01  -0.02    -0.02   0.02   0.02    -0.03  -0.03  -0.02
  61   1    -0.01  -0.00   0.03     0.00  -0.04   0.03     0.03   0.01   0.04
  62   1    -0.01   0.00   0.04    -0.01  -0.04  -0.02     0.03  -0.01   0.04
  63   1     0.00  -0.01  -0.02     0.02   0.03   0.02    -0.04   0.04   0.03
  64   1    -0.01  -0.02  -0.02     0.02   0.05   0.01    -0.06   0.07   0.04
  65   1    -0.02  -0.02  -0.00     0.02   0.06  -0.01     0.03   0.02  -0.02
  66   1    -0.01  -0.01   0.01     0.01   0.03  -0.03     0.06  -0.00  -0.05
  67   1    -0.02   0.02   0.01    -0.00   0.03   0.03     0.05   0.00   0.02
  68   1    -0.00   0.03  -0.00     0.02   0.05   0.01     0.03   0.03   0.01
  69   1     0.03   0.02  -0.02     0.05   0.04  -0.01    -0.04   0.05  -0.00
  70   1     0.03   0.00  -0.02     0.03   0.02  -0.02    -0.03   0.03  -0.02
  71   1    -0.00   0.00   0.01    -0.00  -0.02   0.03     0.01  -0.05  -0.02
  72   1    -0.01   0.00   0.08     0.01  -0.02   0.01    -0.01  -0.03  -0.03
                     22                     23                     24
                        a                      a                      a 
 Frequencies --   163.7533               176.7744               207.1241
 Red. masses --    12.8883                13.9700                12.7427
 Frc consts  --     0.0000                 0.0000                 0.0000
 IR Inten    --     9.9061                 0.1367                 0.6512
 Raman Activ --     0.0000                 0.0000                 0.0000
 Depolar     --     0.0000                 0.0000                 0.0000
 Atom AN      X      Y      Z        X      Y      Z        X      Y      Z
   1   7     0.07   0.04  -0.25     0.01   0.02   0.07     0.11  -0.10   0.02
   2   6    -0.01   0.05   0.16     0.01   0.02  -0.05    -0.14   0.04  -0.02
   3   6    -0.03   0.05   0.22     0.01   0.03  -0.06    -0.16   0.05  -0.03
   4   7    -0.05   0.05   0.39     0.01   0.03  -0.09    -0.05   0.12  -0.01
   5   6    -0.01   0.04   0.10     0.01   0.02  -0.01     0.06   0.04   0.02
   6   6     0.01   0.03  -0.00     0.01   0.02   0.03     0.11   0.06   0.02
   7   6     0.03   0.00  -0.19     0.00  -0.05   0.09     0.11   0.03   0.04
   8   6     0.02  -0.01  -0.23    -0.05  -0.09   0.08     0.11   0.02   0.02
   9   6    -0.02  -0.01   0.00    -0.10  -0.07   0.03     0.09   0.03   0.00
  10   7    -0.07  -0.05   0.05    -0.21  -0.13   0.04    -0.06  -0.06   0.02
  11   6    -0.04  -0.05   0.03    -0.13  -0.07   0.01    -0.14  -0.10   0.03
  12   6    -0.01  -0.04   0.02    -0.02   0.04  -0.08    -0.13  -0.03  -0.03
  13   6     0.03  -0.02   0.00     0.11   0.17  -0.12     0.07   0.14  -0.10
  14   6     0.03  -0.02  -0.00    -0.01   0.11  -0.03     0.07   0.14  -0.06
  15   6     0.01  -0.03   0.01    -0.16  -0.00   0.08    -0.12  -0.00   0.07
  16   6    -0.01  -0.04   0.02    -0.13  -0.06   0.04    -0.15  -0.10   0.06
  17  16     0.10  -0.05  -0.01     0.24  -0.03  -0.08     0.15  -0.10  -0.06
  18   6    -0.03  -0.03   0.02    -0.11  -0.07  -0.00    -0.11  -0.07   0.01
  19   6    -0.05  -0.01   0.01    -0.13  -0.03  -0.03    -0.08   0.00  -0.03
  20   6    -0.01   0.03   0.02     0.01   0.06  -0.02     0.05   0.09  -0.02
  21   6     0.05   0.05   0.03     0.13   0.10  -0.01     0.06   0.09   0.01
  22   6     0.03   0.01   0.05     0.02   0.01   0.03    -0.07  -0.01   0.05
  23   6    -0.02  -0.02   0.04    -0.12  -0.07   0.02    -0.11  -0.07   0.03
  24   6    -0.03   0.02   0.09    -0.08   0.00   0.01     0.10   0.06  -0.01
  25   6    -0.00   0.04   0.02    -0.01   0.04   0.01     0.11   0.05  -0.00
  26   6     0.00   0.04  -0.01     0.01   0.04  -0.01     0.11  -0.05   0.00
  27   6     0.03   0.02  -0.09     0.08   0.00  -0.01     0.10  -0.06  -0.01
  28   6     0.02  -0.01  -0.00     0.10  -0.07  -0.03     0.09  -0.03   0.00
  29   7     0.07  -0.05  -0.05     0.21  -0.13  -0.04    -0.06   0.06   0.02
  30   6     0.04  -0.05  -0.03     0.13  -0.07  -0.01    -0.14   0.10   0.03
  31   6     0.01  -0.04  -0.02     0.02   0.04   0.09    -0.12   0.03  -0.03
  32   6    -0.03  -0.02  -0.00    -0.11   0.17   0.13     0.07  -0.14  -0.10
  33   6    -0.03  -0.02   0.00     0.01   0.12   0.03     0.07  -0.14  -0.06
  34   6    -0.01  -0.03  -0.01     0.16  -0.00  -0.08    -0.12   0.00   0.07
  35   6     0.01  -0.04  -0.02     0.13  -0.06  -0.04    -0.15   0.10   0.06
  36  16    -0.11  -0.05   0.01    -0.25  -0.04   0.08     0.15   0.10  -0.06
  37   6     0.03  -0.03  -0.02     0.12  -0.07   0.00    -0.11   0.07   0.01
  38   6     0.06  -0.01  -0.01     0.13  -0.03   0.03    -0.07  -0.00  -0.03
  39   6     0.01   0.03  -0.02    -0.01   0.06   0.02     0.05  -0.09  -0.02
  40   6    -0.06   0.05  -0.03    -0.14   0.10   0.01     0.05  -0.09   0.01
  41   6    -0.03   0.02  -0.05    -0.02   0.01  -0.03    -0.07   0.01   0.05
  42   6     0.02  -0.02  -0.04     0.12  -0.08  -0.02    -0.11   0.07   0.03
  43   6    -0.01  -0.01   0.23     0.05  -0.09  -0.08     0.11  -0.02   0.02
  44   6    -0.03   0.00   0.19    -0.00  -0.05  -0.09     0.11  -0.03   0.04
  45   6    -0.01   0.03   0.00    -0.01   0.02  -0.03     0.11  -0.06   0.02
  46   6     0.01   0.04  -0.10    -0.01   0.02   0.01     0.06  -0.04   0.02
  47   7     0.05   0.05  -0.39    -0.01   0.03   0.09    -0.05  -0.12  -0.01
  48   6     0.03   0.05  -0.22    -0.01   0.03   0.06    -0.16  -0.05  -0.03
  49   6     0.01   0.04  -0.15    -0.01   0.02   0.05    -0.14  -0.04  -0.02
  50   7    -0.07   0.04   0.25    -0.01   0.02  -0.07     0.11   0.10   0.02
  51   1     0.02  -0.00  -0.09     0.02  -0.02   0.04     0.04   0.01   0.02
  52   1     0.01  -0.01  -0.11    -0.02  -0.04   0.03     0.03   0.00   0.01
  53   1     0.00  -0.01  -0.00     0.00   0.01  -0.04    -0.05  -0.02  -0.02
  54   1     0.02  -0.00  -0.00     0.08   0.08  -0.06     0.06   0.07  -0.05
  55   1     0.02  -0.00  -0.00     0.01   0.05  -0.01     0.06   0.07  -0.03
  56   1     0.01  -0.01  -0.00    -0.06  -0.01   0.04    -0.03   0.00   0.04
  57   1    -0.02  -0.01  -0.00    -0.05  -0.01  -0.02    -0.02  -0.00  -0.02
  58   1    -0.00   0.01   0.00     0.02   0.03  -0.01     0.05   0.05  -0.01
  59   1     0.03   0.02   0.01     0.09   0.05  -0.00     0.05   0.05   0.01
  60   1     0.02   0.01   0.02     0.02   0.01   0.02    -0.02  -0.00   0.03
  61   1    -0.02   0.01   0.06    -0.03   0.01  -0.00     0.02   0.02  -0.00
  62   1     0.02   0.01  -0.06     0.03   0.01   0.00     0.02  -0.02  -0.00
  63   1    -0.00  -0.01   0.00    -0.00   0.01   0.04    -0.05   0.02  -0.02
  64   1    -0.02  -0.00   0.00    -0.08   0.08   0.07     0.06  -0.07  -0.05
  65   1    -0.02  -0.00   0.00    -0.01   0.05   0.01     0.06  -0.07  -0.03
  66   1    -0.01  -0.01  -0.00     0.06  -0.01  -0.05    -0.03  -0.00   0.04
  67   1     0.02  -0.01   0.00     0.05  -0.02   0.02    -0.02  -0.00  -0.02
  68   1     0.00   0.01  -0.00    -0.02   0.03   0.01     0.05  -0.05  -0.01
  69   1    -0.03   0.03  -0.01    -0.09   0.06   0.00     0.04  -0.05   0.01
  70   1    -0.02   0.01  -0.02    -0.02   0.01  -0.02    -0.02   0.00   0.03
  71   1    -0.01  -0.01   0.11     0.02  -0.04  -0.03     0.03  -0.00   0.01
  72   1    -0.02  -0.00   0.09    -0.02  -0.02  -0.04     0.04  -0.01   0.02
                     25                     26                     27
                        a                      a                      a 
 Frequencies --   226.8281               227.2549               232.6411
 Red. masses --    10.5359                10.8020                10.9550
 Frc consts  --     0.0000                 0.0000                 0.0000
 IR Inten    --     0.6050                10.1638                52.3647
 Raman Activ --     0.0000                 0.0000                 0.0000
 Depolar     --     0.0000                 0.0000                 0.0000
 Atom AN      X      Y      Z        X      Y      Z        X      Y      Z
   1   7     0.01   0.00  -0.02    -0.01  -0.02   0.02     0.02   0.05   0.06
   2   6    -0.01   0.01   0.02    -0.02  -0.01  -0.03     0.03   0.05  -0.06
   3   6    -0.01   0.01   0.02    -0.02  -0.00  -0.03     0.01   0.05  -0.06
   4   7    -0.01   0.01   0.02    -0.02  -0.00  -0.00    -0.01   0.04  -0.03
   5   6    -0.00   0.00  -0.01    -0.01  -0.01   0.03    -0.00   0.03   0.04
   6   6     0.01  -0.00  -0.07    -0.01  -0.01   0.04    -0.02   0.01   0.17
   7   6     0.00  -0.01  -0.05    -0.01  -0.03   0.02    -0.01  -0.01   0.12
   8   6    -0.00  -0.01   0.04    -0.02  -0.04  -0.03     0.01  -0.01  -0.10
   9   6     0.01  -0.01  -0.06    -0.02  -0.04  -0.01    -0.01  -0.02   0.08
  10   7     0.02  -0.01   0.01     0.02  -0.04  -0.00     0.03  -0.03  -0.03
  11   6    -0.17  -0.09   0.09    -0.08  -0.06   0.04    -0.02  -0.05  -0.02
  12   6    -0.15  -0.08   0.08    -0.08  -0.04   0.02    -0.05  -0.02  -0.05
  13   6     0.13   0.06  -0.04     0.04   0.04  -0.03    -0.03   0.05  -0.05
  14   6     0.17   0.08  -0.06     0.07   0.06  -0.03    -0.00   0.06  -0.03
  15   6    -0.12  -0.06   0.07    -0.05  -0.02   0.04    -0.01   0.01   0.01
  16   6    -0.21  -0.11   0.11    -0.09  -0.06   0.06    -0.02  -0.05   0.00
  17  16    -0.01  -0.06  -0.01    -0.06  -0.05  -0.00    -0.05  -0.07  -0.02
  18   6     0.27   0.08  -0.03     0.23   0.06  -0.04     0.15   0.03  -0.04
  19   6     0.17   0.08  -0.04     0.13   0.05  -0.04     0.07  -0.01  -0.03
  20   6    -0.20  -0.03   0.02    -0.17  -0.04   0.00    -0.10  -0.07  -0.01
  21   6    -0.18  -0.03   0.04    -0.13  -0.03   0.01    -0.05  -0.05  -0.02
  22   6     0.17   0.07   0.01     0.16   0.06  -0.01     0.13   0.02  -0.04
  23   6     0.22   0.07  -0.01     0.20   0.05  -0.03     0.15   0.03  -0.04
  24   6     0.03  -0.00  -0.22    -0.02  -0.03   0.04    -0.04  -0.01   0.42
  25   6     0.01  -0.00  -0.09    -0.01  -0.01   0.02    -0.01   0.01   0.17
  26   6    -0.01   0.00   0.08    -0.00   0.01  -0.03     0.02   0.01  -0.17
  27   6    -0.03   0.01   0.21    -0.00   0.03  -0.09     0.04  -0.01  -0.42
  28   6    -0.02   0.01   0.05    -0.01   0.04  -0.04     0.01  -0.02  -0.08
  29   7    -0.01   0.00  -0.01     0.03   0.04   0.00    -0.03  -0.03   0.03
  30   6     0.12  -0.06  -0.06    -0.15   0.09   0.08     0.03  -0.05   0.01
  31   6     0.10  -0.05  -0.06    -0.14   0.07   0.05     0.06  -0.02   0.05
  32   6    -0.10   0.03   0.02     0.10  -0.06  -0.04     0.03   0.05   0.05
  33   6    -0.12   0.04   0.04     0.14  -0.08  -0.05    -0.00   0.07   0.03
  34   6     0.09  -0.05  -0.05    -0.10   0.05   0.07     0.01   0.01  -0.02
  35   6     0.15  -0.07  -0.07    -0.17   0.11   0.10     0.03  -0.05  -0.01
  36  16    -0.01  -0.03   0.01    -0.05   0.07  -0.01     0.06  -0.07   0.02
  37   6    -0.14   0.05   0.01     0.31  -0.09  -0.05    -0.17   0.03   0.04
  38   6    -0.09   0.05   0.01     0.18  -0.08  -0.05    -0.08  -0.01   0.03
  39   6     0.10  -0.01  -0.02    -0.24   0.05   0.01     0.11  -0.07   0.01
  40   6     0.10  -0.01  -0.03    -0.19   0.03   0.03     0.05  -0.05   0.02
  41   6    -0.08   0.04  -0.01     0.21  -0.08  -0.00    -0.14   0.03   0.04
  42   6    -0.11   0.04  -0.00     0.27  -0.07  -0.02    -0.16   0.04   0.05
  43   6    -0.00   0.01  -0.05    -0.02   0.04  -0.01    -0.00  -0.01   0.10
  44   6    -0.01   0.01   0.05    -0.01   0.03  -0.01     0.01  -0.01  -0.12
  45   6    -0.01   0.01   0.08    -0.01   0.01  -0.01     0.02   0.01  -0.17
  46   6    -0.01   0.01   0.02    -0.01   0.01   0.02     0.01   0.03  -0.04
  47   7    -0.00   0.01  -0.02    -0.02   0.00   0.01     0.01   0.04   0.04
  48   6    -0.00   0.01  -0.03    -0.03   0.00  -0.01    -0.01   0.05   0.05
  49   6    -0.00   0.01  -0.03    -0.02   0.01  -0.01    -0.03   0.05   0.06
  50   7    -0.01   0.01   0.03    -0.00   0.02   0.01    -0.02   0.05  -0.06
  51   1     0.00  -0.00  -0.01     0.00  -0.01   0.01     0.00  -0.00   0.04
  52   1    -0.00  -0.00   0.05    -0.00  -0.01  -0.02     0.01  -0.00  -0.10
  53   1    -0.06  -0.03   0.03    -0.03  -0.01   0.00    -0.02  -0.01  -0.03
  54   1     0.09   0.04  -0.03     0.03   0.03  -0.02    -0.01   0.02  -0.02
  55   1     0.12   0.06  -0.05     0.05   0.04  -0.02     0.01   0.03  -0.01
  56   1    -0.04  -0.02   0.03    -0.01  -0.01   0.02     0.00   0.01   0.02
  57   1     0.06   0.03  -0.02     0.04   0.02  -0.02     0.02  -0.00  -0.01
  58   1    -0.14  -0.03   0.01    -0.12  -0.03   0.01    -0.08  -0.04   0.00
  59   1    -0.13  -0.03   0.02    -0.10  -0.03   0.01    -0.05  -0.03  -0.00
  60   1     0.07   0.03   0.01     0.06   0.02   0.00     0.04   0.01  -0.01
  61   1     0.01   0.00  -0.10    -0.01  -0.01   0.02    -0.02  -0.00   0.19
  62   1    -0.01   0.00   0.10    -0.00   0.01  -0.04     0.02  -0.00  -0.19
  63   1     0.04  -0.02  -0.02    -0.05   0.03   0.01     0.02  -0.01   0.03
  64   1    -0.07   0.03   0.02     0.07  -0.04  -0.03     0.01   0.02   0.02
  65   1    -0.08   0.03   0.03     0.10  -0.06  -0.04    -0.01   0.03   0.01
  66   1     0.03  -0.02  -0.02    -0.03   0.02   0.03    -0.00   0.01  -0.02
  67   1    -0.03   0.02   0.01     0.06  -0.03  -0.03    -0.02  -0.00   0.01
  68   1     0.07  -0.02  -0.01    -0.17   0.04   0.01     0.08  -0.04  -0.00
  69   1     0.07  -0.01  -0.01    -0.14   0.04   0.02     0.05  -0.03   0.00
  70   1    -0.03   0.01  -0.00     0.08  -0.03   0.00    -0.04   0.01   0.01
  71   1     0.00   0.00  -0.05    -0.01   0.01   0.01    -0.01  -0.00   0.10
  72   1    -0.00   0.00   0.01     0.00   0.01   0.00    -0.00  -0.00  -0.04
                     28                     29                     30
                        a                      a                      a 
 Frequencies --   244.8707               245.9184               254.9110
 Red. masses --    11.9448                11.9280                11.8713
 Frc consts  --     0.0000                 0.0000                 0.0000
 IR Inten    --     3.8599                 7.7183                 1.5030
 Raman Activ --     0.0000                 0.0000                 0.0000
 Depolar     --     0.0000                 0.0000                 0.0000
 Atom AN      X      Y      Z        X      Y      Z        X      Y      Z
   1   7     0.06  -0.08  -0.12     0.02  -0.07   0.13     0.07   0.10   0.00
   2   6    -0.14   0.02   0.14    -0.08   0.01  -0.18     0.03   0.10   0.01
   3   6    -0.14   0.02   0.14    -0.08   0.02  -0.18     0.00   0.10   0.01
   4   7    -0.03   0.07  -0.10    -0.05   0.06   0.10    -0.02   0.09   0.00
   5   6     0.08   0.01  -0.20     0.02   0.01   0.23     0.01   0.06  -0.01
   6   6     0.07  -0.01  -0.08     0.03  -0.01   0.10     0.00   0.02  -0.03
   7   6     0.06  -0.09   0.11     0.05  -0.07  -0.06     0.01  -0.10  -0.01
   8   6    -0.00  -0.13   0.16     0.02  -0.10  -0.16    -0.08  -0.16   0.03
   9   6    -0.02  -0.11   0.07    -0.01  -0.09  -0.08    -0.10  -0.15  -0.02
  10   7    -0.01  -0.11  -0.01    -0.05  -0.11   0.04    -0.13  -0.17   0.04
  11   6     0.13  -0.00  -0.06     0.10   0.00  -0.01     0.12   0.00  -0.04
  12   6     0.07   0.06  -0.11     0.10   0.04  -0.03     0.13   0.06  -0.09
  13   6    -0.10   0.08  -0.02    -0.07  -0.00   0.05    -0.08   0.02   0.02
  14   6    -0.13   0.07   0.06    -0.08  -0.01   0.08    -0.14  -0.00   0.09
  15   6     0.06   0.07   0.04     0.10   0.04   0.03     0.11   0.06   0.02
  16   6     0.14   0.01  -0.03     0.14   0.02  -0.00     0.18   0.03  -0.03
  17  16    -0.10  -0.06   0.02    -0.05  -0.07   0.08    -0.09  -0.08   0.07
  18   6     0.06  -0.04  -0.06     0.02  -0.05  -0.00     0.11  -0.04  -0.04
  19   6     0.02  -0.00  -0.08     0.01   0.04  -0.06     0.07   0.03  -0.08
  20   6    -0.06   0.02  -0.05    -0.06   0.11  -0.01    -0.13   0.05  -0.02
  21   6    -0.04   0.03  -0.02    -0.06   0.11   0.05    -0.08   0.07   0.04
  22   6     0.05   0.01  -0.00     0.00   0.03   0.09     0.10   0.04   0.06
  23   6     0.06  -0.04  -0.04     0.01  -0.06   0.03     0.07  -0.06   0.01
  24   6    -0.03  -0.05   0.16    -0.00  -0.03  -0.21    -0.08  -0.04  -0.14
  25   6     0.04  -0.01   0.05     0.03  -0.00  -0.09    -0.00   0.02  -0.05
  26   6     0.04   0.01   0.05     0.03   0.01  -0.08     0.00   0.02   0.05
  27   6    -0.02   0.05   0.16    -0.00   0.03  -0.20     0.08  -0.04   0.14
  28   6    -0.02   0.11   0.07    -0.01   0.09  -0.08     0.10  -0.15   0.02
  29   7    -0.01   0.11  -0.01    -0.05   0.11   0.04     0.13  -0.18  -0.04
  30   6     0.12   0.00  -0.06     0.10  -0.00  -0.01    -0.13   0.00   0.04
  31   6     0.07  -0.06  -0.11     0.10  -0.04  -0.03    -0.14   0.06   0.09
  32   6    -0.09  -0.08  -0.02    -0.07   0.00   0.05     0.08   0.02  -0.02
  33   6    -0.13  -0.07   0.06    -0.08   0.01   0.08     0.14   0.00  -0.09
  34   6     0.06  -0.07   0.04     0.10  -0.04   0.03    -0.11   0.06  -0.02
  35   6     0.14  -0.01  -0.03     0.14  -0.02  -0.00    -0.18   0.03   0.03
  36  16    -0.10   0.06   0.02    -0.05   0.07   0.08     0.10  -0.08  -0.07
  37   6     0.06   0.04  -0.06     0.02   0.05  -0.00    -0.12  -0.04   0.04
  38   6     0.02   0.00  -0.08     0.01  -0.04  -0.06    -0.07   0.03   0.08
  39   6    -0.06  -0.02  -0.05    -0.06  -0.11  -0.01     0.13   0.05   0.02
  40   6    -0.03  -0.03  -0.02    -0.06  -0.11   0.05     0.08   0.07  -0.04
  41   6     0.05  -0.01  -0.01     0.00  -0.03   0.09    -0.10   0.04  -0.06
  42   6     0.06   0.04  -0.04     0.01   0.06   0.03    -0.08  -0.06  -0.00
  43   6    -0.00   0.12   0.16     0.02   0.10  -0.16     0.08  -0.16  -0.04
  44   6     0.06   0.09   0.11     0.05   0.07  -0.06    -0.01  -0.11   0.01
  45   6     0.07   0.01  -0.08     0.03   0.01   0.10    -0.00   0.02   0.03
  46   6     0.08  -0.01  -0.20     0.02  -0.01   0.23    -0.01   0.06   0.01
  47   7    -0.03  -0.07  -0.10    -0.05  -0.06   0.10     0.02   0.09   0.00
  48   6    -0.14  -0.02   0.14    -0.08  -0.02  -0.18    -0.00   0.10  -0.01
  49   6    -0.14  -0.01   0.14    -0.08  -0.01  -0.18    -0.03   0.10  -0.02
  50   7     0.06   0.08  -0.12     0.02   0.07   0.14    -0.07   0.10   0.00
  51   1     0.03  -0.03   0.04     0.03  -0.03  -0.02     0.03  -0.04  -0.00
  52   1    -0.00  -0.05   0.06     0.01  -0.04  -0.07    -0.02  -0.06   0.02
  53   1     0.02   0.01  -0.05     0.04   0.01  -0.02     0.05   0.02  -0.04
  54   1    -0.06   0.02  -0.01    -0.05  -0.01   0.02    -0.06  -0.00   0.01
  55   1    -0.08   0.02   0.04    -0.06  -0.01   0.04    -0.10  -0.02   0.05
  56   1     0.02   0.02   0.04     0.04   0.02   0.01     0.04   0.02   0.02
  57   1     0.00  -0.00  -0.04     0.01   0.01  -0.05     0.03   0.01  -0.05
  58   1    -0.04   0.01  -0.02    -0.03   0.05  -0.01    -0.08   0.01  -0.01
  59   1    -0.02   0.01   0.00    -0.03   0.04   0.03    -0.05   0.02   0.02
  60   1     0.02   0.01   0.01     0.01   0.01   0.04     0.05   0.02   0.04
  61   1    -0.03  -0.01   0.06    -0.01  -0.00  -0.09    -0.04   0.00  -0.07
  62   1    -0.02   0.01   0.06    -0.01   0.00  -0.09     0.04  -0.00   0.07
  63   1     0.02  -0.01  -0.05     0.04  -0.01  -0.02    -0.05   0.02   0.04
  64   1    -0.06  -0.02  -0.01    -0.05   0.01   0.02     0.06  -0.00  -0.01
  65   1    -0.08  -0.02   0.04    -0.06   0.01   0.04     0.10  -0.02  -0.06
  66   1     0.02  -0.02   0.04     0.04  -0.02   0.01    -0.04   0.02  -0.02
  67   1     0.00   0.00  -0.04     0.01  -0.01  -0.05    -0.02   0.01   0.05
  68   1    -0.04  -0.01  -0.02    -0.03  -0.05  -0.01     0.08   0.01   0.01
  69   1    -0.02  -0.01   0.00    -0.03  -0.04   0.03     0.05   0.02  -0.02
  70   1     0.02  -0.00   0.01     0.01  -0.01   0.04    -0.05   0.02  -0.04
  71   1    -0.00   0.04   0.06     0.01   0.04  -0.07     0.02  -0.06  -0.02
  72   1     0.03   0.03   0.04     0.03   0.03  -0.02    -0.03  -0.05   0.00
                     31                     32                     33
                        a                      a                      a 
 Frequencies --   273.0506               280.6275               303.9875
 Red. masses --    16.4721                16.8834                11.5000
 Frc consts  --     0.0000                 0.0000                 0.0000
 IR Inten    --     0.5572                 0.3741                 0.4470
 Raman Activ --     0.0000                 0.0000                 0.0000
 Depolar     --     0.0000                 0.0000                 0.0000
 Atom AN      X      Y      Z        X      Y      Z        X      Y      Z
   1   7     0.01   0.03   0.02    -0.09   0.03  -0.02    -0.03  -0.03   0.15
   2   6     0.01   0.03  -0.03     0.13  -0.09   0.03     0.03  -0.02  -0.27
   3   6     0.00   0.03  -0.02     0.09  -0.07   0.02     0.02  -0.02  -0.15
   4   7    -0.01   0.02  -0.00    -0.03  -0.14  -0.02     0.00  -0.02   0.05
   5   6    -0.01   0.01   0.02    -0.15  -0.05  -0.04    -0.02  -0.01   0.19
   6   6    -0.02  -0.00   0.03    -0.11  -0.02  -0.02    -0.02   0.00   0.29
   7   6    -0.02   0.05   0.03    -0.12   0.07   0.02     0.01   0.00   0.05
   8   6     0.08   0.10  -0.03    -0.03   0.12  -0.00     0.02  -0.01  -0.31
   9   6     0.16   0.05  -0.04     0.07   0.05  -0.01    -0.01   0.01  -0.15
  10   7     0.24   0.06  -0.05     0.18   0.07  -0.04    -0.07  -0.01   0.02
  11   6     0.08  -0.09  -0.04     0.08  -0.08  -0.06    -0.06   0.03   0.03
  12   6    -0.04  -0.04  -0.08    -0.02  -0.03  -0.10     0.02   0.01   0.05
  13   6    -0.08   0.09  -0.04    -0.09   0.07  -0.05     0.02  -0.07   0.03
  14   6    -0.01   0.13   0.00    -0.03   0.10  -0.01     0.02  -0.08  -0.01
  15   6     0.02   0.03   0.07     0.02   0.03   0.03     0.02  -0.01  -0.05
  16   6     0.05  -0.12   0.01     0.05  -0.10  -0.02    -0.04   0.04   0.00
  17  16     0.05  -0.35   0.05     0.05  -0.35   0.04     0.03   0.03   0.07
  18   6    -0.03  -0.13   0.03     0.00  -0.10   0.04     0.00  -0.01   0.03
  19   6    -0.04   0.03  -0.06    -0.01   0.03  -0.03     0.01   0.02   0.02
  20   6     0.03   0.17  -0.02     0.01   0.12   0.01    -0.02   0.04   0.04
  21   6    -0.06   0.13   0.06    -0.05   0.10   0.06    -0.02   0.04   0.05
  22   6    -0.07  -0.02   0.12    -0.02  -0.01   0.10     0.01   0.02   0.06
  23   6     0.02  -0.10   0.05     0.04  -0.07   0.05    -0.01  -0.02   0.04
  24   6     0.13   0.02  -0.04     0.05  -0.01   0.01    -0.01   0.02  -0.18
  25   6     0.02  -0.04  -0.01    -0.03  -0.04  -0.01    -0.01   0.02   0.03
  26   6    -0.02  -0.04   0.01    -0.03   0.04  -0.01     0.01   0.02  -0.03
  27   6    -0.13   0.02   0.04     0.06   0.01   0.01     0.01   0.02   0.18
  28   6    -0.16   0.05   0.04     0.07  -0.05  -0.02     0.01   0.01   0.15
  29   7    -0.23   0.06   0.05     0.18  -0.07  -0.05     0.07  -0.01  -0.02
  30   6    -0.08  -0.09   0.04     0.08   0.08  -0.06     0.06   0.03  -0.03
  31   6     0.04  -0.04   0.08    -0.02   0.03  -0.10    -0.02   0.01  -0.05
  32   6     0.08   0.09   0.04    -0.09  -0.07  -0.05    -0.02  -0.07  -0.03
  33   6     0.01   0.13  -0.00    -0.03  -0.11  -0.01    -0.02  -0.08   0.01
  34   6    -0.02   0.03  -0.07     0.03  -0.03   0.03    -0.02  -0.01   0.05
  35   6    -0.04  -0.11  -0.01     0.05   0.10  -0.03     0.04   0.04  -0.00
  36  16    -0.05  -0.35  -0.05     0.05   0.36   0.04    -0.03   0.03  -0.07
  37   6     0.03  -0.13  -0.03     0.00   0.10   0.04    -0.00  -0.01  -0.03
  38   6     0.04   0.03   0.06    -0.01  -0.03  -0.03    -0.01   0.02  -0.02
  39   6    -0.03   0.17   0.02     0.01  -0.13   0.01     0.02   0.04  -0.04
  40   6     0.06   0.13  -0.06    -0.06  -0.10   0.06     0.02   0.04  -0.05
  41   6     0.07  -0.02  -0.11    -0.02   0.01   0.11    -0.01   0.02  -0.06
  42   6    -0.02  -0.10  -0.05     0.04   0.08   0.05     0.01  -0.02  -0.04
  43   6    -0.08   0.10   0.03    -0.03  -0.12  -0.00    -0.02  -0.01   0.31
  44   6     0.01   0.05  -0.03    -0.12  -0.07   0.02    -0.01   0.00  -0.05
  45   6     0.01  -0.00  -0.03    -0.11   0.02  -0.02     0.02   0.00  -0.29
  46   6     0.00   0.01  -0.02    -0.15   0.05  -0.04     0.02  -0.01  -0.19
  47   7     0.01   0.02   0.00    -0.04   0.14  -0.02    -0.00  -0.02  -0.05
  48   6    -0.00   0.03   0.02     0.09   0.07   0.02    -0.02  -0.02   0.15
  49   6    -0.01   0.03   0.03     0.13   0.09   0.03    -0.03  -0.02   0.27
  50   7    -0.02   0.03  -0.02    -0.09  -0.03  -0.02     0.03  -0.03  -0.15
  51   1    -0.02   0.02   0.02    -0.05   0.03   0.01     0.00   0.00   0.02
  52   1     0.02   0.06  -0.01    -0.01   0.06   0.00     0.01  -0.01  -0.16
  53   1    -0.03  -0.02  -0.05    -0.02  -0.02  -0.06     0.03   0.02   0.02
  54   1    -0.04   0.04  -0.02    -0.05   0.03  -0.02     0.01  -0.03   0.02
  55   1     0.00   0.06   0.00    -0.01   0.05   0.00     0.01  -0.03  -0.01
  56   1     0.02   0.02   0.06     0.02   0.02   0.04     0.02  -0.00  -0.04
  57   1    -0.01   0.01  -0.06    -0.00   0.01  -0.04     0.01   0.01  -0.00
  58   1     0.04   0.08  -0.02     0.01   0.05  -0.01    -0.01   0.02   0.01
  59   1    -0.02   0.06   0.03    -0.02   0.04   0.03    -0.01   0.02   0.02
  60   1    -0.02  -0.01   0.07    -0.00  -0.00   0.06     0.01   0.01   0.02
  61   1     0.05  -0.00  -0.02     0.03  -0.01   0.01    -0.00   0.01  -0.09
  62   1    -0.05  -0.00   0.02     0.03   0.01   0.01     0.00   0.01   0.09
  63   1     0.03  -0.02   0.05    -0.02   0.02  -0.06    -0.03   0.02  -0.02
  64   1     0.04   0.04   0.02    -0.05  -0.03  -0.02    -0.01  -0.03  -0.02
  65   1    -0.00   0.06  -0.00    -0.01  -0.05   0.00    -0.01  -0.03   0.01
  66   1    -0.02   0.02  -0.06     0.02  -0.02   0.04    -0.02  -0.00   0.04
  67   1     0.01   0.01   0.06    -0.00  -0.01  -0.04    -0.01   0.01   0.00
  68   1    -0.04   0.08   0.02     0.02  -0.06  -0.01     0.01   0.02  -0.01
  69   1     0.02   0.06  -0.03    -0.02  -0.04   0.03     0.01   0.02  -0.02
  70   1     0.02  -0.01  -0.07    -0.00   0.00   0.06    -0.01   0.01  -0.02
  71   1    -0.02   0.05   0.01    -0.01  -0.06   0.00    -0.01  -0.01   0.16
  72   1     0.02   0.02  -0.02    -0.05  -0.03   0.01    -0.00   0.00  -0.02
                     34                     35                     36
                        a                      a                      a 
 Frequencies --   319.3538               319.9174               338.9477
 Red. masses --    13.0965                12.5679                12.6097
 Frc consts  --     0.0000                 0.0000                 0.0000
 IR Inten    --     0.1362                 0.0680                16.7997
 Raman Activ --     0.0000                 0.0000                 0.0000
 Depolar     --     0.0000                 0.0000                 0.0000
 Atom AN      X      Y      Z        X      Y      Z        X      Y      Z
   1   7     0.05   0.11   0.03    -0.09  -0.10  -0.01     0.02   0.00  -0.11
   2   6     0.06   0.10  -0.03    -0.00  -0.13  -0.01    -0.04   0.01   0.21
   3   6     0.00   0.10  -0.02    -0.03  -0.09  -0.01    -0.02   0.01   0.15
   4   7    -0.05   0.06   0.01    -0.05  -0.10   0.02     0.05   0.01  -0.40
   5   6    -0.01   0.02   0.03    -0.06  -0.07  -0.00     0.01   0.00   0.03
   6   6    -0.04  -0.05   0.04    -0.01  -0.06  -0.02    -0.02  -0.01   0.19
   7   6    -0.04  -0.10  -0.01    -0.01  -0.06  -0.02    -0.02  -0.01   0.13
   8   6    -0.02  -0.10  -0.06    -0.01  -0.06   0.01     0.01  -0.02  -0.21
   9   6     0.04  -0.12  -0.02     0.03  -0.08   0.01    -0.00  -0.01  -0.18
  10   7     0.21  -0.04  -0.04     0.19  -0.01  -0.04     0.03   0.01  -0.03
  11   6     0.04  -0.01   0.11     0.05  -0.02   0.06    -0.05   0.06   0.04
  12   6    -0.04  -0.06   0.17    -0.04  -0.05   0.11     0.01   0.03   0.07
  13   6     0.08   0.01   0.14     0.05   0.02   0.09     0.03  -0.06   0.05
  14   6     0.15   0.04   0.15     0.11   0.05   0.11     0.04  -0.06  -0.00
  15   6     0.00  -0.03   0.21    -0.01  -0.02   0.16    -0.00  -0.00  -0.04
  16   6     0.02  -0.01   0.18     0.02  -0.02   0.12    -0.06   0.05   0.02
  17  16    -0.08   0.21   0.01    -0.05   0.11   0.00     0.04   0.02   0.10
  18   6    -0.05  -0.05  -0.15    -0.04  -0.04  -0.10     0.00  -0.07  -0.00
  19   6    -0.12  -0.06  -0.16    -0.09  -0.04  -0.11    -0.01  -0.00  -0.04
  20   6     0.07   0.03  -0.19     0.06   0.02  -0.14    -0.00   0.07  -0.01
  21   6     0.02   0.01  -0.14     0.01   0.01  -0.10    -0.03   0.05   0.03
  22   6    -0.12  -0.07  -0.10    -0.09  -0.05  -0.07    -0.01  -0.02   0.06
  23   6     0.02  -0.03  -0.10     0.02  -0.02  -0.07     0.02  -0.07   0.02
  24   6     0.03  -0.12  -0.02     0.02  -0.09   0.00    -0.01  -0.01  -0.13
  25   6     0.01  -0.10   0.01     0.02  -0.06   0.00    -0.02  -0.00   0.07
  26   6     0.00  -0.07  -0.01     0.03   0.09   0.01    -0.02   0.01   0.07
  27   6    -0.02  -0.08   0.02     0.03   0.12  -0.00    -0.01   0.01  -0.13
  28   6    -0.02  -0.09   0.02     0.04   0.12  -0.00    -0.00   0.01  -0.18
  29   7    -0.13  -0.04   0.02     0.25   0.02  -0.05     0.03  -0.01  -0.03
  30   6    -0.03  -0.01  -0.08     0.06   0.02   0.10    -0.05  -0.06   0.04
  31   6     0.03  -0.04  -0.12    -0.05   0.07   0.16     0.00  -0.03   0.07
  32   6    -0.06   0.00  -0.10     0.08  -0.02   0.13     0.03   0.06   0.05
  33   6    -0.10   0.03  -0.11     0.15  -0.06   0.15     0.04   0.06  -0.00
  34   6    -0.00  -0.02  -0.14    -0.01   0.03   0.22    -0.00   0.00  -0.04
  35   6    -0.01  -0.00  -0.13     0.03   0.02   0.18    -0.06  -0.05   0.02
  36  16     0.06   0.16  -0.01    -0.08  -0.18   0.00     0.04  -0.02   0.10
  37   6     0.03  -0.03   0.10    -0.05   0.05  -0.14     0.00   0.07   0.00
  38   6     0.08  -0.04   0.11    -0.12   0.06  -0.16    -0.01   0.00  -0.04
  39   6    -0.05   0.02   0.13     0.08  -0.03  -0.19    -0.00  -0.07  -0.01
  40   6    -0.01   0.01   0.10     0.02  -0.01  -0.15    -0.03  -0.05   0.03
  41   6     0.08  -0.05   0.07    -0.13   0.08  -0.10    -0.01   0.02   0.06
  42   6    -0.01  -0.03   0.07     0.02   0.03  -0.10     0.02   0.07   0.02
  43   6     0.02  -0.07   0.06    -0.02   0.09  -0.01     0.01   0.02  -0.21
  44   6     0.03  -0.08   0.01    -0.02   0.09  -0.03    -0.02   0.01   0.13
  45   6     0.04  -0.03  -0.04    -0.02   0.07  -0.00    -0.02   0.01   0.19
  46   6    -0.01   0.04  -0.03    -0.06   0.06   0.01     0.01  -0.00   0.03
  47   7     0.03   0.09  -0.00    -0.06   0.07   0.03     0.05  -0.01  -0.40
  48   6    -0.01   0.13   0.02    -0.03   0.05  -0.02    -0.02  -0.00   0.15
  49   6    -0.06   0.14   0.03     0.02   0.09  -0.02    -0.04  -0.01   0.21
  50   7    -0.08   0.14  -0.03    -0.07   0.06   0.00     0.02  -0.00  -0.11
  51   1    -0.00  -0.03  -0.01     0.00  -0.02  -0.01    -0.01  -0.00   0.06
  52   1    -0.01  -0.02  -0.03    -0.00  -0.01   0.01     0.01  -0.01  -0.10
  53   1    -0.03  -0.03   0.06    -0.03  -0.02   0.04     0.02   0.02   0.03
  54   1     0.03   0.02   0.03     0.02   0.02   0.02     0.02  -0.03   0.02
  55   1     0.07   0.03   0.03     0.05   0.03   0.02     0.02  -0.02  -0.01
[...]
  58   1    -0.05   0.31   0.58     0.00  -0.00  -0.00    -0.00   0.00   0.00
  59   1     0.02  -0.04   0.07    -0.00   0.00  -0.00     0.00  -0.00   0.00
  60   1    -0.18   0.53   0.01     0.00  -0.00  -0.00     0.00  -0.01  -0.00
  61   1     0.02   0.04   0.00    -0.01  -0.01  -0.00    -0.00  -0.00  -0.00
  62   1     0.00  -0.01   0.00    -0.02   0.04  -0.00     0.00  -0.01   0.00
  63   1     0.00   0.00  -0.00    -0.00  -0.00  -0.00    -0.15  -0.29  -0.02
  64   1    -0.00   0.00  -0.00    -0.00   0.00   0.00    -0.00   0.17  -0.19
  65   1    -0.00  -0.00  -0.00     0.00   0.00   0.00    -0.35  -0.18  -0.60
  66   1    -0.00  -0.00  -0.00     0.00   0.01   0.00    -0.13  -0.28  -0.02
  67   1     0.00   0.00  -0.00     0.14   0.37  -0.01     0.00   0.00  -0.00
  68   1     0.00   0.00  -0.00     0.05   0.32  -0.59     0.00   0.00  -0.01
  69   1    -0.00  -0.00  -0.00    -0.03  -0.05  -0.09    -0.00  -0.00  -0.01
  70   1     0.00   0.00  -0.00     0.17   0.51  -0.01    -0.00  -0.01   0.00
  71   1    -0.00   0.00  -0.00    -0.05   0.00  -0.00     0.04  -0.00   0.00
  72   1    -0.00   0.00  -0.00     0.01  -0.01   0.00    -0.00   0.01  -0.00
                    202                    203                    204
                        a                      a                      a 
 Frequencies --  3103.2341              3107.7913              3108.0767
 Red. masses --     1.8791                 1.8910                 1.8874
 Frc consts  --     0.0000                 0.0000                 0.0000
 IR Inten    --   155.9550                49.9076                32.2631
 Raman Activ --     0.0000                 0.0000                 0.0000
 Depolar     --     0.0000                 0.0000                 0.0000
 Atom AN      X      Y      Z        X      Y      Z        X      Y      Z
   1   7     0.00   0.00   0.00     0.00   0.00   0.00    -0.00  -0.00  -0.00
   2   6    -0.00  -0.00  -0.00    -0.00  -0.00  -0.00     0.00   0.00   0.00
   3   6    -0.00   0.00   0.00     0.00  -0.00   0.00     0.00  -0.00   0.00
   4   7    -0.00  -0.00  -0.00     0.00   0.00   0.00    -0.00   0.00  -0.00
   5   6    -0.00   0.00  -0.00    -0.00  -0.00   0.00     0.00  -0.00   0.00
   6   6     0.00  -0.00   0.00     0.00   0.00   0.00     0.00   0.00   0.00
   7   6     0.00   0.00   0.00     0.00   0.00  -0.00    -0.00  -0.00  -0.00
   8   6    -0.01  -0.00  -0.00    -0.01   0.00  -0.00     0.00   0.00   0.00
   9   6    -0.00   0.00   0.00    -0.00  -0.00  -0.00     0.00  -0.00   0.00
  10   7     0.00  -0.00   0.00     0.00  -0.00   0.00    -0.00   0.00  -0.00
  11   6     0.00  -0.00   0.00    -0.00   0.00  -0.00     0.00  -0.00   0.00
  12   6     0.04  -0.08   0.00    -0.01   0.01  -0.00     0.00  -0.00   0.00
  13   6    -0.00   0.05   0.06    -0.00   0.00   0.00     0.00  -0.00  -0.00
  14   6     0.10  -0.05   0.18     0.00  -0.00   0.00     0.00  -0.00   0.00
  15   6     0.04  -0.08   0.01     0.00  -0.00   0.00     0.00  -0.00   0.00
  16   6    -0.00  -0.00  -0.00     0.00  -0.00  -0.00    -0.00   0.00  -0.00
  17  16     0.00  -0.00   0.00     0.00   0.00   0.00    -0.00   0.00  -0.00
  18   6    -0.00   0.00  -0.00    -0.00   0.00  -0.00     0.00  -0.00   0.00
  19   6    -0.00   0.00  -0.00    -0.02   0.06   0.00     0.00  -0.01  -0.00
  20   6    -0.00   0.00   0.00    -0.01   0.06   0.11     0.00  -0.01  -0.01
  21   6     0.00  -0.00   0.00     0.03  -0.06   0.11    -0.00   0.01  -0.01
  22   6     0.00  -0.00   0.00     0.07  -0.19  -0.00    -0.01   0.02   0.00
  23   6     0.00  -0.00  -0.00     0.00  -0.00  -0.01    -0.00   0.00   0.00
  24   6    -0.00  -0.00  -0.00    -0.01  -0.03  -0.00    -0.01  -0.01  -0.00
  25   6     0.00   0.00   0.00    -0.00  -0.00  -0.00    -0.00  -0.00   0.00
  26   6    -0.00  -0.00  -0.00    -0.00   0.00  -0.00    -0.00   0.00  -0.00
  27   6    -0.00   0.00  -0.00    -0.01   0.01  -0.00    -0.01   0.03  -0.00
  28   6    -0.00  -0.00   0.00     0.00   0.00  -0.00    -0.00   0.00  -0.00
  29   7     0.00   0.00   0.00     0.00  -0.00   0.00     0.00   0.00   0.00
  30   6     0.00   0.00   0.00    -0.00  -0.00  -0.00    -0.00  -0.00  -0.00
  31   6     0.02   0.03   0.00    -0.00  -0.00  -0.00    -0.01  -0.01  -0.00
  32   6    -0.00  -0.02   0.02    -0.00  -0.00   0.00    -0.00  -0.00   0.00
  33   6     0.04   0.02   0.07     0.00   0.00   0.00     0.00   0.00  -0.00
  34   6     0.02   0.04   0.00     0.00   0.00   0.00     0.00   0.00   0.00
  35   6    -0.00   0.00  -0.00    -0.00   0.00  -0.00     0.00   0.00  -0.00
  36  16     0.00   0.00   0.00     0.00  -0.00   0.00     0.00  -0.00   0.00
  37   6    -0.00  -0.00  -0.00    -0.00  -0.00  -0.00    -0.00  -0.00  -0.00
  38   6    -0.00  -0.00  -0.00    -0.00  -0.01  -0.00    -0.02  -0.05  -0.00
  39   6    -0.00  -0.00   0.00    -0.00  -0.01   0.01    -0.01  -0.06   0.11
  40   6     0.00   0.00   0.00     0.00   0.01   0.01     0.03   0.06   0.10
  41   6    -0.00  -0.00   0.00     0.01   0.02  -0.00     0.07   0.20  -0.00
  42   6     0.00   0.00  -0.00     0.00   0.00  -0.00     0.00   0.00  -0.01
  43   6    -0.00   0.00  -0.00    -0.00  -0.00  -0.00    -0.01  -0.00  -0.00
  44   6     0.00  -0.00   0.00    -0.00   0.00  -0.00     0.00  -0.00  -0.00
  45   6     0.00   0.00  -0.00     0.00  -0.00   0.00     0.00  -0.00   0.00
  46   6     0.00  -0.00   0.00     0.00   0.00   0.00    -0.00   0.00   0.00
  47   7     0.00   0.00  -0.00    -0.00  -0.00  -0.00     0.00  -0.00   0.00
  48   6    -0.00  -0.00  -0.00     0.00   0.00   0.00     0.00   0.00  -0.00
  49   6    -0.00   0.00  -0.00     0.00  -0.00   0.00    -0.00   0.00  -0.00
  50   7     0.00  -0.00   0.00    -0.00   0.00  -0.00     0.00  -0.00   0.00
  51   1    -0.00  -0.01  -0.00    -0.00  -0.01  -0.00     0.00   0.00   0.00
  52   1     0.04   0.00   0.00     0.02   0.00   0.00    -0.00  -0.00  -0.00
  53   1    -0.16   0.30  -0.02     0.02  -0.05   0.00    -0.01   0.01  -0.00
  54   1    -0.00  -0.16  -0.19    -0.00  -0.01  -0.01     0.00   0.00   0.00
  55   1    -0.35   0.18  -0.60    -0.00   0.00  -0.00    -0.00   0.00  -0.00
  56   1    -0.13   0.27  -0.02    -0.00   0.00  -0.00    -0.00   0.00  -0.00
  57   1     0.00  -0.00  -0.00     0.07  -0.18  -0.00    -0.01   0.02   0.00
  58   1     0.00  -0.00  -0.01     0.03  -0.21  -0.38    -0.00   0.02   0.04
  59   1    -0.00   0.00  -0.00    -0.11   0.20  -0.34     0.01  -0.02   0.04
  60   1    -0.00   0.01   0.00    -0.23   0.67   0.02     0.03  -0.08  -0.00
  61   1     0.00   0.01   0.00     0.05   0.09   0.01     0.02   0.04   0.00
  62   1     0.00  -0.00   0.00     0.03  -0.05   0.00     0.05  -0.10   0.01
  63   1    -0.06  -0.12  -0.01     0.00   0.00   0.00     0.02   0.05   0.00
  64   1    -0.00   0.07  -0.08    -0.00   0.00  -0.00    -0.00   0.01  -0.01
  65   1    -0.14  -0.07  -0.25    -0.00  -0.00  -0.00     0.00   0.00   0.00
  66   1    -0.05  -0.11  -0.01    -0.00  -0.00  -0.00    -0.00  -0.00  -0.00
  67   1     0.00   0.00  -0.00     0.01   0.02  -0.00     0.06   0.17  -0.00
  68   1     0.00   0.00  -0.00     0.00   0.02  -0.04     0.03   0.20  -0.36
  69   1    -0.00  -0.00  -0.00    -0.01  -0.02  -0.04    -0.11  -0.20  -0.34
  70   1     0.00   0.00  -0.00    -0.02  -0.07   0.00    -0.24  -0.69   0.02
  71   1     0.02  -0.00   0.00     0.00   0.00   0.00     0.02  -0.00   0.00
  72   1    -0.00   0.00  -0.00     0.00  -0.00   0.00    -0.00   0.01  -0.00
                    205                    206                    207
                        a                      a                      a 
 Frequencies --  3111.3835              3111.9488              3112.2174
 Red. masses --     1.8431                 1.8646                 1.8622
 Frc consts  --     0.0000                 0.0000                 0.0000
 IR Inten    --    12.6871                41.8883                30.4442
 Raman Activ --     0.0000                 0.0000                 0.0000
 Depolar     --     0.0000                 0.0000                 0.0000
 Atom AN      X      Y      Z        X      Y      Z        X      Y      Z
   1   7    -0.00  -0.00  -0.00    -0.00  -0.00  -0.00     0.00   0.00   0.00
   2   6     0.00  -0.00   0.00     0.00   0.00   0.00    -0.00  -0.00  -0.00
   3   6     0.00  -0.00  -0.00     0.00  -0.00  -0.00    -0.00   0.00   0.00
   4   7     0.00   0.00   0.00    -0.00  -0.00  -0.00     0.00  -0.00  -0.00
   5   6    -0.00  -0.00  -0.00     0.00   0.00   0.00    -0.00   0.00   0.00
   6   6     0.00   0.00   0.00    -0.00   0.00   0.00     0.00   0.00   0.00
   7   6    -0.01  -0.01  -0.00     0.00   0.01   0.00    -0.00  -0.00  -0.00
   8   6    -0.00   0.00   0.00     0.01   0.00   0.00     0.00   0.00   0.00
   9   6     0.00  -0.01   0.00    -0.00  -0.00  -0.00     0.00  -0.00  -0.00
  10   7     0.00   0.00  -0.00    -0.00   0.00   0.00    -0.00   0.00   0.00
  11   6     0.00  -0.00   0.00    -0.00   0.00  -0.01    -0.00   0.00  -0.00
  12   6     0.03  -0.06   0.00    -0.10   0.19  -0.01    -0.04   0.07  -0.00
  13   6     0.00  -0.02  -0.02    -0.00   0.06   0.07    -0.00   0.02   0.03
  14   6    -0.01   0.01  -0.02     0.03  -0.02   0.06     0.01  -0.01   0.02
  15   6    -0.00   0.01  -0.00     0.01  -0.02   0.00     0.00  -0.01   0.00
  16   6    -0.00   0.00   0.00     0.00  -0.00  -0.00     0.00  -0.00   0.00
  17  16    -0.00   0.00  -0.00    -0.00   0.00   0.00    -0.00   0.00   0.00
  18   6     0.00  -0.00   0.00    -0.00   0.00  -0.00    -0.00   0.00  -0.00
  19   6     0.00  -0.00  -0.00     0.00  -0.00   0.00     0.00  -0.00   0.00
  20   6     0.00  -0.00  -0.00     0.00  -0.00  -0.01     0.00  -0.00  -0.00
  21   6    -0.00   0.00  -0.01    -0.00   0.00  -0.01    -0.00   0.00  -0.00
  22   6    -0.01   0.02   0.00    -0.00   0.01   0.00    -0.00   0.01   0.00
  23   6    -0.00   0.00   0.00     0.00   0.00   0.00    -0.00   0.00   0.00
  24   6    -0.08  -0.16  -0.01    -0.01  -0.02  -0.00    -0.03  -0.05  -0.00
  25   6    -0.01  -0.00  -0.00    -0.00   0.00  -0.00    -0.00  -0.00  -0.00
  26   6    -0.01   0.00  -0.00    -0.00   0.00  -0.00    -0.00  -0.00  -0.00
  27   6    -0.08   0.16  -0.01    -0.02   0.04  -0.00    -0.02   0.05  -0.00
  28   6     0.00   0.01   0.00     0.00   0.00   0.00     0.00   0.00  -0.00
  29   7     0.00  -0.00  -0.00     0.00   0.00  -0.00    -0.00  -0.00   0.00
  30   6     0.00   0.00   0.00     0.00   0.00   0.00    -0.00  -0.00  -0.01
  31   6     0.02   0.05   0.00     0.05   0.09   0.00    -0.10  -0.19  -0.01
  32   6     0.00   0.01  -0.02     0.00   0.03  -0.03    -0.00  -0.06   0.07
  33   6    -0.01  -0.00  -0.01    -0.01  -0.01  -0.02     0.03   0.02   0.05
  34   6    -0.00  -0.01  -0.00    -0.00  -0.01  -0.00     0.01   0.02   0.00
  35   6    -0.00  -0.00   0.00    -0.00  -0.00   0.00     0.00   0.00  -0.00
  36  16    -0.00  -0.00  -0.00     0.00   0.00  -0.00    -0.00  -0.00   0.00
  37   6     0.00   0.00   0.00     0.00   0.00   0.00    -0.00  -0.00  -0.00
  38   6     0.00   0.00  -0.00    -0.00  -0.00  -0.00     0.00   0.00   0.00
  39   6     0.00   0.00  -0.01    -0.00  -0.00   0.00     0.00   0.00  -0.01
  40   6    -0.00  -0.01  -0.01     0.00   0.00   0.00    -0.00  -0.00  -0.01
  41   6    -0.01  -0.03   0.00    -0.00  -0.00  -0.00    -0.01  -0.02   0.00
  42   6    -0.00  -0.00   0.00    -0.00  -0.00   0.00     0.00  -0.00   0.00
  43   6    -0.00  -0.00   0.00    -0.01  -0.00  -0.00     0.01  -0.00   0.00
  44   6    -0.01   0.01  -0.00    -0.01   0.01  -0.00     0.01  -0.01   0.00
  45   6     0.00  -0.00   0.00     0.00   0.00   0.00     0.00  -0.00   0.00
  46   6    -0.00   0.00  -0.00    -0.00  -0.00  -0.00     0.00  -0.00   0.00
  47   7     0.00  -0.00   0.00     0.00   0.00   0.00    -0.00   0.00  -0.00
  48   6     0.00   0.00  -0.00    -0.00  -0.00   0.00    -0.00  -0.00  -0.00
  49   6     0.00  -0.00   0.00    -0.00   0.00  -0.00    -0.00   0.00  -0.00
  50   7    -0.00   0.00  -0.00     0.00  -0.00   0.00     0.00  -0.00   0.00
  51   1     0.02   0.05   0.00    -0.02  -0.03  -0.00     0.00   0.00   0.00
  52   1     0.00  -0.00   0.00    -0.04  -0.00  -0.00    -0.02  -0.00  -0.00
  53   1    -0.11   0.22  -0.01     0.36  -0.68   0.04     0.14  -0.26   0.02
  54   1     0.00   0.06   0.08    -0.00  -0.19  -0.23    -0.00  -0.07  -0.08
  55   1     0.04  -0.02   0.06    -0.11   0.06  -0.18    -0.04   0.02  -0.07
  56   1     0.01  -0.02   0.00    -0.03   0.07  -0.00    -0.01   0.03  -0.00
  57   1    -0.00   0.01   0.00    -0.00   0.01   0.00    -0.00   0.00   0.00
  58   1    -0.00   0.01   0.01    -0.00   0.01   0.02    -0.00   0.01   0.01
  59   1     0.01  -0.01   0.02     0.01  -0.01   0.02     0.00  -0.01   0.01
  60   1     0.03  -0.08  -0.00     0.02  -0.05  -0.00     0.01  -0.04  -0.00
  61   1     0.29   0.56   0.04     0.04   0.09   0.01     0.10   0.19   0.01
  62   1     0.29  -0.55   0.04     0.07  -0.13   0.01     0.09  -0.17   0.01
  63   1    -0.08  -0.16  -0.01    -0.16  -0.31  -0.02     0.36   0.68   0.04
  64   1     0.00  -0.05   0.05     0.00  -0.09   0.10    -0.00   0.19  -0.22
  65   1     0.03   0.01   0.04     0.05   0.02   0.08    -0.10  -0.05  -0.18
  66   1     0.01   0.02   0.00     0.01   0.03   0.00    -0.03  -0.07  -0.00
  67   1    -0.00  -0.01   0.00     0.00   0.00   0.00    -0.00  -0.01  -0.00
  68   1    -0.00  -0.01   0.02     0.00   0.00  -0.01    -0.00  -0.01   0.02
  69   1     0.01   0.02   0.03    -0.00  -0.00  -0.00     0.01   0.02   0.03
  70   1     0.03   0.09  -0.00     0.00   0.00  -0.00     0.02   0.06  -0.00
  71   1    -0.00   0.00   0.00     0.02  -0.00   0.00    -0.05   0.00  -0.01
  72   1     0.02  -0.05   0.00     0.02  -0.03   0.00    -0.02   0.04  -0.00
                    208                    209                    210
                        a                      a                      a 
 Frequencies --  3113.1833              3113.3112              3120.9662
 Red. masses --     1.8694                 1.8691                 1.8057
 Frc consts  --     0.0000                 0.0000                 0.0000
 IR Inten    --    18.9669                 4.5289                 3.2531
 Raman Activ --     0.0000                 0.0000                 0.0000
 Depolar     --     0.0000                 0.0000                 0.0000
 Atom AN      X      Y      Z        X      Y      Z        X      Y      Z
   1   7    -0.00  -0.00   0.00    -0.00  -0.00  -0.00    -0.00  -0.00  -0.00
   2   6     0.00  -0.00  -0.00     0.00   0.00   0.00     0.00   0.00   0.00
   3   6     0.00   0.00   0.00     0.00  -0.00   0.00    -0.00   0.00  -0.00
   4   7     0.00   0.00   0.00    -0.00   0.00  -0.00     0.00  -0.00   0.00
   5   6    -0.00  -0.00  -0.00     0.00   0.00   0.00    -0.00  -0.00  -0.00
   6   6     0.00  -0.00   0.00    -0.00   0.01  -0.00     0.00   0.00   0.00
   7   6    -0.06  -0.13  -0.01     0.10   0.19   0.01     0.00   0.00   0.00
   8   6    -0.05   0.00  -0.00     0.08  -0.00   0.01     0.01   0.00   0.00
   9   6     0.00   0.00  -0.00     0.00  -0.00   0.00     0.00  -0.01   0.00
  10   7     0.00  -0.00  -0.00    -0.00   0.00   0.00     0.00   0.00  -0.00
  11   6    -0.00   0.00  -0.00     0.00  -0.00   0.00    -0.00   0.00  -0.00
  12   6    -0.00   0.01  -0.00     0.01  -0.01   0.00    -0.00   0.01  -0.00
  13   6    -0.00   0.00   0.00     0.00  -0.00  -0.00    -0.00   0.00   0.00
  14   6     0.00  -0.00   0.00    -0.00   0.00  -0.00     0.00  -0.00   0.00
  15   6     0.00  -0.00  -0.00    -0.00   0.00   0.00     0.00  -0.00   0.00
  16   6     0.00  -0.00   0.00    -0.00   0.00  -0.00     0.00  -0.00   0.00
  17  16     0.00   0.00   0.00     0.00  -0.00  -0.00    -0.00   0.00   0.00
  18   6    -0.00  -0.00  -0.00     0.00   0.00   0.00    -0.00  -0.00  -0.00
  19   6    -0.00   0.00   0.00     0.00  -0.00  -0.00     0.00  -0.00  -0.00
  20   6    -0.00   0.00   0.00     0.00  -0.00  -0.00     0.00  -0.00  -0.00
  21   6     0.00  -0.00   0.00    -0.00   0.00  -0.00    -0.00   0.00  -0.00
  22   6     0.00  -0.00  -0.00     0.00  -0.00   0.00    -0.00   0.01   0.00
  23   6    -0.00  -0.00   0.00     0.00   0.00  -0.00    -0.00   0.00   0.00
  24   6     0.01   0.01   0.00    -0.00   0.00  -0.00    -0.08  -0.17  -0.01
  25   6     0.00   0.00   0.00    -0.00  -0.00  -0.00    -0.01  -0.00  -0.00
  26   6     0.00  -0.00   0.00     0.00  -0.00   0.00     0.01  -0.00   0.00
  27   6     0.01  -0.01   0.00    -0.00   0.00  -0.00     0.08  -0.17   0.01
  28   6    -0.00  -0.00  -0.00    -0.00  -0.00  -0.00    -0.00  -0.01  -0.00
  29   7     0.00   0.00  -0.00     0.00   0.00  -0.00    -0.00   0.00   0.00
  30   6    -0.00  -0.00  -0.00    -0.00  -0.00  -0.00     0.00   0.00   0.00
  31   6    -0.01  -0.01  -0.00    -0.01  -0.01  -0.00     0.00   0.01   0.00
  32   6    -0.00  -0.00   0.00    -0.00  -0.00   0.00     0.00   0.00  -0.00
  33   6     0.00   0.00   0.00     0.00   0.00   0.00    -0.00  -0.00  -0.00
  34   6     0.00   0.00  -0.00     0.00   0.00  -0.00    -0.00  -0.00  -0.00
  35   6     0.00   0.00   0.00     0.00   0.00   0.00    -0.00  -0.00  -0.00
  36  16     0.00  -0.00   0.00    -0.00  -0.00   0.00     0.00   0.00  -0.00
  37   6    -0.00   0.00  -0.00    -0.00   0.00  -0.00    -0.00  -0.00   0.00
  38   6    -0.00  -0.00   0.00    -0.00  -0.00   0.00    -0.00  -0.00   0.00
  39   6    -0.00  -0.00   0.00    -0.00  -0.00   0.00    -0.00  -0.00   0.00
  40   6     0.00   0.00   0.00     0.00   0.00   0.00     0.00   0.00   0.00
  41   6     0.00   0.00  -0.00    -0.00  -0.00  -0.00     0.00   0.01  -0.00
  42   6    -0.00   0.00   0.00    -0.00  -0.00   0.00     0.00   0.00  -0.00
  43   6    -0.08  -0.00  -0.01    -0.05  -0.00  -0.00    -0.01   0.00  -0.00
  44   6    -0.10   0.19  -0.01    -0.06   0.13  -0.01    -0.00   0.00  -0.00
  45   6     0.00   0.01   0.00     0.00   0.00   0.00    -0.00   0.00  -0.00
  46   6    -0.00   0.00  -0.00    -0.00   0.00  -0.00     0.00  -0.00   0.00
  47   7     0.00  -0.00   0.00     0.00   0.00   0.00    -0.00  -0.00  -0.00
  48   6     0.00  -0.00   0.00    -0.00  -0.00  -0.00     0.00   0.00   0.00
  49   6     0.00   0.00  -0.00    -0.00   0.00  -0.00    -0.00   0.00  -0.00
  50   7    -0.00  -0.00   0.00     0.00  -0.00   0.00     0.00  -0.00   0.00
  51   1     0.23   0.43   0.02    -0.35  -0.67  -0.03    -0.00  -0.00  -0.00
  52   1     0.17   0.00   0.01    -0.27  -0.00  -0.02    -0.02  -0.00  -0.00
  53   1     0.01  -0.02   0.00    -0.02   0.05  -0.00     0.01  -0.02   0.00
  54   1     0.00  -0.00  -0.01    -0.00   0.01   0.01     0.00  -0.00  -0.01
  55   1    -0.00   0.00  -0.00     0.00  -0.00   0.01    -0.00   0.00  -0.00
  56   1    -0.00   0.00  -0.00     0.00  -0.00   0.00    -0.00   0.00   0.00
  57   1     0.00  -0.00  -0.00    -0.00   0.00  -0.00    -0.00   0.00  -0.00
  58   1     0.00  -0.00  -0.00    -0.00   0.00   0.00    -0.00   0.00   0.00
  59   1    -0.00   0.00  -0.00     0.00  -0.00   0.00     0.00  -0.01   0.01
  60   1    -0.00   0.00   0.00    -0.00   0.00  -0.00     0.01  -0.04  -0.00
  61   1    -0.02  -0.03  -0.00    -0.00  -0.00  -0.00     0.31   0.60   0.04
  62   1    -0.02   0.03  -0.00     0.01  -0.02   0.00    -0.31   0.60  -0.04
  63   1     0.03   0.05   0.00     0.02   0.04   0.00    -0.01  -0.02  -0.00
  64   1    -0.00   0.01  -0.01    -0.00   0.01  -0.01     0.00  -0.00   0.01
  65   1    -0.01  -0.00  -0.01    -0.00  -0.00  -0.01     0.00   0.00   0.00
  66   1    -0.00  -0.00  -0.00    -0.00  -0.00  -0.00     0.00   0.00  -0.00
  67   1     0.00   0.00  -0.00     0.00   0.00   0.00     0.00   0.00   0.00
  68   1     0.00   0.00  -0.00     0.00   0.00  -0.00     0.00   0.00  -0.00
  69   1    -0.00  -0.00  -0.00    -0.00  -0.00  -0.00    -0.00  -0.01  -0.01
  70   1    -0.00  -0.00   0.00     0.00   0.00   0.00    -0.01  -0.04   0.00
  71   1     0.27  -0.00   0.02     0.18  -0.00   0.01     0.02  -0.00   0.00
  72   1     0.35  -0.67   0.03     0.23  -0.43   0.02     0.00  -0.00   0.00
