$hessian                                                                        
        0.0469056633   0.1944370439  -0.0025181876  -0.0609748854  -0.1808330193
        0.0023042265   0.0151387927  -0.0163293814   0.0003050987  -0.0041702077
        0.0030075635  -0.0001740655   0.0010971048  -0.0055614100   0.0001399872
       -0.0020021252   0.0014790169  -0.0000479442   0.0011381580  -0.0003186074
       -0.0000045668  -0.0003957728   0.0010341656  -0.0000270557  -0.0001234997
       -0.0006086943   0.0000094596   0.0001850323  -0.0000988255  -0.0000141737
       -0.0001739414  -0.0000069681   0.0003676802   0.0000137533   0.0000801629
       -0.0001188620  -0.0000653471   0.0000263744   0.0000781925   0.0000458247
       -0.0000324020   0.0000283146   0.0000368880  -0.0000177843  -0.0000225736
        0.0001129956  -0.0001167044   0.0000810234  -0.0001593438   0.0001280893
       -0.0000243529   0.0001316765  -0.0000712557  -0.0000807239   0.0000271879
       -0.0000183681   0.0000189438   0.0000453750  -0.0000396906  -0.0000292807
       -0.0000391016   0.0000661445  -0.0000743980  -0.0000504732  -0.0000047428
        0.0001259591  -0.0000527007   0.0001417094  -0.0003630338  -0.0002346003
        0.0001587877   0.0000251983  -0.0000374690  -0.0012955026   0.0000359506
        0.0004310234   0.0005600484  -0.0000246008  -0.0002108652  -0.0003183252
        0.0000132945   0.0000458942   0.0000540632  -0.0000075138   0.0000352094
        0.0001038114  -0.0000351061  -0.0000249281   0.0000250073   0.0000316588
        0.0000094392  -0.0000003442  -0.0000107061  -0.0000208451   0.0000083613
        0.0000063577  -0.0000048983  -0.0000036002  -0.0000170269   0.0000490218
       -0.0000218669  -0.0000014764  -0.0000666099   0.0000052820  -0.0000281389
        0.0000268098   0.0000083378   0.0000588362   0.0000587657  -0.0000347203
       -0.0000179752  -0.0000296599   0.0000028503  -0.0000075804   0.0000145792
       -0.0000079108  -0.0000142630   0.0000126519   0.0000058488  -0.0000318169
       -0.0000155581   0.0000087688  -0.0000059994   0.0000198510   0.0000127329
        0.0000000508  -0.0001533299  -0.0003688223   0.0000232867   0.0006248437
        0.0004081899  -0.0000029617  -0.0004958818  -0.0014137267   0.0000109692
       -0.0013599827   0.0030683436  -0.0001033574   0.0019120738  -0.0061521413
        0.0002018605   0.0022516876   0.0095579718  -0.0001464110   0.0015350143
       -0.0007091342   0.0000492578  -0.0012914395   0.0000441579  -0.0000368238
        0.0001240580  -0.0001073942   0.0000132706   0.0000565294  -0.0000151456
        0.0000211694  -0.0000237417  -0.0000039342   0.0000372678  -0.0000066398
        0.0000020931  -0.0000166479   0.0000031177  -0.0000063505  -0.0000100781
        0.0000287733  -0.0000008555   0.0000066857   0.0000211812  -0.0000116056
       -0.0000078341   0.0000001177  -0.0000046298   0.0000074436  -0.0000071375
        0.0000004317   0.0000115614  -0.0000149694   0.0000035493  -0.0000464453
        0.0000431058  -0.0000049982  -0.0000238319   0.0000221784   0.0000042589
        0.0000181762  -0.0000085098   0.0000049753  -0.0000025867  -0.0000038017
        0.0000216173   0.0000081400  -0.0000156019  -0.0000049504   0.0000037868
       -0.0000039111  -0.0000042325   0.0000136763  -0.0000025313  -0.0000041666
        0.0000277503   0.0000036228  -0.0000033034   0.0000040150   0.0000034518
       -0.0000030820   0.0000080421   0.0000102898   0.0000015581  -0.0000019155
       -0.0000006127   0.0000061065   0.0000044692   0.0000191802   0.0000811738
       -0.0000007459
        0.1944370439   1.2190983035  -0.0156400458  -0.1772368816  -1.1540061867
        0.0147317086  -0.0141703971  -0.0875418636   0.0013526500  -0.0175813273
        0.0394245503  -0.0008315764   0.0045381760  -0.0273407260   0.0004373062
       -0.0115786055   0.0090544724  -0.0003259910   0.0067433576  -0.0009276541
       -0.0000001375  -0.0026826350   0.0052003430   0.0000097116  -0.0005305556
       -0.0030610629   0.0000324101   0.0001040091   0.0000960631  -0.0000157343
        0.0001305536  -0.0004419375   0.0001682839   0.0000920385   0.0000780368
        0.0001582119   0.0004989429  -0.0003317781  -0.0000908832  -0.0004335075
        0.0003975424  -0.0002216129  -0.0000810651  -0.0000214463   0.0005121002
       -0.0003255303   0.0005451367  -0.0009925834   0.0005887248  -0.0004614388
       -0.0001165715  -0.0006208548   0.0001665861   0.0009739738   0.0000202391
        0.0001717932  -0.0005358115  -0.0004580820   0.0003224509   0.0002101503
        0.0004263285  -0.0004000292   0.0000852670   0.0000412113  -0.0000301930
       -0.0001212375   0.0003486543  -0.0001505071  -0.0002020179  -0.0013194260
        0.0011202087  -0.0000637774  -0.0001034515  -0.0062563351   0.0002069418
        0.0010775439   0.0029092657  -0.0000663803  -0.0013598656  -0.0011729822
        0.0000072942  -0.0000296815  -0.0001545343  -0.0003617077   0.0003591811
        0.0020200832  -0.0002476790   0.0009010229  -0.0009629097   0.0000069684
       -0.0006125355  -0.0002102196  -0.0001619970   0.0000601520  -0.0003679399
       -0.0001660830   0.0000170154   0.0002266240   0.0002449615  -0.0001276541
        0.0000103500   0.0001873786   0.0006442609   0.0004333913   0.0005187951
        0.0002169257  -0.0000197461  -0.0004483866  -0.0004666706   0.0006131180
        0.0004988468   0.0002009965  -0.0000210990   0.0001902823   0.0000775934
        0.0002322440   0.0002710369  -0.0002500026  -0.0002779396  -0.0004179985
        0.0004171208  -0.0003653107  -0.0001183651  -0.0011802761  -0.0005342033
       -0.0002359410  -0.0001717807  -0.0021706313   0.0001812879   0.0039769512
        0.0025007843  -0.0000634950  -0.0016681910  -0.0082824641   0.0001330339
       -0.0143562676   0.0193457762  -0.0006884088   0.0082299492  -0.0457586041
        0.0011241966   0.0163556736   0.0405285605  -0.0005223499   0.0133192601
       -0.0116541019   0.0005036529  -0.0074320854   0.0084877019  -0.0003273666
        0.0004349103  -0.0001988632   0.0000207618   0.0001543634  -0.0000030345
        0.0001052350  -0.0000179859  -0.0000304403   0.0001928586   0.0000196350
       -0.0000250400  -0.0000099945  -0.0000223666  -0.0000112542  -0.0001134717
        0.0002256677  -0.0000432278   0.0000608125   0.0001558239  -0.0001083945
       -0.0000662748  -0.0000128882   0.0000009579   0.0001040588   0.0000077342
       -0.0000332894   0.0000038699  -0.0000038623  -0.0000290868  -0.0002547628
        0.0001603705  -0.0000358096  -0.0000953509   0.0000243143  -0.0000042380
        0.0001307789   0.0000101445   0.0000565141  -0.0000288768   0.0000770732
        0.0001450936   0.0000140124  -0.0000704657  -0.0000126541  -0.0000088086
       -0.0000164732  -0.0000515572   0.0000556066  -0.0000180692  -0.0000368216
        0.0000807783  -0.0000683326  -0.0000013149  -0.0000037888  -0.0000695867
        0.0000147366   0.0000177823   0.0000553650   0.0000329164  -0.0000137813
       -0.0000357039  -0.0000570227   0.0000436131  -0.0000352641   0.0003722882
        0.0000026302
       -0.0025181876  -0.0156400458   0.0146329703   0.0022126612   0.0145946309
       -0.0283527865   0.0004405385   0.0013137844   0.0131827273  -0.0000886276
       -0.0006131250   0.0025632592   0.0001580666   0.0004123064  -0.0020043132
        0.0000591847  -0.0000919082  -0.0004355780  -0.0000355441  -0.0000120291
       -0.0000154889   0.0000034346   0.0000036037   0.0000192584   0.0000550164
       -0.0000028009   0.0000181218  -0.0000878701   0.0000572760   0.0000006961
        0.0000708476  -0.0000043031  -0.0000931412  -0.0000023985  -0.0000175328
        0.0000376555   0.0000121197  -0.0000036014  -0.0000298235  -0.0000077706
        0.0000088821  -0.0000083844  -0.0000025844  -0.0000066447   0.0000186153
       -0.0000299318   0.0000383287  -0.0000276074   0.0000568705  -0.0000347103
       -0.0000040813  -0.0000430136   0.0000172951   0.0000276652   0.0000048810
        0.0000042284  -0.0000076011  -0.0000196359   0.0000099100   0.0000172595
        0.0000135209  -0.0000131827   0.0000201424   0.0000046836   0.0000043543
       -0.0000227866   0.0000015759  -0.0000615399   0.0000628863  -0.0000139955
       -0.0000235362   0.0000699274   0.0000379944   0.0000502394   0.0000236844
       -0.0000570358  -0.0000592517  -0.0000074451  -0.0000002917   0.0000068994
       -0.0000167458   0.0000197504   0.0000333620  -0.0000028162   0.0000359328
       -0.0000086886   0.0000522786  -0.0000041994  -0.0000046440   0.0000411285
        0.0000125253  -0.0000049098   0.0000053769   0.0000023456   0.0000031846
        0.0000027371  -0.0000003180  -0.0000029600   0.0000030117   0.0000033725
        0.0000073489  -0.0000082011  -0.0000038862   0.0000056996  -0.0000002028
        0.0000019340  -0.0000186687  -0.0000052372  -0.0000148674   0.0000578137
        0.0000145162  -0.0000219815  -0.0000153209   0.0000078340  -0.0000002547
       -0.0000162852  -0.0000126946   0.0000170393   0.0000033489   0.0000022903
        0.0000270725  -0.0000142328   0.0000086058  -0.0000450195  -0.0000613062
       -0.0000844368   0.0000074273   0.0000235002  -0.0000263302  -0.0000261975
       -0.0000265650  -0.0005133685   0.0000445707   0.0001593968   0.0007183144
       -0.0000132154  -0.0002458963   0.0007834700   0.0001817686   0.0007564514
       -0.0012732610  -0.0003278495  -0.0006332768   0.0002528128  -0.0001673422
        0.0001949707   0.0000026085   0.0000946479  -0.0001565533   0.0003063315
       -0.0000233815   0.0000100586  -0.0000225000  -0.0000071567  -0.0000039569
       -0.0000173470  -0.0000013693   0.0000056625  -0.0000131206  -0.0000032643
        0.0000072344   0.0000070198  -0.0000012640   0.0000005109   0.0000024601
       -0.0000015409  -0.0000014359  -0.0000008083  -0.0000061578   0.0000036430
       -0.0000008939   0.0000009783   0.0000001292  -0.0000026579   0.0000006976
       -0.0000017605   0.0000042991   0.0000007761   0.0000006816  -0.0000037510
        0.0000000005   0.0000028930   0.0000010304  -0.0000024550  -0.0000095860
       -0.0000368733   0.0000002591   0.0000007058   0.0000040738   0.0000020039
       -0.0000034446  -0.0000027397   0.0000007693   0.0000006547  -0.0000024120
       -0.0000001533  -0.0000031011   0.0000037334  -0.0000014091  -0.0000008965
       -0.0000011354  -0.0000007204   0.0000035496  -0.0000054525   0.0000013756
       -0.0000039810   0.0000014601  -0.0000196276  -0.0000075506  -0.0000065546
        0.0000162828   0.0000432954   0.0001289994  -0.0000024077  -0.0000166021
        0.0000193161
       -0.0609748854  -0.1772368816   0.0022126612   0.1355755544   0.2180429591
       -0.0022906753  -0.0660290408  -0.0314048960   0.0002069771   0.0125730003
        0.0140823397   0.0001790226  -0.0065474416   0.0098097953  -0.0004922839
        0.0036218188  -0.0020787998   0.0000673695  -0.0020775970   0.0005158376
        0.0000241260   0.0007263754  -0.0018453445   0.0000805902  -0.0000566542
        0.0008688532  -0.0000422942  -0.0002793170   0.0002139794   0.0000393019
        0.0002249344   0.0000248424  -0.0005942783   0.0000158428  -0.0001696433
        0.0002283560   0.0001218818  -0.0000438600  -0.0001260094  -0.0000732366
        0.0000503254  -0.0000221410  -0.0001170519   0.0001079006   0.0000195849
       -0.0001584569   0.0001577913  -0.0000548900   0.0001302126  -0.0001147175
        0.0000622352  -0.0001498778   0.0000794680   0.0000541620  -0.0001302472
        0.0000719063  -0.0000201261  -0.0000510285   0.0000728387   0.0000236802
        0.0000707375  -0.0001103206   0.0001178662   0.0001561924  -0.0000061454
       -0.0002337711   0.0000370030  -0.0002013578   0.0005835820   0.0011351304
       -0.0002700545  -0.0000806471  -0.0009438417   0.0025028404  -0.0000459366
       -0.0000033807  -0.0009959215   0.0000390011   0.0000520086   0.0003626923
       -0.0000243209   0.0004668374  -0.0006628348   0.0000135722  -0.0000199496
        0.0002328415   0.0000499277   0.0001965929  -0.0001972198  -0.0000807528
       -0.0001273705  -0.0000186413  -0.0000171598   0.0000841230  -0.0000640108
       -0.0000272624   0.0000193134   0.0000249632   0.0000584776  -0.0001405652
        0.0000581022   0.0000235356   0.0002465728   0.0000719635   0.0001296282
       -0.0000570625  -0.0000188922  -0.0001652067  -0.0001866231   0.0001898423
        0.0001058195   0.0001180659  -0.0000151816   0.0000351027  -0.0000295440
        0.0000284447   0.0000632707  -0.0000902199  -0.0000498213   0.0000614689
        0.0001299628  -0.0000872430  -0.0000157789  -0.0002165817  -0.0001137630
       -0.0000275262   0.0002504751   0.0013913239  -0.0000859977  -0.0017384290
       -0.0013082717   0.0000117476   0.0014167865   0.0039398539   0.0000011712
        0.0070012584  -0.0079548454   0.0003367022  -0.0106203639   0.0122797654
       -0.0005648897  -0.0107639311  -0.0413041349   0.0004548357  -0.0054300117
        0.0035380052  -0.0001434510   0.0031087759  -0.0025680713   0.0000784306
       -0.0001809794   0.0002014563  -0.0000287983  -0.0001131495   0.0000225942
       -0.0000464126   0.0000400669  -0.0000067374  -0.0000961422   0.0000214751
       -0.0000135321   0.0000360838  -0.0000226734   0.0000249058  -0.0000016558
       -0.0000530534  -0.0000007485  -0.0000198985  -0.0000239671   0.0000215952
        0.0000173994  -0.0000089847   0.0000235453   0.0000025476   0.0000215799
       -0.0000127023  -0.0000316132   0.0000249132  -0.0000247975   0.0001159853
       -0.0001138301   0.0000219472   0.0000583647  -0.0000743950  -0.0000125870
       -0.0000318808   0.0000211034  -0.0000070610   0.0000030840   0.0000239082
       -0.0000528005  -0.0000227932   0.0000257068   0.0000116257  -0.0000115878
        0.0000037093   0.0000075780  -0.0000230308   0.0000045116   0.0000022570
       -0.0000712708  -0.0000118488   0.0000081928  -0.0000115705  -0.0000103723
        0.0000064248  -0.0000297630  -0.0000335096   0.0000020024   0.0000017661
        0.0000184969  -0.0000017487  -0.0000138963  -0.0000254549  -0.0001000113
       -0.0000017245
       -0.1808330193  -1.1540061867   0.0145946309   0.2180429591   1.4677998076
       -0.0184924583  -0.0379983578  -0.2036799636   0.0018372879   0.0378909509
       -0.1090232328   0.0023368141  -0.0002265554   0.0407065907  -0.0004243671
        0.0170312529  -0.0154519403   0.0005435605  -0.0105134359   0.0013901911
        0.0000097017   0.0040677000  -0.0082113893   0.0000172058   0.0010184238
        0.0048347976  -0.0000475818  -0.0001747467  -0.0000841086   0.0000325233
       -0.0001643015   0.0006407024  -0.0003445793  -0.0001127752  -0.0001556530
       -0.0001968574  -0.0006862338   0.0004703137   0.0001092369   0.0006228669
       -0.0005782607   0.0003245704   0.0000934795   0.0000737678  -0.0007588722
        0.0004547998  -0.0007665839   0.0014282238  -0.0008944802   0.0006931199
        0.0001762181   0.0008944589  -0.0002580696  -0.0014004956  -0.0000699464
       -0.0002304962   0.0007903047   0.0006755322  -0.0004555966  -0.0003072415
       -0.0005969905   0.0005502095  -0.0000989690  -0.0000156063   0.0000371396
        0.0001367048  -0.0004973380   0.0001945444   0.0003909499   0.0017826097
       -0.0017657912   0.0000464149   0.0009687309   0.0095489146  -0.0003214892
       -0.0017573984  -0.0049801533   0.0001478159   0.0023481886   0.0023073470
       -0.0000469208  -0.0002422159  -0.0004700150   0.0005323508  -0.0004055536
       -0.0023273359   0.0003037769  -0.0010829061   0.0011759676  -0.0000226930
        0.0007736452   0.0002862736   0.0002108194  -0.0000382042   0.0004779432
        0.0002268876  -0.0000121829  -0.0003118792  -0.0003211540   0.0001345963
       -0.0000037522  -0.0002568254  -0.0007880401  -0.0005541311  -0.0006705146
       -0.0003106050   0.0000253694   0.0005705415   0.0005753430  -0.0007632710
       -0.0006471062  -0.0002439559   0.0000182484  -0.0002536562  -0.0001175651
       -0.0003199055  -0.0003556199   0.0002959371   0.0003613611   0.0006043120
       -0.0005041484   0.0004650369   0.0001524802   0.0014285890   0.0006526910
        0.0003281716   0.0003277511   0.0035181459  -0.0002768877  -0.0064017818
       -0.0040364871   0.0001242358   0.0029610964   0.0139688138  -0.0002515060
        0.0214412365  -0.0305469475   0.0010112887  -0.0163623317   0.0699377535
       -0.0017069445  -0.0451415194  -0.0840341753   0.0008352703  -0.0167483000
        0.0146960125  -0.0006436709   0.0105622424  -0.0118998871   0.0004368730
       -0.0006970431   0.0002165059  -0.0000403672  -0.0002256098   0.0000121932
       -0.0001576349   0.0000305692   0.0000388103  -0.0002799528  -0.0000233934
        0.0000314305   0.0000311830   0.0000132502   0.0000326312   0.0001566235
       -0.0003266578   0.0000645687  -0.0000915164  -0.0002212777   0.0001580062
        0.0000972437   0.0000095643   0.0000168451  -0.0001424402  -0.0000048016
        0.0000452142  -0.0000221093   0.0000103691   0.0000355697   0.0003711845
       -0.0002234678   0.0000188404   0.0001438389  -0.0000483928   0.0000204609
       -0.0001879229  -0.0000086413  -0.0000772824   0.0000401681  -0.0000988514
       -0.0002123699  -0.0000294319   0.0000984717   0.0000275519   0.0000088664
        0.0000199205   0.0000811180  -0.0000779382   0.0000351905   0.0000560748
       -0.0001292076   0.0000966979   0.0000059713   0.0000024342   0.0000976837
       -0.0000184104  -0.0000397993  -0.0000875781  -0.0000478490   0.0000172380
        0.0000561010   0.0000880485  -0.0000720993   0.0000460019  -0.0005097789
       -0.0000111212
        0.0023042265   0.0147317086  -0.0283527865  -0.0022906753  -0.0184924583
        0.0656960904  -0.0000882682   0.0019667513  -0.0464299885   0.0001323669
        0.0020015445  -0.0050769787  -0.0006275495  -0.0003739236   0.0096614952
        0.0000447361   0.0001251165   0.0017222498  -0.0000405914   0.0000658912
        0.0001926841   0.0000399749  -0.0001016493  -0.0000616392  -0.0002514728
        0.0000869562  -0.0000812949   0.0002264014  -0.0001329989   0.0000430016
       -0.0001386527  -0.0000306119   0.0001052823  -0.0000010521   0.0000055974
       -0.0000258603  -0.0000033267  -0.0000066822   0.0000174233  -0.0000029813
       -0.0000056105  -0.0000073477  -0.0000009539   0.0000189718  -0.0000016142
        0.0000284361  -0.0000348366   0.0000043644  -0.0000353446   0.0000324263
       -0.0000060395   0.0000317583  -0.0000181962  -0.0000009099  -0.0000121542
       -0.0000097439  -0.0000020247   0.0000218838  -0.0000053249  -0.0000069887
        0.0000004195   0.0000166298  -0.0000189393  -0.0000010741  -0.0000208842
        0.0000156445   0.0000326889   0.0001055829  -0.0000695613   0.0001444821
        0.0000383889  -0.0002772094  -0.0002198897  -0.0000322061  -0.0001621136
        0.0002430621   0.0001616615  -0.0000407393  -0.0000145054  -0.0000748528
        0.0001034861  -0.0000250926  -0.0000269013  -0.0000136324  -0.0001592888
       -0.0000279851  -0.0001533504   0.0000486992  -0.0000119222  -0.0001849476
       -0.0000367089   0.0000113536  -0.0000196884  -0.0000065923  -0.0000176449
       -0.0000111257   0.0000028946   0.0000058090   0.0000053883  -0.0000194627
        0.0000055484   0.0000065781   0.0000384505  -0.0000187379   0.0000188142
       -0.0000222563   0.0000320866   0.0000313995   0.0000404500  -0.0001887571
       -0.0000568114   0.0000877536   0.0000450893  -0.0000268620  -0.0000063397
        0.0000682365   0.0000660927  -0.0000631736  -0.0000044978  -0.0000173383
       -0.0000916976   0.0000573056  -0.0000305445   0.0001461488   0.0002142303
        0.0003019341   0.0000378640   0.0000619045   0.0001731681  -0.0000212590
        0.0000093009   0.0020201820  -0.0000540079  -0.0003306295  -0.0028552297
        0.0001085346   0.0003877439  -0.0030957666  -0.0002687369  -0.0010459206
        0.0051280076   0.0006335493   0.0008230422   0.0041257825   0.0001484682
       -0.0001307962  -0.0018718977  -0.0001091404   0.0001400384   0.0000513276
        0.0000696906  -0.0000333339  -0.0000772422   0.0000205792   0.0000131635
        0.0000409416   0.0000025048  -0.0000035233   0.0000105362   0.0000031030
        0.0000018703  -0.0000052625  -0.0000013252  -0.0000014007  -0.0000095941
        0.0000024959  -0.0000030214  -0.0000030767   0.0000042178  -0.0000031155
       -0.0000035090   0.0000004197   0.0000008183  -0.0000012503   0.0000016344
       -0.0000008818  -0.0000039474  -0.0000030308   0.0000002510  -0.0000031570
       -0.0000032463  -0.0000013879  -0.0000082875   0.0000055460   0.0000385100
        0.0001219523   0.0000025510   0.0000113688   0.0000050477  -0.0000025124
        0.0000023975   0.0000021584   0.0000008273   0.0000026499  -0.0000041705
       -0.0000004647  -0.0000084727   0.0000062429   0.0000042609   0.0000112087
       -0.0000005398   0.0000042321  -0.0000129833   0.0000169024  -0.0000087237
        0.0000107488  -0.0000085158   0.0000101024  -0.0000091808   0.0000108715
       -0.0000664366  -0.0001565102  -0.0005076426   0.0000225743   0.0000656806
       -0.0001096237
        0.0151387927  -0.0141703971   0.0004405385  -0.0660290408  -0.0379983578
       -0.0000882682   0.5033871744  -0.0037960061   0.0079284485  -0.2033855971
        0.1064742854  -0.0049945391  -0.0187473801   0.0472946502  -0.0015520550
        0.0154398741  -0.0116366654   0.0004011683  -0.0087717136  -0.0006869091
       -0.0000211755   0.0032806574   0.0005187865   0.0001498164  -0.0083960320
       -0.0033637645  -0.0003450024   0.0003908385  -0.0005287951   0.0000334486
        0.0000467595   0.0002181778  -0.0001768971  -0.0000010556  -0.0001406903
        0.0000593539  -0.0005739358   0.0002888628   0.0000147156   0.0003294062
       -0.0002967396   0.0001213412   0.0001386066  -0.0002701885  -0.0002621859
        0.0001072403  -0.0004123962   0.0008616478  -0.0004040937   0.0004226289
        0.0002992358   0.0003555878   0.0001820341  -0.0008328822   0.0002358165
       -0.0002693759   0.0003030761   0.0003613304  -0.0002878072  -0.0001035255
       -0.0003900995   0.0005305686  -0.0000189199   0.0001618361  -0.0001175768
        0.0000580358  -0.0001317639   0.0000033704   0.0002818717   0.0125029105
       -0.0022436393   0.0000882650  -0.0153887626   0.0020578723   0.0001344116
        0.0150508025   0.0014054533  -0.0005388463  -0.0062175507  -0.0069532696
        0.0004115108   0.0114418157   0.0032589282   0.0006325051  -0.0018140259
       -0.0073598145   0.0008197374  -0.0022764751   0.0022485581  -0.0003286681
        0.0010686416   0.0000933703   0.0002673769  -0.0003062697   0.0004980291
        0.0001055360   0.0000101279  -0.0002571810  -0.0002165407  -0.0000379057
        0.0000101309  -0.0003887574  -0.0009805017  -0.0006976486  -0.0007105951
       -0.0002864776   0.0002016667   0.0008974119   0.0005406929  -0.0013035640
       -0.0007318586  -0.0001916364   0.0000223930  -0.0003892308  -0.0002288480
       -0.0001429291  -0.0001778895   0.0004973019   0.0003219564   0.0004260871
       -0.0009362214   0.0005646489   0.0002602154   0.0031330103   0.0012772267
        0.0003444182  -0.0028471384   0.0094713272  -0.0007724218  -0.0073758262
       -0.0073852680   0.0005655763   0.0033060229   0.0191417316  -0.0003019329
        0.0407948036  -0.0282229393   0.0013912996  -0.0618428636  -0.0056090690
       -0.0015300229  -0.1611777248  -0.0929439350  -0.0003553961  -0.0907398981
        0.0608662055  -0.0030878172   0.0336684898  -0.0307132316   0.0014281967
       -0.0018155419   0.0003721773  -0.0001008050  -0.0000404558  -0.0001827927
       -0.0001646101  -0.0002280424   0.0001659507  -0.0000056034  -0.0002012761
        0.0002345669  -0.0002346470   0.0002466788  -0.0000629197   0.0003123706
       -0.0005691621   0.0000800145  -0.0000347407  -0.0003655941   0.0002593273
        0.0000756142   0.0000785438  -0.0001696477  -0.0002869836  -0.0002234232
        0.0001701719   0.0002461722  -0.0001718183   0.0002307528   0.0001905827
       -0.0000454639  -0.0003068229   0.0001283051   0.0001554902  -0.0001150142
       -0.0002266529   0.0000023149  -0.0000209855   0.0000009797  -0.0000509642
       -0.0002202721   0.0000246131   0.0004168498  -0.0000025914   0.0000265282
        0.0000971347   0.0000744645  -0.0003901923   0.0001003578   0.0000851203
       -0.0001969832   0.0001234474  -0.0000261195   0.0000231520   0.0000495271
        0.0000496491   0.0000761048   0.0000580699   0.0000393313   0.0000194546
       -0.0001236067  -0.0000015871  -0.0002460658   0.0005972324  -0.0002174779
       -0.0000364113
       -0.0163293814  -0.0875418636   0.0013137844  -0.0314048960  -0.2036799636
        0.0019667513  -0.0037960061   0.5930062084  -0.0081362561   0.1090418459
       -0.1025501322   0.0035174876   0.0305372082  -0.1139782031   0.0023384775
       -0.0237008743   0.0122422370  -0.0005059519   0.0125422170  -0.0005743333
        0.0000433061  -0.0047820644   0.0080331765  -0.0001622161   0.0008018032
       -0.0036559646   0.0001456159   0.0008655443  -0.0005150871  -0.0000783134
       -0.0007324458  -0.0001908678   0.0016873588  -0.0000801648   0.0005014209
       -0.0006446963  -0.0000580917  -0.0000078469   0.0003166915   0.0000729209
       -0.0000461201   0.0000147710   0.0002090739  -0.0000633726   0.0000263314
        0.0004250864  -0.0002375791  -0.0002839474  -0.0002463745   0.0001526494
       -0.0002652570   0.0003228813  -0.0003916118   0.0002666838   0.0001195864
       -0.0000573359  -0.0000471402   0.0000550762  -0.0000895708  -0.0000282404
       -0.0000090256   0.0000504762  -0.0003173927  -0.0004523904   0.0000639748
        0.0006627670  -0.0000416659   0.0006940652  -0.0017318232  -0.0051340108
        0.0016308493   0.0000668558   0.0043767698  -0.0114052776   0.0002866198
       -0.0025299820   0.0064138411  -0.0001079040  -0.0007917083  -0.0011733277
        0.0000163456  -0.0027796376   0.0000068734  -0.0004696380   0.0007352230
        0.0033931389  -0.0004453454   0.0010639113  -0.0010101414   0.0003108875
       -0.0004585980  -0.0000477971  -0.0001516534   0.0000227962  -0.0002128661
       -0.0000248720  -0.0000988676   0.0001101779  -0.0000218429   0.0003688782
       -0.0001788550   0.0001760409   0.0001029438   0.0003939690   0.0001990235
        0.0002595654  -0.0000373258  -0.0000955759   0.0000676453   0.0003795585
        0.0002115920  -0.0001914305   0.0000202236   0.0001442443   0.0002082588
        0.0000398609  -0.0000155881  -0.0001636069  -0.0001195900  -0.0003943511
        0.0003224063  -0.0001812362  -0.0001370774  -0.0013780851  -0.0004968702
       -0.0001147597   0.0002123012  -0.0064289438   0.0004999890   0.0088098415
        0.0061238177  -0.0002046876  -0.0053168910  -0.0221436403   0.0003289503
       -0.0245080559   0.0475489688  -0.0016467771  -0.0120705275  -0.1223340076
        0.0025706268  -0.0634025639   0.0031947820  -0.0023981269   0.0422394529
       -0.0168001306   0.0011203371  -0.0156848082   0.0119954756  -0.0005656727
        0.0013368488  -0.0004960313   0.0000820307   0.0001454723   0.0001289042
        0.0001839314   0.0000406744  -0.0000576249   0.0002661436   0.0000626016
       -0.0000860948   0.0000818572  -0.0000871199  -0.0000066908  -0.0001588877
        0.0003997324  -0.0000371251   0.0000448567   0.0002461699  -0.0001757254
       -0.0000629099  -0.0000252324   0.0000482924   0.0001449407   0.0000773780
       -0.0000576195  -0.0000870291   0.0000481948  -0.0000672350  -0.0003952318
        0.0002835609   0.0000083761  -0.0001965291   0.0000714127   0.0001435826
        0.0002179278  -0.0000412208   0.0000392221  -0.0000427347  -0.0000219378
        0.0002284452   0.0000216754  -0.0002682960  -0.0000160335   0.0000019434
       -0.0000591355  -0.0000564106   0.0002371420  -0.0000546794  -0.0000446505
        0.0002413592  -0.0000396665  -0.0000063213   0.0000150833  -0.0000123535
       -0.0000364384   0.0000201357   0.0000610113  -0.0000124789  -0.0000268934
        0.0000077573  -0.0000182224   0.0001246617   0.0001877443   0.0007319964
        0.0000500949
        0.0003050987   0.0013526500   0.0131827273   0.0002069771   0.0018372879
       -0.0464299885   0.0079284485  -0.0081362561   0.1032909548  -0.0049526532
        0.0036134654  -0.0385575419  -0.0005682042   0.0022471541   0.0000660728
        0.0000427688  -0.0001828675   0.0033159791   0.0001789386  -0.0001682966
       -0.0005367468  -0.0001136654   0.0004289807  -0.0004265783   0.0005314624
       -0.0004982905   0.0000990654  -0.0005776349   0.0003592516  -0.0000708171
        0.0002305872   0.0001547419  -0.0000387835   0.0000216371  -0.0000235987
        0.0000172163   0.0000072517   0.0000174934  -0.0000103122   0.0000005113
        0.0000244797   0.0000199065  -0.0000333450  -0.0000185351  -0.0000230327
       -0.0000118962  -0.0000050038   0.0000841107  -0.0000164552   0.0000352456
        0.0000028249  -0.0000440116   0.0000079373  -0.0000909753   0.0000250904
        0.0000342272   0.0000309834  -0.0000078514  -0.0000080350  -0.0000317763
       -0.0000220630   0.0000070427   0.0000120927   0.0000240611   0.0000065248
       -0.0000302371  -0.0001048616  -0.0003138557   0.0001290582  -0.0000306542
       -0.0000906437   0.0004082353  -0.0000392585   0.0000866519   0.0006285764
        0.0000829571  -0.0002026001  -0.0002854200  -0.0000951436  -0.0000532463
        0.0000685549   0.0002655523   0.0000249620   0.0000967703   0.0000532495
       -0.0000913996   0.0000623640  -0.0000593596   0.0000387319   0.0000912883
        0.0000322330  -0.0000094821   0.0000142560   0.0000037532   0.0000125022
        0.0000042001   0.0000013350  -0.0000069002   0.0000036468  -0.0000104743
        0.0000162049  -0.0000154998  -0.0000138966   0.0000047562  -0.0000028125
        0.0000046398  -0.0000131067   0.0000073430  -0.0000342956   0.0000985317
        0.0000301143  -0.0000381010  -0.0000259919   0.0000161156  -0.0000027868