$hessian                                                                        
        0.2916299531   0.5248580923  -0.0240616939  -0.2912720142  -0.4933613863
        0.0228215321  -0.0003289403  -0.0321427306   0.0013232387  -0.0047576073
        0.0032738519   0.0006305479  -0.0016017749  -0.0035720357  -0.0001314228
       -0.0003892462  -0.0002150259   0.0000198775  -0.0002281569  -0.0001255246
       -0.0000103655  -0.0000143408  -0.0000605501  -0.0000165713  -0.0005870275
        0.0005773744   0.0000038950   0.0003796676  -0.0005166157  -0.0000233968
        0.0000517475   0.0000539708   0.0000319877   0.0000567941  -0.0000242193
        0.0000336375   0.0000213774   0.0000048460   0.0000020108  -0.0000039329
       -0.0000087340  -0.0000197250   0.0000715918   0.0000557534   0.0000065926
       -0.0001096447  -0.0000496220  -0.0000402307  -0.0000439946  -0.0000005112
        0.0000264056   0.0000933068   0.0000273932  -0.0000333305   0.0000094085
       -0.0000181346  -0.0000009620   0.0000262573   0.0000129422  -0.0000149254
       -0.0000033891   0.0000099208   0.0000156790   0.0000317000  -0.0000181063
        0.0000311231  -0.0001304168  -0.0000269936   0.0000248850   0.0004835553
       -0.0001571502  -0.0000567949  -0.0001382277   0.0001563743   0.0000495961
       -0.0000140781   0.0013894657  -0.0000279723  -0.0011527268  -0.0005040771
        0.0001083655   0.0010979834   0.0014770798  -0.0000440426  -0.0007317571
       -0.0012326760   0.0000979118  -0.0001033443   0.0001245938  -0.0000709655
       -0.0000928523  -0.0000511166  -0.0000533683  -0.0000226728  -0.0000310280
       -0.0000616541   0.0000389971   0.0000015996   0.0000594996  -0.0001073744
        0.0000542389   0.0000269701   0.0002720919  -0.0001353003   0.0001171029
        0.0000336599   0.0000545979  -0.0000768615  -0.0002344791   0.0001852217
        0.0001557036   0.0000721168  -0.0000711146   0.0000168467  -0.0000083818
        0.0000364285   0.0000708198  -0.0000308299  -0.0000237136  -0.0000616877
       -0.0000163342  -0.0001056811  -0.0000500628   0.0001348697  -0.0000393493
       -0.0001127792   0.0001789995  -0.0009860077   0.0000337811   0.0011767487
        0.0003747955  -0.0000792607  -0.0010688703  -0.0020018868   0.0000947608
        0.0019070900   0.0025502607  -0.0001538692   0.0000417018  -0.0023028262
       -0.0000752434   0.0057058344   0.0026095428  -0.0004190401  -0.0000971202
        0.0005128250  -0.0000555236  -0.0003037771  -0.0004448980   0.0000163897
        0.0000727154  -0.0000992878  -0.0000071073   0.0000690763  -0.0000383047
       -0.0000015266  -0.0000153803   0.0000086383  -0.0000024654  -0.0000148136
        0.0000028443   0.0000062051  -0.0000156259   0.0000091804   0.0000021502
        0.0000020361  -0.0000127772   0.0000078082   0.0000001113  -0.0000026481
       -0.0000015791   0.0000068140  -0.0000031515  -0.0000036117   0.0000158724
       -0.0000040553  -0.0000159993  -0.0000236772  -0.0000025561  -0.0000103863
       -0.0000214439  -0.0000316052  -0.0000021718  -0.0000155922  -0.0000619484
        0.0000013177   0.0000030201   0.0000313895  -0.0000122558   0.0000268228
       -0.0000141755   0.0000109773   0.0000197959  -0.0000113597  -0.0000079342
       -0.0000005147  -0.0000110302  -0.0000182551  -0.0000152739  -0.0000015856
       -0.0000197789  -0.0000155349   0.0000135517  -0.0000048395  -0.0000188259
        0.0000166937   0.0000125264   0.0000233889   0.0000221453  -0.0000134554
       -0.0000405033  -0.0000168702   0.0000006419   0.0000353923   0.0000327587
        0.0000123293
        0.5248580923   1.0129562876  -0.0455903764  -0.4917762714  -0.9718386648
        0.0428078941  -0.0363713011  -0.0435904734   0.0031630203  -0.0004934145
        0.0121116809  -0.0000062563  -0.0048202378  -0.0045987279   0.0003505378
       -0.0000473730  -0.0000382237   0.0000085100  -0.0002638644  -0.0000754478
       -0.0000022611  -0.0001016530  -0.0002371999  -0.0000295871  -0.0011429531
        0.0011565596   0.0000069727   0.0007123880  -0.0010905475  -0.0000425775
        0.0001212773   0.0001462902   0.0000480582   0.0000960121  -0.0000520459
        0.0000660680   0.0000451646   0.0000065099   0.0000100036  -0.0000068063
       -0.0000195330  -0.0000362393   0.0001258825   0.0000963825   0.0000066869
       -0.0002011370  -0.0001096416  -0.0000570977  -0.0000799918   0.0000012776
        0.0000439910   0.0001928647   0.0000866174  -0.0000875650   0.0000083165
       -0.0000443132   0.0000034407   0.0000376174   0.0000236570  -0.0000417869
       -0.0000080217   0.0000002960   0.0000344609   0.0000607136  -0.0000442703
        0.0000494330  -0.0002239479  -0.0000502852   0.0000653597   0.0009740114
       -0.0002861817  -0.0001247612  -0.0003958005   0.0005465815   0.0000843003
       -0.0000960350   0.0027361971  -0.0000534133  -0.0022827637  -0.0009536280
        0.0002263681   0.0021710892   0.0030057718  -0.0000814359  -0.0015141315
       -0.0024890878   0.0001960809  -0.0002165063   0.0002539396  -0.0001521296
       -0.0001876016  -0.0001077521  -0.0001042798  -0.0000481276  -0.0000574277
       -0.0001184749   0.0000752004   0.0000048304   0.0001195817  -0.0002233646
        0.0001206056   0.0000509247   0.0005492033  -0.0002732578   0.0002413024
        0.0000718959   0.0001068285  -0.0001458947  -0.0004681245   0.0003461849
        0.0002960724   0.0001349665  -0.0001386874   0.0000386580  -0.0000203484
        0.0000723634   0.0001295813  -0.0000514279  -0.0000490261  -0.0001243541
       -0.0000468792  -0.0002024635  -0.0000984575   0.0003212930  -0.0000805664
       -0.0002254483   0.0003329126  -0.0019879775   0.0000754673   0.0023680583
        0.0006874995  -0.0001736392  -0.0023461136  -0.0039340187   0.0000810155
        0.0039747352   0.0058519752  -0.0002964227  -0.0061723646  -0.0076195758
        0.0005246258   0.0124344147  -0.0000850738  -0.0009996018  -0.0003992466
       -0.0017277143   0.0000141854   0.0003795891   0.0015641598  -0.0000671820
        0.0000117928   0.0000173401  -0.0000100767   0.0000922292  -0.0000397419
       -0.0000057440  -0.0000206304   0.0000241748   0.0000011388  -0.0000332602
        0.0000006550   0.0000073478  -0.0000351070   0.0000096598   0.0000042856
       -0.0000006632  -0.0000184988   0.0000135737   0.0000015320  -0.0000021999
        0.0000034235   0.0000070834  -0.0000018306  -0.0000003426   0.0000170883
       -0.0000020303  -0.0000170919  -0.0000392792   0.0000070395   0.0000002247
       -0.0000638540  -0.0000629103  -0.0000047098  -0.0000261966  -0.0001206735
        0.0000030821   0.0000100618   0.0000603658  -0.0000245712   0.0000534174
       -0.0000244222   0.0000183958   0.0000400816  -0.0000196309  -0.0000170515
       -0.0000071496  -0.0000286977  -0.0000413408  -0.0000305942  -0.0000071933
       -0.0000385039  -0.0000380507   0.0000239442  -0.0000084466  -0.0000440671
        0.0000327316   0.0000302544   0.0000503071   0.0000408407  -0.0000256578
       -0.0001064926  -0.0000479387   0.0000028598   0.0001218614   0.0000583336
        0.0000255928
       -0.0240616939  -0.0455903764   0.0169426786   0.0227608711   0.0428534852
       -0.0313351276   0.0013129780   0.0027454551   0.0143581438   0.0006294086
       -0.0002441026   0.0032951440  -0.0001403024   0.0003223894  -0.0030666636
        0.0000374859  -0.0000002776  -0.0001678141  -0.0000019996   0.0000199558
       -0.0000744413   0.0000110755  -0.0000080844   0.0000236168   0.0000398825
       -0.0000283663  -0.0000451092  -0.0000292362   0.0000394834   0.0000138040
       -0.0000060038  -0.0000131500  -0.0000071608  -0.0000065223   0.0000028627
       -0.0000077007  -0.0000014043  -0.0000014570   0.0000000540  -0.0000011665
       -0.0000021112   0.0000049155  -0.0000037665  -0.0000042131   0.0000038432
        0.0000034164   0.0000057314   0.0000079957  -0.0000067181  -0.0000010039
        0.0000036190  -0.0000011273   0.0000000784  -0.0000021935  -0.0000042315
        0.0000030841   0.0000012402   0.0000027127  -0.0000018002   0.0000051687
        0.0000020477   0.0000013258  -0.0000043414  -0.0000049352   0.0000021370
       -0.0000069154   0.0000246608   0.0000010259  -0.0000057266  -0.0000300564
        0.0000084474   0.0000249662   0.0000212201   0.0000044797   0.0001324733
        0.0000051517  -0.0001112336   0.0000252225   0.0000831941   0.0000158327
       -0.0000996067  -0.0000850038  -0.0001002913  -0.0000053643   0.0000540054
        0.0000793238   0.0000098129   0.0000107490  -0.0000146378  -0.0000030650
        0.0000041433   0.0000121394   0.0000047184   0.0000061937   0.0000019283
        0.0000058966  -0.0000037983  -0.0000013012  -0.0000006921   0.0000078819
       -0.0000055323  -0.0000001368  -0.0000299160   0.0000083777  -0.0000054652
       -0.0000069509  -0.0000030371   0.0000091851   0.0000248749  -0.0000208370
       -0.0000170443  -0.0000051145   0.0000029641  -0.0000028285   0.0000027743
        0.0000002080  -0.0000010902  -0.0000041916   0.0000030505   0.0000065876
        0.0000042574   0.0000133888   0.0000037437  -0.0000124782   0.0000040203
        0.0000200123  -0.0000066507   0.0000796089  -0.0000524980  -0.0000890363
       -0.0000202104   0.0000909693   0.0001377009   0.0001501252   0.0007976319
       -0.0001269337  -0.0002117956  -0.0001343631  -0.0000840874   0.0002309620
       -0.0012202856  -0.0004240891  -0.0002038373   0.0006356655  -0.0000091538
       -0.0000930817  -0.0004498151   0.0000165362   0.0000576646   0.0003470257
       -0.0000139572  -0.0000023281  -0.0000545499  -0.0000061657   0.0000000155
        0.0000096903  -0.0000000415  -0.0000099810   0.0000015409   0.0000024774
        0.0000003059   0.0000006687   0.0000024458   0.0000005925   0.0000008568
        0.0000031432  -0.0000014827  -0.0000006619   0.0000003241  -0.0000026326
       -0.0000012917  -0.0000008690  -0.0000007202  -0.0000018209  -0.0000076283
       -0.0000011420   0.0000018261  -0.0000020641   0.0000049015   0.0000018861
        0.0000048414   0.0000035991   0.0000183895   0.0000001512   0.0000059491
       -0.0000092536   0.0000006002   0.0000159814   0.0000030534  -0.0000021930
        0.0000009323  -0.0000003166  -0.0000011921   0.0000014355   0.0000020295
        0.0000033863   0.0000038742   0.0000031091   0.0000021843   0.0000038846
        0.0000023903   0.0000034392  -0.0000001555   0.0000009945   0.0000002095
        0.0000004451  -0.0000023635  -0.0000099310  -0.0000070846   0.0000033578
        0.0000051130  -0.0000015876  -0.0000285388  -0.0000009275  -0.0000035999
       -0.0000096816
       -0.2912720142  -0.4917762714   0.0227608711   0.4207608801   0.6006189847
       -0.0299409664  -0.1091330651  -0.0834178882   0.0045770702   0.0170340032
       -0.0075459180  -0.0019714447   0.0031664737   0.0084920262   0.0008305127
        0.0005906137   0.0007872438   0.0000117447   0.0004315946   0.0001854378
        0.0000345799   0.0000699291   0.0001399946   0.0000272621   0.0012586417
       -0.0011797157  -0.0000035722  -0.0007927348   0.0011236812   0.0000541866
       -0.0001325707  -0.0001610951  -0.0000578927  -0.0001142147   0.0000441620
       -0.0000822530  -0.0000493406  -0.0000129474  -0.0000092038   0.0000116981
        0.0000185276   0.0000475085  -0.0001388848  -0.0001171740  -0.0000019566
        0.0002297511   0.0001093602   0.0000851419   0.0000669087  -0.0000025178
       -0.0000723269  -0.0001941813  -0.0000846526   0.0000957979   0.0000068611
        0.0000399284  -0.0000020349  -0.0000509223  -0.0000283054   0.0000467445
        0.0000138623  -0.0000099194  -0.0000365953  -0.0000563548   0.0000470006
       -0.0000831972   0.0002798856   0.0000574237  -0.0000648971  -0.0010503605
        0.0003569117   0.0001264563   0.0003374094  -0.0002936955  -0.0001317237
       -0.0000349238  -0.0027034577   0.0000543520   0.0023508997   0.0009892373
       -0.0002002274  -0.0022436855  -0.0030010603   0.0000854961   0.0014955992
        0.0025084323  -0.0002021055   0.0002164536  -0.0002718395   0.0001436292
        0.0001779376   0.0001142630   0.0001079258   0.0000564092   0.0000435758
        0.0001254565  -0.0000712080  -0.0000166193  -0.0001162909   0.0002102692
       -0.0001344530  -0.0000611066  -0.0005270824   0.0002796285  -0.0002180577
       -0.0000873385  -0.0000902477   0.0001699714   0.0004765587  -0.0003441882
       -0.0002932003  -0.0001327352   0.0001281191  -0.0000445614   0.0000094915
       -0.0000770511  -0.0001311620   0.0000415923   0.0000486101   0.0001244481
        0.0000552256   0.0001877326   0.0000976012  -0.0002940450   0.0000797848
        0.0002215209  -0.0003290874   0.0019116107  -0.0000587338  -0.0023862671
       -0.0007879939   0.0001453118   0.0021922992   0.0041785040  -0.0003220202
       -0.0032513383  -0.0046682340   0.0002199831  -0.0079253270   0.0029989079
        0.0010556770  -0.0318381705  -0.0272636947   0.0027252840   0.0006629048
       -0.0022483618   0.0000342544  -0.0000978700   0.0003952051  -0.0000091285
       -0.0001582140   0.0001123376   0.0000100298  -0.0001239146   0.0000615924
       -0.0000018410   0.0000291493  -0.0000221695   0.0000092674   0.0000340545
        0.0000013076  -0.0000049897   0.0000335448  -0.0000066349  -0.0000037805
        0.0000064147   0.0000288686  -0.0000177843  -0.0000089042   0.0000046845
       -0.0000071435  -0.0000146993   0.0000016385   0.0000000837  -0.0000300707
        0.0000021409   0.0000225763   0.0000394925  -0.0000060397   0.0000176168
        0.0000380731   0.0000759979   0.0000028288   0.0000298908   0.0001198611
        0.0000000855  -0.0000142744  -0.0000540228   0.0000159894  -0.0000566538
        0.0000298256  -0.0000216224  -0.0000404629   0.0000263068   0.0000199280
        0.0000050431   0.0000347330   0.0000473307   0.0000313938   0.0000090823
        0.0000437100   0.0000378040  -0.0000241314   0.0000125724   0.0000414837
       -0.0000319722  -0.0000258345  -0.0000438692  -0.0000402023   0.0000181376
        0.0000921035   0.0000386215   0.0000030250   0.0000721850  -0.0000088171
       -0.0000343145
       -0.4933613863  -0.9718386648   0.0428534852   0.6006189847   1.2374301601
       -0.0519264002  -0.0820236635  -0.1934843800   0.0066294884  -0.0057395678
       -0.0726594218   0.0006961176   0.0117988016   0.0034449280  -0.0008339080
       -0.0008215370  -0.0014810398   0.0000690670   0.0001758524   0.0002124562
        0.0000288970   0.0001413165   0.0002922547   0.0000455081   0.0017028207
       -0.0017761369   0.0000031762  -0.0011027460   0.0016980960   0.0000600814
       -0.0001709711  -0.0001931367  -0.0000684398  -0.0001544370   0.0000778823
       -0.0001098608  -0.0000798736  -0.0000234341  -0.0000168407   0.0000099573
        0.0000179169   0.0000664038  -0.0002047374  -0.0001920483  -0.0000000250
        0.0003358371   0.0001904818   0.0000857258   0.0001300705   0.0000136176
       -0.0001203148  -0.0003210074  -0.0001457977   0.0001366203  -0.0000175140
        0.0000553638   0.0000057441  -0.0000545553  -0.0000401269   0.0000674504
        0.0000231579  -0.0000049647  -0.0000519626  -0.0000986281   0.0000575530
       -0.0000777622   0.0003040112   0.0000841678  -0.0001033054  -0.0015536484
        0.0002860186   0.0002121070   0.0010096646  -0.0010736333  -0.0001767963
        0.0002768612  -0.0046765070   0.0000821322   0.0038238931   0.0016419544
       -0.0003845630  -0.0036154179  -0.0051225784   0.0001259193   0.0025623533
        0.0042475385  -0.0003269863   0.0003599931  -0.0004214085   0.0002443998
        0.0002878893   0.0001797903   0.0001713504   0.0000870255   0.0000791720
        0.0002015140  -0.0001231898  -0.0000184772  -0.0002000148   0.0003674874
       -0.0002285839  -0.0000935286  -0.0009147912   0.0004838305  -0.0003804993
       -0.0001125053  -0.0001734979   0.0002797596   0.0008025339  -0.0005772906
       -0.0004804934  -0.0002208155   0.0002157893  -0.0000719895   0.0000244462
       -0.0001217381  -0.0002152525   0.0000676722   0.0000783235   0.0002069375
        0.0000982991   0.0003216671   0.0001597215  -0.0005213511   0.0001377373
        0.0003801879  -0.0005689950   0.0033921948  -0.0001338860  -0.0040917337
       -0.0012353280   0.0002936693   0.0040780138   0.0072314823  -0.0001623814
       -0.0053334005  -0.0104136266   0.0003712521   0.0067469567   0.0144593928
       -0.0006077242  -0.0363978870  -0.0094303242   0.0029805334   0.0022502351
        0.0005467118  -0.0001542066  -0.0005216206  -0.0017281396   0.0000977883
       -0.0001437401  -0.0000644477   0.0000218329  -0.0001330291   0.0000645959
        0.0000090903   0.0000412399  -0.0000330949   0.0000142044   0.0000576420
        0.0000001714  -0.0000106615   0.0000579577  -0.0000095444  -0.0000077100
        0.0000032199   0.0000434235  -0.0000283566  -0.0000074602   0.0000087551
       -0.0000091295  -0.0000188574   0.0000041426  -0.0000020645  -0.0000301811
        0.0000057616   0.0000263105   0.0000533375  -0.0000113307   0.0000108350
        0.0001205772   0.0000615223   0.0000081231   0.0000543360   0.0002239348
       -0.0000081294  -0.0000158680  -0.0000967499   0.0000298478  -0.0000897570
        0.0000430560  -0.0000333592  -0.0000670543   0.0000396620   0.0000315461
        0.0000096222   0.0000536442   0.0000735769   0.0000576680   0.0000119489
        0.0000695775   0.0000660091  -0.0000423737   0.0000178996   0.0000726040
       -0.0000536246  -0.0000486272  -0.0000788253  -0.0000703657   0.0000343637
        0.0001698963   0.0000789315  -0.0000076027  -0.0001374910  -0.0000742145
       -0.0000494636
        0.0228215321   0.0428078941  -0.0313351276  -0.0299409664  -0.0519264002
        0.0728549434   0.0046144642   0.0069122022  -0.0512660836  -0.0020110104
        0.0006948926  -0.0081056425   0.0007575476  -0.0006563097   0.0132093654
        0.0000153820  -0.0000795561   0.0008440267  -0.0000575565   0.0000012250
        0.0003487470   0.0000206865  -0.0000258529  -0.0000578150  -0.0001496489
        0.0001463971   0.0001262405   0.0000868656  -0.0001259155  -0.0000205168
       -0.0000071446  -0.0000104581   0.0000033575   0.0000093955  -0.0000100927
        0.0000007838   0.0000089063   0.0000021517   0.0000020203   0.0000002240
        0.0000019556  -0.0000020708   0.0000078085   0.0000064389  -0.0000013346
       -0.0000176816  -0.0000015749   0.0000020815  -0.0000045876  -0.0000030837
        0.0000146891   0.0000179395   0.0000085386  -0.0000059852   0.0000028352
        0.0000028658  -0.0000084385   0.0000018908   0.0000037320  -0.0000036610
       -0.0000060458  -0.0000021300   0.0000053486   0.0000115498  -0.0000082314
        0.0000028131   0.0000097309  -0.0000020257   0.0000169397   0.0001032076
       -0.0000450744  -0.0000698380  -0.0000720369   0.0000824098  -0.0005992008
       -0.0000111019   0.0002599038  -0.0001111891  -0.0001788424  -0.0001045472
        0.0004209037   0.0002033699   0.0002236800  -0.0000315952  -0.0001226306
       -0.0002106886  -0.0000212976  -0.0000234911   0.0000257123  -0.0000008893
       -0.0000299139  -0.0000014177  -0.0000157657   0.0000036483   0.0000028479
       -0.0000005679   0.0000090408  -0.0000122131   0.0000093343  -0.0000269409
        0.0000163726   0.0000024728   0.0000532843  -0.0000131610   0.0000431763
        0.0000064461   0.0000114187  -0.0000091286  -0.0000357488   0.0000486492
        0.0000432641   0.0000118788  -0.0000221868   0.0000017735  -0.0000115175
       -0.0000009762   0.0000034889   0.0000065464  -0.0000001175   0.0000051508
        0.0000054801  -0.0000349782  -0.0000075187   0.0000195885  -0.0000137832
       -0.0000687274   0.0000163795  -0.0001532096   0.0002313154   0.0002072562
        0.0000452526  -0.0002924884  -0.0004121424  -0.0003597599  -0.0030905696
        0.0002592763   0.0004114083  -0.0001678755   0.0011691527  -0.0002332761
        0.0060796589   0.0026759018   0.0022274732   0.0010934389   0.0000292535
        0.0001422599   0.0003925506  -0.0000546954  -0.0000070803  -0.0004508009
        0.0000288846  -0.0000076069   0.0000327454   0.0000071965  -0.0000012701
       -0.0000874410  -0.0000049199  -0.0000093379   0.0000035895  -0.0000033342
       -0.0000014880   0.0000029258  -0.0000012078   0.0000023103   0.0000028957
        0.0000036039   0.0000003559   0.0000010337  -0.0000010189   0.0000016319
       -0.0000018185   0.0000013330   0.0000019262  -0.0000008457   0.0000032620
       -0.0000001983  -0.0000028736  -0.0000088886   0.0000012079   0.0000019544
       -0.0000087765  -0.0000090323  -0.0000707594  -0.0000001407  -0.0000091457
        0.0000339771   0.0000047304   0.0000183772   0.0000038392   0.0000042326
       -0.0000026046   0.0000042182   0.0000055164  -0.0000027633   0.0000013566
        0.0000031345  -0.0000064862  -0.0000021542  -0.0000077323  -0.0000028774
       -0.0000023727  -0.0000031288   0.0000025336   0.0000012637  -0.0000028727
        0.0000013443   0.0000044238  -0.0000072525   0.0000009957   0.0000042640
        0.0000062579   0.0000023874   0.0000691129  -0.0000116448  -0.0000018406
       -0.0000130912
       -0.0003289403  -0.0363713011   0.0013129780  -0.1091330651  -0.0820236635
        0.0046144642   0.5521168794   0.0140384233  -0.0336135547  -0.1669653198
        0.1135287303   0.0091291317   0.0448543415   0.0225931121  -0.0037099893
        0.0012168667  -0.0104262959   0.0007446399  -0.0031803535   0.0014791844
        0.0002857270   0.0001117463  -0.0028827095  -0.0001141603   0.0031188867
        0.0011254039  -0.0001356493  -0.0007489004   0.0005111498   0.0000518807
       -0.0001202311  -0.0002318855  -0.0000655110   0.0000281264  -0.0000107684
        0.0000286999  -0.0000473077  -0.0000515969   0.0000261930  -0.0000361723
        0.0000128962  -0.0000072937  -0.0000232632  -0.0000222187  -0.0000028753
       -0.0000022574   0.0000227820   0.0000135966   0.0000043121   0.0000188665
       -0.0000279716  -0.0000673130   0.0001479462  -0.0000532500   0.0000208996
        0.0000027327  -0.0000199426  -0.0000402423  -0.0000148780   0.0000078442
        0.0000370341  -0.0000398007   0.0000072107  -0.0000582374  -0.0000934965
       -0.0000098949   0.0004175804   0.0000448235   0.0000192515  -0.0023180235
        0.0010177720   0.0001184126   0.0057215103   0.0011062324  -0.0004272477
       -0.0050086927   0.0000137889   0.0004561037   0.0031391394   0.0015356733
       -0.0002684285  -0.0036991337  -0.0003986224   0.0001953026   0.0012964681
        0.0014487819  -0.0001695775   0.0001836077  -0.0003054742   0.0001430610
        0.0000411354   0.0000468089  -0.0000041005   0.0000558457  -0.0000015162
        0.0000595014  -0.0000059145  -0.0000186859  -0.0000539395   0.0000775042
       -0.0000236260  -0.0000544789  -0.0002390226   0.0001283227  -0.0001494677
        0.0000008491  -0.0000540314   0.0000791874   0.0002560034  -0.0000502705
       -0.0001079376  -0.0001272356   0.0000650337  -0.0000284165   0.0000090991
       -0.0000428333  -0.0000647860   0.0000156884   0.0000088887   0.0000673621
        0.0000523864   0.0000359621   0.0000446325  -0.0004603884   0.0000609227
        0.0001064254  -0.0001612763  -0.0013288622   0.0000475389   0.0009674226
        0.0003272978  -0.0001431838  -0.0001916313  -0.0028731055   0.0000453257
       -0.0324382975   0.0283468619   0.0016054955  -0.0502243840  -0.0866941674
        0.0058655831  -0.2126738961   0.0121450606   0.0119126946  -0.0313680796
        0.0365664634   0.0025605377   0.0055961456  -0.0124770800  -0.0003880734
       -0.0003899416   0.0001373749   0.0000095135  -0.0001298971   0.0000342070
       -0.0000148091   0.0000170391   0.0000254789  -0.0000333055   0.0000011799
        0.0000047734  -0.0000046730   0.0000091180   0.0000112926  -0.0000110702
        0.0000096252   0.0000261699  -0.0000145546  -0.0000062796  -0.0000041955
       -0.0000017965  -0.0000099447   0.0000079644   0.0000022364  -0.0000200657
        0.0000059721   0.0000084128   0.0000109150   0.0000110473   0.0000237050
       -0.0000285812  -0.0001399399   0.0000153759   0.0001113270  -0.0000573118
       -0.0000154246  -0.0000104220  -0.0000034470   0.0000499143  -0.0000157164
        0.0000208271  -0.0000180563  -0.0000105201   0.0000362420   0.0000156991
       -0.0000013951   0.0000346665   0.0000345930   0.0000229864   0.0000119526
        0.0000289479   0.0000370326  -0.0000062105   0.0000043962   0.0000373234
       -0.0000176928  -0.0000163525  -0.0000164151  -0.0000158754  -0.0000002731
        0.0001147868  -0.0000200525   0.0000245797   0.0005959459  -0.0000462752
       -0.0000161097
       -0.0321427306  -0.0435904734   0.0027454551  -0.0834178882  -0.1934843800
        0.0069122022   0.0140384233   0.6447876195  -0.0023981457   0.1289534230
       -0.2363635800  -0.0094347032  -0.0209443257  -0.1032232870   0.0017296554
       -0.0093555697   0.0062960327   0.0005689813   0.0040114114  -0.0013816060
       -0.0004023430   0.0000077659   0.0040289336   0.0000638668  -0.0020105642
       -0.0018394649   0.0001070331   0.0000676948   0.0006584020   0.0000560646
       -0.0000454307  -0.0000220353   0.0000238349   0.0000433987   0.0000047627
       -0.0000284510   0.0000803324   0.0000500722  -0.0000808724   0.0000965416
        0.0000077633   0.0000227102   0.0000046875   0.0000569679   0.0000108108
        0.0000715395   0.0000919284   0.0000502733  -0.0000956010  -0.0000963304
       -0.0000239581  -0.0000463291  -0.0001982598   0.0001296097   0.0001084522
        0.0000693504   0.0000089189   0.0000354891   0.0000022115   0.0000239702
       -0.0000328014   0.0000597790  -0.0000366330   0.0000620497   0.0001396939
       -0.0000077690  -0.0001400232  -0.0000332782  -0.0001217634   0.0008495978
       -0.0004160101  -0.0000371804  -0.0044334940  -0.0045270458   0.0004635633
        0.0027642620   0.0067682578  -0.0003168326  -0.0064821225  -0.0031680914
        0.0006037737   0.0061190521   0.0059291246  -0.0003381230  -0.0034896570
       -0.0055430435   0.0005480199  -0.0005393062   0.0007418520  -0.0004243022
       -0.0003068942  -0.0002476486  -0.0001351656  -0.0001099545  -0.0001327654
       -0.0003103716   0.0001525316   0.0000708389   0.0002525198  -0.0003907448
        0.0001503348   0.0001818980   0.0011203214  -0.0005726996   0.0005722910
        0.0001137440   0.0002469409  -0.0003084629  -0.0009909986   0.0006851843
        0.0006668714   0.0004053246  -0.0002864676   0.0001343901   0.0000113487
        0.0001631455   0.0002885684  -0.0001285576  -0.0001234012  -0.0003072087
       -0.0000827364  -0.0003827373  -0.0001700306   0.0008648952  -0.0001366644
       -0.0005174645   0.0009481846  -0.0035532217   0.0001094814   0.0049513322
        0.0016514240  -0.0003774929  -0.0052719512  -0.0088931903   0.0001441426
        0.0271404947   0.0065541556  -0.0020746411  -0.0371211993  -0.0076162329
        0.0029201838  -0.0109363745  -0.0531519659   0.0009177781   0.0274357005
       -0.0099171733  -0.0022206131  -0.0026530925   0.0000296472   0.0002087463
        0.0011769862  -0.0002704538   0.0000005979   0.0000634713   0.0000320079
        0.0000040694  -0.0000616105  -0.0000308312   0.0000220396  -0.0000179763
        0.0000239427   0.0000354784  -0.0000279201   0.0000226697  -0.0000063678
       -0.0000189437  -0.0000265503   0.0000042199  -0.0000408890   0.0000077127
       -0.0000274065  -0.0000123373  -0.0000163627  -0.0000124538  -0.0000028877
       -0.0000198040  -0.0000046120  -0.0000253693  -0.0000382573  -0.0000341139
       -0.0000561986   0.0000952650  -0.0000334672  -0.0002093491  -0.0000738690
        0.0000085987   0.0000241178   0.0000975062  -0.0001119977   0.0001007102
       -0.0000835465   0.0000616138   0.0000586302  -0.0000972179  -0.0000486732
        0.0000074977  -0.0000789650  -0.0001163642  -0.0000732613  -0.0000381160
       -0.0001141652  -0.0001162535   0.0000455272  -0.0000316356  -0.0001109417
        0.0000711590   0.0000580689   0.0000810703   0.0000645898  -0.0000827530
       -0.0001234266  -0.0000637027  -0.0000140470   0.0000952297   0.0000339277
        0.0000502842
        0.0013232387   0.0031630203   0.0143581438   0.0045770702   0.0066294884
       -0.0512660836  -0.0336135547  -0.0023981457   0.1185966911   0.0091489696
       -0.0083024936  -0.0449841985  -0.0036880234  -0.0014962180  -0.0012573327
        0.0007208335   0.0007382859   0.0093893251   0.0002152736  -0.0001206672
       -0.0000707425   0.0000115407   0.0002043801  -0.0005367368  -0.0003078603
       -0.0000510562   0.0001213688   0.0000667513  -0.0000272259   0.0000169264
       -0.0000111145  -0.0000133081  -0.0000012779   0.0000116989  -0.0000303031
       -0.0000174934   0.0000091922   0.0000197928  -0.0000186339   0.0000089950
       -0.0000049951   0.0000027358  -0.0000078472  -0.0000110563  -0.0000202463
       -0.0000151250   0.0000217238  -0.0000137437   0.0000034937  -0.0000107102
        0.0000015976   0.0000071829   0.0000074859  -0.0000132907   0.0000122113
       -0.0000030658  -0.0000226189   0.0000060921  -0.0000104907   0.0000065947
       -0.0000280448   0.0000022779  -0.0000167485   0.0000155147  -0.0000266469
       -0.0000083160   0.0000083250  -0.0000006777   0.0000782189   0.0001623550
       -0.0001152968  -0.0008914645  -0.0003846463   0.0000010096   0.0009772346
        0.0004186884  -0.0000210421   0.0003927642  -0.0002427520  -0.0001263329
       -0.0000002515   0.0002821393   0.0000468314  -0.0001049239  -0.0001062395
       -0.0001191578  -0.0000078644  -0.0000126777   0.0000182707  -0.0000261166
        0.0000025104  -0.0000033208   0.0000114507  -0.0000047525   0.0000015108
       -0.0000109580  -0.0000042795   0.0000014968  -0.0000050840  -0.0000064902
       -0.0000008893   0.0000010207   0.0000240929  -0.0000172584   0.0000160235
       -0.0000023247   0.0000166517  -0.0000076440  -0.0000275912   0.0000000155
        0.0000094920   0.0000081825  -0.0000045793   0.0000028034   0.0000027336