$hessian                                                                        
        0.1464320352   0.0596382079   0.1114125298  -0.0507071601   0.0038357759
       -0.0139446983   0.0023489111   0.0080576946   0.0010364841  -0.0063984129
       -0.0066779566   0.0024800252  -0.0003717529   0.0000646950  -0.0003482621
        0.0000230112  -0.0001119815   0.0000901251   0.0000290413   0.0000149924
       -0.0000719063   0.0000654366   0.0000772035  -0.0000695180  -0.0000225424
       -0.0000011671  -0.0000226004  -0.0000063268   0.0000225032  -0.0000277057
       -0.0000090791  -0.0000081999   0.0000001045  -0.0000026690  -0.0000006359
        0.0000029852   0.0000092092  -0.0000020444  -0.0000025718  -0.0000087858
       -0.0000078063   0.0000071779   0.0000111588   0.0000036040  -0.0000057453
       -0.0000028348  -0.0000011605   0.0000018055  -0.0000000926   0.0000004543
       -0.0000002751   0.0000003378   0.0000001079  -0.0000002528   0.0000043088
       -0.0000001891  -0.0000012775  -0.0000072987   0.0000028888   0.0000000428
        0.0000020282  -0.0000044474   0.0000022934  -0.0000016489   0.0000040500
       -0.0000022685  -0.0000015440  -0.0000034075   0.0000023089   0.0000044299
        0.0000000775  -0.0000019521   0.0000074223   0.0000010508  -0.0000031050
       -0.0000052404   0.0000075916  -0.0000047119   0.0000023011   0.0000047566
        0.0000025919  -0.0000016209   0.0000017007   0.0000012353  -0.0000085337
        0.0000015515   0.0000000584  -0.0000001159  -0.0000089810   0.0000067181
       -0.0000046590  -0.0000051141   0.0000061594   0.0000143143  -0.0000012310
       -0.0000003679  -0.0000276565   0.0000059824  -0.0000018606   0.0000325842
       -0.0000145850   0.0000033184  -0.0000176218   0.0000263841   0.0000030300
        0.0000025523  -0.0000057574  -0.0000012852  -0.0000059398   0.0000042005
        0.0000004640   0.0000031108   0.0000004237  -0.0000001755  -0.0000002143
       -0.0000000879  -0.0000004470   0.0000074875   0.0000020709   0.0000009174
       -0.0000080437  -0.0000093634  -0.0000026304   0.0000116832   0.0000045352
        0.0000012104  -0.0000053898   0.0000056012   0.0000022871  -0.0000194242
       -0.0000131788  -0.0000011904   0.0000066210   0.0000092068   0.0000051127
       -0.0000177980  -0.0000045519   0.0000016767   0.0000162913   0.0000026552
        0.0000108239  -0.0000036131   0.0000132563  -0.0000049954   0.0000263613
       -0.0000153322   0.0000263381   0.0000143876  -0.0000260417   0.0000064751
       -0.0000275228   0.0000106881   0.0000231472   0.0000376165  -0.0000040470
        0.0000173731  -0.0000347335  -0.0000252216  -0.0000058251   0.0000285726
        0.0000249647  -0.0000153559   0.0000072339  -0.0000052036   0.0000285970
        0.0000332258  -0.0000066809  -0.0000399284  -0.0000120535   0.0001158519
        0.0000076232  -0.0022258166  -0.0023115277  -0.0164016824  -0.0603864257
       -0.0542261315  -0.0274118786  -0.0453333022  -0.0010830897  -0.0536862509
        0.0008127008  -0.0054424154   0.0024856756   0.0073976339  -0.0006397607
       -0.0028107852   0.0000063604  -0.0000297107  -0.0000463606   0.0000293225
       -0.0000033720   0.0000058184   0.0000019787  -0.0000031334  -0.0000029993
        0.0000002552   0.0000004274  -0.0000004723  -0.0000008464  -0.0000012227
        0.0000009127  -0.0000019459  -0.0000009377   0.0000010293  -0.0000013666
        0.0000003643  -0.0000000915  -0.0000029176  -0.0000004568   0.0000009138
       -0.0000019970   0.0000003949   0.0000001820   0.0000006306  -0.0000048603
        0.0000033872  -0.0000046127   0.0000035772  -0.0000010599  -0.0000004036
       -0.0000010384  -0.0000008121   0.0000002215   0.0000006030  -0.0000007210
       -0.0000002011  -0.0000005261   0.0000019890  -0.0000005564  -0.0000036072
        0.0000030536  -0.0000001612   0.0000018020   0.0000000189   0.0000004622
       -0.0000007677  -0.0000004738   0.0000011027  -0.0000006570  -0.0000001140
        0.0000018627   0.0000000609   0.0000009087   0.0000014638  -0.0000011153
        0.0000005927   0.0000075744  -0.0000003777   0.0000012667   0.0000013011
       -0.0000031621  -0.0000038824   0.0000190709  -0.0000152423   0.0000058651
       -0.0000162010   0.0000094181  -0.0000192647   0.0000136851   0.0000179670
       -0.0000227598   0.0000014594  -0.0000001797   0.0000038336   0.0000010931
       -0.0000132278   0.0000117981  -0.0000009324  -0.0000061905  -0.0000041028
       -0.0000036704   0.0000029024   0.0000017640  -0.0000017960   0.0000061720
        0.0000025698   0.0000254400   0.0000036449   0.0000360046   0.0074382455
       -0.0007166913  -0.0026810912   0.0007799439  -0.0005382861  -0.0000829088
        0.0596382079   0.6425486793  -0.0115855731  -0.0123197056  -0.2685604690
        0.0647187202   0.0210752623   0.0270107181   0.0817067797  -0.0055697849
       -0.0669130121   0.0008037781  -0.0007709352   0.0009896998   0.0003143616
        0.0000396938  -0.0000100550   0.0002190166  -0.0001020862  -0.0000576167
        0.0001079302  -0.0003333348  -0.0000152179   0.0002940905   0.0000972203
        0.0001436716   0.0000326552   0.0000634877  -0.0001475244   0.0000900194
        0.0000084252  -0.0000039894  -0.0000070124  -0.0000009469  -0.0000070920
       -0.0000023277   0.0000201558  -0.0000058270   0.0000010818  -0.0000257568
        0.0000130256  -0.0000008367   0.0000076558   0.0000081240  -0.0000046126
       -0.0000012720  -0.0000034839   0.0000029565   0.0000035069   0.0000009710
       -0.0000022974  -0.0000012170   0.0000015283  -0.0000010395  -0.0000012126
       -0.0000015250   0.0000007167  -0.0000018585   0.0000029329  -0.0000016498
       -0.0000034853  -0.0000013784   0.0000025280  -0.0000015096   0.0000007021
        0.0000001894  -0.0000009488   0.0000009909   0.0000001040   0.0000010066
       -0.0000062889   0.0000045722  -0.0000036189   0.0000044913  -0.0000021949
        0.0000060635  -0.0000185188   0.0000071342  -0.0000097835   0.0000028936
       -0.0000017033   0.0000072896   0.0000014327   0.0000004017  -0.0000037781
       -0.0000095206   0.0000000124   0.0000080072   0.0000131848  -0.0000163360
       -0.0000097040   0.0000003395   0.0000002402   0.0000135620  -0.0000092717
       -0.0000015029  -0.0000226812   0.0000274299  -0.0000150852   0.0000056597
       -0.0000231493  -0.0000039380  -0.0000163462   0.0000200006   0.0000049155
        0.0000074735   0.0000015194   0.0000014312  -0.0000049244   0.0000027002
       -0.0000002205   0.0000021247  -0.0000042403  -0.0000012944  -0.0000041310
        0.0000044714   0.0000008523   0.0000121448  -0.0000061717   0.0000003406
        0.0000004164  -0.0000194337  -0.0000056238   0.0000188081  -0.0000198883
       -0.0000062244  -0.0000051946   0.0000020987   0.0000014534   0.0000020195
        0.0000156497   0.0000179874  -0.0000580127  -0.0000060506   0.0000102379
        0.0000248367   0.0000200443   0.0000069550   0.0000252878   0.0000557884
       -0.0000010748   0.0000299853   0.0000094681   0.0000144342  -0.0001691354
       -0.0000232924  -0.0000864565   0.0001700664   0.0001747221  -0.0001546210
       -0.0001690072   0.0000388934  -0.0001545266   0.0001699939   0.0000716421
        0.0001089950  -0.0001608454  -0.0000492098  -0.0000495156   0.0000841709
        0.0000445814  -0.0001218365   0.0000189713   0.0001221888   0.0001523217
        0.0000142525  -0.0000259241  -0.0001934052  -0.0001108672  -0.0001163786
       -0.0000916749  -0.0139879633   0.0269687914  -0.0827655796  -0.0385001507
       -0.2697515312  -0.0552888004  -0.0010204662  -0.0436662123   0.0004498047
       -0.0010171937  -0.0258668808   0.0118492985  -0.0009177779   0.0014081071
       -0.0001711390  -0.0001516071   0.0000436929   0.0000491181  -0.0000509318
        0.0000107681  -0.0000068749  -0.0000030378   0.0000037635   0.0000036010
       -0.0000002016   0.0000011662  -0.0000012414  -0.0000003317  -0.0000002767
       -0.0000000822  -0.0000015338  -0.0000005310   0.0000005002  -0.0000016248
        0.0000003484  -0.0000002704  -0.0000008023   0.0000011793   0.0000001622
       -0.0000025648   0.0000016528  -0.0000010641  -0.0000007677   0.0000039364
       -0.0000017461  -0.0000006863  -0.0000017390   0.0000015812  -0.0000023355
        0.0000014607  -0.0000012264  -0.0000008294   0.0000003063  -0.0000000168
        0.0000018753  -0.0000020915   0.0000061498  -0.0000028547  -0.0000030779
        0.0000028416   0.0000003574   0.0000011306  -0.0000007439   0.0000029711
       -0.0000013548  -0.0000015030  -0.0000002119  -0.0000000201  -0.0000009818
        0.0000012593  -0.0000001664   0.0000007096   0.0000015887  -0.0000053911
        0.0000004407   0.0000088725  -0.0000095621   0.0000021015  -0.0000504663
       -0.0000341606  -0.0000373436   0.0000567342   0.0000590505  -0.0000082099
       -0.0000270331  -0.0000265364  -0.0000309324  -0.0000034677  -0.0000420415
       -0.0000113085  -0.0000211450   0.0000164937   0.0000150540  -0.0000157319
        0.0000119588  -0.0000181951  -0.0000006513  -0.0000025323  -0.0000021869
        0.0000146060  -0.0000207103  -0.0000167413  -0.0000164182   0.0000136894
       -0.0000128555   0.0001888560   0.0000194266  -0.0000436318  -0.0006597308
        0.0013935243   0.0004770423  -0.0055122751  -0.0258156855  -0.0105503595
        0.1114125298  -0.0115855731   0.6553320516  -0.0055209530   0.1420297626
       -0.1540824803  -0.0059048358   0.0244191133  -0.0372308890   0.0022644441
        0.0012880241   0.0048111816  -0.0002193811  -0.0001372518  -0.0017597578
        0.0001108743  -0.0005060221   0.0001718541  -0.0000922501   0.0000219054
       -0.0000371008   0.0000460689   0.0001258208   0.0000383056   0.0000236985
        0.0000487077  -0.0000006026  -0.0000098253   0.0000248489  -0.0000116656
       -0.0000208144  -0.0000316835   0.0000093148  -0.0000216530  -0.0000049762
        0.0000051424   0.0000602972  -0.0000220274  -0.0000084332  -0.0000638222
        0.0000187968  -0.0000016754   0.0000254769   0.0000222899  -0.0000123357
       -0.0000033414  -0.0000080865   0.0000060989   0.0000035211   0.0000011817
       -0.0000023023  -0.0000033073   0.0000044221  -0.0000030797   0.0000020648
       -0.0000037415  -0.0000002612  -0.0000115039   0.0000091138  -0.0000042657
       -0.0000160699  -0.0000027308   0.0000047401   0.0000039591  -0.0000001170
       -0.0000017617  -0.0000052286  -0.0000040866   0.0000005811  -0.0000062040
       -0.0000077614   0.0000011042   0.0000100249   0.0000048095  -0.0000139804
        0.0000071506  -0.0000339472   0.0000131998   0.0000019513   0.0000235858
        0.0000036262  -0.0000010078   0.0000118095   0.0000004897  -0.0000220912
       -0.0000147033  -0.0000011939   0.0000231987  -0.0000331897   0.0000090867
       -0.0000146596  -0.0000176248   0.0000239807   0.0000294089  -0.0000086153
        0.0000059830  -0.0000747380   0.0000124284  -0.0000138505   0.0000701952
       -0.0000410931   0.0000274969  -0.0000358819   0.0000610609  -0.0000002596
        0.0000117516  -0.0000132173   0.0000017379  -0.0000134238   0.0000158576
        0.0000051180   0.0000032234   0.0000064199   0.0000034774  -0.0000014985
        0.0000018864   0.0000030247   0.0000083519   0.0000073951   0.0000034096
       -0.0000443073  -0.0000100477  -0.0000001797   0.0000282478   0.0000417893
        0.0000177154  -0.0000107337   0.0000167306   0.0000170688  -0.0000514433
       -0.0000611850  -0.0000172248   0.0000805055   0.0000519949  -0.0000229627
       -0.0000582706  -0.0000321459  -0.0000218412   0.0000616226   0.0000151310
        0.0000394324  -0.0000366121   0.0000471375  -0.0000323527   0.0000294018
       -0.0000607365   0.0000514060   0.0000521781   0.0000238361   0.0000234875
       -0.0001107321   0.0000848054   0.0000963319   0.0001635116  -0.0000003480
        0.0000883812  -0.0000950219  -0.0000852670   0.0000179049   0.0000848292
        0.0000606697  -0.0000307619   0.0000162046  -0.0000118824  -0.0000014069
       -0.0000954820   0.0000066547  -0.0000429293   0.0000229599   0.0004665511
        0.0002575028  -0.0094958474  -0.0254449327  -0.0327304698  -0.0360873376
       -0.1325236508  -0.1454096811  -0.0536549182   0.0004887340  -0.2916552366
        0.0000498629  -0.0115526690   0.0064777079  -0.0028185677   0.0002566092
       -0.0052938842   0.0000851624  -0.0000605889  -0.0001541561   0.0000549764
       -0.0000075729   0.0000234480   0.0000000560  -0.0000045137  -0.0000017469
       -0.0000016742   0.0000032849  -0.0000014446  -0.0000020729  -0.0000005753
        0.0000008050  -0.0000041792  -0.0000002125   0.0000010803  -0.0000046504
        0.0000015020  -0.0000002403  -0.0000053094   0.0000011094   0.0000000781
       -0.0000051442   0.0000046046  -0.0000010605   0.0000021522   0.0000022970
        0.0000022484   0.0000010386   0.0000020447   0.0000044641  -0.0000057070
       -0.0000042780  -0.0000019980   0.0000006253   0.0000013803   0.0000004372
       -0.0000042529  -0.0000047328   0.0000120181  -0.0000039563  -0.0000133579
        0.0000097406  -0.0000035699   0.0000042131  -0.0000018221  -0.0000008148
       -0.0000029875  -0.0000022609   0.0000024351  -0.0000008934  -0.0000008507
        0.0000013078   0.0000022135   0.0000006356  -0.0000054917   0.0000055972
       -0.0000011058   0.0000102781   0.0000010250  -0.0000057777   0.0000454668
        0.0000237545   0.0000000546  -0.0000379420  -0.0000760029   0.0000260128
       -0.0000787388   0.0000386551  -0.0000990737   0.0000885839   0.0000090442
       -0.0000204706   0.0000091172  -0.0000044817  -0.0000036505  -0.0000007583
       -0.0000540207   0.0000494380  -0.0000060321  -0.0000232308  -0.0000102108
       -0.0000250675   0.0000145920   0.0000027639  -0.0000170012   0.0000180214
        0.0000120564  -0.0000070657  -0.0000233102  -0.0000572866  -0.0026987323
        0.0000302502  -0.0053896515   0.0025312107   0.0126565996   0.0064844090
       -0.0507071601  -0.0123197056  -0.0055209530   0.1466351113   0.0613463423
        0.1088144892  -0.0584044148   0.0031041032  -0.0633659959  -0.0046806674
       -0.0138587710  -0.0085713665   0.0065726599  -0.0012070373  -0.0031923941
       -0.0001544865  -0.0007314196  -0.0002347648  -0.0001077444  -0.0000334189
        0.0000694348  -0.0002670638   0.0001481937   0.0000508210   0.0000512221
        0.0000685206   0.0000614656   0.0000537195  -0.0000514838   0.0000263716
        0.0000301609  -0.0000000240   0.0000005572  -0.0000098462  -0.0000101698
        0.0000019370   0.0000271629  -0.0000112774  -0.0000030205  -0.0000261483
       -0.0000002142   0.0000032850   0.0000204468   0.0000120505  -0.0000094556
       -0.0000035399  -0.0000035756   0.0000032235   0.0000036604   0.0000007498
       -0.0000018923  -0.0000003821   0.0000015422  -0.0000007917   0.0000043078
       -0.0000010530  -0.0000007474  -0.0000077640   0.0000050118  -0.0000010017
       -0.0000028498  -0.0000035657   0.0000032618   0.0000011905   0.0000025851
       -0.0000018081  -0.0000023439  -0.0000027332   0.0000022104   0.0000043535
       -0.0000029024   0.0000001821   0.0000120515   0.0000020553  -0.0000071795
        0.0000013450  -0.0000079521   0.0000030032  -0.0000022266   0.0000075306
        0.0000011469   0.0000037905   0.0000054335   0.0000020377  -0.0000109184
        0.0000001666  -0.0000131594   0.0000480638  -0.0000063282   0.0000087843
       -0.0000040308   0.0000024593  -0.0000030891  -0.0000006986   0.0000166283
       -0.0000064903  -0.0000481536   0.0000138528   0.0000047646   0.0000548156
       -0.0000278785  -0.0000223378  -0.0000066712   0.0000155955   0.0000113729
       -0.0000043008  -0.0000112705  -0.0000100472  -0.0000006622   0.0000021641
       -0.0000009351   0.0000014332   0.0000032221  -0.0000010318  -0.0000019390
       -0.0000040376  -0.0000037332   0.0000126796   0.0000025324   0.0000015211
        0.0000173409  -0.0000092698  -0.0000038107  -0.0000015263   0.0000072432
       -0.0000020265   0.0000075569  -0.0000085369  -0.0000046630   0.0000077100
        0.0000066338   0.0000113643  -0.0000255646   0.0000177973   0.0000218163
        0.0000083804  -0.0000227792   0.0000228543  -0.0000721217  -0.0000820342
        0.0000100298  -0.0000554203   0.0001012006  -0.0000916076  -0.0000886745
       -0.0000097173  -0.0000518119   0.0000678259   0.0000886255  -0.0000521665
       -0.0005241862   0.0002301612  -0.0006306936   0.0005480823   0.0004439691
        0.0000048429  -0.0001487064  -0.0000523092   0.0000803498   0.0000433442
        0.0000318972  -0.0001192405   0.0000258679   0.0000552692   0.0001031263
       -0.0001078703  -0.0000915076   0.0000622954   0.0005450147  -0.0002921025
        0.0009967879  -0.0054049574   0.0050804695  -0.0057597007   0.0030904119
       -0.0014118923   0.0088581685   0.0003692823   0.0050580820  -0.0036599494
       -0.0448581246  -0.0438515203  -0.0252904974   0.0004103211   0.0002196349
       -0.0009395450  -0.0000453691  -0.0001050562   0.0001107632   0.0000287895
       -0.0000037131   0.0000137779   0.0000066222  -0.0000023279  -0.0000032091
        0.0000004524   0.0000014946  -0.0000003173  -0.0000003619  -0.0000013635
        0.0000015533  -0.0000016109  -0.0000006683   0.0000014098  -0.0000012494
        0.0000007232   0.0000002438  -0.0000020586   0.0000001653   0.0000006821
       -0.0000014695   0.0000012630  -0.0000000457   0.0000018984  -0.0000030682
        0.0000016991  -0.0000038299   0.0000022928   0.0000015752  -0.0000028690
       -0.0000035338  -0.0000006530  -0.0000027527  -0.0000069782  -0.0000009528
        0.0000030548  -0.0000082854   0.0000027686   0.0000059900   0.0000025118
        0.0000020108  -0.0000009780   0.0000007645   0.0000033921  -0.0000015587
       -0.0000009950   0.0000011245   0.0000019955  -0.0000019734   0.0000011559
        0.0000032821  -0.0000002352   0.0000017524   0.0000051473  -0.0000027611
        0.0000013452   0.0000021084   0.0000012155   0.0000007892   0.0000005277
       -0.0000181519  -0.0000034883   0.0000008910   0.0000034451  -0.0000019026
       -0.0000209199  -0.0000233735   0.0000919428   0.0000420199  -0.0000130422
        0.0000215424   0.0000018678  -0.0000014486   0.0000157532   0.0000034045
       -0.0000194880   0.0000070913   0.0000148579   0.0000232896   0.0000287341
        0.0000099352  -0.0000115612  -0.0000016693   0.0000139822   0.0000059852
        0.0000008206   0.0000310603  -0.0000142146  -0.0000556302  -0.0002198889
        0.0002123413   0.0000609653   0.0071888813  -0.0019884883  -0.0019686218
        0.0038357759  -0.2685604690   0.1420297626   0.0613463423   0.6616971701
       -0.0013472279  -0.0131497970  -0.0946560458  -0.0361080678  -0.0019213970
        0.0291667952  -0.0238745925  -0.0021236900  -0.0051534517  -0.0030914484
       -0.0000395644  -0.0000497926  -0.0004757463  -0.0000006219  -0.0000987121
       -0.0000204148   0.0002660891   0.0000894860  -0.0000096692   0.0000585900
       -0.0000308451   0.0000102853  -0.0000165972   0.0000730830   0.0000097369
       -0.0000059576   0.0000052242   0.0000074584  -0.0000210558  -0.0000060547
       -0.0000034140  -0.0000095733   0.0000080977   0.0000011010   0.0000121807
       -0.0000244087  -0.0000066445  -0.0000070462  -0.0000036422   0.0000054517
        0.0000003479  -0.0000003841  -0.0000036416  -0.0000052566  -0.0000001702
        0.0000012403   0.0000011683  -0.0000015218  -0.0000007566   0.0000021884
        0.0000007484  -0.0000026899  -0.0000033691  -0.0000023286   0.0000014438
        0.0000006478   0.0000015124  -0.0000029615  -0.0000003237  -0.0000023747
       -0.0000011548   0.0000002859  -0.0000031769  -0.0000014074  -0.0000041942
        0.0000095160  -0.0000120123  -0.0000059608  -0.0000089240  -0.0000061942
       -0.0000065811   0.0000130509   0.0000032123  -0.0000010248  -0.0000008850
       -0.0000029133  -0.0000069761   0.0000023276  -0.0000027537  -0.0000432400
       -0.0000139823  -0.0000152235  -0.0000362648   0.0000570176  -0.0000115069
        0.0000150664  -0.0000001819  -0.0000142126   0.0000043411   0.0000124596
       -0.0000227328   0.0000607973   0.0000311073   0.0000301436  -0.0001234283
       -0.0000566472  -0.0000942289  -0.0000317080  -0.0000158201   0.0000339799
        0.0000192737   0.0000076385  -0.0000125531   0.0000085585  -0.0000131909
       -0.0000079825  -0.0000092735  -0.0000149355  -0.0000074454  -0.0000023043
        0.0000106621  -0.0000034676   0.0000310017  -0.0000260414  -0.0000060006
       -0.0000516658  -0.0000240554  -0.0000287852   0.0000597450   0.0000158674
        0.0000028195  -0.0000152480   0.0000208322  -0.0000116823  -0.0000075530
       -0.0000414640  -0.0000028464  -0.0001234715  -0.0000250728   0.0001762175
        0.0001790536   0.0001639375   0.0000596081  -0.0000049440  -0.0000437767
       -0.0001948748   0.0001140863  -0.0001338685  -0.0000381484   0.0001002123
       -0.0000121162   0.0000495964  -0.0000395131   0.0000735054   0.0000100778
       -0.0000043474   0.0000009261   0.0003309575  -0.0002752426   0.0000966954
       -0.0002766468  -0.0000199480   0.0000535330  -0.0000123142   0.0000316643
        0.0000180533   0.0000439296  -0.0000217381  -0.0000051446  -0.0000931809
       -0.0000436705   0.0000228959   0.0001765585   0.0001005066  -0.0003009705
       -0.0010501828   0.0052071251  -0.0136065573   0.0299597755  -0.0134909133
       -0.0671604959  -0.0275052393   0.0001906471  -0.0012327620   0.0020476498
       -0.0435422034  -0.2349798262  -0.1040135963   0.0053801227  -0.0014231636
        0.0253845913   0.0001026463  -0.0000867949  -0.0001926530  -0.0000129174
        0.0000090585  -0.0000229191   0.0000113749  -0.0000147914  -0.0000044235
       -0.0000001692   0.0000010627   0.0000022590  -0.0000010726   0.0000006090
        0.0000003690  -0.0000008548   0.0000007903  -0.0000002261  -0.0000006015
        0.0000002025   0.0000002943  -0.0000016627  -0.0000005799  -0.0000001144
        0.0000010626  -0.0000009468   0.0000012609   0.0000011333  -0.0000038598
        0.0000049003   0.0000019869   0.0000110745   0.0000051878  -0.0000010445
       -0.0000045430   0.0000021529  -0.0000036643  -0.0000124806   0.0000000099
        0.0000004573   0.0000216793  -0.0000081912  -0.0000072128   0.0000107141
        0.0000007090  -0.0000127506  -0.0000078479   0.0000075856  -0.0000001493
       -0.0000035541   0.0000024675  -0.0000040341  -0.0000000887   0.0000031508
       -0.0000068944   0.0000014016   0.0000036525  -0.0000019534  -0.0000085830
        0.0000054848   0.0000172698  -0.0000184387  -0.0000045473  -0.0000235137
       -0.0000827282  -0.0000309527   0.0000861825   0.0000898193  -0.0001399013
        0.0000686731  -0.0000685918   0.0003007531  -0.0001374599   0.0000118829
        0.0001208303  -0.0000106082  -0.0000204196  -0.0000123278  -0.0000356364
       -0.0000250634   0.0000129141  -0.0000192396  -0.0000017364  -0.0000110008
       -0.0000116355   0.0000199740   0.0000075524   0.0000216018   0.0000056817
        0.0000211320  -0.0000893648  -0.0000588479  -0.0000558633   0.0001648732
        0.0005465900   0.0005078934  -0.0019049754  -0.0042295270  -0.0025064741
       -0.0139446983   0.0647187202  -0.1540824803   0.1088144892  -0.0013472279
        0.6393583701  -0.0537414356   0.0395127258  -0.3273786193  -0.0147985959
       -0.0820518218  -0.0343076895  -0.0026303216  -0.0011174094   0.0032890721
        0.0003423571   0.0009294280  -0.0006607569  -0.0001968697  -0.0001575226
        0.0001298920  -0.0002791213   0.0003386151   0.0001164920   0.0000764879
        0.0000415902   0.0001220363   0.0000878373  -0.0000898420   0.0000746969
        0.0000641364   0.0000177364   0.0000184914  -0.0000232400  -0.0000267561
        0.0000009687   0.0000605185  -0.0000149663   0.0000024016  -0.0000573055
        0.0000239033  -0.0000132949   0.0000247281   0.0000211938  -0.0000057792
       -0.0000029427  -0.0000075283   0.0000039401   0.0000104784  -0.0000001186
       -0.0000047069  -0.0000012004   0.0000042413  -0.0000022608   0.0000005507
       -0.0000035147   0.0000014846   0.0000004491   0.0000092079  -0.0000058664
       -0.0000149441  -0.0000009805   0.0000055798   0.0000075644  -0.0000034332
        0.0000005211  -0.0000011029  -0.0000004141  -0.0000000692   0.0000054106
       -0.0000061422  -0.0000001734   0.0000004991   0.0000006795  -0.0000130135
        0.0000214410  -0.0000396291   0.0000200466  -0.0000170634   0.0000048982
       -0.0000073996   0.0000196143  -0.0000009756  -0.0000018639  -0.0000259760
        0.0000040562  -0.0000320606  -0.0000415256   0.0000144770   0.0000181737
        0.0000068043   0.0000477803  -0.0000525879  -0.0000192529   0.0000387289
       -0.0000350255   0.0001263725  -0.0000529919   0.0000459757  -0.0000931775
       -0.0000619909  -0.0000848160  -0.0000082820  -0.0000465743   0.0000149817
       -0.0000001806   0.0000124781  -0.0000085010   0.0000233482  -0.0000137655
       -0.0000045683  -0.0000200238  -0.0000018896  -0.0000044484  -0.0000208694
        0.0000095182  -0.0000022777   0.0000115471   0.0000082546   0.0000032572
       -0.0000029761   0.0000382395   0.0000092164  -0.0000318649   0.0000143574
       -0.0000028120  -0.0000210151  -0.0000534533  -0.0000093290   0.0000085770
        0.0000682280   0.0000683513   0.0000267633  -0.0000013583  -0.0000206113
        0.0001236307   0.0000887679   0.0000448955  -0.0001472685  -0.0000722039
       -0.0000519164   0.0000440640  -0.0000869781  -0.0000466958  -0.0001855180
       -0.0000239636  -0.0001045218   0.0001614426   0.0001127348  -0.0001850834
        0.0001045603  -0.0001484021   0.0004859752  -0.0002965335  -0.0000456046
       -0.0000752645   0.0000042603   0.0001071218  -0.0000892489  -0.0000483869
       -0.0000633697  -0.0000432508  -0.0001704019   0.0000926802   0.0000398471
        0.0001774029   0.0000936010  -0.0001163430  -0.0005204330  -0.0009113801
       -0.0012588838  -0.0057263644   0.0283994062  -0.0471494712   0.0147882396
        0.0304311154   0.0576690780  -0.0009124016   0.0253523225  -0.0181892325
       -0.0256905833  -0.1038116654  -0.1001637254  -0.0036087405   0.0024853933
       -0.0172887492  -0.0001805064  -0.0002538105   0.0000707294  -0.0000013662
        0.0000267717   0.0000090278   0.0000179810   0.0000009856  -0.0000038119
        0.0000000241   0.0000028978   0.0000010698   0.0000025733   0.0000003152
        0.0000015964   0.0000013192   0.0000009469   0.0000014206   0.0000010155
        0.0000021261   0.0000006641   0.0000023926   0.0000009791   0.0000007403
        0.0000033737   0.0000028592  -0.0000001176   0.0000064876   0.0000047223
       -0.0000021804   0.0000063515   0.0000025201   0.0000078806  -0.0000034378
       -0.0000089816   0.0000018951  -0.0000050354  -0.0000254378   0.0000001440
       -0.0000043636   0.0000091632  -0.0000094876   0.0000096251   0.0000173473
       -0.0000075227  -0.0000097465  -0.0000134135   0.0000032526  -0.0000068792
       -0.0000095874   0.0000016298   0.0000042273  -0.0000124200   0.0000011978
        0.0000031381  -0.0000003285   0.0000008610   0.0000189223  -0.0000110596
       -0.0000032946  -0.0000226643   0.0000025719  -0.0000049908  -0.0000208352
       -0.0000592194  -0.0000493589   0.0000361081   0.0000032746   0.0000633932
        0.0001730048  -0.0000924387   0.0001681641  -0.0001540621   0.0000452136
        0.0001021889  -0.0000188531  -0.0000134509   0.0000484175   0.0000342191
        0.0000000559  -0.0000093665  -0.0000084549   0.0000080115   0.0000098879
        0.0000504047  -0.0000282170   0.0000106952   0.0000232203   0.0000119475
       -0.0000339620   0.0001753128  -0.0000410555  -0.0000944344   0.0000697146
        0.0005783794  -0.0002527830  -0.0020461693  -0.0029299952  -0.0000738929
        0.0023489111   0.0210752623  -0.0059048358  -0.0584044148  -0.0131497970
       -0.0537414356   0.1419433704   0.0501609966   0.1093859198  -0.0572045997
       -0.0318383260  -0.0262303193  -0.0010531529  -0.0072597537  -0.0126312938
       -0.0009320655  -0.0014842366   0.0009374978  -0.0004618186  -0.0003514284
        0.0008754194  -0.0009826055   0.0005112581   0.0003266627   0.0001618423
        0.0001781444   0.0001665829   0.0001558150  -0.0002050439   0.0000937039
        0.0000746548   0.0000184022   0.0000193424  -0.0000110746  -0.0000201452
       -0.0000003545   0.0000315107  -0.0000119281  -0.0000045309  -0.0000426544
       -0.0000003763   0.0000079014   0.0000264003   0.0000153052  -0.0000131531
       -0.0000052497  -0.0000040311   0.0000049560   0.0000050918   0.0000019542
       -0.0000031231  -0.0000012601   0.0000014935  -0.0000005091   0.0000036878
       -0.0000012425  -0.0000005284  -0.0000096772   0.0000064190  -0.0000013664
       -0.0000014470  -0.0000051389   0.0000041330  -0.0000010495   0.0000044251
       -0.0000022411  -0.0000040823  -0.0000018767   0.0000023411   0.0000070124
       -0.0000057501   0.0000019665   0.0000096622   0.0000044655  -0.0000069709
        0.0000013220  -0.0000107511   0.0000022490  -0.0000190553   0.0000079212
       -0.0000003244   0.0000167414   0.0000054482   0.0000017534  -0.0000254709
       -0.0000100894  -0.0000065862   0.0001122288   0.0000237172  -0.0000310945
       -0.0000051507  -0.0000128686   0.0000250657   0.0000211382  -0.0000060829
        0.0000248098  -0.0002788524   0.0000865639  -0.0000411093   0.0002562238
        0.0000689738   0.0000482319   0.0000181674   0.0000888621   0.0000002643
       -0.0000141559  -0.0000352633  -0.0000103780  -0.0000331138   0.0000217922
        0.0000050637   0.0000292134   0.0000155268   0.0000058495   0.0000257495
       -0.0000217798  -0.0000023416  -0.0000146314   0.0000121497   0.0000054700
        0.0000512137  -0.0000355751   0.0000026667  -0.0000082138   0.0000065004
       -0.0000000580   0.0001104074   0.0000016720   0.0000077997   0.0000479296
       -0.0000478818  -0.0000421744   0.0000104528   0.0001141261  -0.0001083187