$hessian                                                                        
        0.6731462557  -0.0019338548   0.2924900159  -0.5627539790   0.0195245289
       -0.2273183478  -0.0597426061  -0.0417265277  -0.0352103738  -0.0479049950
        0.0243253361  -0.0304237753   0.0041684486   0.0040261986   0.0006889233
       -0.0018937714   0.0051392498  -0.0015678865   0.0025154652  -0.0052107707
        0.0018693529  -0.0018752531   0.0028493321  -0.0010869651   0.0003810076
       -0.0006446910  -0.0005689871  -0.0011428519   0.0013966430   0.0000246735
        0.0002664317  -0.0014759224  -0.0002352903  -0.0004448803  -0.0002156006
        0.0003011652   0.0001443814   0.0001348887   0.0000331251  -0.0001114835
       -0.0000350731   0.0000809022   0.0000704607   0.0000501131   0.0000675559
       -0.0000198277  -0.0000695002  -0.0000552487   0.0001869637  -0.0000938668
        0.0000415654   0.0005600202   0.0008684326   0.0002085481  -0.0006273648
       -0.0005681626  -0.0002622701   0.0003091794   0.0003574612   0.0003136266
       -0.0003133842  -0.0004843755  -0.0002982531   0.0002619829   0.0009208537
        0.0005464335  -0.0002462478  -0.0001359982  -0.0003164901   0.0003765232
       -0.0005517618  -0.0002808011   0.0001967159   0.0002374316   0.0001755822
       -0.0004595064  -0.0000553425  -0.0000467860   0.0012852619   0.0000055951
        0.0004569487  -0.0003326832   0.0001143265  -0.0000885804   0.0001254352
       -0.0000396567   0.0000935673  -0.0000922460   0.0000753156  -0.0000817724
        0.0003160220  -0.0000615193  -0.0000511247  -0.0005206239   0.0000638157
        0.0000081133  -0.0038434064   0.0021783222  -0.0011109824  -0.0018311538
       -0.0108376579  -0.0004169435  -0.0024001288  -0.0002832428   0.0013093487
        0.0009993840   0.0000979754   0.0006075261  -0.0002015503   0.0004849029
       -0.0000672804   0.0000193930   0.0001234715   0.0000170003   0.0000147445
       -0.0000295946  -0.0000945159  -0.0000435866  -0.0000158229  -0.0000161093
        0.0001054994  -0.0000188071  -0.0000980017   0.0000948930   0.0000437482
       -0.0000288000   0.0000936590   0.0001030310   0.0000439525  -0.0000584005
        0.0000371667  -0.0000591454   0.0002722874   0.0002312889  -0.0000994541
       -0.0002280772  -0.0001857980  -0.0001192828  -0.0001307266   0.0001622433
        0.0002339306   0.0000267446  -0.0000507490   0.0000590314   0.0000793410
       -0.0000182359   0.0000809438   0.0000158932   0.0000391049  -0.0000109650
       -0.0000547294   0.0000293488  -0.0000399871  -0.0000160654  -0.0000127218
       -0.0000143524  -0.0000600300  -0.0000228596   0.0000298880   0.0000176783
       -0.0000689671  -0.0000533104   0.0001451815  -0.0000501392  -0.0000147609
        0.0011543052   0.0012770936   0.0003551234
       -0.0019338548   0.0926000429  -0.0049026257   0.0194038737  -0.0809494015
        0.0098517555  -0.0607423917  -0.0081711399  -0.0255175417   0.0333439503
       -0.0021291846   0.0161787651   0.0016367410  -0.0052684267   0.0011031312
        0.0016843792  -0.0003606492   0.0008357395   0.0001615612   0.0003207233
        0.0001202461  -0.0000534759   0.0000348338  -0.0000578363   0.0001640342
        0.0002484513   0.0000501949   0.0001143449  -0.0001099207   0.0000575774
        0.0000174654   0.0001991428   0.0000048029  -0.0000000412   0.0000257884
       -0.0000444008  -0.0000246940  -0.0000775250  -0.0000492998   0.0000507992
       -0.0000376359  -0.0000589692   0.0000509697  -0.0000280935  -0.0000138326
        0.0000414929   0.0000354102   0.0000684604  -0.0000105001  -0.0000107881
        0.0000368708  -0.0000417071  -0.0000201513  -0.0000500678  -0.0001257884
        0.0001468049   0.0000170423  -0.0000359811  -0.0003102495  -0.0000818116
        0.0002275638   0.0004908191   0.0001707118  -0.0000549812  -0.0014305485
       -0.0001549780   0.0001557958   0.0003158378   0.0001259719  -0.0003513653
        0.0008826619  -0.0002140451  -0.0000790181  -0.0002089957  -0.0000352539
        0.0000619000   0.0001527037   0.0001036934  -0.0000528995  -0.0000827049
       -0.0000362908   0.0000376859   0.0001007669  -0.0000720785   0.0000106896
        0.0000373743  -0.0000537337   0.0000022864  -0.0000125965   0.0000311893
       -0.0000843780  -0.0000385481   0.0000746829   0.0000039900  -0.0001053217
        0.0000367924   0.0002537128   0.0012194997   0.0000704512   0.0022114953
       -0.0009435658   0.0009371515   0.0025800058   0.0036721060   0.0006450869
        0.0001903916  -0.0002293792   0.0001353787   0.0003190689  -0.0003773844
        0.0002608291   0.0000032758  -0.0000944376  -0.0000103282  -0.0000292735
       -0.0000060934  -0.0000129574   0.0000194801   0.0000154476   0.0000066769
       -0.0000486029   0.0000250245   0.0000423085  -0.0000530163  -0.0000015503
        0.0000033875  -0.0000197422  -0.0000077796  -0.0000172744  -0.0000086316
        0.0000485295   0.0000337414   0.0001150610  -0.0000297664  -0.0000753771
       -0.0000326966  -0.0000292223   0.0000432009   0.0001045540  -0.0000900573
        0.0001057831   0.0000055338   0.0000061870  -0.0000140314   0.0000162741
        0.0000030227  -0.0000244635  -0.0000108018  -0.0000191526   0.0000177749
        0.0000390296  -0.0000288407   0.0000281302   0.0000419822  -0.0000102700
        0.0000118886   0.0000500986   0.0000144829  -0.0000217985  -0.0000694844
        0.0000060126   0.0000431323  -0.0000102209   0.0000695255  -0.0000495477
        0.0007540601   0.0005481817   0.0003159941
        0.2924900159  -0.0049026257   0.1580198875  -0.2275615616   0.0099332453
       -0.1646740498  -0.0342012921  -0.0169082693   0.0098902270  -0.0312547747
        0.0122910740   0.0014377242   0.0008135389   0.0022426075   0.0026628220
       -0.0003336426   0.0021350976  -0.0020367015   0.0011188543  -0.0023675450
        0.0009175604  -0.0010279633   0.0012880028  -0.0002608136   0.0002750840
       -0.0001378444  -0.0002374420  -0.0004231748   0.0004843666   0.0000244584
        0.0001428845  -0.0005523592  -0.0000777322  -0.0001936295  -0.0000962163
        0.0001231578   0.0000602060   0.0000686113   0.0000101968  -0.0000722442
        0.0000104164   0.0000352304  -0.0000128209   0.0000260543   0.0000053979
       -0.0000268162  -0.0000491002  -0.0000626004   0.0001048554  -0.0000748422
       -0.0000419235   0.0001642661   0.0002134347   0.0000407119   0.0000002480
       -0.0001385866  -0.0000648361   0.0000858843   0.0000150920   0.0000203232
       -0.0000899930  -0.0001290386  -0.0000691819   0.0004229808   0.0003257733
        0.0003389287  -0.0003182291  -0.0001035728  -0.0002023233  -0.0000181834
       -0.0000727629  -0.0001699675   0.0000548142   0.0000543141   0.0000623102
       -0.0002108311   0.0000287071  -0.0000286163   0.0005739562   0.0000273233
        0.0001882150  -0.0001797518   0.0000677287  -0.0000774219   0.0000099887
       -0.0000356536   0.0000772335   0.0000088951   0.0000225915  -0.0000248127
        0.0001384181   0.0000101655  -0.0000716256  -0.0002841436   0.0000561972
       -0.0000179986  -0.0011633353   0.0008852923  -0.0015384338  -0.0011638244
       -0.0049293439   0.0002170293   0.0012546446  -0.0006756989  -0.0049471050
        0.0003420078   0.0000535525   0.0004142616   0.0000100898   0.0002349755
       -0.0002224442  -0.0000157566   0.0000334287  -0.0000064399  -0.0000005701
        0.0000234813  -0.0000458093  -0.0000115480  -0.0000133208   0.0000320214
        0.0000315029  -0.0000143519  -0.0000152861   0.0000472611   0.0000137029
        0.0000004333   0.0000557409   0.0000594770   0.0000440627  -0.0000437515
        0.0000351467   0.0000042164  -0.0000148829  -0.0000890356   0.0000085468
       -0.0000058741   0.0000219966   0.0000930590  -0.0000267940   0.0000521570
        0.0000882948  -0.0000168529   0.0000059306   0.0000122040  -0.0000002114
        0.0000182906   0.0000121173   0.0000042115  -0.0000054331   0.0000189919
       -0.0000234412   0.0000112964  -0.0000151550  -0.0000179259  -0.0000086091
       -0.0000074037  -0.0000449455  -0.0000183363   0.0000206426   0.0000279176
       -0.0000426764  -0.0000324801   0.0000462535  -0.0000258466   0.0000056272
        0.0004742453   0.0006415375   0.0001227105
       -0.5627539790   0.0194038737  -0.2275615616   0.7726496664  -0.0151334000
        0.2744864090  -0.1283789227  -0.0819556918  -0.0296115238  -0.0852647135
        0.0493655988  -0.0120494622  -0.0233776456   0.0217939610  -0.0117122619
       -0.0024785179  -0.0065432838  -0.0037723940  -0.0035353976   0.0053553960
       -0.0023259709   0.0015969617  -0.0032850212   0.0017488756  -0.0001230261
        0.0007898065   0.0006229944   0.0010401123  -0.0013428495   0.0000054838
       -0.0001618127   0.0013770095   0.0002044888   0.0005063131   0.0002197342
       -0.0002779089  -0.0001537433  -0.0001470966  -0.0000471757   0.0001043071
        0.0000327246  -0.0000970335  -0.0001085895  -0.0000289685  -0.0000970361
        0.0000115159   0.0001142169   0.0000758618  -0.0001861214   0.0001001037
       -0.0000480028  -0.0006030742  -0.0008568055  -0.0002345853   0.0007926889
        0.0005428052   0.0003105856  -0.0002944704  -0.0002203027  -0.0002357088
        0.0001353047   0.0003732268   0.0002868862  -0.0003303730  -0.0003196497
       -0.0007439430   0.0002367246   0.0000055991   0.0004094887  -0.0003315011
        0.0001588831   0.0006200403  -0.0002134413  -0.0002082928  -0.0001748453
        0.0004352556   0.0000668731   0.0000880793  -0.0014436780   0.0000292025
       -0.0005579070   0.0003278258  -0.0001548571   0.0000999976  -0.0001516438
        0.0000294677  -0.0000853815   0.0001520380  -0.0000747726   0.0000706932
       -0.0003059486   0.0000672933   0.0000291071   0.0005419398  -0.0000076726
       -0.0000068991   0.0053699555  -0.0072260486  -0.0011919470   0.0091608156
        0.0064366202   0.0044233218   0.0203765309   0.0152174090   0.0065254879
       -0.0011882387  -0.0002051808   0.0004114551  -0.0006239046   0.0007343286
       -0.0004999897  -0.0000385061  -0.0001290441  -0.0000001520  -0.0000171041
        0.0000516052   0.0000655201   0.0000585788   0.0000106259   0.0000114125
       -0.0001235516   0.0000286327   0.0001123348  -0.0001226708  -0.0000494816
        0.0000227785  -0.0001047546  -0.0001241120  -0.0000654181   0.0000930259
       -0.0000256254   0.0000658024  -0.0002803770  -0.0003052342   0.0001259576
        0.0003733223   0.0001417180   0.0000741092   0.0001660360  -0.0001425915
       -0.0004073074  -0.0000145951   0.0000314090  -0.0000525462  -0.0001046609
        0.0000136369  -0.0001001518  -0.0000319346  -0.0000435042   0.0000169841
        0.0000459494  -0.0000371252   0.0000535521   0.0000163410  -0.0000016397
        0.0000224911   0.0000551195   0.0000192323  -0.0000263550  -0.0000110890
        0.0000728255   0.0000212585   0.0001940747  -0.0009457957   0.0001459462
       -0.0015824166  -0.0030697717   0.0008260652
        0.0195245289  -0.0809494015   0.0099332453  -0.0151334000   0.5007505502
       -0.0277446922  -0.0525302485  -0.1927008506  -0.0147539994   0.0478765582
       -0.1452472753   0.0272640105   0.0191642275  -0.0010656433   0.0094287208
       -0.0018232644   0.0088555758  -0.0020445652   0.0037700200  -0.0074488464
        0.0027099032  -0.0027381648   0.0041246701  -0.0015256477  -0.0001224776
       -0.0012760389  -0.0006878293  -0.0011805624   0.0017045615  -0.0002139225
        0.0002564485  -0.0021343770  -0.0002726546  -0.0003709313  -0.0003688417
        0.0004442191   0.0001825556   0.0003290541   0.0001663065  -0.0002239603
        0.0000903595   0.0001583526  -0.0001141324   0.0001036556   0.0000276086
       -0.0001026417  -0.0000818613  -0.0001684877   0.0001997413  -0.0000863667
       -0.0000972349   0.0009184138   0.0012485410   0.0003593556   0.0001339201
       -0.0011675252  -0.0002453959   0.0005462597   0.0015063809   0.0007208775
       -0.0014510944  -0.0026920173  -0.0009466944   0.0005451216   0.0068164678
        0.0003252790  -0.0009854025  -0.0013996015  -0.0003905877   0.0015800325
       -0.0042552765   0.0015320422   0.0002337597   0.0012728928   0.0002289168
       -0.0010496810  -0.0004275682  -0.0005021890   0.0018346030   0.0002635055
        0.0006934760  -0.0005919113  -0.0000719280  -0.0000036016   0.0001597075
       -0.0002149906   0.0003392270  -0.0000781601   0.0001340327  -0.0001563025
        0.0005909378   0.0000295635  -0.0003171115  -0.0008131131   0.0003057927
       -0.0002481071  -0.0088646482   0.0001557710  -0.0037089486   0.0049653833
       -0.0442581416   0.0053038863  -0.0116843015  -0.0412292087  -0.0027599460
       -0.0030137656   0.0000862166  -0.0015714611  -0.0003994897   0.0002561252
       -0.0003798467  -0.0000521118   0.0003076639  -0.0000109294   0.0000862849
        0.0000750683  -0.0000925412  -0.0000553279  -0.0000608784  -0.0000329503
        0.0001654143  -0.0000543404  -0.0001216926   0.0001400791   0.0000353259
       -0.0000234533   0.0001056536   0.0000842262   0.0000530869  -0.0000114889
       -0.0000255172  -0.0001088342  -0.0001130122  -0.0000022288   0.0001217178
        0.0003075968  -0.0000634796  -0.0002595577  -0.0003488248   0.0004614375
       -0.0006885454   0.0000204284  -0.0000641063   0.0000566908  -0.0000053374
       -0.0000651193   0.0001168581   0.0000676575   0.0000848384  -0.0000302569
       -0.0001685929   0.0001165495  -0.0001310011  -0.0001793590  -0.0000048010
       -0.0000277859  -0.0002541716  -0.0000884000   0.0001693022   0.0001623044
       -0.0000699558   0.0000055001   0.0004091312  -0.0007645701   0.0002571434
        0.0005128081  -0.0008596688  -0.0001489525
       -0.2273183478   0.0098517555  -0.1646740498   0.2744864090  -0.0277446922
        0.2955387906  -0.0314256067  -0.0284225389  -0.0644156766  -0.0117209879
        0.0270998209  -0.0740852323  -0.0119603900   0.0105249876  -0.0077086986
       -0.0047515569  -0.0025861687   0.0059418873  -0.0019744961   0.0026107571
       -0.0018904195   0.0018521046  -0.0019044205  -0.0005576138  -0.0002195610
        0.0004985408   0.0002567003   0.0004011427  -0.0005894895   0.0000417365
       -0.0000544015   0.0005177999  -0.0000247393   0.0002554391   0.0000779262
       -0.0001261297  -0.0000553361  -0.0000938254  -0.0000056204   0.0000752917
       -0.0000092200  -0.0000585576  -0.0000264904  -0.0000234130  -0.0000280841
        0.0000203968   0.0000619974   0.0000732810  -0.0001205046   0.0001018807
        0.0000457230  -0.0001451532  -0.0001091255   0.0000082612   0.0001872251
        0.0000326352   0.0001918583  -0.0002214473   0.0002698842   0.0000825917
       -0.0000167959  -0.0000037705   0.0000455777  -0.0007453339  -0.0000626907
       -0.0006003978   0.0005281601   0.0000873120   0.0003327899   0.0001307463
       -0.0001488747   0.0004710546  -0.0000500983  -0.0000166671  -0.0000421906
        0.0001264983  -0.0000605904   0.0000354460  -0.0006691932  -0.0001925171
       -0.0001361507   0.0002385556   0.0000157168   0.0000934075  -0.0000189499
        0.0000184714  -0.0000829394   0.0000332434  -0.0000474080   0.0000434124
       -0.0001945614  -0.0000127797   0.0000616601   0.0003214844  -0.0001110447
        0.0000971734  -0.0007655908  -0.0029544807   0.0073682911   0.0043403495
        0.0056906301   0.0010804231   0.0080931345   0.0096530579   0.0070482716
        0.0008898664  -0.0002029580  -0.0020239817  -0.0003585595   0.0003261372
       -0.0000850984   0.0000505617  -0.0000162698   0.0000312707  -0.0000089660
       -0.0000345472   0.0000175430   0.0000196048   0.0000140569  -0.0000451006
       -0.0000520859   0.0000189168   0.0000335495  -0.0000706873  -0.0000228060
       -0.0000022439  -0.0000717736  -0.0000783947  -0.0000552700   0.0000562127
       -0.0000332565   0.0000029689   0.0000786396   0.0000753998   0.0000478250
        0.0001659974  -0.0001116226  -0.0002757814   0.0000271020  -0.0000688362
       -0.0001978637   0.0000465229  -0.0000417773  -0.0000057992   0.0000004612
       -0.0000447444  -0.0000134680  -0.0000116749   0.0000044613  -0.0000220157
        0.0000370913  -0.0000251265   0.0000160567   0.0000230703   0.0000151437
        0.0000149092   0.0000712628   0.0000246651  -0.0000318446  -0.0000406125
        0.0000651364  -0.0000018694  -0.0000421919  -0.0003555385   0.0002272821
        0.0005547800  -0.0015274961  -0.0020529053
       -0.0597426061  -0.0607423917  -0.0342012921  -0.1283789227  -0.0525302485
       -0.0314256067   0.3439381003  -0.0490144171   0.1421056018   0.0109881276
        0.0000780922   0.0016861519  -0.0034789986   0.0024395526  -0.0022427090
        0.0001040799  -0.0015482378   0.0008636009  -0.0011234975   0.0017053167
       -0.0006972918   0.0009859120  -0.0010746563   0.0004215846  -0.0001947188
        0.0000852121   0.0001615234   0.0003712452  -0.0005169242   0.0000039451
       -0.0001785576   0.0005745118   0.0000766264   0.0000248240   0.0000993972
       -0.0001283303  -0.0000712596  -0.0000369240  -0.0000104631   0.0000452503
       -0.0000466516  -0.0000395027   0.0001005587  -0.0000240564   0.0000338729
        0.0000101891  -0.0000014118   0.0000445887  -0.0000724931  -0.0000171184
        0.0000107247  -0.0002651329  -0.0003537591  -0.0000873760  -0.0001151194
        0.0003172713   0.0000315838  -0.0001755447  -0.0002019783  -0.0001439240
        0.0003722068   0.0005900254   0.0001794950  -0.0003830614  -0.0016786250
        0.0000834692   0.0003985021   0.0003651075  -0.0000080518  -0.0001549599
        0.0009518713  -0.0005369610   0.0000027876  -0.0002151097  -0.0000458105
        0.0003717538   0.0000079581   0.0001011574  -0.0004585355  -0.0000279646
       -0.0001726299   0.0001912335  -0.0000560657   0.0000559781  -0.0000266397
        0.0000773561  -0.0001083598  -0.0000452233  -0.0000143032   0.0000230897
       -0.0001609647  -0.0000090161   0.0001084285   0.0003166103  -0.0000601194
        0.0000996910   0.0019683748  -0.0004308431   0.0010595368  -0.0002672750
        0.0053250601  -0.0013701699  -0.1649326129   0.1533779356  -0.0762862196
        0.0001937159   0.0015876713  -0.0000569699   0.0000477599  -0.0000351881
        0.0000218812   0.0000182751  -0.0000201817   0.0000073176   0.0000107777
       -0.0000095872   0.0000490778   0.0000041606   0.0000146306   0.0000108175
       -0.0000118406   0.0000095751   0.0000119456  -0.0000144596   0.0000002353
        0.0000022470  -0.0000072690  -0.0000005797  -0.0000061663  -0.0000039459
        0.0000023046   0.0000067037   0.0000102482   0.0000527619  -0.0000117560
       -0.0001132908   0.0000112527  -0.0000220661  -0.0000256194  -0.0000845406
        0.0003257628   0.0000034652  -0.0000136381   0.0000103858  -0.0000017238
        0.0000185885  -0.0000126556  -0.0000106861  -0.0000007171  -0.0000263893
        0.0000301741  -0.0000156487   0.0000151717   0.0000415597   0.0000086269
       -0.0000067752   0.0000731356   0.0000220448  -0.0000583807  -0.0000242096
       -0.0000002170  -0.0000448822  -0.0000677104   0.0002375014   0.0000714183
       -0.0001161493   0.0008212592   0.0000673608
       -0.0417265277  -0.0081711399  -0.0169082693  -0.0819556918  -0.1927008506
       -0.0284225389  -0.0490144171   0.5132529744  -0.0514039380  -0.0056021509
       -0.0590965800   0.0014489025  -0.0050506455  -0.0008105768  -0.0023518504
       -0.0005798251  -0.0027695488   0.0001994802  -0.0021899662   0.0029518501
       -0.0014115970   0.0012773576  -0.0017356150   0.0006876931  -0.0000179222
        0.0005844789   0.0003665002   0.0006548629  -0.0008366891   0.0001045789
       -0.0001454787   0.0011550186   0.0001251507   0.0001452675   0.0001729230
       -0.0002693586  -0.0000704576  -0.0001764136  -0.0001035685   0.0000960038
       -0.0000326371  -0.0000697774   0.0000945380  -0.0000647173   0.0000200703
        0.0000426867   0.0000098788   0.0000627145  -0.0000759880   0.0000217901
        0.0000483729  -0.0004960796  -0.0007679694  -0.0002462974  -0.0001272627
        0.0006564989   0.0000931637  -0.0003458824  -0.0008539501  -0.0004488302
        0.0009492631   0.0015801379   0.0005520758  -0.0002831950  -0.0041459441
       -0.0000044595   0.0005678021   0.0008371375   0.0001029268  -0.0008670725
        0.0026701253  -0.0010902811  -0.0000844688  -0.0006974274  -0.0001272287
        0.0005638465   0.0002254121   0.0001848926  -0.0008368433  -0.0001025630
       -0.0002918095   0.0002956442   0.0000495002   0.0000101899  -0.0000659673
        0.0001038863  -0.0001436995   0.0000140940  -0.0000726271   0.0000689154
       -0.0002898060   0.0000266191   0.0001639754   0.0003792016  -0.0001777085
        0.0001732968   0.0022968090  -0.0032619365   0.0010857141   0.0047600013
       -0.0001294975   0.0023720548   0.1746864554  -0.2478958312   0.0928239471
        0.0025973187  -0.0006932359   0.0014140161   0.0000030275   0.0002096689
        0.0000215882   0.0000381018  -0.0001607688  -0.0000279740  -0.0000501583
       -0.0000548841   0.0000567434   0.0000073986   0.0000457884   0.0000369766
       -0.0000704002   0.0000213343   0.0000446234  -0.0000338366  -0.0000047217
        0.0000207129  -0.0000404259  -0.0000155846  -0.0000000297  -0.0000049584
        0.0000452593   0.0000591983  -0.0000027198  -0.0000074926  -0.0000797358
       -0.0002474525   0.0001244580   0.0001748460   0.0001566286  -0.0003052989
        0.0005369225  -0.0000077684   0.0000688026  -0.0000242930   0.0000232456
        0.0000283286  -0.0000505838  -0.0000230491  -0.0000421304   0.0000082982
        0.0000926688  -0.0000429617   0.0000499936   0.0000733004   0.0000179776
        0.0000030699   0.0001363170   0.0000473013  -0.0000829127  -0.0000674171
        0.0000273323  -0.0000190963   0.0001677961  -0.0004854802   0.0001424050
        0.0002541977   0.0013782996   0.0003141193
       -0.0352103738  -0.0255175417   0.0098902270  -0.0296115238  -0.0147539994
       -0.0644156766   0.1421056018  -0.0514039380   0.1022843991   0.0021065104
        0.0041447265   0.0078382988  -0.0017379510   0.0012341580  -0.0002015319
        0.0004773917  -0.0007085778  -0.0003373360  -0.0003843366   0.0007058359
       -0.0003009263   0.0002861526  -0.0004572658   0.0002989595   0.0000010758
        0.0001159384   0.0000867242   0.0001742640  -0.0002388548   0.0000237099
       -0.0000517307   0.0003459691   0.0000572562  -0.0000134405   0.0000596694
       -0.0000671641  -0.0000170943  -0.0000064408  -0.0000255592  -0.0000005149
       -0.0000044874   0.0000043687   0.0000110410  -0.0000037539   0.0000114519
        0.0000087382  -0.0000143867  -0.0000098562   0.0000017466  -0.0000338879
       -0.0000144021  -0.0001885674  -0.0003065944  -0.0000795796  -0.0000980206
        0.0002923558  -0.0000359851   0.0000202493  -0.0005553875  -0.0002454734
        0.0003829102   0.0005834312   0.0002055351   0.0005705562  -0.0017096709
        0.0004191916  -0.0002562520   0.0002606598  -0.0001579234  -0.0005382364
        0.0012221281  -0.0007738197  -0.0000293548  -0.0002219774  -0.0000209817
        0.0002001274   0.0000843524   0.0000837819  -0.0001407432  -0.0000143907
       -0.0000863852   0.0000462317  -0.0000238955   0.0000176386  -0.0000232140
        0.0000075641  -0.0000090415   0.0000057885   0.0000020197   0.0000037692
       -0.0000256736   0.0000127516   0.0000035597   0.0000435252   0.0000520670
       -0.0000222440   0.0010449160  -0.0000311912   0.0000554335  -0.0012605339
        0.0025160190   0.0008786187  -0.0775875527   0.0830858420  -0.0558436548
       -0.0001222570   0.0008218862  -0.0000353105   0.0000234802  -0.0000233286
        0.0000247013  -0.0000149501  -0.0000063211  -0.0000049990  -0.0000018288
        0.0000254261   0.0000184136   0.0000031349   0.0000004252   0.0000342680
       -0.0000079814  -0.0000011339   0.0000127856   0.0000067778   0.0000017616
        0.0000087995   0.0000103353   0.0000147778   0.0000148111  -0.0000123095
        0.0000155775   0.0000189122  -0.0000436131  -0.0000558116  -0.0000048857
       -0.0002132120   0.0000649731   0.0002342007   0.0001046570  -0.0000566453
        0.0003270589  -0.0000370405   0.0000368420  -0.0000126044  -0.0000180844
        0.0000541682  -0.0000230082  -0.0000047236  -0.0000190629   0.0000095895
        0.0000045851  -0.0000087494   0.0000069371   0.0000077653  -0.0000026843
        0.0000000545  -0.0000091812   0.0000000672  -0.0000078733   0.0000111861
       -0.0000009590  -0.0000048254   0.0000393181   0.0001278228  -0.0001302492
       -0.0000377708   0.0002917225  -0.0000021593
       -0.0479049950   0.0333439503  -0.0312547747  -0.0852647135   0.0478765582
       -0.0117209879   0.0109881276  -0.0056021509   0.0021065104   0.5463657414
        0.0322881253   0.2071449244  -0.2469486284  -0.0462996028  -0.0946061968
       -0.0317831654   0.0690715480  -0.0231245493  -0.0246547061  -0.0281235055
       -0.0058417226  -0.0041459411   0.0044125489  -0.0017460114   0.0012569767
       -0.0004778385  -0.0009442225  -0.0018138714   0.0017989500   0.0003628277
        0.0010751267  -0.0020389089  -0.0014563851  -0.0007958231  -0.0003719094
        0.0004902876   0.0002755320  -0.0000338147  -0.0000429342  -0.0001713211
       -0.0000239857   0.0000102523   0.0000215641   0.0000157950  -0.0000020422
       -0.0001364692   0.0000123132   0.0000081992   0.0003209080   0.0001116935
        0.0001019488   0.0009626055   0.0018644327   0.0004820058   0.0001158331
       -0.0009675675  -0.0001978038   0.0008437202   0.0005693123   0.0006368659
       -0.0010834424  -0.0005710018  -0.0000100479   0.0001572316   0.0013631446
        0.0000241399  -0.0002993628  -0.0001965164  -0.0000893567   0.0003387125
       -0.0009279772   0.0003370540   0.0000018491   0.0007648888   0.0000317756
       -0.0011723300   0.0001580737  -0.0004843522   0.0020651821  -0.0001560798
        0.0006949812  -0.0004972943   0.0004613037  -0.0001833595   0.0002203288
       -0.0000285422   0.0000531511  -0.0001740839   0.0001158610  -0.0001351248
        0.0005360442  -0.0001623868   0.0000358902  -0.0011029358  -0.0000885260
       -0.0000179694   0.0335263103  -0.0180576482   0.0189944241  -0.1259022533
       -0.0631029265  -0.0359489348  -0.0004968690  -0.0045578725  -0.0023041626
       -0.0137717388  -0.0040553640  -0.0066550143   0.0018021327   0.0021083593
       -0.0041633049   0.0000393417  -0.0000213478   0.0001555653  -0.0000673619
       -0.0000065754  -0.0002175484  -0.0000077188  -0.0000186957  -0.0000185434
        0.0000450994  -0.0000097829  -0.0000361955   0.0000369804   0.0000123690
       -0.0000127588   0.0000484399   0.0000363623   0.0000261549  -0.0000398679
        0.0000016622  -0.0000112285   0.0000283717  -0.0000642563   0.0002047992
        0.0000936884  -0.0001588112   0.0000158474  -0.0000305714   0.0001389520
       -0.0000972676   0.0000751518  -0.0000381996   0.0000353541   0.0000985411
       -0.0000963669  -0.0000504215  -0.0000135933   0.0000103925   0.0000288233
       -0.0000426435  -0.0000130768  -0.0000384422  -0.0000177112  -0.0000121161
       -0.0000065882  -0.0000810003   0.0000162098   0.0000414489   0.0000098690
        0.0000808595  -0.0000780530   0.0015797171   0.0028240988  -0.0042382006
       -0.0145087140  -0.0231744109  -0.0062887262
        0.0243253361  -0.0021291846   0.0122910740   0.0493655988  -0.1452472753
        0.0270998209   0.0000780922  -0.0590965800   0.0041447265   0.0322881253
        0.6117382519  -0.0116633595   0.0052086166  -0.0860571845   0.0053783170
        0.0192643681   0.0154876147   0.0112628916  -0.0272098572   0.0011366155
       -0.0151156182   0.0049242278  -0.0086744151   0.0033453851   0.0006570272
        0.0017575791   0.0006841213   0.0005599109  -0.0018921464   0.0003875595
       -0.0000571370   0.0017349961  -0.0004960266   0.0001376519   0.0002948783
       -0.0003770397  -0.0000810371  -0.0001792580  -0.0000876933   0.0000544983
        0.0000002465  -0.0000906286   0.0000310348  -0.0000523553  -0.0000003587
       -0.0000026148   0.0000486179   0.0000525627  -0.0001572489   0.0001038662
       -0.0000432996  -0.0006431752  -0.0010990364  -0.0000722190   0.0005272127
        0.0006993449   0.0001703687  -0.0002078806  -0.0003047478  -0.0003162691
        0.0006442142   0.0010884491   0.0007027055  -0.0004692870  -0.0027575956
       -0.0000793975   0.0005209100   0.0004884733   0.0001455346  -0.0005718333
        0.0016706366  -0.0005485455  -0.0001195089  -0.0002101085  -0.0003041403
        0.0007306205  -0.0000668909  -0.0001206402  -0.0028053111  -0.0001605484
       -0.0013325538   0.0006678629  -0.0003481085   0.0003633513  -0.0002834745
        0.0000980097  -0.0001290399   0.0001058012  -0.0000750760   0.0000731141
       -0.0005268666   0.0001320134   0.0000856950   0.0010006709   0.0001101793
        0.0000587268   0.0310644490  -0.0726347333   0.0196797304  -0.1134569659
       -0.2409441804  -0.0468275141  -0.0018085764  -0.0034351782  -0.0001286408
       -0.0235542518  -0.0028298999  -0.0117964960   0.0027273331  -0.0036996390
        0.0018683556   0.0000858511   0.0000495348   0.0002470726  -0.0000225437
        0.0000846791   0.0000806813   0.0000172947   0.0000518930   0.0000231343
       -0.0000823346   0.0000361772   0.0000589417  -0.0000631409  -0.0000074286
        0.0000178592  -0.0000776477  -0.0000622358  -0.0000344188   0.0001243877
        0.0000079495   0.0000783717  -0.0004093568   0.0000744343   0.0001834008
       -0.0000797591   0.0001205528  -0.0000162204   0.0001172744  -0.0002002075
        0.0002136984  -0.0000225210   0.0000350292  -0.0000440396  -0.0001138488
        0.0000681655  -0.0001272970  -0.0000223748  -0.0000130521  -0.0000671791
        0.0000684612  -0.0000355396   0.0000327512   0.0000427310   0.0000306969
        0.0000129493   0.0001334905   0.0000276390  -0.0000785931   0.0000490254
        0.0000703087  -0.0000568993   0.0022570189  -0.0035167358   0.0019947031