 Entering Gaussian System
 *********************************************
 Gaussian 98:
 frequency output generated by the xtb code
 *********************************************
                         Standard orientation:
 --------------------------------------------------------------------
  Center     Atomic     Atomic              Coordinates (Angstroms)
  Number     Number      Type              X           Y           Z
 --------------------------------------------------------------------
    1          6             0        8.063886   -1.223732   -1.042657
    2          6             0        8.938425   -0.646589    0.085136
    3          6             0        8.327733   -0.978507    1.458695
    4          6             0       10.295712   -1.334100    0.009185
    5          6             0       10.395631   -2.713110    0.135768
    6          6             0       11.613256   -3.367633    0.070512
    7          6             0       12.776966   -2.643499   -0.126476
    8          6             0       12.708620   -1.273048   -0.255510
    9          6             0       11.478137   -0.618540   -0.188584
   10          7             0       11.432917    0.745129   -0.319048
   11          6             0       10.277408    1.486932   -0.265302
   12          6             0       10.399012    2.868809   -0.410432
   13          6             0        9.282941    3.673271   -0.367156
   14          6             0        8.046973    3.088897   -0.179353
   15          6             0        7.910154    1.708114   -0.033309
   16          6             0        6.498935    1.287933    0.154255
   17          6             0        5.922045    1.288249    1.421793
   18          6             0        4.583861    1.002447    1.595639
   19          6             0        3.761802    0.722746    0.499279
   20          6             0        2.349006    0.419796    0.621165
   21          6             0        1.652800    0.317973    1.827749
   22          6             0        0.303239    0.036162    1.838554
   23          6             0       -0.397123   -0.154065    0.630620
   24          7             0       -1.673609   -0.415358    0.562185
   25          6             0       -2.360156   -0.603014   -0.579341
   26          6             0       -3.779941   -0.872237   -0.459523
   27          6             0       -4.366632   -0.873414    0.813248
   28          6             0       -5.713060   -1.110306    0.978309
   29          6             0       -6.536597   -1.337481   -0.122515
   30          6             0       -7.965492   -1.694161    0.062508
   31          6             0       -8.162681   -3.064025    0.238518
   32          6             0       -9.424192   -3.590464    0.428044
   33          6             0      -10.504944   -2.738186    0.442721
   34          6             0      -10.322882   -1.366413    0.267808
   35          6             0       -9.048449   -0.809255    0.072685
   36          6             0       -8.890817    0.699515   -0.117379
   37          6             0       -7.998605    1.263634    1.003100
   38          6             0       -8.259245    0.974837   -1.494024
   39          6             0      -10.217582    1.446351   -0.065457
   40          6             0      -10.256804    2.825545   -0.220317
   41          6             0      -11.445365    3.533194   -0.177795
   42          6             0      -12.640706    2.864051    0.024189
   43          6             0      -12.632703    1.494785    0.180781
   44          6             0      -11.431263    0.786567    0.136716
   45          7             0      -11.445967   -0.574945    0.294028
   46          6             0       -5.951859   -1.384777   -1.385534
   47          6             0       -4.603626   -1.148045   -1.555640
   48          6             0       -1.661070   -0.515163   -1.785356
   49          6             0       -0.309910   -0.241135   -1.795809
   50          6             0        0.388937   -0.044142   -0.588099
   51          7             0        1.663812    0.224900   -0.519976
   52          6             0        4.340484    0.763871   -0.776492
   53          6             0        5.676828    1.050015   -0.945351
   54          6             0        9.029851    0.871259   -0.072336
   55          1             0        7.031043   -0.912266   -0.930472
   56          1             0        8.432467   -0.883020   -2.008733
   57          1             0        8.092607   -2.309632   -1.032425
   58          1             0        8.886267   -0.472847    2.244630
   59          1             0        8.367461   -2.047457    1.647950
   60          1             0        7.290429   -0.665400    1.507015
   61          1             0        9.505578   -3.304822    0.289793
   62          1             0       11.651929   -4.441440    0.173311
   63          1             0       13.731729   -3.144876   -0.179045
   64          1             0       13.605527   -0.689188   -0.409885
   65          1             0       12.301217    1.239009   -0.459533
   66          1             0       11.381692    3.295273   -0.556825
   67          1             0        9.373936    4.743117   -0.478690
   68          1             0        7.157599    3.700775   -0.143076
   69          1             0        6.535818    1.522530    2.280536
   70          1             0        4.178328    1.010324    2.595785
   71          1             0        2.173641    0.459471    2.760654
   72          1             0       -0.242567   -0.042962    2.764938
   73          1             0       -3.734884   -0.687723    1.668865
   74          1             0       -6.141202   -1.124027    1.970902
   75          1             0       -7.300172   -3.714070    0.224167
   76          1             0       -9.562086   -4.652579    0.562888
   77          1             0      -11.506247   -3.118740    0.589479
   78          1             0       -8.388027    0.962172    1.974023
   79          1             0       -7.979031    2.349191    0.967672
   80          1             0       -6.979866    0.904460    0.905813
   81          1             0       -8.252192    2.040156   -1.706467
   82          1             0       -7.236091    0.616716   -1.529312
   83          1             0       -8.834955    0.476549   -2.272231
   84          1             0       -9.340947    3.375082   -0.379223
   85          1             0      -11.436745    4.605378   -0.302200
   86          1             0      -13.573192    3.407149    0.059259
   87          1             0      -13.555157    0.953419    0.339396
   88          1             0      -12.335660   -1.027893    0.438557
   89          1             0       -6.567970   -1.614917   -2.243723
   90          1             0       -4.192086   -1.190112   -2.552480
   91          1             0       -2.181930   -0.656623   -2.718259
   92          1             0        0.237253   -0.168319   -2.721911
   93          1             0        3.709710    0.572649   -1.631613
   94          1             0        6.097284    1.097117   -1.940201
 --------------------------------------------------------------------
     1 basis functions        1 primitive gaussians
     1 alpha electrons        1 beta electrons
 
 Harmonic frequencies (cm**-1), IR intensities (km*mol⁻¹),
 Raman scattering activities (A**4/amu), Raman depolarization ratios,
 reduced masses (AMU), force constants (mDyne/A) and normal coordinates:
                      1                      2                      3
                        a                      a                      a 
 Frequencies --     2.2809                 5.5160                12.1536
 Red. masses --    11.0109                11.3776                10.8185
 Frc consts  --     0.0000                 0.0000                 0.0000
 IR Inten    --     2.3752                 1.7492                 1.2722
 Raman Activ --     0.0000                 0.0000                 0.0000
 Depolar     --     0.0000                 0.0000                 0.0000
 Atom AN      X      Y      Z        X      Y      Z        X      Y      Z
   1   6     0.02  -0.07   0.09    -0.05   0.01  -0.03     0.11  -0.06   0.00
   2   6    -0.00  -0.01   0.07    -0.03  -0.04  -0.02     0.08  -0.02   0.00
   3   6    -0.03   0.07   0.08    -0.04  -0.04  -0.02     0.08  -0.04   0.00
   4   6    -0.00  -0.02   0.13    -0.06  -0.09  -0.03     0.11   0.02   0.02
   5   6    -0.01  -0.01   0.21    -0.11  -0.10  -0.06     0.15   0.02   0.03
   6   6    -0.01  -0.02   0.27    -0.13  -0.14  -0.07     0.17   0.06   0.04
   7   6    -0.01  -0.04   0.25    -0.10  -0.18  -0.06     0.15   0.10   0.05
   8   6     0.00  -0.04   0.18    -0.05  -0.17  -0.03     0.11   0.09   0.05
   9   6     0.00  -0.03   0.12    -0.03  -0.13  -0.02     0.09   0.05   0.03
  10   7     0.01  -0.05   0.04     0.02  -0.13   0.00     0.05   0.06   0.02
  11   6     0.01  -0.03  -0.02     0.05  -0.08   0.02     0.02   0.02   0.00
  12   6     0.02  -0.04  -0.10     0.10  -0.09   0.04    -0.02   0.02  -0.01
  13   6     0.03  -0.04  -0.17     0.12  -0.05   0.06    -0.05  -0.02  -0.03
  14   6     0.02  -0.02  -0.15     0.10  -0.00   0.05    -0.03  -0.06  -0.04
  15   6     0.01  -0.01  -0.08     0.05  -0.00   0.02     0.01  -0.06  -0.02
  16   6     0.01   0.01  -0.08     0.04   0.04   0.02     0.02  -0.10  -0.02
  17   6    -0.01   0.07  -0.09     0.04   0.04   0.02     0.02  -0.11  -0.02
  18   6    -0.01   0.09  -0.09     0.03   0.08   0.02     0.03  -0.13  -0.02
  19   6    -0.00   0.03  -0.09     0.02   0.12   0.01     0.03  -0.13  -0.02
  20   6    -0.00   0.04  -0.09     0.02   0.14   0.01     0.03  -0.13  -0.02
  21   6    -0.00   0.04  -0.09     0.02   0.15   0.01     0.07  -0.29  -0.01
  22   6    -0.00   0.04  -0.09     0.01   0.16   0.01     0.06  -0.27  -0.00
  23   6    -0.00   0.04  -0.09     0.01   0.16   0.01     0.02  -0.08  -0.01
  24   7    -0.00   0.05  -0.10     0.02   0.16   0.01     0.01  -0.05  -0.00
  25   6    -0.00   0.05  -0.09     0.02   0.15   0.01    -0.03   0.11  -0.00
  26   6    -0.00   0.04  -0.09     0.02   0.12   0.01    -0.03   0.12   0.01
  27   6     0.01  -0.02  -0.08     0.02   0.13   0.01    -0.02   0.12   0.01
  28   6     0.02  -0.04  -0.07     0.03   0.09   0.01    -0.02   0.11   0.02
  29   6     0.00   0.01  -0.07     0.03   0.05   0.02    -0.02   0.09   0.02
  30   6     0.01  -0.01  -0.07     0.05  -0.00   0.02    -0.01   0.06   0.04
  31   6     0.02  -0.02  -0.14     0.10  -0.00   0.05     0.03   0.06   0.08
  32   6     0.03  -0.04  -0.15     0.12  -0.05   0.06     0.04   0.03   0.09
  33   6     0.02  -0.05  -0.08     0.09  -0.09   0.04     0.02  -0.00   0.07
  34   6     0.01  -0.04  -0.02     0.03  -0.09   0.02    -0.02  -0.00   0.04
  35   6     0.00  -0.02  -0.01     0.01  -0.04   0.01    -0.04   0.03   0.02
  36   6    -0.01  -0.00   0.07    -0.04  -0.04  -0.02    -0.08   0.03  -0.02
  37   6     0.00  -0.06   0.09    -0.06   0.01  -0.03    -0.09   0.08  -0.03
  38   6    -0.03   0.07   0.07    -0.05  -0.04  -0.02    -0.09   0.02  -0.02
  39   6    -0.02  -0.02   0.13    -0.07  -0.09  -0.03    -0.10  -0.01  -0.03
  40   6    -0.03  -0.01   0.20    -0.12  -0.09  -0.05    -0.14  -0.01  -0.06
  41   6    -0.03  -0.02   0.25    -0.15  -0.14  -0.07    -0.16  -0.04  -0.07
  42   6    -0.02  -0.04   0.24    -0.12  -0.18  -0.06    -0.14  -0.07  -0.06
  43   6    -0.01  -0.05   0.17    -0.07  -0.18  -0.04    -0.10  -0.07  -0.03
  44   6    -0.01  -0.04   0.11    -0.05  -0.13  -0.02    -0.08  -0.04  -0.01
  45   7     0.01  -0.05   0.05     0.01  -0.14   0.00    -0.05  -0.04   0.02
  46   6    -0.01   0.08  -0.08     0.04   0.05   0.02    -0.03   0.09   0.02
  47   6    -0.02   0.09  -0.09     0.03   0.09   0.02    -0.03   0.10   0.01
  48   6    -0.01   0.06  -0.09     0.01   0.17   0.01    -0.07   0.26  -0.01
  49   6    -0.01   0.06  -0.09     0.01   0.17   0.01    -0.06   0.24  -0.02
  50   6    -0.00   0.05  -0.09     0.01   0.16   0.01    -0.02   0.06  -0.02
  51   7    -0.00   0.05  -0.10     0.02   0.17   0.01    -0.01   0.03  -0.03
  52   6     0.02  -0.03  -0.08     0.02   0.12   0.01     0.03  -0.12  -0.02
  53   6     0.02  -0.05  -0.08     0.03   0.09   0.02     0.02  -0.11  -0.02
  54   6     0.01  -0.02  -0.01     0.02  -0.04   0.01     0.04  -0.02  -0.00
  55   1     0.00  -0.01   0.01    -0.01   0.01  -0.01     0.03  -0.02  -0.01
  56   1     0.01  -0.04   0.02    -0.01   0.00  -0.01     0.03  -0.02   0.00
  57   1     0.00  -0.02   0.04    -0.03   0.00  -0.01     0.04  -0.02   0.01
  58   1    -0.01   0.03   0.02    -0.01  -0.02  -0.00     0.01  -0.00   0.00
  59   1    -0.01   0.02   0.04    -0.02  -0.01  -0.01     0.04  -0.01   0.00
  60   1    -0.01   0.02   0.01    -0.01  -0.00  -0.01     0.02  -0.02  -0.00
  61   1    -0.01   0.00   0.07    -0.04  -0.02  -0.02     0.05  -0.00   0.01
  62   1    -0.01  -0.00   0.10    -0.05  -0.04  -0.03     0.06   0.02   0.01
  63   1    -0.00  -0.01   0.09    -0.04  -0.06  -0.02     0.05   0.04   0.02
  64   1     0.00  -0.02   0.05    -0.01  -0.06  -0.01     0.03   0.03   0.02
  65   1     0.01  -0.02   0.01     0.01  -0.04   0.00     0.01   0.02   0.01
  66   1     0.01  -0.02  -0.03     0.03  -0.03   0.01    -0.01   0.01  -0.00
  67   1     0.01  -0.01  -0.07     0.05  -0.01   0.02    -0.02  -0.00  -0.01
  68   1     0.01  -0.00  -0.06     0.04   0.01   0.02    -0.02  -0.02  -0.02
  69   1    -0.01   0.03  -0.03     0.01   0.00   0.01     0.01  -0.03  -0.01
  70   1    -0.01   0.04  -0.03     0.01   0.02   0.01     0.01  -0.04  -0.01
  71   1     0.00   0.01  -0.03     0.00   0.04   0.00     0.03  -0.13  -0.00
  72   1    -0.00   0.01  -0.03     0.00   0.05   0.00     0.03  -0.11   0.00
  73   1     0.01  -0.02  -0.02     0.00   0.05   0.00    -0.01   0.04   0.00
  74   1     0.01  -0.02  -0.02     0.01   0.03   0.00    -0.00   0.03   0.01
  75   1     0.01  -0.00  -0.05     0.04   0.01   0.02     0.01   0.02   0.03
  76   1     0.01  -0.01  -0.06     0.05  -0.02   0.02     0.02   0.01   0.03
  77   1     0.01  -0.02  -0.03     0.03  -0.04   0.01     0.01  -0.01   0.02
  78   1     0.01  -0.03   0.02    -0.02   0.01  -0.01    -0.03   0.03  -0.01
  79   1    -0.00  -0.02   0.04    -0.03   0.00  -0.01    -0.03   0.02  -0.02
  80   1     0.00  -0.01   0.01    -0.02   0.01  -0.01    -0.03   0.02  -0.00
  81   1    -0.01   0.02   0.04    -0.03  -0.01  -0.01    -0.04   0.00  -0.01
  82   1    -0.01   0.02   0.01    -0.01   0.00  -0.00    -0.02   0.02  -0.00
  83   1    -0.01   0.03   0.02    -0.01  -0.02  -0.00    -0.02  -0.01  -0.00
  84   1    -0.01   0.00   0.06    -0.04  -0.02  -0.02    -0.04   0.00  -0.02
  85   1    -0.01  -0.00   0.09    -0.06  -0.04  -0.02    -0.06  -0.01  -0.03
  86   1    -0.01  -0.01   0.08    -0.04  -0.06  -0.02    -0.05  -0.03  -0.02
  87   1    -0.00  -0.02   0.05    -0.02  -0.06  -0.01    -0.03  -0.03  -0.00
  88   1     0.00  -0.02   0.01     0.01  -0.05   0.00    -0.01  -0.02   0.01
  89   1    -0.01   0.03  -0.02     0.01   0.01   0.01    -0.01   0.02   0.01
  90   1    -0.01   0.04  -0.03     0.01   0.02   0.01    -0.01   0.02   0.00
  91   1    -0.00   0.02  -0.03     0.00   0.05   0.00    -0.03   0.12  -0.00
  92   1    -0.00   0.02  -0.03     0.00   0.05   0.00    -0.03   0.11  -0.01
  93   1     0.01  -0.02  -0.02     0.00   0.04   0.00     0.01  -0.04  -0.01
  94   1     0.01  -0.03  -0.02     0.01   0.03   0.00     0.01  -0.03  -0.01
                      4                      5                      6
                        a                      a                      a 
 Frequencies --    18.0310                19.3062                26.4300
 Red. masses --    10.8183                10.8128                10.0706
 Frc consts  --     0.0000                 0.0000                 0.0000
 IR Inten    --     0.4311                 0.0477                 0.5917
 Raman Activ --     0.0000                 0.0000                 0.0000
 Depolar     --     0.0000                 0.0000                 0.0000
 Atom AN      X      Y      Z        X      Y      Z        X      Y      Z
   1   6    -0.05  -0.08   0.15    -0.10   0.04   0.03    -0.11  -0.07   0.25
   2   6     0.02  -0.00   0.05    -0.08   0.04   0.01     0.00   0.01   0.13
   3   6     0.12   0.08   0.11    -0.08   0.08   0.02     0.14   0.10   0.21
   4   6     0.02  -0.00  -0.00    -0.10  -0.00   0.02    -0.01   0.00   0.03
   5   6     0.04   0.01   0.08    -0.13  -0.00   0.04     0.00   0.01   0.08
   6   6     0.04   0.01   0.03    -0.15  -0.04   0.05    -0.00   0.00  -0.02
   7   6     0.02   0.01  -0.11    -0.13  -0.07   0.03    -0.02  -0.01  -0.18
   8   6     0.00  -0.00  -0.19    -0.10  -0.07   0.01    -0.03  -0.01  -0.22
   9   6     0.00  -0.01  -0.13    -0.08  -0.04   0.00    -0.02  -0.01  -0.11
  10   7    -0.01  -0.01  -0.23    -0.04  -0.04  -0.02    -0.04  -0.01  -0.16
  11   6    -0.01  -0.02  -0.16    -0.02  -0.01  -0.03    -0.03  -0.01  -0.06
  12   6    -0.03  -0.02  -0.23     0.02  -0.01  -0.06    -0.03  -0.01  -0.09
  13   6    -0.03  -0.03  -0.19     0.04   0.02  -0.07    -0.03  -0.00  -0.02
  14   6    -0.02  -0.02  -0.09     0.02   0.06  -0.05    -0.02  -0.00   0.06
  15   6     0.00  -0.02  -0.02    -0.01   0.06  -0.03    -0.01   0.00   0.08
  16   6     0.01  -0.02   0.04    -0.02   0.09  -0.02    -0.01  -0.00   0.10
  17   6     0.03   0.03   0.05    -0.02   0.10  -0.02    -0.02   0.02   0.09
  18   6     0.03   0.04   0.08    -0.01   0.08  -0.01    -0.03   0.02   0.08
  19   6     0.01  -0.01   0.10    -0.01   0.06  -0.01    -0.01  -0.01   0.07
  20   6     0.01   0.00   0.11     0.00   0.00  -0.00    -0.01  -0.01   0.05
  21   6     0.01   0.02   0.11     0.06  -0.25   0.01    -0.03  -0.04   0.04
  22   6     0.01   0.03   0.11     0.08  -0.31   0.02    -0.03  -0.04   0.01
  23   6     0.01   0.02   0.12     0.03  -0.12   0.02    -0.01  -0.01  -0.01
  24   7     0.00   0.03   0.12     0.04  -0.18   0.03    -0.01  -0.01  -0.04
  25   6     0.01   0.03   0.11    -0.00   0.00   0.02     0.01   0.01  -0.05
  26   6     0.01   0.03   0.09     0.01  -0.05   0.03     0.01   0.01  -0.08
  27   6    -0.01  -0.01   0.08     0.02  -0.09   0.04    -0.01   0.03  -0.08
  28   6    -0.02  -0.02   0.05     0.02  -0.11   0.04    -0.01   0.03  -0.10
  29   6    -0.00   0.02   0.03     0.02  -0.09   0.03     0.01   0.00  -0.10
  30   6    -0.00   0.01  -0.03     0.01  -0.06   0.03     0.01   0.00  -0.08
  31   6    -0.00   0.00  -0.10    -0.02  -0.05   0.04     0.02   0.00  -0.05
  32   6    -0.01  -0.02  -0.20    -0.04  -0.02   0.02     0.03   0.01   0.03
  33   6    -0.02  -0.03  -0.23    -0.02   0.01  -0.00     0.04   0.01   0.10
  34   6    -0.02  -0.02  -0.16     0.02   0.00  -0.01     0.03   0.01   0.07
  35   6    -0.01  -0.00  -0.05     0.04  -0.03   0.01     0.01   0.00  -0.04
  36   6    -0.01   0.01   0.05     0.08  -0.04   0.00    -0.00  -0.01  -0.13
  37   6    -0.09  -0.05   0.14     0.07  -0.06   0.02     0.12   0.06  -0.26
  38   6     0.08   0.10   0.10     0.10  -0.05   0.01    -0.15  -0.10  -0.22
  39   6    -0.02  -0.00   0.00     0.10  -0.00  -0.02     0.00  -0.00  -0.03
  40   6    -0.02   0.01   0.08     0.14  -0.00  -0.02    -0.01  -0.01  -0.09
  41   6    -0.03  -0.01   0.04     0.15   0.03  -0.04    -0.00  -0.01   0.02
  42   6    -0.04  -0.03  -0.09     0.13   0.06  -0.06     0.02   0.01   0.18
  43   6    -0.04  -0.04  -0.17     0.09   0.06  -0.06     0.03   0.01   0.23
  44   6    -0.03  -0.03  -0.13     0.08   0.03  -0.04     0.02   0.01   0.12
  45   7    -0.03  -0.04  -0.22     0.04   0.03  -0.04     0.03   0.01   0.17
  46   6     0.02   0.08   0.04     0.02  -0.08   0.03     0.02  -0.02  -0.10
  47   6     0.02   0.08   0.07     0.02  -0.06   0.03     0.03  -0.01  -0.08
  48   6     0.01   0.02   0.11    -0.06   0.26   0.01     0.03   0.04  -0.04
  49   6     0.02   0.01   0.11    -0.07   0.32  -0.00     0.03   0.04  -0.01
  50   6     0.01   0.01   0.12    -0.03   0.13   0.00     0.01   0.01   0.00
  51   7     0.01  -0.00   0.13    -0.04   0.19  -0.00     0.01   0.01   0.04
  52   6    -0.00  -0.06   0.09    -0.02   0.08  -0.01     0.01  -0.03   0.08
  53   6    -0.00  -0.07   0.06    -0.02   0.10  -0.02     0.01  -0.03   0.09
  54   6     0.00  -0.01  -0.05    -0.04   0.03  -0.02    -0.01   0.00   0.04
  55   1    -0.01  -0.03   0.06    -0.03   0.02   0.01    -0.03  -0.03   0.10
  56   1    -0.04  -0.04   0.03    -0.03   0.00   0.01    -0.07  -0.03   0.06
  57   1    -0.01  -0.02   0.06    -0.04   0.01   0.01    -0.02  -0.02   0.09
  58   1     0.05   0.03   0.01    -0.02   0.03   0.00     0.07   0.03   0.04
  59   1     0.04   0.03   0.05    -0.03   0.02   0.01     0.03   0.03   0.07
  60   1     0.04   0.03   0.05    -0.02   0.03   0.01     0.05   0.04   0.09
  61   1     0.02   0.00   0.05    -0.04   0.01   0.02     0.01   0.01   0.06
  62   1     0.02   0.01   0.03    -0.05  -0.01   0.02     0.00   0.00   0.01
  63   1     0.01   0.00  -0.04    -0.04  -0.03   0.01    -0.01  -0.00  -0.08
  64   1    -0.00  -0.00  -0.09    -0.02  -0.03  -0.00    -0.01  -0.01  -0.10
  65   1    -0.01  -0.00  -0.09    -0.01  -0.02  -0.01    -0.01  -0.00  -0.07
  66   1    -0.01  -0.01  -0.09     0.01  -0.01  -0.02    -0.01  -0.00  -0.05
  67   1    -0.01  -0.01  -0.07     0.02   0.00  -0.03    -0.01  -0.00  -0.01
  68   1    -0.00  -0.01  -0.02     0.01   0.02  -0.02    -0.00  -0.00   0.03
  69   1     0.01   0.02   0.01    -0.01   0.03  -0.01    -0.01   0.01   0.03
  70   1     0.01   0.02   0.02    -0.00   0.03  -0.00    -0.01   0.01   0.02
  71   1     0.00   0.01   0.03     0.03  -0.12   0.00    -0.01  -0.02   0.01
  72   1     0.00   0.01   0.03     0.04  -0.15   0.01    -0.01  -0.02  -0.00
  73   1    -0.01  -0.01   0.03     0.01  -0.03   0.01    -0.01   0.02  -0.02
  74   1    -0.01  -0.02   0.01     0.01  -0.04   0.01    -0.01   0.02  -0.03
  75   1     0.00   0.00  -0.02    -0.01  -0.02   0.02     0.01   0.00  -0.03
  76   1    -0.00  -0.01  -0.07    -0.02  -0.00   0.01     0.01   0.00   0.02
  77   1    -0.01  -0.01  -0.09    -0.01   0.01  -0.00     0.01   0.00   0.05
  78   1    -0.05  -0.03   0.03     0.01  -0.01   0.00     0.07   0.03  -0.06
  79   1    -0.02  -0.01   0.06     0.03  -0.02   0.00     0.02   0.02  -0.09
  80   1    -0.03  -0.01   0.06     0.02  -0.03   0.01     0.03   0.03  -0.11
  81   1     0.02   0.03   0.05     0.03  -0.02   0.00    -0.04  -0.03  -0.08
  82   1     0.02   0.04   0.04     0.03  -0.02   0.01    -0.05  -0.04  -0.09
  83   1     0.04   0.04   0.01     0.03  -0.02   0.00    -0.08  -0.03  -0.04
  84   1    -0.00   0.01   0.05     0.04  -0.01  -0.00    -0.01  -0.01  -0.06
  85   1    -0.01   0.00   0.03     0.05   0.01  -0.01    -0.00  -0.00  -0.01
  86   1    -0.01  -0.01  -0.04     0.04   0.02  -0.02     0.01   0.00   0.08
  87   1    -0.01  -0.02  -0.08     0.02   0.02  -0.02     0.01   0.01   0.10
  88   1    -0.01  -0.01  -0.08     0.01   0.02  -0.01     0.01   0.01   0.07
  89   1     0.01   0.03   0.01     0.01  -0.02   0.01     0.01  -0.01  -0.03
  90   1     0.01   0.04   0.02     0.01  -0.02   0.01     0.01  -0.01  -0.02
  91   1     0.01   0.01   0.03    -0.03   0.12   0.00     0.01   0.02  -0.01
  92   1     0.01  -0.00   0.03    -0.03   0.15  -0.00     0.01   0.02  -0.00
  93   1    -0.00  -0.03   0.03    -0.01   0.02  -0.00     0.01  -0.02   0.02
  94   1    -0.00  -0.03   0.02    -0.01   0.03  -0.01     0.01  -0.02   0.03
                      7                      8                      9
                        a                      a                      a 
 Frequencies --    36.0254                37.7761                44.9142
 Red. masses --    11.2376                10.3331                10.7204
 Frc consts  --     0.0000                 0.0000                 0.0000
 IR Inten    --     0.5294                 0.4653                 0.2420
 Raman Activ --     0.0000                 0.0000                 0.0000
 Depolar     --     0.0000                 0.0000                 0.0000
 Atom AN      X      Y      Z        X      Y      Z        X      Y      Z
   1   6    -0.11   0.08   0.08     0.09   0.07  -0.27    -0.09  -0.00   0.19
   2   6    -0.06   0.07   0.04    -0.03   0.01  -0.14     0.03   0.01   0.09
   3   6    -0.02   0.12   0.07    -0.19  -0.05  -0.22     0.16   0.05   0.16
   4   6    -0.08   0.03   0.01    -0.03   0.01  -0.03     0.01  -0.00  -0.00
   5   6    -0.13   0.02   0.01    -0.04   0.01   0.02    -0.01  -0.02  -0.14
   6   6    -0.16  -0.02  -0.01    -0.04   0.01   0.13    -0.02  -0.03  -0.21
   7   6    -0.13  -0.07  -0.04    -0.02  -0.00   0.18    -0.00  -0.02  -0.11
   8   6    -0.09  -0.06  -0.03    -0.01  -0.01   0.12     0.02  -0.01   0.05
   9   6    -0.06  -0.02  -0.00    -0.02  -0.00   0.00     0.03   0.00   0.11
  10   7    -0.01  -0.01   0.02    -0.01  -0.01  -0.09     0.06   0.02   0.30
  11   6     0.01   0.03   0.02    -0.00  -0.00  -0.09     0.04   0.01   0.13
  12   6     0.06   0.02   0.02     0.01  -0.00  -0.09     0.04   0.01   0.07
  13   6     0.09   0.06   0.02     0.02   0.01  -0.08     0.03  -0.00  -0.09
  14   6     0.06   0.10   0.01     0.02   0.03  -0.05     0.02  -0.01  -0.16
  15   6     0.02   0.11   0.01     0.00   0.03  -0.05     0.02   0.00  -0.09
  16   6     0.01   0.12  -0.01     0.01   0.04  -0.01     0.01   0.01  -0.10
  17   6     0.00   0.11  -0.01     0.04   0.04   0.01     0.04  -0.05  -0.09
  18   6     0.02   0.04  -0.02     0.05   0.02   0.06     0.04  -0.05  -0.08
  19   6     0.04  -0.02  -0.03     0.03  -0.00   0.08     0.01   0.01  -0.07
  20   6     0.07  -0.13  -0.03     0.04  -0.03   0.11     0.01   0.01  -0.05
  21   6     0.08  -0.19  -0.03     0.05  -0.06   0.11     0.04   0.02  -0.04
  22   6     0.09  -0.22  -0.03     0.05  -0.07   0.12     0.04   0.02  -0.01
  23   6     0.08  -0.20  -0.03     0.04  -0.06   0.12     0.01   0.00   0.01
  24   7     0.08  -0.18  -0.03     0.04  -0.05   0.13     0.01  -0.00   0.04
  25   6     0.07  -0.13  -0.03     0.04  -0.03   0.11    -0.01  -0.01   0.05
  26   6     0.05  -0.02  -0.03     0.03   0.00   0.08    -0.01  -0.01   0.07
  27   6     0.05   0.02  -0.03    -0.01   0.02   0.06     0.01  -0.06   0.08
  28   6     0.04   0.10  -0.02    -0.02   0.04   0.02     0.01  -0.06   0.09
  29   6     0.02   0.12  -0.01     0.01   0.04  -0.01    -0.01  -0.00   0.09
  30   6     0.03   0.11   0.01     0.01   0.03  -0.04    -0.02   0.00   0.08
  31   6     0.07   0.10   0.01     0.02   0.03  -0.05    -0.02   0.01   0.15
  32   6     0.09   0.06   0.02     0.02   0.01  -0.08    -0.03   0.01   0.08
  33   6     0.07   0.02   0.02     0.01  -0.00  -0.10    -0.04  -0.01  -0.07
  34   6     0.02   0.03   0.02    -0.00  -0.00  -0.09    -0.04  -0.01  -0.12
  35   6     0.00   0.07   0.02    -0.01   0.01  -0.08    -0.03  -0.01  -0.04
  36   6    -0.05   0.08   0.04    -0.03   0.01  -0.14    -0.03  -0.01  -0.09
  37   6    -0.10   0.08   0.08     0.09   0.06  -0.26     0.09  -0.00  -0.19
  38   6    -0.01   0.12   0.07    -0.19  -0.05  -0.22    -0.16  -0.05  -0.16
  39   6    -0.08   0.03   0.01    -0.03   0.01  -0.03    -0.01   0.00   0.01
  40   6    -0.13   0.03   0.01    -0.04   0.01   0.02     0.00   0.02   0.14
  41   6    -0.16  -0.02  -0.02    -0.04   0.01   0.12     0.01   0.03   0.20
  42   6    -0.14  -0.06  -0.05    -0.03   0.00   0.18     0.00   0.02   0.11
  43   6    -0.08  -0.06  -0.04    -0.02  -0.01   0.11    -0.02   0.01  -0.05
  44   6    -0.06  -0.02  -0.00    -0.02  -0.00   0.00    -0.03  -0.01  -0.10
  45   7    -0.01  -0.01   0.02    -0.01  -0.02  -0.09    -0.05  -0.03  -0.29
  46   6     0.01   0.11  -0.02     0.04   0.04   0.01    -0.03   0.05   0.09
  47   6     0.02   0.04  -0.03     0.05   0.02   0.06    -0.03   0.04   0.08
  48   6     0.08  -0.19  -0.03     0.04  -0.04   0.11    -0.03  -0.03   0.04
  49   6     0.09  -0.23  -0.03     0.04  -0.05   0.12    -0.03  -0.03   0.01
  50   6     0.08  -0.20  -0.03     0.04  -0.05   0.12    -0.01  -0.01  -0.01
  51   7     0.08  -0.18  -0.03     0.03  -0.05   0.12    -0.01  -0.00  -0.04
  52   6     0.05   0.02  -0.02    -0.01   0.01   0.06    -0.01   0.07  -0.08
  53   6     0.03   0.10  -0.01    -0.02   0.03   0.02    -0.01   0.07  -0.09
  54   6    -0.01   0.07   0.02    -0.01   0.02  -0.08     0.03   0.01   0.04
  55   1    -0.03   0.02   0.04     0.03   0.03  -0.11    -0.02   0.00   0.08
  56   1    -0.04   0.03   0.02     0.07   0.02  -0.06    -0.05  -0.01   0.04
  57   1    -0.03   0.02   0.02     0.01   0.02  -0.08    -0.03  -0.00   0.06
  58   1     0.01   0.03   0.01    -0.09  -0.01  -0.04     0.07   0.02   0.03
  59   1    -0.01   0.03   0.02    -0.05  -0.02  -0.07     0.05   0.02   0.05
  60   1    -0.00   0.04   0.03    -0.06  -0.03  -0.10     0.05   0.02   0.07
  61   1    -0.04   0.02   0.01    -0.02   0.00  -0.01    -0.00  -0.00  -0.06
  62   1    -0.06  -0.01  -0.00    -0.01   0.00   0.05    -0.01  -0.01  -0.09
  63   1    -0.04  -0.03  -0.02    -0.01  -0.00   0.08    -0.00  -0.01  -0.05
  64   1    -0.02  -0.03  -0.01    -0.00  -0.00   0.04     0.01  -0.00   0.04
  65   1     0.00  -0.01   0.00    -0.00  -0.01  -0.02     0.02   0.01   0.09
  66   1     0.02  -0.00   0.01     0.00  -0.00  -0.03     0.01   0.00   0.04
  67   1     0.04   0.02   0.01     0.01   0.00  -0.03     0.01  -0.00  -0.04
  68   1     0.02   0.04   0.00     0.01   0.01  -0.01     0.00  -0.00  -0.08
  69   1    -0.00   0.04  -0.00     0.02   0.01  -0.00     0.01  -0.02  -0.03
  70   1     0.00   0.01  -0.01     0.02   0.00   0.02     0.02  -0.03  -0.02
  71   1     0.02  -0.06  -0.01     0.01  -0.02   0.03     0.01   0.01  -0.01
  72   1     0.03  -0.07  -0.01     0.02  -0.02   0.03     0.02   0.01   0.00
  73   1     0.02  -0.00  -0.01    -0.01   0.00   0.02     0.01  -0.03   0.02
  74   1     0.01   0.03  -0.00    -0.02   0.02   0.00     0.00  -0.02   0.03
  75   1     0.03   0.04   0.00     0.01   0.01  -0.01    -0.00   0.01   0.07
  76   1     0.04   0.02   0.01     0.01   0.00  -0.03    -0.01   0.00   0.04
  77   1     0.02  -0.00   0.01     0.00  -0.01  -0.03    -0.01  -0.00  -0.04
  78   1    -0.04   0.03   0.02     0.07   0.02  -0.06     0.05   0.00  -0.04
  79   1    -0.03   0.02   0.02     0.01   0.02  -0.08     0.03  -0.00  -0.06
  80   1    -0.03   0.02   0.04     0.03   0.03  -0.11     0.02  -0.00  -0.08
  81   1    -0.01   0.04   0.03    -0.04  -0.01  -0.07    -0.05  -0.01  -0.05
  82   1     0.00   0.05   0.03    -0.06  -0.03  -0.10    -0.05  -0.02  -0.07
  83   1     0.01   0.03   0.01    -0.09  -0.01  -0.04    -0.07  -0.01  -0.03
  84   1    -0.04   0.02   0.01    -0.02   0.00  -0.01     0.00   0.01   0.06
  85   1    -0.06  -0.01  -0.01    -0.01   0.00   0.05     0.01   0.01   0.09
  86   1    -0.05  -0.03  -0.02    -0.01  -0.00   0.08     0.00   0.01   0.05
  87   1    -0.02  -0.03  -0.02    -0.00  -0.00   0.04    -0.01  -0.00  -0.04
  88   1     0.00  -0.01   0.00    -0.00  -0.01  -0.02    -0.02  -0.01  -0.08
  89   1    -0.00   0.04  -0.00     0.02   0.01  -0.00    -0.01   0.02   0.02
  90   1     0.00   0.01  -0.01     0.02   0.00   0.02    -0.01   0.02   0.02
  91   1     0.02  -0.06  -0.01     0.01  -0.01   0.03    -0.01  -0.01   0.01
  92   1     0.03  -0.08  -0.01     0.01  -0.02   0.03    -0.02  -0.01  -0.00
  93   1     0.02  -0.00  -0.01    -0.01   0.00   0.02    -0.01   0.03  -0.02
  94   1     0.01   0.03  -0.00    -0.02   0.01   0.00    -0.01   0.03  -0.03
                     10                     11                     12
                        a                      a                      a 
 Frequencies --    49.4483                55.7952                62.6158
 Red. masses --    10.5217                 9.6714                 9.5885
 Frc consts  --     0.0000                 0.0000                 0.0000
 IR Inten    --     1.2383                 0.0980                 0.2765
 Raman Activ --     0.0000                 0.0000                 0.0000
 Depolar     --     0.0000                 0.0000                 0.0000
 Atom AN      X      Y      Z        X      Y      Z        X      Y      Z
   1   6     0.06  -0.02  -0.07     0.02  -0.02   0.01     0.03  -0.00   0.02
   2   6    -0.00  -0.01  -0.03     0.03  -0.00  -0.01     0.00   0.01   0.03
   3   6    -0.06  -0.00  -0.06     0.05   0.03  -0.00    -0.03   0.01   0.02
   4   6     0.01  -0.00   0.02     0.03  -0.01  -0.01     0.00   0.01   0.05
   5   6     0.02   0.01   0.14     0.03  -0.00   0.01     0.01   0.01   0.14
   6   6     0.03   0.02   0.15     0.02  -0.01  -0.02     0.01   0.01   0.14
   7   6     0.01   0.01   0.01     0.02  -0.02  -0.06     0.00   0.00   0.04
   8   6    -0.01  -0.01  -0.12     0.03  -0.02  -0.06    -0.01  -0.01  -0.07
   9   6    -0.01  -0.01  -0.11     0.03  -0.01  -0.03    -0.01  -0.01  -0.07
  10   7    -0.03  -0.02  -0.24     0.04  -0.01  -0.00    -0.02  -0.02  -0.19
  11   6    -0.01  -0.01  -0.05     0.04  -0.00   0.04    -0.00  -0.01  -0.06
  12   6     0.00   0.00   0.06     0.06   0.01   0.15    -0.00  -0.01  -0.06
  13   6     0.02   0.02   0.22     0.07   0.02   0.19     0.01   0.01   0.04
  14   6     0.02   0.01   0.24     0.06   0.01   0.11     0.01   0.01   0.09
  15   6     0.01   0.00   0.10     0.04   0.00  -0.00     0.01   0.01   0.08
  16   6     0.00  -0.00   0.06     0.03   0.01  -0.05     0.01   0.01   0.06
  17   6    -0.07   0.13   0.03    -0.04   0.26  -0.09     0.02  -0.24   0.07
  18   6    -0.07   0.14  -0.01    -0.05   0.28  -0.10     0.02  -0.26   0.02
  19   6    -0.01   0.01  -0.03     0.01   0.04  -0.08    -0.00  -0.01  -0.03
  20   6    -0.01   0.01  -0.06     0.01   0.03  -0.07    -0.00  -0.01  -0.06
  21   6    -0.02   0.01  -0.06     0.05  -0.01  -0.05    -0.01  -0.01  -0.07
  22   6    -0.02   0.00  -0.06     0.05  -0.03  -0.01    -0.01   0.00  -0.07
  23   6    -0.01   0.00  -0.07     0.02  -0.02   0.01    -0.00   0.00  -0.07
  24   7    -0.01   0.00  -0.07     0.02  -0.04   0.05     0.00   0.00  -0.07
  25   6    -0.01   0.00  -0.06    -0.01  -0.03   0.06    -0.01  -0.02  -0.06
  26   6    -0.01   0.00  -0.03    -0.01  -0.04   0.08    -0.00  -0.01  -0.02
  27   6     0.06  -0.15  -0.00    -0.07   0.19   0.06    -0.01   0.23  -0.02
  28   6     0.07  -0.15   0.04    -0.07   0.21   0.05    -0.00   0.24   0.02
  29   6     0.00  -0.00   0.06    -0.03  -0.01   0.06     0.01   0.01   0.07
  30   6     0.01   0.00   0.11    -0.04  -0.00   0.01     0.01   0.01   0.08
  31   6     0.02   0.02   0.25    -0.06  -0.01  -0.09     0.01   0.01   0.08
  32   6     0.02   0.02   0.24    -0.07  -0.02  -0.17     0.00   0.00   0.02
  33   6     0.00   0.01   0.07    -0.06  -0.01  -0.14    -0.01  -0.01  -0.06
  34   6    -0.01  -0.01  -0.06    -0.04   0.00  -0.05    -0.01  -0.01  -0.06
  35   6    -0.00  -0.01  -0.01    -0.04   0.00   0.01    -0.00   0.00   0.02
  36   6     0.00  -0.01  -0.03    -0.03   0.00   0.01     0.00   0.00   0.03
  37   6     0.06  -0.03  -0.07    -0.02   0.02  -0.01     0.03  -0.00   0.01
  38   6    -0.06  -0.00  -0.06    -0.05  -0.03  -0.00    -0.03   0.01   0.02
  39   6     0.01  -0.00   0.02    -0.03   0.01   0.01     0.00   0.01   0.04
  40   6     0.03   0.01   0.15    -0.03   0.01   0.00     0.01   0.02   0.13
  41   6     0.03   0.02   0.16    -0.02   0.01   0.02     0.01   0.02   0.13
  42   6     0.01   0.01   0.01    -0.02   0.02   0.06     0.00   0.01   0.04
  43   6    -0.01  -0.01  -0.13    -0.03   0.02   0.05    -0.01  -0.01  -0.06
  44   6    -0.01  -0.01  -0.12    -0.03   0.01   0.02    -0.01  -0.01  -0.06
  45   7    -0.03  -0.03  -0.26    -0.04   0.01  -0.01    -0.02  -0.02  -0.17
  46   6    -0.07   0.15   0.02     0.03  -0.24   0.09     0.01  -0.24   0.08
  47   6    -0.07   0.16  -0.02     0.03  -0.27   0.10     0.01  -0.25   0.03
  48   6    -0.01  -0.00  -0.06    -0.05  -0.00   0.05    -0.01  -0.02  -0.06
  49   6    -0.01  -0.01  -0.06    -0.05   0.02   0.01    -0.01  -0.01  -0.07
  50   6    -0.00  -0.00  -0.07    -0.02   0.01  -0.01    -0.00  -0.00  -0.07
  51   7    -0.00  -0.00  -0.07    -0.02   0.03  -0.06    -0.00   0.00  -0.08
  52   6     0.06  -0.13  -0.00     0.08  -0.20  -0.06    -0.01   0.24  -0.03
  53   6     0.07  -0.13   0.04     0.09  -0.21  -0.05    -0.01   0.25   0.02
  54   6    -0.00  -0.01  -0.01     0.04  -0.00  -0.01     0.00   0.00   0.02
  55   1     0.01  -0.03  -0.02    -0.01  -0.06   0.04     0.02   0.06  -0.04
  56   1     0.01   0.02  -0.01    -0.04   0.04   0.00     0.06  -0.06   0.00
  57   1     0.04  -0.01  -0.03     0.06  -0.00  -0.03    -0.05  -0.00   0.05
  58   1    -0.01  -0.02  -0.01     0.06  -0.04   0.00    -0.06   0.06   0.00
  59   1    -0.05  -0.00  -0.03    -0.05   0.00  -0.03     0.06   0.01   0.04
  60   1    -0.01   0.03  -0.02     0.03   0.08   0.03    -0.03  -0.06  -0.03
  61   1     0.01   0.01   0.07     0.01   0.00   0.01     0.01   0.01   0.06
  62   1     0.01   0.01   0.07     0.01  -0.00  -0.00     0.01   0.01   0.06
  63   1     0.00   0.00   0.00     0.00  -0.01  -0.03     0.00   0.00   0.01
  64   1    -0.01  -0.00  -0.07     0.01  -0.01  -0.02    -0.01  -0.01  -0.05
  65   1    -0.01  -0.01  -0.07     0.01  -0.00   0.01    -0.01  -0.01  -0.06
  66   1    -0.00   0.00   0.01     0.02   0.00   0.06    -0.00  -0.00  -0.04
  67   1     0.01   0.01   0.10     0.02   0.01   0.08     0.00   0.00   0.01
  68   1     0.01   0.01   0.10     0.02   0.01   0.04     0.01   0.01   0.04
  69   1    -0.03   0.06   0.01    -0.03   0.12  -0.03     0.01  -0.12   0.03
  70   1    -0.04   0.08  -0.01    -0.03   0.14  -0.04     0.01  -0.14   0.01
  71   1    -0.01   0.00  -0.02     0.02  -0.01  -0.02    -0.00   0.00  -0.02
  72   1    -0.01   0.00  -0.02     0.03  -0.02   0.00    -0.00   0.00  -0.02
  73   1     0.03  -0.08  -0.00    -0.03   0.10   0.01    -0.00   0.12  -0.02
  74   1     0.03  -0.07   0.02    -0.03   0.11   0.01    -0.00   0.12   0.01
  75   1     0.01   0.01   0.10    -0.02  -0.01  -0.03     0.00   0.00   0.04
  76   1     0.01   0.01   0.10    -0.02  -0.01  -0.07     0.00   0.00   0.01
  77   1    -0.00   0.00   0.01    -0.02  -0.00  -0.06    -0.00  -0.00  -0.04
  78   1     0.01   0.02  -0.01     0.03  -0.04  -0.00     0.05  -0.06   0.00
  79   1     0.05  -0.01  -0.04    -0.05   0.01   0.03    -0.05   0.00   0.05
  80   1     0.01  -0.04  -0.01     0.01   0.05  -0.04     0.02   0.05  -0.04
  81   1    -0.05  -0.00  -0.03     0.05  -0.00   0.02     0.06   0.01   0.04
  82   1    -0.01   0.03  -0.02    -0.04  -0.07  -0.02    -0.03  -0.06  -0.03
  83   1    -0.01  -0.03  -0.01    -0.06   0.05  -0.00    -0.06   0.06   0.00
  84   1     0.01   0.01   0.07    -0.01  -0.00  -0.01     0.00   0.01   0.05
  85   1     0.01   0.01   0.08    -0.01   0.00   0.00     0.01   0.01   0.06
  86   1     0.00   0.00   0.00    -0.00   0.01   0.02     0.00   0.00   0.01
  87   1    -0.01  -0.01  -0.07    -0.01   0.01   0.02    -0.01  -0.00  -0.04
  88   1    -0.01  -0.01  -0.07    -0.01   0.00  -0.01    -0.01  -0.01  -0.06
  89   1    -0.03   0.07   0.01     0.02  -0.12   0.03     0.00  -0.12   0.04
  90   1    -0.04   0.08  -0.02     0.02  -0.14   0.04     0.01  -0.13   0.01
  91   1    -0.00  -0.00  -0.02    -0.02   0.01   0.02    -0.01  -0.00  -0.02
  92   1    -0.00  -0.01  -0.02    -0.03   0.02  -0.00    -0.01  -0.00  -0.02
  93   1     0.03  -0.07  -0.00     0.04  -0.11  -0.02    -0.01   0.13  -0.02
  94   1     0.03  -0.07   0.02     0.04  -0.11  -0.01    -0.00   0.12   0.01
                     13                     14                     15
                        a                      a                      a 
 Frequencies --    69.1226                79.7525                99.2023
 Red. masses --    10.9016                11.1478                 9.2126
 Frc consts  --     0.0000                 0.0000                 0.0000
 IR Inten    --     1.5095                 0.5685                 2.8036
 Raman Activ --     0.0000                 0.0000                 0.0000
 Depolar     --     0.0000                 0.0000                 0.0000
 Atom AN      X      Y      Z        X      Y      Z        X      Y      Z
   1   6     0.10  -0.02   0.02     0.03  -0.03  -0.03    -0.01   0.00   0.00
   2   6     0.09  -0.01   0.02     0.02  -0.06  -0.01     0.00   0.00  -0.00
   3   6     0.07   0.02   0.02     0.02  -0.12  -0.03     0.01   0.00   0.00
   4   6     0.09  -0.02   0.03     0.04  -0.03  -0.03     0.00  -0.00  -0.01
   5   6     0.09  -0.01   0.09     0.07  -0.04  -0.10    -0.00  -0.00  -0.01
   6   6     0.09  -0.01   0.09     0.08  -0.01  -0.10     0.00  -0.00   0.00
   7   6     0.09  -0.03  -0.00     0.08   0.03  -0.00     0.00  -0.00   0.01
   8   6     0.08  -0.03  -0.07     0.05   0.03   0.07     0.00  -0.00   0.01
   9   6     0.08  -0.03  -0.06     0.03  -0.00   0.05     0.00  -0.00  -0.00
  10   7     0.08  -0.04  -0.12     0.01   0.00   0.09     0.00  -0.00  -0.01
  11   6     0.09  -0.02  -0.03    -0.02  -0.03   0.00     0.00  -0.00  -0.01
  12   6     0.10  -0.02   0.02    -0.05  -0.04  -0.10     0.01  -0.00  -0.00
  13   6     0.12  -0.01   0.09    -0.07  -0.06  -0.15     0.01   0.00   0.00
  14   6     0.11  -0.00   0.08    -0.05  -0.08  -0.07     0.01   0.00   0.00
  15   6     0.09  -0.01   0.03    -0.02  -0.07   0.02     0.00   0.00   0.00
  16   6     0.06   0.03  -0.00    -0.02  -0.04   0.08     0.00   0.00   0.00
  17   6     0.05  -0.05  -0.01    -0.03   0.09   0.07     0.00   0.00   0.00
  18   6     0.03   0.01  -0.05    -0.05   0.20   0.09     0.00   0.00   0.00
  19   6     0.01   0.16  -0.07    -0.06   0.19   0.10     0.00   0.00   0.00
  20   6     0.00   0.15  -0.07    -0.07   0.20   0.08     0.00  -0.00   0.00
  21   6     0.04   0.07  -0.06    -0.08   0.07   0.06     0.00  -0.00   0.00
  22   6     0.06  -0.02  -0.01    -0.05  -0.07   0.02     0.00  -0.00   0.00
  23   6     0.02  -0.06   0.01    -0.00  -0.09  -0.01    -0.00  -0.00   0.00
  24   7     0.04  -0.17   0.06     0.03  -0.25  -0.06    -0.00   0.00   0.00
  25   6    -0.00  -0.15   0.08     0.06  -0.20  -0.08    -0.00   0.00   0.00
  26   6    -0.01  -0.16   0.07     0.06  -0.19  -0.10    -0.00   0.00  -0.00
  27   6    -0.03  -0.28   0.07     0.05  -0.06  -0.10     0.00  -0.04   0.00
  28   6    -0.05  -0.20   0.02     0.04   0.05  -0.09     0.00  -0.04  -0.00
  29   6    -0.07  -0.03  -0.00     0.03   0.04  -0.08    -0.00  -0.00  -0.00
  30   6    -0.09   0.01  -0.04     0.02   0.07  -0.02    -0.00  -0.00  -0.00
  31   6    -0.11   0.00  -0.08     0.05   0.08   0.07    -0.02  -0.02  -0.15
  32   6    -0.11   0.01  -0.09     0.07   0.06   0.15    -0.02  -0.02  -0.13
  33   6    -0.10   0.02  -0.02     0.05   0.04   0.10    -0.00   0.00   0.04
  34   6    -0.08   0.03   0.03     0.02   0.03  -0.00     0.01   0.02   0.14
  35   6    -0.08   0.02  -0.00     0.01   0.05  -0.02     0.01   0.01   0.13
  36   6    -0.09   0.02  -0.02    -0.02   0.06   0.01     0.01   0.01   0.14
  37   6    -0.10   0.03  -0.02    -0.02   0.03   0.03     0.29   0.00  -0.09
  38   6    -0.07  -0.01  -0.02    -0.02   0.12   0.03    -0.31  -0.02  -0.02
  39   6    -0.09   0.02  -0.03    -0.04   0.04   0.03     0.03   0.03   0.27
  40   6    -0.09   0.01  -0.10    -0.06   0.04   0.10     0.03   0.03   0.26
  41   6    -0.09   0.02  -0.09    -0.08   0.01   0.10    -0.00  -0.01  -0.05
  42   6    -0.09   0.03  -0.00    -0.08  -0.03   0.00    -0.04  -0.04  -0.39
  43   6    -0.08   0.04   0.07    -0.05  -0.03  -0.07    -0.03  -0.03  -0.29
  44   6    -0.08   0.03   0.06    -0.03   0.00  -0.05     0.01   0.01   0.07
  45   7    -0.08   0.05   0.13    -0.00  -0.00  -0.10     0.02   0.03   0.22
  46   6    -0.05   0.06   0.00     0.03  -0.10  -0.07    -0.01   0.04  -0.01
  47   6    -0.03   0.00   0.04     0.05  -0.21  -0.08    -0.01   0.05  -0.01
  48   6    -0.04  -0.09   0.06     0.07  -0.07  -0.06    -0.00   0.00   0.00
  49   6    -0.05   0.01   0.02     0.05   0.07  -0.02     0.00  -0.00   0.00
  50   6    -0.02   0.04  -0.01    -0.00   0.08   0.01     0.00  -0.00   0.00
  51   7    -0.04   0.16  -0.06    -0.04   0.24   0.06     0.00  -0.00   0.00
  52   6     0.02   0.26  -0.06    -0.06   0.07   0.10     0.00   0.00   0.00
  53   6     0.04   0.19  -0.02    -0.04  -0.04   0.09     0.00   0.00   0.00
  54   6     0.08  -0.01   0.00    -0.01  -0.05   0.02     0.00   0.00  -0.00
  55   1     0.04   0.04  -0.03     0.01  -0.02   0.00    -0.00  -0.00   0.00
  56   1     0.06  -0.05   0.00    -0.00   0.01  -0.00    -0.01   0.00  -0.00
  57   1    -0.02  -0.01   0.04     0.02  -0.01  -0.03    -0.00   0.00  -0.00
  58   1     0.00   0.03   0.00     0.03  -0.08   0.00     0.01  -0.00  -0.00
  59   1     0.04   0.01   0.02    -0.03  -0.04  -0.04     0.00   0.00  -0.00
  60   1     0.01  -0.02  -0.01     0.02   0.00   0.01     0.00   0.00   0.00
  61   1     0.03  -0.00   0.04     0.02  -0.02  -0.05    -0.00  -0.00  -0.00
  62   1     0.03  -0.00   0.04     0.03  -0.00  -0.05    -0.00  -0.00   0.00
  63   1     0.02  -0.01  -0.00     0.03   0.02   0.00     0.00  -0.00   0.01
  64   1     0.02  -0.01  -0.04     0.01   0.02   0.04     0.00  -0.00   0.01
  65   1     0.02  -0.01  -0.04    -0.00   0.01   0.02     0.00  -0.00  -0.00
  66   1     0.03  -0.01   0.00    -0.02  -0.01  -0.04     0.00  -0.00  -0.00
  67   1     0.04  -0.00   0.04    -0.03  -0.02  -0.07     0.00   0.00   0.00
  68   1     0.04   0.00   0.03    -0.02  -0.03  -0.02     0.00   0.00   0.00
  69   1     0.01  -0.05   0.01    -0.00   0.03   0.02     0.00   0.00   0.00
  70   1     0.01  -0.02  -0.01    -0.02   0.09   0.02     0.00  -0.00   0.00
  71   1     0.01   0.03  -0.02    -0.03   0.02   0.02     0.00  -0.00   0.00
  72   1     0.03  -0.02   0.00    -0.02  -0.05  -0.00     0.00   0.00   0.00
  73   1    -0.01  -0.12   0.03     0.02  -0.01  -0.03     0.00  -0.02   0.00
  74   1    -0.02  -0.08   0.01     0.01   0.04  -0.03    -0.00  -0.01  -0.00
  75   1    -0.03  -0.00  -0.03     0.02   0.03   0.02    -0.01  -0.01  -0.08
  76   1    -0.04   0.00  -0.04     0.03   0.02   0.07    -0.01  -0.01  -0.07
  77   1    -0.03   0.01   0.00     0.02   0.01   0.04    -0.00   0.00   0.02
  78   1    -0.06   0.06  -0.00     0.00  -0.02   0.01     0.20  -0.07   0.00
  79   1     0.02   0.01  -0.05    -0.02   0.01   0.03     0.02   0.00   0.03
  80   1    -0.04  -0.04   0.03    -0.00   0.02  -0.01     0.10   0.07  -0.15
  81   1    -0.04  -0.01  -0.02     0.04   0.04   0.04    -0.02  -0.00   0.03
  82   1    -0.01   0.02   0.01    -0.02  -0.01  -0.01    -0.12  -0.10  -0.11
  83   1    -0.00  -0.03  -0.00    -0.03   0.08  -0.00    -0.20   0.07   0.03
  84   1    -0.03   0.00  -0.04    -0.02   0.02   0.05     0.01   0.01   0.13
  85   1    -0.03   0.00  -0.04    -0.03   0.01   0.05    -0.00  -0.00  -0.02
  86   1    -0.02   0.01   0.00    -0.03  -0.01  -0.00    -0.02  -0.02  -0.21
  87   1    -0.02   0.01   0.04    -0.01  -0.02  -0.04    -0.02  -0.02  -0.15
  88   1    -0.02   0.01   0.04     0.00  -0.01  -0.03     0.00   0.00   0.02
  89   1    -0.01   0.05  -0.01     0.00  -0.03  -0.02    -0.00   0.01  -0.00
  90   1    -0.01   0.03   0.01     0.02  -0.09  -0.02    -0.01   0.03  -0.00
  91   1    -0.01  -0.03   0.02     0.03  -0.02  -0.02     0.00  -0.00   0.00
  92   1    -0.03   0.02  -0.00     0.02   0.05  -0.00     0.00  -0.00   0.00
  93   1     0.01   0.11  -0.03    -0.02   0.02   0.03     0.00   0.00   0.00
  94   1     0.01   0.07  -0.01    -0.01  -0.03   0.02     0.00   0.00   0.00
                     16                     17                     18
                        a                      a                      a 
 Frequencies --    99.2634               104.1949               109.1012
 Red. masses --     9.2444                10.5799                 9.4943
 Frc consts  --     0.0000                 0.0000                 0.0000
 IR Inten    --     3.5211                 0.7198                 0.9097
 Raman Activ --     0.0000                 0.0000                 0.0000
 Depolar     --     0.0000                 0.0000                 0.0000
 Atom AN      X      Y      Z        X      Y      Z        X      Y      Z
   1   6     0.29   0.02  -0.09    -0.08  -0.16   0.05     0.02   0.11  -0.03
   2   6     0.01   0.01   0.14    -0.07  -0.06  -0.01     0.01  -0.01   0.04
   3   6    -0.31  -0.04  -0.02    -0.04   0.01   0.02    -0.02  -0.14  -0.01
   4   6     0.03   0.03   0.27    -0.04  -0.02  -0.00     0.01  -0.01   0.01
   5   6     0.03   0.02   0.26     0.01  -0.01   0.05     0.01  -0.01  -0.06
   6   6    -0.00  -0.00  -0.05     0.03   0.03   0.06     0.01  -0.01  -0.08
   7   6    -0.04  -0.04  -0.39     0.00   0.06  -0.00     0.01   0.00   0.00
   8   6    -0.03  -0.03  -0.29    -0.05   0.05  -0.05     0.01   0.01   0.07
   9   6     0.01   0.01   0.07    -0.07   0.02  -0.03     0.01   0.00   0.05
  10   7     0.02   0.02   0.22    -0.11   0.02  -0.03     0.00   0.00   0.04
  11   6     0.01   0.01   0.14    -0.11  -0.01   0.02    -0.00  -0.01  -0.02
  12   6    -0.00   0.00   0.04    -0.13   0.01   0.18    -0.03  -0.03  -0.24
  13   6    -0.02  -0.01  -0.13    -0.15  -0.02   0.19    -0.03  -0.03  -0.22
  14   6    -0.02  -0.02  -0.15    -0.15  -0.07   0.02     0.00  -0.01   0.03
  15   6    -0.00  -0.00   0.00    -0.11  -0.08  -0.10     0.02   0.01   0.18
  16   6    -0.00  -0.00  -0.00    -0.09  -0.10  -0.13     0.02   0.02   0.20
  17   6    -0.01   0.04  -0.01    -0.03  -0.09  -0.10    -0.07   0.03   0.16
  18   6    -0.01   0.05  -0.00    -0.03  -0.02  -0.06    -0.09   0.05   0.06
  19   6    -0.00   0.00   0.00    -0.06   0.05  -0.05    -0.01   0.03   0.01
  20   6    -0.00   0.00   0.00    -0.05   0.10  -0.01    -0.02   0.01  -0.07
  21   6    -0.00   0.00   0.00    -0.02   0.06   0.00    -0.02  -0.03  -0.08
  22   6     0.00  -0.00   0.00    -0.00  -0.00   0.01    -0.01  -0.04  -0.09
  23   6     0.00  -0.00   0.00     0.02  -0.03   0.01     0.01  -0.01  -0.10
  24   7     0.00  -0.00   0.00     0.04  -0.12   0.01     0.01   0.00  -0.10
  25   6     0.00  -0.00   0.00     0.05  -0.09   0.01    -0.01   0.00  -0.07
  26   6     0.00   0.00   0.00     0.06  -0.06   0.05    -0.01   0.03   0.01
  27   6     0.00   0.00   0.00     0.12  -0.04   0.08     0.07   0.03   0.05
  28   6     0.00   0.00   0.00     0.12   0.04   0.12     0.08   0.03   0.15
  29   6     0.00   0.00   0.00     0.10   0.10   0.12     0.01   0.02   0.20
  30   6     0.00   0.00   0.00     0.11   0.08   0.09     0.02   0.01   0.18
  31   6     0.00   0.00  -0.01     0.15   0.06  -0.02    -0.00  -0.01   0.03
  32   6     0.00  -0.00  -0.01     0.15   0.01  -0.19    -0.03  -0.03  -0.22
  33   6     0.00  -0.00  -0.00     0.13  -0.01  -0.18    -0.03  -0.03  -0.24
  34   6     0.00   0.00   0.00     0.11   0.01  -0.02    -0.00  -0.01  -0.02
  35   6     0.00   0.00   0.01     0.10   0.06   0.07     0.01   0.01   0.13
  36   6     0.00   0.00   0.00     0.07   0.06   0.01     0.01  -0.00   0.05
  37   6     0.01   0.00  -0.00     0.08   0.16  -0.05     0.03   0.11  -0.04
  38   6    -0.01  -0.00  -0.00     0.03  -0.01  -0.02    -0.03  -0.14  -0.00
  39   6     0.00   0.00   0.01     0.04   0.02   0.00     0.01  -0.00   0.02
  40   6     0.00   0.00   0.01    -0.01   0.01  -0.05     0.01  -0.01  -0.06
  41   6     0.00  -0.00  -0.00    -0.04  -0.03  -0.06     0.01  -0.01  -0.08
  42   6    -0.00  -0.00  -0.01    -0.01  -0.06   0.00     0.01   0.00  -0.00
  43   6     0.00  -0.00  -0.01     0.04  -0.06   0.05     0.01   0.01   0.06
  44   6     0.00  -0.00   0.00     0.07  -0.02   0.04     0.01   0.00   0.05
  45   7     0.00   0.00   0.01     0.11  -0.02   0.04     0.00   0.00   0.04
  46   6     0.00   0.00   0.00     0.04   0.09   0.10    -0.07   0.04   0.16
  47   6     0.00   0.00   0.00     0.04   0.01   0.06    -0.08   0.05   0.06
  48   6     0.00  -0.00   0.00     0.01  -0.05  -0.00    -0.02  -0.03  -0.08
  49   6     0.00  -0.00   0.00    -0.00   0.02  -0.01    -0.01  -0.04  -0.09
  50   6    -0.00  -0.00   0.00    -0.02   0.04  -0.01     0.01  -0.02  -0.10
  51   7    -0.00   0.00   0.00    -0.05   0.12  -0.01     0.01   0.00  -0.09
  52   6     0.01  -0.04   0.00    -0.12   0.03  -0.08     0.07   0.03   0.05
  53   6     0.00  -0.04   0.00    -0.11  -0.05  -0.12     0.08   0.03   0.15
  54   6     0.01   0.01   0.13    -0.10  -0.06  -0.07     0.01   0.00   0.13
  55   1     0.09   0.07  -0.15    -0.01  -0.01  -0.01    -0.01  -0.02   0.03
  56   1     0.21  -0.06  -0.00    -0.00  -0.10   0.00    -0.03   0.12   0.01
  57   1     0.02   0.00   0.02    -0.05  -0.05   0.07     0.06   0.03  -0.09
  58   1    -0.20   0.06   0.03    -0.04   0.05  -0.01     0.04  -0.13   0.02
  59   1    -0.02  -0.00   0.03     0.04   0.01   0.04    -0.09  -0.06  -0.07
  60   1    -0.12  -0.10  -0.11    -0.03  -0.04  -0.01     0.02   0.03   0.03
  61   1     0.01   0.01   0.13     0.01  -0.01   0.03     0.00  -0.01  -0.03
  62   1    -0.00  -0.00  -0.02     0.02   0.01   0.03     0.00  -0.00  -0.04
  63   1    -0.02  -0.02  -0.21     0.00   0.03  -0.00     0.00   0.00   0.00
  64   1    -0.02  -0.01  -0.15    -0.02   0.02  -0.03     0.00   0.01   0.03
  65   1     0.00   0.00   0.02    -0.03   0.01   0.00    -0.00  -0.00  -0.01
  66   1     0.00   0.00   0.02    -0.04   0.01   0.08    -0.01  -0.01  -0.12
  67   1    -0.01  -0.01  -0.07    -0.05  -0.00   0.09    -0.01  -0.01  -0.12
  68   1    -0.01  -0.01  -0.08    -0.05  -0.03   0.00     0.00  -0.00   0.02
  69   1    -0.00   0.01  -0.00     0.01  -0.03  -0.04    -0.04   0.01   0.06
  70   1    -0.01   0.03  -0.00    -0.00  -0.00  -0.01    -0.04   0.02   0.01
  71   1     0.00  -0.00   0.00    -0.00   0.02  -0.00    -0.01  -0.01  -0.02
  72   1     0.00  -0.00   0.00     0.00  -0.01   0.00    -0.01  -0.02  -0.03
  73   1     0.00  -0.00   0.00     0.05  -0.02   0.01     0.04   0.01   0.00
  74   1     0.00   0.00   0.00     0.04   0.01   0.04     0.04   0.01   0.05
  75   1     0.00   0.00  -0.00     0.05   0.03  -0.00     0.00  -0.00   0.02
  76   1     0.00  -0.00  -0.00     0.05  -0.00  -0.09    -0.01  -0.02  -0.12
  77   1     0.00  -0.00  -0.00     0.04  -0.01  -0.08    -0.01  -0.02  -0.12
  78   1     0.01  -0.00  -0.00     0.01   0.11  -0.00    -0.02   0.12   0.00
  79   1     0.00   0.00   0.00     0.06   0.04  -0.07     0.06   0.03  -0.09
  80   1     0.00   0.00  -0.01     0.02   0.01   0.01    -0.01  -0.02   0.03
  81   1    -0.00  -0.00   0.00    -0.04  -0.01  -0.04    -0.09  -0.05  -0.07
  82   1    -0.00  -0.00  -0.00     0.03   0.04   0.01     0.02   0.03   0.03
  83   1    -0.01   0.00   0.00     0.03  -0.05   0.01     0.04  -0.14   0.03
  84   1     0.00   0.00   0.00    -0.01   0.01  -0.02     0.00  -0.01  -0.03
  85   1    -0.00  -0.00  -0.00    -0.02  -0.01  -0.03     0.00  -0.01  -0.04
  86   1    -0.00  -0.00  -0.01    -0.01  -0.03   0.00     0.00   0.00   0.00
  87   1     0.00  -0.00  -0.00     0.02  -0.02   0.02     0.00   0.01   0.03
  88   1     0.00  -0.00   0.00     0.03  -0.01  -0.00    -0.00  -0.00  -0.01
  89   1     0.00   0.00   0.00    -0.00   0.04   0.04    -0.04   0.01   0.06
  90   1     0.00   0.00   0.00     0.00   0.00   0.01    -0.04   0.02   0.01
  91   1    -0.00   0.00   0.00     0.00  -0.02   0.00    -0.01  -0.02  -0.02
  92   1     0.00   0.00   0.00    -0.00   0.02  -0.00    -0.01  -0.02  -0.03
  93   1     0.00  -0.02   0.00    -0.05   0.02  -0.01     0.04   0.01   0.00
  94   1     0.00  -0.01  -0.00    -0.04  -0.02  -0.04     0.04   0.01   0.05
                     19                     20                     21
                        a                      a                      a 
 Frequencies --   117.9694               134.4333               138.6050
 Red. masses --    10.5147                 5.3372                 5.2316
 Frc consts  --     0.0000                 0.0000                 0.0000
 IR Inten    --     1.1227                 0.2751                 0.5306
 Raman Activ --     0.0000                 0.0000                 0.0000
 Depolar     --     0.0000                 0.0000                 0.0000
 Atom AN      X      Y      Z        X      Y      Z        X      Y      Z
   1   6     0.03  -0.10   0.02     0.03  -0.12   0.02    -0.02   0.11  -0.03
   2   6     0.04  -0.07  -0.01     0.02   0.01  -0.05     0.00  -0.00   0.02
   3   6     0.04  -0.05  -0.00     0.02   0.17  -0.01     0.02  -0.12  -0.01
   4   6     0.05  -0.05  -0.01     0.02   0.00  -0.03     0.00  -0.00   0.02
   5   6     0.10  -0.05  -0.01    -0.00  -0.01  -0.11     0.02   0.01   0.14
   6   6     0.12  -0.01  -0.01    -0.01  -0.02  -0.10     0.02   0.02   0.16
   7   6     0.10   0.02  -0.01     0.01  -0.02   0.03     0.00  -0.00  -0.03
   8   6     0.06   0.02  -0.01     0.03  -0.01   0.09    -0.01  -0.01  -0.14
   9   6     0.04  -0.02  -0.01     0.03  -0.01   0.02    -0.00  -0.01  -0.06
  10   7     0.01  -0.03  -0.00     0.04  -0.01   0.00    -0.00  -0.00  -0.01
  11   6    -0.01  -0.05   0.00     0.03  -0.00  -0.05     0.01   0.01   0.07
  12   6     0.00  -0.04   0.03     0.05   0.00   0.01     0.01   0.01   0.11
  13   6     0.00  -0.04   0.03     0.06   0.01   0.05     0.00  -0.00  -0.00
  14   6     0.00  -0.05  -0.00     0.05   0.02   0.03    -0.01  -0.01  -0.12
  15   6    -0.01  -0.06  -0.02     0.02   0.02  -0.05    -0.01  -0.01  -0.06
  16   6    -0.04   0.04  -0.02     0.02   0.03   0.00    -0.01  -0.00  -0.08
  17   6    -0.06   0.13  -0.03     0.03   0.09   0.01     0.03  -0.06  -0.06
  18   6    -0.08   0.23  -0.02     0.03   0.09   0.05     0.04  -0.07  -0.03
  19   6    -0.09   0.22  -0.01     0.01  -0.01   0.09    -0.00   0.01  -0.02
  20   6    -0.06   0.07   0.01     0.00  -0.03   0.08    -0.00   0.00   0.02
  21   6    -0.01  -0.14   0.02    -0.04  -0.03   0.06     0.01  -0.01   0.03
  22   6     0.00  -0.23   0.03    -0.05  -0.01   0.01     0.01  -0.01   0.04
  23   6    -0.03  -0.10   0.03    -0.02   0.00  -0.01    -0.01   0.00   0.04
  24   7    -0.06   0.02   0.02    -0.03   0.02  -0.07    -0.01   0.01   0.04
  25   6    -0.06   0.07   0.01    -0.00   0.02  -0.08    -0.00   0.00   0.03
  26   6    -0.08   0.22  -0.01    -0.01   0.00  -0.09    -0.00   0.01  -0.01
  27   6    -0.09   0.26  -0.02     0.00   0.07  -0.08    -0.05   0.09  -0.03
  28   6    -0.07   0.16  -0.02     0.01   0.04  -0.04    -0.05   0.06  -0.07
  29   6    -0.04   0.04  -0.02    -0.02  -0.03  -0.01    -0.01  -0.00  -0.08
  30   6    -0.01  -0.06  -0.01    -0.02  -0.02   0.04    -0.00  -0.01  -0.06
  31   6     0.01  -0.05   0.00    -0.06  -0.02  -0.04    -0.01  -0.01  -0.12
  32   6     0.00  -0.04   0.03    -0.06  -0.01  -0.05     0.01  -0.00   0.00
  33   6     0.00  -0.04   0.03    -0.05   0.00  -0.00     0.02   0.01   0.11
  34   6    -0.01  -0.05   0.00    -0.03   0.01   0.06     0.01   0.01   0.07
  35   6    -0.00  -0.06  -0.01    -0.02  -0.00   0.12     0.01   0.01   0.06
  36   6     0.03  -0.07  -0.00    -0.02  -0.01   0.05     0.01   0.00   0.01
  37   6     0.03  -0.09   0.02    -0.03   0.12  -0.02    -0.02   0.11  -0.03
  38   6     0.03  -0.06  -0.00    -0.03  -0.17   0.01     0.02  -0.11  -0.01
  39   6     0.05  -0.05  -0.01    -0.02   0.00   0.03     0.01  -0.00   0.01
  40   6     0.10  -0.05  -0.01     0.00   0.01   0.12     0.02   0.01   0.14
  41   6     0.12  -0.02  -0.01     0.01   0.02   0.11     0.02   0.02   0.16
  42   6     0.10   0.01  -0.01    -0.01   0.02  -0.03     0.00  -0.01  -0.03
  43   6     0.06   0.01  -0.01    -0.03   0.01  -0.10    -0.01  -0.02  -0.14
  44   6     0.04  -0.03  -0.00    -0.03   0.01  -0.03    -0.00  -0.01  -0.06
  45   7     0.01  -0.03  -0.00    -0.04   0.01  -0.00     0.00  -0.00  -0.01
  46   6    -0.05   0.13  -0.02    -0.03  -0.10  -0.01     0.03  -0.06  -0.06
  47   6    -0.07   0.24  -0.02    -0.03  -0.10  -0.05     0.04  -0.07  -0.02
  48   6    -0.01  -0.13   0.02     0.04   0.03  -0.06     0.00  -0.01   0.03
  49   6     0.01  -0.22   0.03     0.05   0.02  -0.01     0.00  -0.01   0.04
  50   6    -0.03  -0.09   0.03     0.02  -0.01   0.02    -0.01   0.00   0.04
  51   7    -0.06   0.02   0.02     0.03  -0.03   0.07    -0.02   0.01   0.03
  52   6    -0.11   0.25  -0.01    -0.00  -0.07   0.08    -0.05   0.09  -0.04
  53   6    -0.08   0.15  -0.02    -0.01  -0.03   0.04    -0.05   0.06  -0.07
  54   6    -0.00  -0.06  -0.02     0.02   0.01  -0.12     0.01   0.00   0.07
  55   1     0.02   0.04  -0.04     0.04   0.12  -0.11    -0.04  -0.12   0.11
  56   1     0.05  -0.10  -0.00     0.13  -0.22  -0.02    -0.13   0.21   0.01
  57   1    -0.06  -0.03   0.07    -0.14  -0.04   0.16     0.14   0.03  -0.16
  58   1     0.03  -0.04   0.00    -0.11   0.23  -0.03     0.14  -0.22   0.02
  59   1    -0.02  -0.02  -0.01     0.18   0.08   0.12    -0.18  -0.06  -0.12
  60   1     0.02   0.02   0.01    -0.05  -0.11  -0.08     0.07   0.14   0.08
  61   1     0.03  -0.02  -0.00    -0.00  -0.00  -0.05     0.01   0.01   0.07
  62   1     0.04  -0.00  -0.00    -0.01  -0.01  -0.05     0.01   0.01   0.08
  63   1     0.03   0.01  -0.00     0.00  -0.01   0.02    -0.00  -0.00  -0.02
  64   1     0.01   0.01  -0.00     0.01  -0.00   0.05    -0.01  -0.01  -0.08
  65   1    -0.00  -0.00   0.00     0.01  -0.00   0.02    -0.00  -0.00  -0.01
  66   1     0.00  -0.01   0.02     0.02  -0.00   0.01     0.01   0.00   0.05
  67   1     0.00  -0.01   0.02     0.02   0.01   0.03     0.00  -0.00  -0.00
  68   1     0.00  -0.02  -0.00     0.02   0.01   0.03    -0.01  -0.01  -0.07
  69   1    -0.01   0.03  -0.01     0.01   0.03  -0.00     0.01  -0.02  -0.02
  70   1    -0.02   0.08  -0.01     0.01   0.04   0.02     0.02  -0.04  -0.00
  71   1     0.00  -0.06   0.01    -0.02  -0.01   0.02     0.00  -0.00   0.01
  72   1     0.01  -0.10   0.01    -0.02  -0.00  -0.00     0.00  -0.00   0.01
  73   1    -0.03   0.09  -0.01     0.00   0.04  -0.03    -0.02   0.04  -0.01
  74   1    -0.02   0.04  -0.01     0.01   0.02  -0.01    -0.02   0.02  -0.02
  75   1     0.00  -0.01   0.00    -0.02  -0.01  -0.03    -0.01  -0.01  -0.07
  76   1     0.00  -0.01   0.01    -0.02  -0.00  -0.03     0.00  -0.00  -0.00
  77   1     0.00  -0.01   0.01    -0.02   0.00  -0.01     0.01   0.01   0.05
  78   1     0.05  -0.10  -0.00    -0.12   0.23   0.01    -0.11   0.21   0.00
  79   1    -0.06  -0.02   0.06     0.15   0.03  -0.17     0.14   0.02  -0.15
  80   1     0.03   0.04  -0.04    -0.05  -0.12   0.12    -0.04  -0.11   0.11
  81   1    -0.02  -0.02  -0.02    -0.18  -0.07  -0.12    -0.17  -0.05  -0.12
  82   1     0.02   0.02   0.01     0.05   0.11   0.08     0.07   0.14   0.07
  83   1     0.03  -0.05   0.00     0.10  -0.23   0.04     0.12  -0.21   0.03
  84   1     0.03  -0.02  -0.00     0.00   0.00   0.05     0.01   0.01   0.06
  85   1     0.04  -0.00  -0.00     0.01   0.01   0.06     0.01   0.01   0.08
  86   1     0.03   0.01  -0.00    -0.00   0.01  -0.02    -0.00  -0.00  -0.02
  87   1     0.01   0.01  -0.00    -0.01   0.00  -0.06    -0.01  -0.01  -0.08
  88   1    -0.00  -0.00   0.00    -0.01   0.00  -0.02     0.00  -0.00  -0.01
  89   1    -0.01   0.03  -0.01    -0.01  -0.04   0.00     0.02  -0.02  -0.02
  90   1    -0.02   0.09  -0.01    -0.01  -0.05  -0.02     0.02  -0.04  -0.00
  91   1     0.00  -0.06   0.01     0.02   0.01  -0.02     0.00  -0.00   0.01
  92   1     0.01  -0.10   0.01     0.02   0.01   0.00     0.00  -0.00   0.01
  93   1    -0.04   0.09  -0.00    -0.00  -0.04   0.03    -0.02   0.04  -0.01
  94   1    -0.03   0.04  -0.01    -0.02  -0.02   0.01    -0.02   0.02  -0.02
                     22                     23                     24
                        a                      a                      a 
 Frequencies --   152.0823               153.2818               162.8113
 Red. masses --    10.1987                10.7898                 8.6028
 Frc consts  --     0.0000                 0.0000                 0.0000
 IR Inten    --     1.5407                 2.5989                 0.1392
 Raman Activ --     0.0000                 0.0000                 0.0000
 Depolar     --     0.0000                 0.0000                 0.0000
 Atom AN      X      Y      Z        X      Y      Z        X      Y      Z
   1   6     0.01   0.02  -0.03    -0.01   0.02  -0.02     0.02   0.10  -0.04
   2   6     0.04   0.01  -0.05     0.01   0.02  -0.02     0.02   0.06  -0.02
   3   6     0.07   0.02  -0.03     0.02   0.03  -0.01     0.04   0.12   0.01
   4   6     0.03  -0.01  -0.03     0.00   0.01  -0.02     0.00   0.05  -0.01
   5   6     0.03   0.00   0.07    -0.01   0.01   0.03    -0.07   0.05   0.01
   6   6     0.03  -0.00   0.12    -0.02   0.00   0.06    -0.11  -0.01   0.03
   7   6     0.03  -0.03  -0.01    -0.02  -0.01   0.00    -0.08  -0.05   0.01
   8   6     0.03  -0.04  -0.10    -0.01  -0.02  -0.05    -0.02  -0.05  -0.01
   9   6     0.04  -0.02  -0.06     0.00  -0.00  -0.03     0.02   0.01  -0.01
  10   7     0.05  -0.02   0.00     0.02   0.00   0.00     0.06   0.02  -0.01
  11   6     0.05  -0.00   0.05     0.02   0.01   0.02     0.06   0.04  -0.00
  12   6     0.09   0.01   0.18     0.03   0.02   0.09     0.03   0.05   0.02
  13   6     0.08   0.01   0.04     0.01   0.01   0.02    -0.00   0.01   0.01
  14   6     0.05   0.01  -0.18     0.00  -0.00  -0.09    -0.00  -0.00  -0.03
  15   6     0.01   0.01  -0.14     0.00   0.00  -0.07     0.03  -0.00  -0.02
  16   6    -0.01   0.05  -0.09     0.01  -0.02  -0.04     0.06  -0.11  -0.00
  17   6     0.06   0.05  -0.05     0.06  -0.03  -0.02     0.08  -0.16   0.01
  18   6     0.07   0.02   0.07     0.06  -0.04   0.04     0.07  -0.12   0.02
  19   6    -0.02   0.01   0.14     0.02  -0.02   0.07     0.02  -0.01   0.03
  20   6    -0.02  -0.05   0.16     0.01   0.01   0.07    -0.02   0.16   0.02
  21   6    -0.13   0.11   0.11     0.05  -0.34   0.07    -0.03   0.12   0.01
  22   6    -0.12   0.03   0.02    -0.00  -0.13   0.01    -0.01   0.00  -0.00
  23   6    -0.02  -0.11  -0.02    -0.05   0.24  -0.02     0.01  -0.08   0.00
  24   7    -0.02  -0.14  -0.12    -0.07   0.38  -0.08     0.04  -0.27  -0.01
  25   6     0.01   0.02  -0.16     0.02   0.04  -0.08     0.02  -0.16  -0.02
  26   6     0.00   0.01  -0.14     0.03  -0.03  -0.07    -0.02   0.01  -0.03
  27   6     0.08  -0.02  -0.10     0.06  -0.07  -0.05    -0.03   0.12  -0.04
  28   6     0.10  -0.02   0.02     0.07  -0.07   0.01    -0.04   0.18  -0.02
  29   6    -0.00  -0.02   0.09     0.01  -0.05   0.04    -0.05   0.11  -0.00
  30   6    -0.01  -0.00   0.14    -0.01  -0.00   0.07    -0.03   0.00   0.02
  31   6    -0.04   0.00   0.17    -0.04   0.00   0.08     0.00   0.00   0.02
  32   6    -0.07  -0.01  -0.04    -0.06   0.00  -0.02     0.00  -0.01  -0.00
  33   6    -0.08  -0.02  -0.18    -0.05   0.01  -0.08    -0.03  -0.05  -0.02
  34   6    -0.05  -0.01  -0.04    -0.02   0.01  -0.02    -0.06  -0.04   0.01
  35   6    -0.03  -0.01   0.06    -0.01   0.00   0.02    -0.06  -0.04   0.02
  36   6    -0.03  -0.01   0.05    -0.02   0.01   0.02    -0.02  -0.06   0.02
  37   6    -0.00  -0.03   0.03    -0.01   0.00   0.01    -0.03  -0.10   0.04
  38   6    -0.06  -0.03   0.03    -0.04   0.00   0.02    -0.04  -0.12  -0.00
  39   6    -0.02  -0.00   0.03    -0.02   0.01   0.02    -0.00  -0.05   0.01
  40   6    -0.01  -0.01  -0.07    -0.03   0.01  -0.03     0.07  -0.05  -0.01
  41   6    -0.01  -0.00  -0.12    -0.04   0.00  -0.05     0.11   0.01  -0.02
  42   6    -0.00   0.03   0.00    -0.03   0.01   0.00     0.08   0.05  -0.01
  43   6    -0.01   0.04   0.10    -0.03   0.02   0.05     0.02   0.05   0.00
  44   6    -0.03   0.02   0.06    -0.02   0.02   0.03    -0.02  -0.01   0.01
  45   7    -0.04   0.01  -0.00    -0.02   0.02  -0.00    -0.06  -0.02   0.01
  46   6    -0.08  -0.02   0.05    -0.01  -0.07   0.03    -0.07   0.16  -0.01
  47   6    -0.09   0.01  -0.07    -0.02  -0.04  -0.03    -0.06   0.12  -0.03
  48   6     0.05   0.20  -0.12     0.13  -0.30  -0.04     0.03  -0.12  -0.01
  49   6     0.08   0.08  -0.02     0.09  -0.10  -0.00     0.01  -0.00   0.00
  50   6     0.05  -0.12   0.03    -0.01   0.24   0.00    -0.01   0.08   0.00
  51   7     0.07  -0.21   0.14    -0.03   0.35   0.05    -0.05   0.27   0.01
  52   6    -0.10   0.06   0.10    -0.02  -0.03   0.05     0.04  -0.12   0.04
  53   6    -0.12   0.07  -0.02    -0.03  -0.03  -0.01     0.05  -0.18   0.02
  54   6     0.03   0.01  -0.05     0.01   0.01  -0.03     0.05   0.05  -0.02
  55   1    -0.00  -0.01   0.02    -0.01  -0.03   0.02    -0.02  -0.09   0.07
  56   1    -0.02   0.03  -0.01    -0.03   0.04  -0.00    -0.08   0.16   0.00
  57   1     0.02   0.01  -0.03     0.03   0.01  -0.04     0.12   0.03  -0.12
  58   1     0.09  -0.07  -0.01     0.02   0.00  -0.01    -0.07   0.16  -0.02
  59   1    -0.07  -0.01  -0.05    -0.00   0.01  -0.00     0.14   0.05   0.08
  60   1     0.05   0.09   0.03     0.01   0.02   0.00    -0.03  -0.09  -0.04
  61   1     0.01   0.00   0.04    -0.00   0.01   0.02    -0.03   0.03   0.00
  62   1     0.01   0.00   0.07    -0.01   0.00   0.03    -0.04  -0.00   0.01
  63   1     0.01  -0.01  -0.00    -0.01  -0.01  -0.00    -0.03  -0.03   0.01
  64   1     0.01  -0.01  -0.05    -0.00  -0.01  -0.02     0.00  -0.03  -0.00
  65   1     0.01  -0.00   0.01     0.01   0.00   0.01     0.02   0.00   0.00
  66   1     0.03   0.00   0.10     0.01   0.01   0.05     0.00   0.02   0.01
  67   1     0.03   0.00   0.03     0.00   0.00   0.02    -0.01   0.00   0.00
  68   1     0.02   0.01  -0.09    -0.00  -0.00  -0.04    -0.00  -0.00  -0.01
  69   1     0.03   0.02  -0.03     0.02  -0.00  -0.01     0.03  -0.06   0.00
  70   1     0.05  -0.00   0.03     0.03  -0.01   0.02     0.03  -0.04   0.01
  71   1    -0.06   0.09   0.04     0.03  -0.22   0.03    -0.01   0.04   0.00
  72   1    -0.06   0.04  -0.01     0.00  -0.10   0.00    -0.00  -0.02  -0.00
  73   1     0.04  -0.01  -0.04     0.03  -0.02  -0.02    -0.01   0.04  -0.01
  74   1     0.05  -0.00   0.02     0.03  -0.02   0.01    -0.01   0.07  -0.01
  75   1    -0.01  -0.00   0.09    -0.01  -0.00   0.04     0.00   0.00   0.01
  76   1    -0.02  -0.00  -0.03    -0.02   0.00  -0.01     0.01  -0.01  -0.00
  77   1    -0.03  -0.01  -0.10    -0.02   0.00  -0.05    -0.01  -0.02  -0.01
  78   1     0.03  -0.05   0.01    -0.01   0.01   0.00     0.07  -0.16   0.00
  79   1    -0.04  -0.01   0.04     0.01   0.00  -0.01    -0.12  -0.02   0.12
  80   1     0.01   0.03  -0.03    -0.01  -0.01   0.01     0.03   0.09  -0.07
  81   1     0.04  -0.01   0.03     0.05   0.01   0.04    -0.14  -0.05  -0.08
  82   1    -0.04  -0.07  -0.02    -0.03  -0.06  -0.02     0.03   0.09   0.04
  83   1    -0.07   0.04   0.01    -0.05   0.06  -0.00     0.07  -0.16   0.02
  84   1    -0.00  -0.01  -0.03    -0.01   0.00  -0.02     0.03  -0.03  -0.00
  85   1    -0.00  -0.00  -0.06    -0.01  -0.00  -0.03     0.04   0.00  -0.01
  86   1     0.00   0.01   0.00    -0.01   0.00   0.00     0.03   0.03  -0.01
  87   1    -0.00   0.02   0.05    -0.01   0.01   0.02    -0.00   0.03   0.00
  88   1    -0.01   0.00  -0.01    -0.01   0.00  -0.01    -0.02  -0.00  -0.00
  89   1    -0.04  -0.01   0.03    -0.01  -0.02   0.01    -0.02   0.06  -0.00
  90   1    -0.05   0.01  -0.03    -0.02  -0.00  -0.02    -0.02   0.04  -0.01
  91   1     0.02   0.12  -0.05     0.07  -0.21  -0.01     0.01  -0.04  -0.00
  92   1     0.03   0.05   0.00     0.05  -0.09   0.01     0.00   0.02   0.00
  93   1    -0.05   0.02   0.04    -0.02  -0.01   0.02     0.01  -0.04   0.01
  94   1    -0.06   0.02  -0.02    -0.02  -0.01  -0.01     0.01  -0.07   0.00
                     25                     26                     27
                        a                      a                      a 
 Frequencies --   181.1298               187.7473               202.2361
 Red. masses --    11.2408                 3.6183                 4.8519
 Frc consts  --     0.0000                 0.0000                 0.0000
 IR Inten    --     2.4282                 4.5493                 1.1192
 Raman Activ --     0.0000                 0.0000                 0.0000
 Depolar     --     0.0000                 0.0000                 0.0000
 Atom AN      X      Y      Z        X      Y      Z        X      Y      Z
   1   6    -0.13  -0.13   0.05    -0.00   0.07  -0.03     0.06  -0.02   0.00
   2   6    -0.11  -0.08   0.01     0.02   0.00  -0.00     0.01   0.05  -0.00
   3   6    -0.13  -0.14  -0.01     0.01   0.07   0.02     0.05  -0.01  -0.01
   4   6    -0.08  -0.03   0.00     0.02   0.00  -0.00    -0.01   0.04   0.00
   5   6     0.01  -0.02   0.00    -0.01   0.00   0.00    -0.06   0.04   0.00
   6   6     0.05   0.05  -0.00    -0.02  -0.02   0.01    -0.09   0.00   0.00
   7   6     0.01   0.10  -0.01    -0.01  -0.02   0.01    -0.07  -0.03   0.01
   8   6    -0.07   0.10  -0.01     0.01  -0.02  -0.00    -0.02  -0.02   0.01
   9   6    -0.11   0.02   0.00     0.02  -0.00  -0.01    -0.00   0.02   0.00
  10   7    -0.12   0.02   0.01     0.03   0.00  -0.00     0.01   0.03  -0.00
  11   6    -0.11  -0.01   0.02     0.02  -0.00   0.00     0.01   0.04  -0.01
  12   6    -0.13  -0.01   0.04    -0.03   0.00   0.01     0.01   0.04  -0.01
  13   6    -0.13   0.00   0.01    -0.06  -0.03   0.01     0.00   0.04  -0.00
  14   6    -0.11  -0.03  -0.01    -0.04  -0.06   0.00     0.00   0.04   0.01
  15   6    -0.04  -0.03  -0.00     0.00  -0.07   0.00     0.01   0.04  -0.00
  16   6     0.01  -0.04   0.00     0.02  -0.10   0.01     0.02  -0.01  -0.00
  17   6     0.08   0.00   0.02     0.02  -0.05   0.01     0.03  -0.08   0.00
  18   6     0.08   0.05   0.03    -0.01   0.08  -0.00     0.04  -0.13   0.01
  19   6     0.12   0.08  -0.00    -0.03   0.14  -0.01     0.02  -0.08   0.00
  20   6     0.15   0.06  -0.02    -0.02   0.10  -0.01    -0.02   0.08  -0.01
  21   6     0.16   0.07  -0.02    -0.01   0.06  -0.00    -0.02   0.08  -0.01
  22   6     0.18   0.01  -0.03     0.02  -0.09   0.00    -0.01   0.03  -0.00
  23   6     0.20  -0.00  -0.04     0.03  -0.10   0.00     0.01  -0.06   0.00
  24   7     0.21   0.01  -0.04     0.01  -0.04  -0.00     0.03  -0.20   0.01
  25   6     0.15   0.06  -0.02    -0.01   0.10  -0.01     0.01  -0.09   0.01
  26   6     0.12   0.07   0.00    -0.02   0.14  -0.01    -0.02   0.07  -0.01
  27   6     0.07   0.04  -0.02    -0.02   0.09  -0.00    -0.03   0.13  -0.01
  28   6     0.06  -0.00  -0.03     0.01  -0.04   0.01    -0.03   0.10  -0.01
  29   6     0.01  -0.04   0.00     0.01  -0.09   0.01    -0.02   0.02  -0.00
  30   6    -0.04  -0.03  -0.00    -0.00  -0.07   0.00    -0.01  -0.04   0.01
  31   6    -0.11  -0.03  -0.01    -0.05  -0.06   0.00     0.00  -0.04   0.00
  32   6    -0.13   0.01   0.01    -0.06  -0.03   0.01     0.00  -0.04   0.00
  33   6    -0.13  -0.00   0.04    -0.02   0.00   0.01    -0.01  -0.04   0.01
  34   6    -0.11  -0.01   0.02     0.02  -0.00   0.00    -0.02  -0.04   0.01
  35   6    -0.09  -0.06   0.01     0.03  -0.02  -0.00    -0.01  -0.04   0.01
  36   6    -0.11  -0.07   0.01     0.02  -0.00  -0.00    -0.01  -0.05   0.01
  37   6    -0.13  -0.13   0.06     0.00   0.07  -0.04    -0.05   0.02  -0.00
  38   6    -0.13  -0.13  -0.00     0.01   0.07   0.02    -0.05   0.02   0.01
  39   6    -0.08  -0.03   0.00     0.02   0.00  -0.01     0.01  -0.04   0.00
  40   6     0.01  -0.02   0.00    -0.00   0.00   0.00     0.06  -0.04  -0.00
  41   6     0.05   0.05   0.00    -0.01  -0.01   0.01     0.09  -0.01  -0.01
  42   6     0.02   0.10  -0.01    -0.01  -0.02   0.01     0.08   0.02  -0.01
  43   6    -0.07   0.10  -0.01     0.01  -0.02  -0.00     0.03   0.02  -0.01
  44   6    -0.10   0.03   0.00     0.02  -0.00  -0.01    -0.00  -0.02   0.00
  45   7    -0.12   0.02   0.01     0.03  -0.00  -0.00    -0.01  -0.03   0.00
  46   6     0.08  -0.00   0.02     0.01  -0.05   0.01    -0.02   0.09  -0.01
  47   6     0.09   0.05   0.03    -0.01   0.09  -0.00    -0.03   0.13  -0.01
  48   6     0.16   0.06  -0.02    -0.01   0.05  -0.00     0.02  -0.08   0.01
  49   6     0.18   0.01  -0.03     0.02  -0.09   0.00     0.00  -0.02   0.00
  50   6     0.20  -0.00  -0.04     0.03  -0.10   0.00    -0.01   0.06   0.00
  51   7     0.21   0.02  -0.04     0.01  -0.03  -0.00    -0.04   0.20  -0.01
  52   6     0.07   0.05  -0.02    -0.02   0.09  -0.00     0.04  -0.14   0.01
  53   6     0.06   0.00  -0.03     0.01  -0.04   0.00     0.03  -0.09   0.01
  54   6    -0.08  -0.06   0.01     0.03  -0.01  -0.00     0.01   0.04  -0.01
  55   1    -0.04  -0.04   0.02    -0.04  -0.16   0.13     0.05   0.17  -0.14
  56   1    -0.05  -0.06   0.01    -0.14   0.23   0.01     0.16  -0.20  -0.01
  57   1    -0.03  -0.04   0.04     0.18   0.02  -0.18    -0.15  -0.01   0.16
  58   1    -0.04  -0.05   0.01    -0.14   0.22  -0.02     0.16  -0.20   0.02
  59   1    -0.04  -0.04  -0.02     0.21   0.05   0.13    -0.19  -0.03  -0.12
  60   1    -0.04  -0.04  -0.00    -0.06  -0.18  -0.08     0.08   0.19   0.09
  61   1     0.01  -0.02   0.00    -0.01   0.01   0.00    -0.02   0.02   0.00
  62   1     0.03   0.01   0.00    -0.01  -0.00   0.01    -0.03  -0.00  -0.00
  63   1     0.01   0.05  -0.00    -0.00  -0.01   0.00    -0.03  -0.01   0.00
  64   1    -0.03   0.04  -0.00     0.01  -0.01  -0.00     0.00  -0.02   0.00
  65   1    -0.03   0.01   0.00     0.01   0.00  -0.00     0.00   0.01  -0.00
  66   1    -0.04  -0.00   0.02    -0.01   0.01   0.00     0.00   0.01  -0.01
  67   1    -0.04   0.00   0.00    -0.03  -0.01   0.00     0.00   0.01   0.00
  68   1    -0.04  -0.02  -0.00    -0.02  -0.02  -0.00     0.00   0.01   0.00
  69   1     0.04  -0.00  -0.00     0.01  -0.04   0.00     0.00  -0.02   0.00
  70   1     0.02   0.02   0.00    -0.01   0.03  -0.00     0.01  -0.05   0.00
  71   1     0.04   0.03  -0.01    -0.01   0.04  -0.00    -0.01   0.02  -0.00
  72   1     0.05  -0.00  -0.01     0.01  -0.04   0.00     0.00   0.00   0.00
  73   1     0.01   0.02   0.00    -0.01   0.04  -0.00    -0.01   0.05  -0.00
  74   1     0.03  -0.00  -0.00     0.01  -0.03   0.00    -0.00   0.02  -0.00
  75   1    -0.04  -0.02  -0.00    -0.02  -0.02  -0.00     0.00  -0.01  -0.00
  76   1    -0.04   0.00   0.00    -0.02  -0.01   0.00     0.00  -0.01   0.00
  77   1    -0.04  -0.00   0.02    -0.01   0.01   0.01    -0.00  -0.02   0.00
  78   1    -0.05  -0.05   0.01    -0.14   0.24   0.00    -0.15   0.20   0.01
  79   1    -0.03  -0.04   0.04     0.18   0.01  -0.18     0.15  -0.00  -0.16
  80   1    -0.04  -0.04   0.02    -0.05  -0.16   0.13    -0.06  -0.16   0.14
  81   1    -0.04  -0.04  -0.02     0.22   0.05   0.13     0.18   0.03   0.12
  82   1    -0.04  -0.04  -0.00    -0.07  -0.19  -0.08    -0.09  -0.18  -0.08
  83   1    -0.04  -0.05   0.01    -0.14   0.24  -0.03    -0.15   0.20  -0.02
  84   1     0.01  -0.02   0.00    -0.01   0.01   0.00     0.02  -0.02  -0.00
  85   1     0.03   0.01   0.00    -0.01  -0.00   0.00     0.03  -0.00  -0.00
  86   1     0.01   0.04  -0.00    -0.00  -0.01   0.00     0.03   0.01  -0.00
  87   1    -0.03   0.05  -0.01     0.00  -0.01  -0.00     0.00   0.02  -0.00
  88   1    -0.03   0.01   0.00     0.01  -0.00  -0.00    -0.01  -0.01   0.00
  89   1     0.04  -0.00  -0.00     0.01  -0.04   0.00    -0.00   0.02  -0.00
  90   1     0.02   0.02   0.00    -0.00   0.03  -0.00    -0.01   0.05  -0.00
  91   1     0.04   0.03  -0.01    -0.01   0.04  -0.00     0.01  -0.03   0.00
  92   1     0.05  -0.00  -0.01     0.01  -0.04   0.00    -0.00  -0.00   0.00
  93   1     0.01   0.02   0.00    -0.01   0.04  -0.00     0.01  -0.05   0.00
  94   1     0.03   0.00  -0.00     0.01  -0.03   0.00     0.00  -0.02  -0.00
                     28                     29                     30
                        a                      a                      a 
 Frequencies --   215.1434               222.2276               223.0262
 Red. masses --     9.8112                 9.2136                 9.7014
 Frc consts  --     0.0000                 0.0000                 0.0000
 IR Inten    --     2.1557                 0.4654                 0.2194
 Raman Activ --     0.0000                 0.0000                 0.0000
[...]
  44   6     0.00   0.00  -0.00    -0.00   0.00  -0.00     0.00  -0.00   0.00
  45   7    -0.00  -0.00   0.00     0.00  -0.00   0.00    -0.00   0.00  -0.00
  46   6    -0.00  -0.00  -0.00    -0.01  -0.01  -0.02     0.01   0.00   0.02
  47   6     0.00  -0.00  -0.00     0.03  -0.00  -0.08    -0.03   0.00   0.07
  48   6     0.00   0.00   0.01    -0.04  -0.01  -0.07     0.04   0.01   0.07
  49   6     0.00   0.00  -0.00    -0.08  -0.01   0.13     0.07   0.01  -0.12
  50   6    -0.00  -0.00  -0.00    -0.00  -0.00   0.00     0.01   0.00  -0.00
  51   7     0.00   0.00  -0.00     0.00   0.00  -0.00     0.00   0.00   0.00
  52   6    -0.01  -0.00  -0.02    -0.00  -0.00  -0.00    -0.01  -0.00  -0.01
  53   6     0.00   0.00  -0.01     0.00   0.00  -0.00     0.00   0.00  -0.00
  54   6     0.00  -0.00  -0.00     0.00   0.00  -0.00     0.00   0.00  -0.00
  55   1    -0.01   0.00   0.00    -0.00   0.00   0.00    -0.00   0.00   0.00
  56   1     0.00  -0.00  -0.00    -0.00  -0.00   0.00    -0.00  -0.00   0.00
  57   1     0.00  -0.00  -0.00     0.00  -0.00  -0.00     0.00  -0.00  -0.00
  58   1     0.00  -0.00   0.00     0.00   0.00   0.00     0.00   0.00   0.00
  59   1     0.00  -0.00   0.00    -0.00   0.00  -0.00    -0.00   0.00  -0.00
  60   1    -0.01   0.00   0.00     0.00  -0.00  -0.00     0.01  -0.00  -0.00
  61   1    -0.02  -0.01   0.00     0.00   0.00  -0.00     0.01   0.00  -0.00
  62   1     0.00  -0.05   0.00    -0.00   0.01  -0.00    -0.00   0.02  -0.00
  63   1     0.02  -0.01  -0.00    -0.00   0.00   0.00    -0.01   0.01   0.00
  64   1     0.00   0.00  -0.00    -0.00  -0.00   0.00    -0.00  -0.00   0.00
  65   1    -0.00   0.00   0.00     0.00   0.00  -0.00     0.00   0.00  -0.00
  66   1    -0.12  -0.05   0.02     0.01   0.00  -0.00     0.01   0.00  -0.00
  67   1    -0.05  -0.54   0.06     0.00   0.03  -0.00     0.00   0.02  -0.00
  68   1     0.30  -0.21  -0.01    -0.02   0.01   0.00    -0.01   0.01   0.00
  69   1    -0.01  -0.00  -0.02     0.04   0.02   0.06     0.04   0.02   0.06
  70   1     0.01  -0.00  -0.02    -0.11   0.00   0.26    -0.11   0.00   0.27
  71   1     0.02   0.01   0.04     0.14   0.04   0.25     0.16   0.04   0.28
  72   1     0.01   0.00  -0.02     0.26   0.04  -0.44     0.28   0.04  -0.47
  73   1    -0.04  -0.01  -0.06     0.00   0.00   0.00    -0.02  -0.00  -0.02
  74   1     0.01   0.00  -0.03    -0.00  -0.00   0.00     0.00   0.00  -0.01
  75   1    -0.29   0.22   0.00    -0.02   0.01   0.00     0.01  -0.01  -0.00
  76   1     0.07   0.53  -0.07     0.00   0.03  -0.00    -0.00  -0.02   0.00
  77   1     0.12   0.05  -0.02     0.01   0.00  -0.00    -0.00  -0.00   0.00
  78   1    -0.00   0.00   0.00    -0.00  -0.00   0.00     0.00   0.00  -0.00
  79   1    -0.00   0.00   0.00     0.00  -0.00  -0.00    -0.00   0.00   0.00
  80   1     0.01  -0.00  -0.00    -0.00   0.00   0.00     0.00  -0.00  -0.00
  81   1    -0.00   0.00  -0.00    -0.00   0.00  -0.00     0.00  -0.00   0.00
  82   1     0.01  -0.00  -0.00     0.00  -0.00  -0.00    -0.01   0.00   0.00
  83   1    -0.00   0.00  -0.00     0.00   0.00   0.00    -0.00  -0.00  -0.00
  84   1     0.02   0.01  -0.00     0.00   0.00  -0.00    -0.00  -0.00   0.00
  85   1     0.00   0.05  -0.01     0.00   0.00  -0.00    -0.00  -0.01   0.00
  86   1    -0.03   0.01   0.00    -0.00   0.00   0.00     0.01  -0.00  -0.00
  87   1    -0.00  -0.00   0.00    -0.00  -0.00   0.00     0.00   0.00  -0.00
  88   1     0.00  -0.00  -0.00     0.00   0.00  -0.00    -0.00  -0.00   0.00
  89   1     0.01   0.00   0.01     0.04   0.02   0.06    -0.04  -0.02  -0.06
  90   1    -0.01   0.00   0.02    -0.11   0.01   0.27     0.10  -0.01  -0.25
  91   1    -0.02  -0.00  -0.03     0.15   0.04   0.27    -0.15  -0.04  -0.26
  92   1    -0.01  -0.00   0.01     0.28   0.04  -0.47    -0.26  -0.03   0.44
  93   1     0.05   0.02   0.07     0.00   0.00   0.00     0.02   0.01   0.02
  94   1    -0.01  -0.00   0.03    -0.00  -0.00   0.00    -0.00  -0.00   0.01
                    271                    272                    273
                        a                      a                      a 
 Frequencies --  3096.0143              3096.4905              3104.9344
 Red. masses --     1.9111                 1.9117                 1.8643
 Frc consts  --     0.0000                 0.0000                 0.0000
 IR Inten    --   184.7087                 1.0309                37.3381
 Raman Activ --     0.0000                 0.0000                 0.0000
 Depolar     --     0.0000                 0.0000                 0.0000
 Atom AN      X      Y      Z        X      Y      Z        X      Y      Z
   1   6    -0.00   0.00  -0.00     0.00  -0.00   0.00     0.00  -0.00  -0.00
   2   6     0.00   0.00  -0.00    -0.00  -0.00   0.00     0.00   0.00  -0.00
   3   6    -0.00   0.00  -0.00     0.00  -0.00   0.00    -0.00   0.00  -0.00
   4   6     0.00  -0.00  -0.00    -0.00   0.00   0.00     0.00  -0.00   0.00
   5   6     0.06   0.04  -0.01    -0.06  -0.04   0.01     0.00   0.00  -0.00
   6   6    -0.00   0.15  -0.01     0.00  -0.15   0.01    -0.00   0.00  -0.00
   7   6    -0.10   0.05   0.01     0.10  -0.05  -0.01    -0.00   0.00   0.00
   8   6    -0.02  -0.02   0.00     0.02   0.02  -0.00    -0.00  -0.00   0.00
   9   6     0.00  -0.00   0.00    -0.00   0.00  -0.00     0.00  -0.00  -0.00
  10   7    -0.00   0.00   0.00     0.00  -0.00  -0.00    -0.00  -0.00   0.00
  11   6     0.00  -0.00  -0.00    -0.00  -0.00   0.00    -0.00   0.00   0.00
  12   6     0.00   0.00  -0.00     0.00   0.00  -0.00    -0.00  -0.00   0.00
  13   6     0.00   0.01  -0.00     0.00   0.01  -0.00    -0.00  -0.00   0.00
  14   6    -0.00   0.00   0.00    -0.01   0.00   0.00     0.00  -0.00  -0.00
  15   6    -0.00  -0.00   0.00    -0.00  -0.00   0.00     0.00   0.00  -0.00
  16   6    -0.00   0.00   0.00     0.00   0.00  -0.00    -0.00   0.00   0.00
  17   6    -0.00  -0.00  -0.00     0.00   0.00   0.00    -0.00  -0.00  -0.01
  18   6     0.00  -0.00  -0.00    -0.00   0.00   0.00     0.02  -0.00  -0.04
  19   6     0.00   0.00   0.00    -0.00  -0.00  -0.00     0.00   0.00  -0.00
  20   6    -0.00  -0.00  -0.00    -0.00  -0.00   0.00    -0.01  -0.00   0.00
  21   6    -0.00  -0.00  -0.00    -0.00  -0.00  -0.01    -0.09  -0.02  -0.16
  22   6    -0.00  -0.00   0.00     0.00   0.00  -0.01     0.07   0.01  -0.11
  23   6     0.00   0.00   0.00     0.00   0.00  -0.00     0.00   0.00   0.00
  24   7    -0.00  -0.00   0.00    -0.00  -0.00   0.00     0.00   0.00   0.00
  25   6    -0.00  -0.00  -0.00     0.00   0.00  -0.00    -0.00  -0.00   0.00
  26   6    -0.00  -0.00   0.00     0.00   0.00   0.00     0.00   0.00  -0.00
  27   6    -0.00  -0.00  -0.00     0.00   0.00   0.00    -0.00  -0.00  -0.00
  28   6     0.00   0.00  -0.00    -0.00  -0.00   0.00     0.00  -0.00  -0.00
  29   6     0.00   0.00   0.00    -0.00  -0.00   0.00    -0.00   0.00   0.00
  30   6    -0.00  -0.00   0.00     0.00   0.00  -0.00    -0.00  -0.00  -0.00
  31   6    -0.00   0.00   0.00     0.01  -0.01  -0.00    -0.00   0.00   0.00
  32   6     0.00   0.00  -0.00    -0.00  -0.01   0.00     0.00   0.00  -0.00
  33   6     0.00   0.00  -0.00    -0.00  -0.00   0.00    -0.00  -0.00   0.00
  34   6     0.00  -0.00  -0.00     0.00   0.00  -0.00    -0.00   0.00   0.00
  35   6    -0.00  -0.00   0.00    -0.00   0.00   0.00     0.00   0.00  -0.00
  36   6     0.00   0.00  -0.00     0.00   0.00  -0.00    -0.00   0.00  -0.00
  37   6    -0.00   0.00  -0.00    -0.00   0.00  -0.00     0.00  -0.00  -0.00
  38   6    -0.00   0.00  -0.00    -0.00   0.00  -0.00    -0.00  -0.00  -0.00
  39   6     0.00  -0.00   0.00     0.00  -0.00   0.00    -0.00  -0.00   0.00
  40   6     0.06   0.03  -0.01     0.06   0.03  -0.01    -0.00  -0.00   0.00
  41   6     0.00   0.15  -0.02     0.00   0.15  -0.02    -0.00   0.00  -0.00
  42   6    -0.10   0.06   0.00    -0.10   0.06   0.00     0.00  -0.00  -0.00
  43   6    -0.02  -0.02   0.00    -0.02  -0.02   0.00     0.00   0.00  -0.00
  44   6     0.00  -0.00   0.00     0.00  -0.00   0.00     0.00   0.00  -0.00
  45   7    -0.00   0.00   0.00    -0.00   0.00   0.00    -0.00  -0.00   0.00
  46   6     0.00   0.00   0.00    -0.00  -0.00  -0.00    -0.00  -0.00  -0.00
  47   6    -0.00   0.00   0.00     0.00  -0.00  -0.00     0.01  -0.00  -0.03
  48   6     0.00   0.00   0.00     0.00   0.00   0.01    -0.06  -0.02  -0.11
  49   6    -0.00  -0.00   0.00    -0.00  -0.00   0.01     0.04   0.01  -0.07
  50   6     0.00   0.00   0.00    -0.00  -0.00   0.00     0.00   0.00   0.00
  51   7    -0.00  -0.00   0.00     0.00   0.00  -0.00     0.00   0.00   0.00
  52   6     0.00   0.00   0.00    -0.00  -0.00  -0.00    -0.00  -0.00  -0.00
  53   6    -0.00   0.00   0.00     0.00   0.00  -0.00     0.00  -0.00  -0.00
  54   6    -0.00  -0.00   0.00     0.00   0.00  -0.00    -0.00   0.00  -0.00
  55   1     0.00  -0.00  -0.00    -0.00   0.00   0.00    -0.00   0.00   0.00
  56   1    -0.00  -0.00   0.00     0.00  -0.00  -0.00    -0.00  -0.00   0.00
  57   1    -0.00  -0.01   0.00     0.00   0.01  -0.00     0.00  -0.00  -0.00
  58   1    -0.00  -0.00  -0.00     0.00  -0.00   0.00     0.00   0.00   0.00
  59   1    -0.00  -0.01   0.00    -0.00   0.01  -0.00    -0.00  -0.00   0.00
  60   1     0.00  -0.00  -0.00    -0.00   0.00   0.00     0.00  -0.00  -0.00
  61   1    -0.19  -0.12   0.03     0.19   0.12  -0.03    -0.00  -0.00   0.00
  62   1     0.02  -0.50   0.05    -0.02   0.50  -0.05     0.00  -0.01   0.00
  63   1     0.33  -0.18  -0.02    -0.34   0.18   0.02     0.00  -0.00  -0.00
  64   1     0.07   0.05  -0.01    -0.08  -0.05   0.01     0.00   0.00  -0.00
  65   1     0.00   0.00  -0.00    -0.00  -0.00   0.00     0.00   0.00   0.00
  66   1    -0.01  -0.00   0.00    -0.01  -0.01   0.00     0.00   0.00  -0.00
  67   1    -0.00  -0.02   0.00    -0.00  -0.05   0.00     0.00   0.01  -0.00
  68   1     0.01  -0.01  -0.00     0.02  -0.02  -0.00    -0.01   0.00   0.00
  69   1     0.00   0.00   0.00    -0.00  -0.00  -0.01     0.01   0.01   0.02
  70   1    -0.00   0.00   0.00     0.00  -0.00  -0.01    -0.06   0.00   0.15
  71   1     0.00   0.00   0.00     0.01   0.00   0.02     0.32   0.09   0.56
  72   1     0.01   0.00  -0.01    -0.01  -0.00   0.02    -0.23  -0.03   0.39
  73   1     0.00   0.00   0.00    -0.01  -0.00  -0.01     0.00   0.00   0.00
  74   1    -0.00   0.00   0.00     0.00   0.00  -0.01    -0.00  -0.00   0.00
  75   1     0.01  -0.01  -0.00    -0.03   0.02   0.00     0.00  -0.00  -0.00
  76   1    -0.00  -0.01   0.00     0.01   0.05  -0.01    -0.00  -0.00   0.00
  77   1    -0.00  -0.00   0.00     0.01   0.01  -0.00     0.00   0.00  -0.00
  78   1    -0.00   0.00   0.00    -0.00   0.00   0.00    -0.00  -0.00   0.00
  79   1    -0.00  -0.01   0.00    -0.00  -0.01   0.00     0.00   0.00  -0.00
  80   1     0.00  -0.00  -0.00     0.00  -0.00  -0.00    -0.00   0.00   0.00
  81   1    -0.00  -0.01   0.00    -0.00  -0.01   0.00    -0.00   0.00  -0.00
  82   1     0.00  -0.00   0.00     0.00  -0.00  -0.00     0.00  -0.00  -0.00
  83   1    -0.00  -0.00  -0.00    -0.00   0.00  -0.00     0.00   0.00   0.00
  84   1    -0.20  -0.12   0.03    -0.19  -0.11   0.03     0.00   0.00  -0.00
  85   1    -0.00  -0.50   0.06    -0.00  -0.49   0.06    -0.00  -0.00   0.00
  86   1     0.33  -0.19  -0.01     0.33  -0.19  -0.01    -0.00   0.00   0.00
  87   1     0.07   0.04  -0.01     0.08   0.05  -0.01    -0.00  -0.00   0.00
  88   1     0.00   0.00  -0.00     0.00   0.00  -0.00     0.00   0.00  -0.00
  89   1    -0.00  -0.00  -0.00     0.00   0.00   0.01     0.01   0.00   0.01
  90   1     0.00  -0.00  -0.00    -0.00   0.00   0.01    -0.04   0.00   0.09
  91   1    -0.00  -0.00  -0.00    -0.01  -0.00  -0.02     0.21   0.06   0.37
  92   1     0.00   0.00  -0.00     0.01   0.00  -0.02    -0.15  -0.02   0.25
  93   1    -0.00  -0.00  -0.00     0.01   0.00   0.01     0.00   0.00   0.01
  94   1     0.00   0.00  -0.00    -0.00  -0.00   0.01    -0.00  -0.00   0.00
                    274                    275                    276
                        a                      a                      a 
 Frequencies --  3105.1111              3435.1218              3435.8824
 Red. masses --     1.8673                 1.8236                 1.8247
 Frc consts  --     0.0000                 0.0000                 0.0000
 IR Inten    --     9.3390              2919.1050                37.4069
 Raman Activ --     0.0000                 0.0000                 0.0000
 Depolar     --     0.0000                 0.0000                 0.0000
 Atom AN      X      Y      Z        X      Y      Z        X      Y      Z
   1   6     0.00   0.00  -0.00    -0.00  -0.00   0.00     0.00  -0.00   0.00
   2   6     0.00   0.00  -0.00     0.00   0.00  -0.00    -0.00  -0.00   0.00
   3   6     0.00   0.00  -0.00    -0.00  -0.00  -0.00    -0.00  -0.00  -0.00
   4   6     0.00  -0.00  -0.00    -0.00  -0.00   0.00    -0.00  -0.00   0.00
   5   6     0.00   0.00  -0.00     0.00   0.00  -0.00     0.00   0.00  -0.00
   6   6    -0.00   0.01  -0.00    -0.00  -0.00   0.00    -0.00  -0.00   0.00
   7   6    -0.00   0.00   0.00     0.00   0.00  -0.00     0.00   0.00  -0.00
   8   6    -0.00  -0.00   0.00    -0.00  -0.00   0.00    -0.00  -0.00   0.00
   9   6    -0.00  -0.00   0.00     0.00   0.00  -0.00     0.01   0.00  -0.00
  10   7    -0.00   0.00   0.00     0.14   0.08  -0.02     0.17   0.09  -0.03
  11   6     0.00   0.00  -0.00     0.01   0.00  -0.00     0.01   0.00  -0.00
  12   6    -0.00  -0.00   0.00    -0.00   0.00   0.00    -0.00   0.00   0.00
  13   6    -0.00  -0.00   0.00     0.00  -0.00  -0.00     0.00  -0.00  -0.00
  14   6     0.00  -0.00  -0.00    -0.00  -0.00   0.00    -0.00  -0.00   0.00
  15   6     0.00   0.00  -0.00     0.00   0.00  -0.00     0.00   0.00  -0.00
  16   6    -0.00   0.00   0.00    -0.00  -0.00   0.00     0.00  -0.00   0.00
  17   6    -0.00  -0.00  -0.00    -0.00  -0.00  -0.00    -0.00  -0.00  -0.00
  18   6     0.01  -0.00  -0.03     0.00   0.00  -0.00     0.00   0.00  -0.00
  19   6     0.00   0.00  -0.00    -0.00  -0.00   0.00    -0.00  -0.00  -0.00
  20   6    -0.00  -0.00   0.00     0.00  -0.00  -0.00    -0.00  -0.00   0.00
  21   6    -0.06  -0.02  -0.10    -0.00  -0.00  -0.00    -0.00  -0.00   0.00
  22   6     0.05   0.01  -0.08     0.00  -0.00  -0.00     0.00   0.00   0.00
  23   6     0.00   0.00   0.00     0.00   0.00   0.00     0.00   0.00  -0.00
  24   7    -0.00  -0.00  -0.00     0.00  -0.00   0.00    -0.00  -0.00   0.00
  25   6     0.01   0.00   0.00    -0.00  -0.00  -0.00     0.00   0.00  -0.00
  26   6    -0.00  -0.00   0.00    -0.00  -0.00   0.00     0.00   0.00   0.00
  27   6    -0.00  -0.00  -0.00     0.00   0.00   0.00     0.00   0.00   0.00
  28   6     0.00   0.00  -0.00    -0.00  -0.00   0.00     0.00   0.00  -0.00
  29   6     0.00  -0.00  -0.00    -0.00  -0.00   0.00     0.00   0.00  -0.00
  30   6    -0.00  -0.00   0.00     0.00   0.00  -0.00    -0.00  -0.00   0.00
  31   6    -0.00   0.00   0.00    -0.00  -0.00   0.00     0.00  -0.00  -0.00
  32   6     0.00   0.00  -0.00     0.00  -0.00  -0.00    -0.00   0.00   0.00
  33   6     0.00   0.00  -0.00    -0.00   0.00   0.00     0.00  -0.00  -0.00
  34   6    -0.00  -0.00   0.00     0.01   0.00  -0.00    -0.01  -0.00   0.00
  35   6     0.00  -0.00   0.00    -0.00  -0.00   0.00     0.00   0.00  -0.00
  36   6    -0.00  -0.00   0.00     0.00   0.00  -0.00     0.00   0.00  -0.00
  37   6    -0.00  -0.00   0.00    -0.00  -0.00   0.00     0.00   0.00  -0.00
  38   6    -0.00  -0.00   0.00    -0.00  -0.00  -0.00     0.00   0.00   0.00
  39   6    -0.00   0.00  -0.00    -0.00  -0.00   0.00     0.00   0.00  -0.00
  40   6    -0.00  -0.00   0.00     0.00   0.00  -0.00    -0.00  -0.00   0.00
  41   6    -0.00  -0.01   0.00    -0.00  -0.00   0.00     0.00   0.00  -0.00
  42   6     0.00  -0.00  -0.00     0.00   0.00  -0.00    -0.00  -0.00   0.00
  43   6     0.00   0.00  -0.00    -0.00  -0.00   0.00     0.00   0.00  -0.00
  44   6     0.00   0.00   0.00     0.01   0.00  -0.00    -0.00  -0.00   0.00
  45   7     0.00   0.00  -0.00     0.17   0.09  -0.03    -0.14  -0.07   0.02
  46   6     0.00   0.00   0.01    -0.00  -0.00  -0.00     0.00   0.00   0.00
  47   6    -0.02   0.00   0.04     0.00  -0.00  -0.00    -0.00  -0.00   0.00
  48   6     0.09   0.02   0.16     0.00  -0.00  -0.00     0.00   0.00  -0.00
  49   6    -0.07  -0.01   0.12    -0.00   0.00   0.00    -0.00  -0.00  -0.00
  50   6    -0.00  -0.00  -0.00     0.00   0.00  -0.00    -0.00  -0.00   0.00
  51   7     0.00   0.00   0.00    -0.00  -0.00   0.00     0.00   0.00  -0.00
  52   6     0.00   0.00   0.00     0.00   0.00   0.00    -0.00  -0.00  -0.00
  53   6    -0.00  -0.00   0.00    -0.00  -0.00   0.00    -0.00  -0.00   0.00
  54   6    -0.00   0.00  -0.00    -0.00  -0.00   0.00    -0.00  -0.00   0.00
  55   1    -0.00   0.00   0.00    -0.00   0.00   0.00    -0.00   0.00   0.00
  56   1     0.00  -0.00   0.00     0.00   0.00  -0.00     0.00   0.00  -0.00
  57   1     0.00  -0.00   0.00    -0.00  -0.00  -0.00    -0.00  -0.00  -0.00
  58   1     0.00   0.00   0.00     0.00   0.00   0.00     0.00   0.00   0.00
  59   1     0.00  -0.00   0.00    -0.00  -0.00   0.00    -0.00  -0.00   0.00
  60   1    -0.00   0.00  -0.00    -0.00   0.00   0.00    -0.00   0.00   0.00
  61   1    -0.01  -0.01   0.00     0.00   0.00  -0.00    -0.00   0.00  -0.00
  62   1     0.00  -0.02   0.00    -0.00  -0.00   0.00    -0.00  -0.00   0.00
  63   1     0.01  -0.01  -0.00     0.00  -0.00   0.00     0.00  -0.00   0.00
  64   1     0.00   0.00  -0.00    -0.00   0.00  -0.00    -0.00   0.00  -0.00
  65   1     0.00   0.00  -0.00    -0.53  -0.30   0.09    -0.64  -0.36   0.10
  66   1     0.00   0.00  -0.00     0.00  -0.00   0.00     0.00  -0.00   0.00
  67   1     0.00   0.01  -0.00    -0.00   0.00  -0.00    -0.00   0.00  -0.00
  68   1    -0.01   0.01   0.00    -0.00   0.00   0.00    -0.00  -0.00   0.00
  69   1     0.01   0.00   0.01     0.00   0.00   0.00     0.00   0.00   0.00
  70   1    -0.04   0.00   0.09    -0.00   0.00   0.00    -0.00   0.00   0.00
  71   1     0.20   0.06   0.36     0.00   0.00   0.00    -0.00  -0.00   0.00
  72   1    -0.15  -0.02   0.26    -0.00  -0.00   0.00     0.00   0.00   0.00
  73   1     0.00   0.00   0.00    -0.00  -0.00  -0.00    -0.00  -0.00  -0.00
  74   1    -0.00  -0.00   0.00     0.00   0.00  -0.00    -0.00  -0.00   0.00
  75   1     0.01  -0.01  -0.00    -0.00   0.00   0.00     0.00   0.00  -0.00
  76   1    -0.00  -0.01   0.00    -0.00   0.00  -0.00     0.00  -0.00   0.00
  77   1    -0.01  -0.00   0.00     0.00  -0.00   0.00    -0.00   0.00  -0.00
  78   1     0.00   0.00  -0.00     0.00   0.00  -0.00    -0.00  -0.00   0.00
  79   1    -0.00   0.00  -0.00    -0.00  -0.00  -0.00     0.00   0.00   0.00
  80   1     0.00  -0.00  -0.00    -0.00   0.00   0.00     0.00  -0.00  -0.00
  81   1     0.00   0.00  -0.00    -0.00  -0.00   0.00     0.00   0.00  -0.00
  82   1     0.00  -0.00   0.00    -0.00   0.00   0.00     0.00  -0.00  -0.00
  83   1    -0.00  -0.00  -0.00     0.00   0.00   0.00    -0.00  -0.00  -0.00
  84   1     0.01   0.01  -0.00     0.00   0.00  -0.00    -0.00  -0.00   0.00
  85   1     0.00   0.02  -0.00    -0.00  -0.00   0.00     0.00   0.00  -0.00
  86   1    -0.01   0.01   0.00     0.00  -0.00   0.00    -0.00   0.00  -0.00
  87   1    -0.00  -0.00   0.00    -0.00   0.00  -0.00     0.00  -0.00   0.00
  88   1     0.00   0.00   0.00    -0.66  -0.33   0.11     0.55   0.28  -0.09
  89   1    -0.01  -0.01  -0.02     0.00   0.00   0.00    -0.00  -0.00  -0.00
  90   1     0.06  -0.01  -0.14    -0.00   0.00   0.00     0.00  -0.00  -0.00
  91   1    -0.31  -0.08  -0.55     0.00   0.00   0.00     0.00   0.00  -0.00
  92   1     0.23   0.03  -0.39    -0.00  -0.00  -0.00    -0.00  -0.00  -0.00
  93   1    -0.00  -0.00  -0.00    -0.00  -0.00  -0.00     0.00   0.00   0.00
  94   1     0.00   0.00  -0.00     0.00   0.00  -0.00     0.00   0.00  -0.00
