69
 energy: -106.042592800446 gnorm: 0.000046101760 xtb: 6.7.1 (edcfbbe)
C            0.51022784734443       -8.50617987446926       -0.03059616843427
C            0.97502187604407       -7.46425434850805       -0.81566537169219
C            0.31796352148644       -6.24802456145879       -0.81735526646646
C           -0.82003383285477       -6.05642623352722       -0.03724537931491
C           -1.52061081886391       -4.76278204351325       -0.04423141577333
C           -2.91387601322213       -4.70581329446245       -0.05776452921490
C           -3.57106012899175       -3.48756361848732       -0.07041730454086
C           -2.85330553516668       -2.30717276064083       -0.06624868308477
C           -1.46046582191949       -2.34692354421902       -0.05028586527224
C           -0.68669497535841       -1.10506055267170       -0.04316202299975
N           -1.35284069889855        0.04544282370861       -0.04581400634236
C           -0.61056282053744        1.14894984211500       -0.04180423142512
C           -1.29992785094427        2.43956785953828       -0.04823949072832
C           -0.57046894743729        3.62676194800628       -0.06229245774496
C           -1.23546376019930        4.83768938103200       -0.06712706615831
C           -2.61918416750710        4.87596842000095       -0.05935257148174
C           -3.36378367145461        3.69697399403339       -0.04441057164632
C           -4.83440375984788        3.73486405202588       -0.03105327297761
C           -5.55682073644133        2.85347013428566        0.76998845253619
C           -6.93857989664679        2.89018040747034        0.78717072415814
C           -7.62114031830917        3.80309971045559        0.00062885884639
C           -6.91288981371364        4.68107781310882       -0.80254617850550
C           -5.53073775829096        4.64990976086098       -0.81685171186547
C           -2.69020137460387        2.48184960738937       -0.03878681123543
N            0.71877888580859        1.15063238004999       -0.02734691865234
C            1.30323846523170       -0.04403570181583       -0.02222276376648
C            2.76542408434922       -0.09218752659852        0.00417404377873
C            3.42905849896573       -1.31745294400443        0.01115285216830
C            4.80992232605421       -1.34678220724154        0.04172096376337
C            5.53439289810057       -0.16746540220142        0.06520602715123
C            4.88544865953897        1.06687166088995        0.06022250888436
C            5.65295716395673        2.32152420588315        0.09356785204281
C            6.81705997037292        2.46541995321250       -0.65734076702663
C            7.53504639011982        3.64645199765548       -0.62281885384604
C            7.10505277454156        4.70025559416718        0.16594300995725
C            5.94956252369799        4.56735525705902        0.91769761475264
C            5.22723492538426        3.38933337193813        0.88038066912325
C            3.49663457251993        1.09080902636424        0.02894247466381
N            0.64011944149127       -1.19627074190509       -0.03410892846262
C           -0.80340123192131       -3.57286378344835       -0.04088535566659
C           -1.27996107112080       -7.11139012539458        0.74705783185506
C           -0.61778950523056       -8.32507118498336        0.75191980700366
H            1.02522745441850       -9.45551648451715       -0.02830701313442
H            1.85274258313185       -7.60139226913371       -1.43058982212428
H            0.67491048849779       -5.44317462619112       -1.44326781961742
H           -3.48342709636426       -5.62366966047099       -0.07914262177577
H           -4.65098242153161       -3.46161057349733       -0.08682184330167
H           -3.34941270789307       -1.34984134431527       -0.07695140288402
H            0.50675326865846        3.57913617925775       -0.06985262956421
H           -0.67414837079948        5.76075564029598       -0.07435098257938
H           -3.13008481571781        5.82784255411002       -0.04475278291100
H           -5.02841932192509        2.15031404570052        1.39714172820407
H           -7.48624844214370        2.20506659486589        1.41805695005670
H           -8.70076475167555        3.82999758602066        0.01319906296847
H           -7.44036612643525        5.39214542606436       -1.42179632858782
H           -4.98439058286878        5.32591434587548       -1.45866973773966
H           -3.23496518434059        1.55082691022402       -0.04564453826679
H            2.84957904574340       -2.22665845405605       -0.00514722962509
H            5.32875854640959       -2.29435324498681        0.05163223295326
H            6.61340215709571       -0.20089965640369        0.10885777764888
H            7.14852830750760        1.65318977562889       -1.28806481784019
H            8.43326668293834        3.74626931749310       -1.21490665612386
H            7.66809083630634        5.62148064707110        0.19443561090283
H            5.61135137834363        5.38530414730088        1.53731039688854
H            4.33550008834953        3.28468874776401        1.48104523719142
H            2.96290210238514        2.02793516350275        0.00587385827871
H            0.27490223009347       -3.58060327174211       -0.01164938748812
H           -2.14961100475873       -6.97088009628496        1.37267098388385
H           -0.98203465895026       -9.13300615127465        1.36989304822488
