$hessian                                                                        
        0.6767822164   0.2376159743  -0.1728158200  -0.5535691363  -0.2082369001
        0.1337684659  -0.0283046927  -0.0365234953   0.0120672618   0.0045207107
       -0.0072576287  -0.0013434275   0.0001322025  -0.0016266828   0.0001537686
       -0.0014900049  -0.0002648511   0.0002355607   0.0004827616   0.0006532578
       -0.0004468715  -0.0000502980  -0.0001277403   0.0000910630   0.0001455975
        0.0000553179  -0.0000595555  -0.0000459398   0.0000470912  -0.0000758081
        0.0001033195  -0.0000717106   0.0000638344  -0.0001974640   0.0001540748
       -0.0001620208  -0.0000099197  -0.0000682717   0.0001031202   0.0000542600
        0.0001287031  -0.0001290795  -0.0000263684  -0.0001298854   0.0001374141
        0.0002178081  -0.0000314364   0.0001980131  -0.0000755550  -0.0001947845
       -0.0002901729   0.0003758094  -0.0004541114   0.0002551014  -0.0005121503
        0.0024494183   0.0000090446  -0.0002719869  -0.0010000985  -0.0001536144
       -0.0002861329   0.0005293609  -0.0000849743  -0.0000469260  -0.0001612177
        0.0000549290   0.0000265644   0.0001180346  -0.0001310971  -0.0001312440
       -0.0000254598  -0.0001032273   0.0001652019  -0.0000738519   0.0001378721
       -0.0001394080   0.0000893898  -0.0001862619   0.0001949084  -0.0001317623
        0.0001913392  -0.0001178473   0.0001225063  -0.0001527484   0.0000554038
       -0.0001162909   0.0001266231   0.0001541010   0.0000973780   0.0000445398
       -0.0000507313  -0.0000667396  -0.0000752964   0.0005604909   0.0001003420
        0.0001462561   0.0000354954   0.0008463352   0.0005963025   0.0009444613
       -0.0010498706  -0.0000771199   0.0001478415   0.0003023245   0.0001967653
        0.0000661067  -0.0000154573  -0.0001567659  -0.0000117069   0.0001535491
        0.0000794038   0.0001555811  -0.0000384371   0.0000799620  -0.0000967606
       -0.0000435953  -0.0001519064   0.0001715840   0.0000790813   0.0001854916
       -0.0000666131  -0.0002022813  -0.0002072888   0.0000698226   0.0000997785
        0.0000666131   0.0000170619  -0.0000865078  -0.0000938672  -0.0001108877
        0.0001123784  -0.0001167794   0.0002472019  -0.0000872270  -0.0000665348
       -0.0009045283   0.0000074728  -0.0001973768  -0.0096634187   0.0017244970
        0.0013078305   0.0053459491   0.0020273086  -0.0018047670   0.0001824687
        0.0005779772  -0.0000082002   0.0000627691  -0.0001606409  -0.0004581523
       -0.0005015651   0.0002379985   0.0002508352   0.0004823624   0.0002704451
        0.0003929302   0.0001668661  -0.0004803615  -0.0005310101  -0.0002066264
        0.0005385655   0.0006186334   0.0007060733  -0.0008814833  -0.0006598996
        0.0001874659   0.0004865546   0.0001723448   0.0003186664  -0.0001663422
       -0.0001345071  -0.0002219200   0.0006913051   0.0000417438   0.0003596842
        0.0009046483  -0.0006165740  -0.0004378120  -0.0018431532   0.0000870900
       -0.0002714948   0.0191320089   0.0016154183  -0.0048016232  -0.0042578831
        0.0009498799  -0.0889740065  -0.0023830860   0.0246960332  -0.0014101944
       -0.0030190338  -0.0002084376  -0.0008603071  -0.0000502653  -0.0006876099
       -0.0002963509   0.0002670841  -0.0003973087   0.0003553238  -0.0000434626
        0.0001908746   0.0002574898  -0.0004807424   0.0000950413   0.0006097697
        0.0008472565  -0.0005747570  -0.0000408988  -0.0000090343   0.0000157617
       -0.0000285594  -0.0000378687   0.0000447823  -0.0000485558   0.0000022060
        0.0000026668  -0.0000521039  -0.0000179556   0.0000169244  -0.0000792179
        0.0000349749  -0.0000042674  -0.0000735944  -0.0000176997  -0.0000786103
       -0.0000434339   0.0000449685  -0.0000355430  -0.0000872918   0.0000475310
        0.0000600753  -0.0000100306   0.0000073887   0.0000209373   0.0000471101
       -0.0000291863   0.0000574906  -0.0000064114  -0.0000483035   0.0000608933
       -0.0000201277  -0.0000295457   0.0000131302  -0.0000266958  -0.0000388899
        0.0000022946  -0.0000516411  -0.0000096254   0.0000107640  -0.0000555039
        0.0000015094  -0.0000035012  -0.0000107315   0.0000067925   0.0000041496
       -0.0000446215  -0.0000091623   0.0000423245  -0.0000156093  -0.0000181430
        0.0000263849   0.0000084975  -0.0000221615  -0.0000132538   0.0000152536
       -0.0000535587   0.0000228123   0.0000079317  -0.0000154390   0.0000064785
        0.0000252859  -0.0000107717   0.0000411050   0.0000193402  -0.0000002824
        0.0000954440  -0.0001008565  -0.0000890975   0.0000682787  -0.0000111726
       -0.0000914603   0.0001394534  -0.0000213605   0.0000238560   0.0001022459
       -0.0000359721   0.0000288292   0.0000639267   0.0000066269  -0.0000452060
        0.0000709179  -0.0001423352   0.0000143706   0.0000064486  -0.0002092325
       -0.0001791282   0.0000403983  -0.0000814721  -0.0001494645   0.0000050117
       -0.0006353443  -0.0001809235   0.0006369040   0.0004916115   0.0012422163
        0.0016087525   0.0001425946   0.0001021296   0.0000899607   0.0000814052
        0.0000609691   0.0001247758  -0.0000223604   0.0000519053   0.0000719072
        0.0004096974  -0.0001814079   0.0005132123
        0.2376159743   0.1757321192  -0.0653605085  -0.2059092319  -0.1595087551
        0.0562504811  -0.0444755153  -0.0249862905   0.0129981757  -0.0008295249
       -0.0071113256  -0.0000096547  -0.0009683416  -0.0013413034   0.0002948741
       -0.0016108803  -0.0004113684   0.0002256724   0.0001715033   0.0003895204
       -0.0004207296   0.0000135750  -0.0000876175   0.0001465971   0.0001090391
        0.0000664935  -0.0000557199  -0.0000760495   0.0000366434  -0.0000497196
        0.0000157450  -0.0000337331   0.0000548801  -0.0001533345   0.0000677388
       -0.0000640512  -0.0001813907  -0.0000678438   0.0000843863   0.0000507448
        0.0000588656  -0.0000169956  -0.0000433111  -0.0000331608   0.0000443697
        0.0000974767  -0.0000035790   0.0001212026  -0.0001373666   0.0000765316
       -0.0001148948   0.0005350295  -0.0005538776   0.0004091558   0.0000998143
        0.0021634767  -0.0000699406  -0.0007262515  -0.0012251790   0.0000201002
       -0.0003118115   0.0005901222  -0.0002136882   0.0000391401  -0.0001052996
        0.0001353932   0.0000237504   0.0001156762  -0.0001080425  -0.0001203791
       -0.0000388815  -0.0000775418   0.0001149718  -0.0000541455   0.0000980860
       -0.0001666026   0.0000076544  -0.0001555954   0.0000994907  -0.0001570901
        0.0001644535  -0.0000885487   0.0000884717  -0.0001006094   0.0000179607
       -0.0001071768   0.0000962150   0.0001270989   0.0000829426   0.0000780320
       -0.0001302461  -0.0000335108  -0.0001040234   0.0007052019   0.0000526001
        0.0001978049  -0.0003498659   0.0006109750  -0.0002485873   0.0003455250
       -0.0006120229  -0.0000368553   0.0001002265   0.0003258571   0.0002915398
       -0.0000248428  -0.0000444130  -0.0001191682   0.0000057281   0.0000904474
        0.0000646936   0.0000720584  -0.0000168796   0.0000454388  -0.0000553916
        0.0000012936  -0.0000541861   0.0001214477  -0.0000380811   0.0000621009
       -0.0000179584  -0.0001221083  -0.0000928466   0.0000208459   0.0000471884
        0.0000404704  -0.0000038566  -0.0000521285  -0.0000480131  -0.0000933656
        0.0000348766  -0.0000760760   0.0000809444   0.0000585974   0.0000944294
       -0.0004907595   0.0001099965  -0.0002610293  -0.0032538240   0.0031919223
        0.0002420771   0.0029931480  -0.0002601361   0.0008615440  -0.0006114459
        0.0008412211   0.0005746132   0.0000752797  -0.0000351229  -0.0001376405
       -0.0001015532   0.0000647600   0.0000822866   0.0001107684   0.0000423380
        0.0000428403  -0.0000625174  -0.0000515391  -0.0000543643   0.0001567753
        0.0001186203   0.0001136956   0.0002819524  -0.0001089237  -0.0001293184
       -0.0001365810  -0.0000208983  -0.0001616804   0.0000512210   0.0000932354
        0.0000580449   0.0000187399   0.0000446771  -0.0001362091   0.0004393452
       -0.0000030002   0.0006477773  -0.0009889102  -0.0022929201  -0.0008584458
       -0.0021033195  -0.0035681821   0.0007645190   0.0041841685   0.0003112352
       -0.0010890084   0.0145487935   0.0193964667  -0.0033566149  -0.0013051128
        0.0011427963  -0.0003920393   0.0002181130  -0.0012946515  -0.0022092115
        0.0005954509   0.0002489882  -0.0001164478   0.0000068408   0.0000127632
        0.0001955186  -0.0000110542  -0.0000138911  -0.0001439384  -0.0003258579
        0.0011202846  -0.0000502415  -0.0000362212   0.0000024765  -0.0000601655
       -0.0000127687  -0.0000218666   0.0000116389  -0.0000330246  -0.0000092375
       -0.0000019628  -0.0000458779  -0.0000194827   0.0000032537  -0.0000371445
        0.0000093637  -0.0000159268  -0.0000375410  -0.0000074051  -0.0000520898
       -0.0000350242   0.0000328165  -0.0000744469   0.0000308452  -0.0001044017
        0.0000026779  -0.0000222834   0.0000152563  -0.0000256115   0.0000280112
       -0.0000192114   0.0000314803  -0.0000075236  -0.0000418095   0.0000397665
       -0.0000179347  -0.0000390271   0.0000013159  -0.0000279542  -0.0000331309
        0.0000025727  -0.0000426509  -0.0000215676  -0.0000138561  -0.0000430670
        0.0000036764  -0.0000312221   0.0000461292  -0.0000210880   0.0000350988
        0.0000146050  -0.0000020037   0.0000491359  -0.0000191346  -0.0000186835
       -0.0000100747   0.0000051225  -0.0000348696  -0.0000272234   0.0000194879
       -0.0000371525   0.0000028013   0.0000195599  -0.0000277627  -0.0000051150
        0.0000394792  -0.0000243754   0.0000209762   0.0000236505   0.0000041386
        0.0000361193  -0.0000238635  -0.0000364107  -0.0000700307   0.0000051953
       -0.0000027191   0.0000545142   0.0000019440  -0.0000486211  -0.0000213963
        0.0000281998  -0.0000320503  -0.0000245342   0.0000716407  -0.0000338407
        0.0000088448   0.0000419821  -0.0000234825   0.0000428980   0.0000275061
       -0.0000175730   0.0000788544   0.0000303865   0.0000457571   0.0001506175
        0.0000032608  -0.0005932146   0.0005763390   0.0012411975  -0.0015960222
       -0.0000707106   0.0000419506   0.0000058169   0.0000095215   0.0000591330
       -0.0001769618   0.0001735437   0.0001172425  -0.0000276200   0.0000174183
        0.0001465977  -0.0000900705   0.0002471461
       -0.1728158200  -0.0653605085   0.0721906407   0.1355504352   0.0571840782
       -0.0904661121   0.0114706071   0.0088767619   0.0117829017  -0.0000719254
        0.0027904743   0.0015820515  -0.0000461916  -0.0002514394  -0.0006594834
        0.0003178312   0.0002327298  -0.0002789982  -0.0000254945  -0.0002022136
        0.0000717523   0.0000067757   0.0000282769  -0.0000197177  -0.0000440746
       -0.0000091483   0.0000294422   0.0000134312  -0.0000136297   0.0000217782
       -0.0000102882   0.0000204095  -0.0000052170   0.0000298980  -0.0000074252
        0.0000086959   0.0000348731   0.0000054878  -0.0000059912  -0.0000502297
       -0.0000112414   0.0000121698  -0.0000090682   0.0000147955  -0.0000129081
       -0.0000401393   0.0000274386  -0.0000391005   0.0001010700   0.0000518341
        0.0000377678  -0.0003078319   0.0001209684  -0.0002020492  -0.0001472967
       -0.0005075853   0.0000437952   0.0001353940   0.0003066643   0.0002017801
        0.0000706616  -0.0001459991   0.0000333577  -0.0000176204   0.0000243733
       -0.0000167028  -0.0000108731  -0.0000341145   0.0000376254   0.0000405995
        0.0000115597   0.0000329746  -0.0000428898   0.0000248954  -0.0000412288
        0.0000448541  -0.0000381076   0.0000655233  -0.0000307613   0.0000560643
       -0.0000475261   0.0000247290  -0.0000397909   0.0000379049  -0.0000137344
        0.0000319623  -0.0000299191  -0.0000415000  -0.0000223241  -0.0000153962
        0.0000288011   0.0000601524   0.0000270447  -0.0002076112  -0.0000254883
       -0.0000734172   0.0002149378   0.0002661690  -0.0011456598  -0.0000996899
        0.0001550201   0.0002007352  -0.0000301132  -0.0001145041  -0.0001138046
       -0.0000398468   0.0000084612   0.0000391173  -0.0000054916  -0.0000136762
       -0.0000027800  -0.0000115302  -0.0000039446  -0.0000003037   0.0000106985
       -0.0000186998   0.0000034061  -0.0000592934   0.0000375599   0.0000007576
        0.0000153894   0.0000083933   0.0000405129  -0.0000217597  -0.0000054510
       -0.0000080765  -0.0000003755   0.0000140751   0.0000193203   0.0000194778
       -0.0000153757   0.0000217379   0.0000117134  -0.0000583140  -0.0000302347
        0.0000590115   0.0000398154  -0.0000433704   0.0017061865  -0.0008018918
       -0.0005665925  -0.0008117266  -0.0003957865   0.0008258436  -0.0000991475
        0.0002393466   0.0000192156  -0.0000879870  -0.0001174691   0.0000646426
       -0.0000422644   0.0000347930   0.0000752772   0.0000066068  -0.0000127870
        0.0000288548   0.0000317072   0.0000172602   0.0000358375  -0.0002034540
       -0.0000415652  -0.0000418158   0.0001727799  -0.0000987478   0.0000291148
       -0.0000902984  -0.0000326356   0.0000320238   0.0001482896  -0.0001235069
        0.0000326839  -0.0001014356   0.0000989425   0.0001795236   0.0006280465
        0.0002469369  -0.0011076195  -0.0008358039   0.0007373057  -0.0006907286
        0.0008426938  -0.0046582674   0.0046421163   0.0009035591   0.0010897411
       -0.0014705745   0.0237866394   0.0013708848   0.0069084224   0.0001233683
        0.0000133520  -0.0008127067  -0.0005079230  -0.0004276980  -0.0010156244
        0.0004205283  -0.0003255328   0.0002854609  -0.0002215874  -0.0000418629
       -0.0000426913   0.0000183319   0.0001600597   0.0000786020  -0.0000346142
       -0.0003505402   0.0004399721   0.0000174701  -0.0000135529  -0.0000025069
        0.0000085276   0.0000045026  -0.0000093803   0.0000156780  -0.0000050860
       -0.0000004659   0.0000190702   0.0000062724  -0.0000060259   0.0000138966
       -0.0000122353   0.0000067516   0.0000143771  -0.0000033932   0.0000207291
        0.0000315561  -0.0000281442   0.0000293628   0.0000122363   0.0000019796
       -0.0000550853   0.0000082666  -0.0000022198  -0.0000056731  -0.0000082756
        0.0000003495  -0.0000102941   0.0000036116   0.0000133530  -0.0000139522
        0.0000081080   0.0000087615  -0.0000018034   0.0000091183   0.0000070247
        0.0000000455   0.0000134179   0.0000008090  -0.0000001780   0.0000240669
       -0.0000029162   0.0000075810  -0.0000015108  -0.0000146633  -0.0000088195
        0.0000338724  -0.0000050377  -0.0000164422   0.0000119467   0.0000075281
       -0.0000004721   0.0000022466   0.0000057058   0.0000061485  -0.0000003464
        0.0000115443  -0.0000066204  -0.0000016056   0.0000135429   0.0000064835
       -0.0000076427   0.0000106131  -0.0000042962   0.0000161285  -0.0000057047
        0.0000047980  -0.0000282147  -0.0000091570   0.0000188355   0.0001143383
        0.0000880134  -0.0000092590   0.0000200112   0.0000179222  -0.0000192229
        0.0000247093   0.0000127707  -0.0000004230   0.0000172799   0.0000180585
       -0.0000285117  -0.0000380881   0.0000801160   0.0000107015  -0.0000554988
        0.0000576298   0.0000041996   0.0000246614   0.0000586926   0.0001216179
       -0.0008262298   0.0009236970  -0.0007071809   0.0005836890  -0.0012203608
       -0.0003341044  -0.0000040505  -0.0000038493  -0.0000429748   0.0000545053
       -0.0000891776  -0.0000010667   0.0000657725  -0.0000341007  -0.0000284020
        0.0000506666   0.0000209415  -0.0001381276
       -0.5535691363  -0.2059092319   0.1355504352   0.8241820575   0.1882711825
       -0.1637254550  -0.0673012404  -0.0229731406   0.0012260553  -0.0265155217
       -0.0119971601   0.0058319822  -0.0066664889  -0.0015327928   0.0019244370
        0.0002715688  -0.0008870541  -0.0000450030  -0.0008756587  -0.0008941280
        0.0002860690   0.0001127739   0.0001501817  -0.0000640912  -0.0001435089
       -0.0000300124   0.0000820267   0.0000361813  -0.0000476832   0.0000878753
       -0.0001717884   0.0001124494  -0.0000644106   0.0001527879  -0.0002149950
        0.0002805522  -0.0001474182   0.0000859209  -0.0001245257  -0.0000344789
       -0.0001634939   0.0002018053   0.0000556411   0.0001894484  -0.0001907381
       -0.0002578331   0.0000823407  -0.0002362475  -0.0001537379   0.0003238099
        0.0004997838  -0.0000298038   0.0002847150  -0.0000023845  -0.0009718448
       -0.0002026947   0.0002505636  -0.0003486348   0.0003749883  -0.0001408298
        0.0001473617  -0.0002054176   0.0001091624   0.0000387245   0.0001168104
       -0.0000046980  -0.0000148214  -0.0000475348   0.0000969879   0.0000631630
        0.0000259069   0.0000518037  -0.0000834389   0.0000385256  -0.0000627381
        0.0000511848  -0.0000348688   0.0000740369  -0.0001133925   0.0001031789
       -0.0000994003   0.0000396547  -0.0000790238   0.0000801547  -0.0000352489
        0.0000576987  -0.0000579075  -0.0000983400  -0.0000399019   0.0000203496
       -0.0000439500  -0.0000089892   0.0000698476  -0.0002056850  -0.0001358525
       -0.0001615113  -0.0002091073   0.0010598064   0.0001094047  -0.0012908281
        0.0026846765   0.0002184337  -0.0003397391  -0.0003704150  -0.0003241988
       -0.0000578964   0.0000562476   0.0002315230   0.0000519909  -0.0001970119
       -0.0000987717  -0.0002280750   0.0000966571  -0.0000935937   0.0001052155
        0.0000954684   0.0002160147  -0.0002927251  -0.0000630143  -0.0002463272
        0.0000916377   0.0002750587   0.0003143474  -0.0001402645  -0.0001036947
       -0.0000884771  -0.0000763796   0.0001681898   0.0001246246   0.0001065186
       -0.0001402426   0.0001673803  -0.0003884507   0.0001158776   0.0000730747
        0.0013141180   0.0000911651   0.0002106355   0.0163074857   0.0118414603
       -0.0033121923  -0.0043231905  -0.0025729544   0.0017236394  -0.0008968127
        0.0002102779   0.0004750575   0.0000498320  -0.0000098205   0.0004836093
        0.0004142834  -0.0002476475  -0.0002211857  -0.0004987356  -0.0002800027
       -0.0003644620  -0.0003127536   0.0003981487   0.0005373628   0.0004800889
       -0.0003927186  -0.0004216710  -0.0008831156   0.0008798723   0.0004989487
       -0.0002244211  -0.0005284986  -0.0001087380  -0.0004612875   0.0000857288
        0.0001652283   0.0000042575  -0.0006668294  -0.0005375586  -0.0016254291
       -0.0007568969  -0.0002724769  -0.0004152419   0.0032892063  -0.0006886559
       -0.0463450580  -0.0274228093   0.0085126310  -0.0000267950   0.0021574275
        0.0007750434  -0.1340541674   0.0575850621   0.0150162385   0.0054524691
        0.0167760177  -0.0013409294   0.0003295396  -0.0027271251   0.0018851852
       -0.0003267474   0.0001959133   0.0007608501  -0.0003455636  -0.0001966155
       -0.0002685218  -0.0002829919   0.0010955587   0.0000845265   0.0005002919
       -0.0054246681   0.0011066043  -0.0000179538  -0.0000004069  -0.0001036846
        0.0000270991   0.0000373231  -0.0000885201   0.0000666989  -0.0000136488
       -0.0000208869   0.0000623299   0.0000103417  -0.0000256205   0.0001349716
       -0.0000522407  -0.0000180469   0.0001219404   0.0000190998   0.0000869509
        0.0000370894  -0.0000624167  -0.0000165233   0.0000634186  -0.0001992468
       -0.0001608875   0.0000083023  -0.0000242404   0.0000027949  -0.0000480967
        0.0000163697  -0.0000656332   0.0000030854   0.0000501641  -0.0000567800
        0.0000226320   0.0000199242  -0.0000237242   0.0000263361   0.0000413537
       -0.0000043724   0.0000518701   0.0000021635  -0.0000350300   0.0000500077
       -0.0000061600  -0.0000285127   0.0000361829  -0.0000485154   0.0000225380
        0.0000367119  -0.0000241697  -0.0000559911   0.0000096511   0.0000122502
       -0.0000348269  -0.0000086518   0.0000124884  -0.0000004601  -0.0000072415
        0.0000725607  -0.0000317214  -0.0000145825   0.0000035956  -0.0000102281
       -0.0000074031   0.0000133899  -0.0000554349  -0.0000037789   0.0000091690
       -0.0001327042   0.0002047353   0.0000708671  -0.0000661406   0.0000062156
        0.0000898248  -0.0002807809   0.0000309154  -0.0000654414  -0.0001825215
        0.0000757780  -0.0000517035  -0.0001258285   0.0000251815   0.0000409095
       -0.0000831397   0.0002590648   0.0000024747  -0.0000119274   0.0003608486
        0.0001524648   0.0000532811   0.0001661766   0.0002009736   0.0001245392
        0.0011601688   0.0004255634  -0.0014606859  -0.0003637568  -0.0019316879
       -0.0027695043  -0.0003271618  -0.0004659876  -0.0002400915  -0.0001078796
       -0.0002250348  -0.0002985455   0.0001286759  -0.0003535022   0.0000132209
       -0.0008006607   0.0003510936  -0.0008611617
       -0.2082369001  -0.1595087551   0.0571840782   0.1882711825   0.4903457973
       -0.0557105571  -0.0290546770  -0.1514074875   0.0095696036  -0.0314141136
       -0.0202153991   0.0065781204  -0.0001404871   0.0137422689  -0.0015354315
        0.0022278120  -0.0007539306  -0.0002315604  -0.0001624607  -0.0004104705
        0.0006397210  -0.0001170253   0.0000634989  -0.0003175038  -0.0001975132
       -0.0001714997   0.0000902106   0.0001367435  -0.0000751348   0.0000603943
        0.0000196524  -0.0000064064  -0.0000739864   0.0001214058  -0.0000427942
        0.0000756955   0.0006428615   0.0001234772  -0.0001156444  -0.0001780275
        0.0000023267  -0.0001908906   0.0000136868  -0.0000941991   0.0000587488
        0.0000135621  -0.0000695420  -0.0001271477   0.0004487160  -0.0004660578
       -0.0000677045  -0.0012502396   0.0013316714  -0.0009996044   0.0008732772
       -0.0101659019  -0.0002943120   0.0035771873   0.0055495742   0.0002189792
        0.0012885998  -0.0023425181   0.0005948004  -0.0000484384   0.0004334972
       -0.0004865385  -0.0001338686  -0.0004639157   0.0003803015   0.0004780415
        0.0001510940   0.0003031173  -0.0004525343   0.0002059953  -0.0003827900
        0.0007038283  -0.0000928820   0.0006813462  -0.0004217528   0.0005575205
       -0.0006968591   0.0003912688  -0.0003242056   0.0003761400  -0.0000582126
        0.0004135042  -0.0003715922  -0.0004006155  -0.0003287439  -0.0003280445
        0.0006116801   0.0002419276   0.0002531716  -0.0028108672   0.0001539723
       -0.0004202541   0.0034859874  -0.0002056754  -0.0011143917  -0.0003499388
       -0.0001533051   0.0000773409  -0.0000523637  -0.0005699152  -0.0005565751
        0.0000193887   0.0000654409   0.0002021568  -0.0000578105  -0.0001747001
       -0.0001580711  -0.0000687978  -0.0000228415  -0.0000647739   0.0000927958
       -0.0000789534   0.0000341434  -0.0001229980   0.0000940893  -0.0000665467
       -0.0000622395   0.0002655409   0.0000910675   0.0000913188  -0.0001255462
       -0.0000191736   0.0000482992   0.0000111723   0.0000553805   0.0002191232
       -0.0000450650   0.0001209209  -0.0000861217  -0.0000892635  -0.0002113405
        0.0008118179  -0.0003284363   0.0006701574   0.0131578481  -0.0335210822
       -0.0012577529  -0.0107718418  -0.0000019627   0.0009198617   0.0018268907
       -0.0033322975  -0.0016469067  -0.0004487651   0.0006158658   0.0007911293
        0.0007631874  -0.0002825121  -0.0004398009  -0.0006044157  -0.0003191307
       -0.0004951153   0.0001255866   0.0006062468   0.0005678258  -0.0006447941
       -0.0008324232  -0.0009768082  -0.0005820116   0.0008997915   0.0008572168
       -0.0000389533  -0.0006546733  -0.0004042062  -0.0005470686   0.0004042758
        0.0004216247   0.0007497841  -0.0002088357   0.0007630276  -0.0008775324
       -0.0005390834  -0.0005677802   0.0028769270   0.0040445377   0.0015516125
        0.0262108165   0.0382760837  -0.0067711231  -0.0190659044  -0.0038008467
        0.0047181129   0.0367451185  -0.1351343790  -0.0090614796   0.0216226326
       -0.0292966808  -0.0030450304   0.0018043383   0.0006545827   0.0007341295
       -0.0007115911  -0.0009209570   0.0002391420   0.0001812297   0.0002597562
        0.0000632270   0.0005651765  -0.0016416469   0.0013885125  -0.0004561815
       -0.0021906931  -0.0009984021   0.0000696138   0.0000664504   0.0001979435
        0.0000071756   0.0000340916   0.0000453849   0.0000404755   0.0000351956
        0.0000356192   0.0000805546   0.0000425653   0.0000257631   0.0000068279
        0.0000271330   0.0000547769   0.0000095934   0.0000221887   0.0000829843
        0.0000341986  -0.0000331076   0.0001849375  -0.0002628302   0.0002938432
        0.0002413492   0.0000093320  -0.0000876053   0.0000009874  -0.0000772600
        0.0000538131  -0.0000830036   0.0000231763   0.0000962338  -0.0001066650
        0.0000370520   0.0001366765   0.0000231185   0.0000883186   0.0000818572
       -0.0000156688   0.0000987960   0.0000694184   0.0000893937   0.0001042541
       -0.0000274903   0.0001548925  -0.0001970187   0.0000242005   0.0000247724
        0.0000009394   0.0000289831  -0.0000954325   0.0000603569   0.0000413579
        0.0000368100  -0.0000111017   0.0000985420   0.0000749862  -0.0000596891
        0.0000715709   0.0000041744  -0.0000387776   0.0000808956   0.0000108661
       -0.0001078708   0.0000496359  -0.0000237389  -0.0000714546  -0.0000217091
       -0.0000403833   0.0000087385   0.0000357535   0.0001197405   0.0000327106
       -0.0000245119  -0.0000324111  -0.0000078908   0.0001174173   0.0001099845
       -0.0001037454   0.0000495418   0.0000776671  -0.0001721438   0.0000986725
       -0.0000235015  -0.0001417856  -0.0000809901  -0.0000339859  -0.0000968680
        0.0000841778  -0.0002284021  -0.0000968903  -0.0001150917  -0.0003780097
        0.0009036468   0.0006732869   0.0004384194  -0.0006363981  -0.0010032493
       -0.0015899604   0.0001947864   0.0003905685   0.0001541634   0.0000123808
        0.0005045501  -0.0002276020  -0.0003021537   0.0000305121  -0.0001391044
       -0.0000297591  -0.0000481372  -0.0002961845
        0.1337684659   0.0562504811  -0.0904661121  -0.1637254550  -0.0557105571
        0.2022264625   0.0030526890   0.0066923692  -0.0634711240   0.0038160195
        0.0006523083  -0.0001996295   0.0024689381   0.0000594820   0.0053417172
       -0.0005244706  -0.0000742534   0.0001509452   0.0000838803   0.0003252164
       -0.0000467877   0.0000043788  -0.0000506819   0.0000526724   0.0000822871
        0.0000233701  -0.0000706415  -0.0000443408   0.0000272055  -0.0000480897
        0.0000135706  -0.0000527938   0.0000309570   0.0000093177   0.0000353481
       -0.0000616803  -0.0000906589  -0.0000241142  -0.0000010933   0.0000849525
        0.0000172448  -0.0000079070   0.0000146959  -0.0000266549   0.0000202566
        0.0000707578  -0.0000226431   0.0000445580  -0.0002642767  -0.0000831521
       -0.0000190305   0.0005605752  -0.0003153761   0.0004069139  -0.0004304404
        0.0008554990   0.0006657066  -0.0003284684  -0.0003616155  -0.0014119325
        0.0000857151   0.0002604152  -0.0001293193   0.0000817628  -0.0000044067
        0.0000176469   0.0000006368   0.0000369304  -0.0000448676  -0.0000395494
       -0.0000209103  -0.0000340923   0.0000451954  -0.0000129467   0.0000558194
       -0.0000663159   0.0000903501  -0.0001149895  -0.0000367734  -0.0000981726
        0.0000256762  -0.0000280833   0.0000443823  -0.0000217286   0.0000170845
       -0.0000392190   0.0000303658   0.0000461088   0.0000404933   0.0000175606
       -0.0000611035  -0.0001219971  -0.0000291604   0.0002716877  -0.0001445454
        0.0000948447   0.0010199712  -0.0014661272   0.0077951998  -0.0000254263
       -0.0001861947  -0.0004328510   0.0001668134   0.0001849586   0.0001390845
        0.0000396567  -0.0000052328  -0.0000122088  -0.0000024377  -0.0000228743
       -0.0000119210  -0.0000260501   0.0000201097  -0.0000287954   0.0000252105
        0.0000427954   0.0000720270   0.0000638215  -0.0001066431  -0.0001105497
        0.0000378891   0.0000143356  -0.0000152254  -0.0000018629  -0.0000089077
       -0.0000257650   0.0000206008  -0.0000075464  -0.0000018933  -0.0000098485
        0.0000137839  -0.0000394108  -0.0000421371   0.0000965398   0.0000530144
       -0.0000108716  -0.0000597164   0.0000940970  -0.0057907604  -0.0001659734
       -0.0004518676   0.0017455140   0.0007323391  -0.0035765360   0.0001539363
        0.0002559247   0.0002251691   0.0001653339   0.0000082011  -0.0002225215
       -0.0001186521   0.0000351737   0.0000203148   0.0001373230   0.0000711535
        0.0000791144   0.0000050933  -0.0001319750  -0.0001302759   0.0002699250
        0.0001339504   0.0001673087  -0.0000475477  -0.0003820652  -0.0004008954
        0.0000983872   0.0001495167   0.0000793112   0.0000653005  -0.0000239186
       -0.0000181071   0.0000705651   0.0001388078  -0.0001558109  -0.0013353301
        0.0007183259  -0.0000532174   0.0001657787  -0.0003031175   0.0004863328
        0.0083926279   0.0067507847  -0.0094038003   0.0016914693  -0.0007081947
        0.0046228391   0.0181775243  -0.0157936137  -0.0475784106  -0.0027616928
        0.0001872292  -0.0030283634   0.0006424002  -0.0013287711  -0.0002670104
       -0.0002186099   0.0002200391   0.0000767587   0.0000751588  -0.0002673847
        0.0000487017  -0.0006350060   0.0002753649   0.0001559313   0.0001198246
        0.0028064520   0.0000038262  -0.0000327490   0.0000398954  -0.0000095616
       -0.0000129504  -0.0000026658   0.0000185182  -0.0000304245   0.0000096813
        0.0000035222  -0.0000330578  -0.0000071200   0.0000097622  -0.0000260175
        0.0000255310  -0.0000101256  -0.0000134986   0.0000092158  -0.0000367929
       -0.0000491389   0.0000545965  -0.0000602611   0.0000565322  -0.0000143428
        0.0000104568  -0.0000333694  -0.0000002734  -0.0000090043   0.0000077229
        0.0000032374   0.0000149610  -0.0000052527  -0.0000219653   0.0000151339
       -0.0000150725  -0.0000048207   0.0000032775  -0.0000205126  -0.0000094686
        0.0000004480  -0.0000152245   0.0000010029  -0.0000009839  -0.0000361912
        0.0000053371  -0.0000114691   0.0000167919   0.0000374337  -0.0000112548