$hessian                                                                        
        0.6814037105   0.2340758181  -0.1712676187  -0.5575048647  -0.2054587329
        0.1325986904  -0.0290066858  -0.0365392450   0.0120096732   0.0044699224
       -0.0073492397  -0.0013311405   0.0001113030  -0.0016405077   0.0001626314
       -0.0015092011  -0.0002565211   0.0002291283   0.0004906629   0.0006526426
       -0.0004490764  -0.0000514036  -0.0001280506   0.0000920958   0.0001474320
        0.0000548095  -0.0000601017  -0.0000458176   0.0000476714  -0.0000766490
        0.0001022978  -0.0000722917   0.0000645702  -0.0001962651   0.0001552050
       -0.0001635245  -0.0000144083  -0.0000683848   0.0001038581   0.0000576980
        0.0001280641  -0.0001282265  -0.0000275710  -0.0001288536   0.0001368750
        0.0002161460  -0.0000312119   0.0001990925  -0.0000765540  -0.0001927349
       -0.0002898842   0.0003792102  -0.0004630885   0.0002638594  -0.0004948630
        0.0024734365   0.0000047782  -0.0002851231  -0.0010076719  -0.0001535801
       -0.0002861194   0.0005354169  -0.0000886426  -0.0000478263  -0.0001617244
        0.0000561171   0.0000283235   0.0001188291  -0.0001320009  -0.0001320220
       -0.0000253041  -0.0001046298   0.0001654783  -0.0000753183   0.0001400320
       -0.0001396180   0.0000908023  -0.0001885944   0.0001944567  -0.0001340804
        0.0001936115  -0.0001174077   0.0001234900  -0.0001542982   0.0000543104
       -0.0001174735   0.0001278377   0.0001552860   0.0000974427   0.0000456200
       -0.0000518431  -0.0000669722  -0.0000767154   0.0005673059   0.0000976500
        0.0001506449   0.0000403666   0.0008506426   0.0005958089   0.0009392862
       -0.0010617423  -0.0000712152   0.0001501882   0.0003028225   0.0001972479
        0.0000668766  -0.0000174835  -0.0001567643  -0.0000107538   0.0001547092
        0.0000790653   0.0001557033  -0.0000395845   0.0000815072  -0.0000973896
       -0.0000433202  -0.0001528473   0.0001718473   0.0000788000   0.0001861980
       -0.0000676707  -0.0002033084  -0.0002075809   0.0000705211   0.0000996577
        0.0000668784   0.0000164790  -0.0000873688  -0.0000939334  -0.0001104115
        0.0001134707  -0.0001184058   0.0002478610  -0.0000902045  -0.0000645815
       -0.0009078075   0.0000156657  -0.0002038799  -0.0096748206   0.0018275327
        0.0013029436   0.0053854960   0.0019719400  -0.0017975684   0.0001811992
        0.0005895212  -0.0000041682   0.0000609480  -0.0001622028  -0.0004591279
       -0.0005003110   0.0002432937   0.0002525482   0.0004863039   0.0002665797
        0.0003929574   0.0001619648  -0.0004817862  -0.0005316612  -0.0002010794
        0.0005406974   0.0006198502   0.0006969543  -0.0008889791  -0.0006615786
        0.0001903081   0.0004876239   0.0001750071   0.0003212349  -0.0001716258
       -0.0001369463  -0.0002219839   0.0006929201   0.0000397570   0.0003852978
        0.0008954861  -0.0006133354  -0.0004633814  -0.0018530450   0.0000863225
       -0.0001500120   0.0191151797   0.0016290863  -0.0048063208  -0.0042219263
        0.0009138823  -0.0890169142  -0.0015753562   0.0243734053  -0.0014428464
       -0.0029966511  -0.0002175232   0.0006151055   0.0008507000  -0.0005717879
        0.0002544603  -0.0004820412   0.0000929934   0.0003552405  -0.0000468139
        0.0001951555  -0.0002900256   0.0002733339  -0.0003989140  -0.0008553844
       -0.0000488521  -0.0007044110  -0.0000412338  -0.0000091036   0.0000154036
       -0.0000290780  -0.0000376200   0.0000450494  -0.0000496329   0.0000022042
        0.0000025691  -0.0000523716  -0.0000180575   0.0000170062  -0.0000795543
        0.0000351859  -0.0000047240  -0.0000731552  -0.0000176059  -0.0000796056
       -0.0000434411   0.0000456226  -0.0000364367  -0.0000871280   0.0000461449
        0.0000598109  -0.0000100171   0.0000078844   0.0000206030   0.0000469720
       -0.0000293894   0.0000579365  -0.0000066255  -0.0000485962   0.0000612180
       -0.0000204707  -0.0000297643   0.0000132225  -0.0000273225  -0.0000389094
        0.0000021618  -0.0000518134  -0.0000097611   0.0000105369  -0.0000556509
        0.0000017633  -0.0000038845  -0.0000097988   0.0000070046   0.0000042469
       -0.0000449376  -0.0000086305   0.0000422646  -0.0000158066  -0.0000181142
        0.0000262126   0.0000082726  -0.0000224350  -0.0000134686   0.0000148324
       -0.0000539123   0.0000229579   0.0000077832  -0.0000156515   0.0000066259
        0.0000251153  -0.0000108165   0.0000413312   0.0000191308  -0.0000001378
        0.0000960161  -0.0001025011  -0.0000887352   0.0000682323  -0.0000115427
       -0.0000915896   0.0001400337  -0.0000210287   0.0000234639   0.0001021098
       -0.0000351854   0.0000283056   0.0000638403   0.0000069131  -0.0000457642
        0.0000711066  -0.0001420249   0.0000152025   0.0000068309  -0.0002109318
       -0.0001775763   0.0000412276  -0.0000823337  -0.0001485409   0.0000073065
       -0.0006355364  -0.0001755454   0.0006424565   0.0004077609  -0.0001870071
        0.0005166468  -0.0000212747   0.0000513710   0.0000722500   0.0000814111
        0.0000590001   0.0001264220   0.0001434606   0.0001004589   0.0000903403
        0.0005062658   0.0012274961   0.0016153261
        0.2340758181   0.1722275504  -0.0632375810  -0.2031408393  -0.1564502338
        0.0545504978  -0.0445010894  -0.0243825981   0.0127340629  -0.0009157638
       -0.0070516589   0.0000036118  -0.0009794881  -0.0013207631   0.0002943445
       -0.0016049059  -0.0003972408   0.0002158835   0.0001730436   0.0003826085
       -0.0004176799   0.0000125691  -0.0000864021   0.0001461412   0.0001087918
        0.0000651890  -0.0000551149  -0.0000751834   0.0000367603  -0.0000495595
        0.0000144217  -0.0000329818   0.0000544268  -0.0001510861   0.0000674733
       -0.0000636932  -0.0001827664  -0.0000657001   0.0000829869   0.0000511593
        0.0000574318  -0.0000156462  -0.0000433851  -0.0000315618   0.0000429757
        0.0000948552  -0.0000032826   0.0001198404  -0.0001350006   0.0000794014
       -0.0001133172   0.0005266024  -0.0005543338   0.0004111167   0.0001200126
        0.0021448518  -0.0000724375  -0.0007333218  -0.0012125309   0.0000202403
       -0.0003055161   0.0005877249  -0.0002151166   0.0000381178  -0.0001042117
        0.0001353039   0.0000246958   0.0001145634  -0.0001070838  -0.0001193255
       -0.0000381924  -0.0000773460   0.0001131870  -0.0000541903   0.0000978485
       -0.0001649872   0.0000081114  -0.0001551386   0.0000964823  -0.0001566063
        0.0001636715  -0.0000868178   0.0000878197  -0.0000999215   0.0000165211
       -0.0001063404   0.0000954784   0.0001259256   0.0000817462   0.0000781061
       -0.0001295816  -0.0000322127  -0.0001041448   0.0007010101   0.0000477333
        0.0001998997  -0.0003447653   0.0006073706  -0.0002558151   0.0003347608
       -0.0006072090  -0.0000318899   0.0001004129   0.0003232000   0.0002889474
       -0.0000250863  -0.0000445587  -0.0001178351   0.0000062550   0.0000895226
        0.0000636384   0.0000705919  -0.0000170378   0.0000453019  -0.0000545575
        0.0000019122  -0.0000534636   0.0001193337  -0.0000392149   0.0000613397
       -0.0000179899  -0.0001209272  -0.0000910795   0.0000204821   0.0000463935
        0.0000397935  -0.0000041499  -0.0000516120  -0.0000471545  -0.0000920347
        0.0000346063  -0.0000758184   0.0000792629   0.0000590690   0.0000951034
       -0.0004825126   0.0001132408  -0.0002622921  -0.0031568019   0.0032021009
        0.0002254277   0.0029510917  -0.0002907885   0.0008729469  -0.0006044505
        0.0008422284   0.0005742450   0.0000738514  -0.0000349390  -0.0001345233
       -0.0000974306   0.0000638623   0.0000805586   0.0001077389   0.0000395146
        0.0000400467  -0.0000640419  -0.0000476572  -0.0000505483   0.0001595634
        0.0001135635   0.0001092281   0.0002741994  -0.0001046583  -0.0001239829
       -0.0001383366  -0.0000229900  -0.0001622783   0.0000493580   0.0000940294
        0.0000588210   0.0000213059   0.0000396427  -0.0001377950   0.0004363434
       -0.0000151217   0.0006556124  -0.0010050961  -0.0022713628  -0.0008571334
       -0.0021330238  -0.0036944368   0.0007277334   0.0042273609   0.0003123183
       -0.0010746801   0.0153653544   0.0192991181  -0.0034893242  -0.0012828767
        0.0011751319  -0.0003884302  -0.0003223669   0.0011177014  -0.0000441826
       -0.0000129143  -0.0000105679  -0.0001451209   0.0000056927   0.0000122071
        0.0001943445   0.0005996111   0.0002442373  -0.0001127221   0.0002236837
       -0.0012970364  -0.0022077996  -0.0000355035   0.0000024318  -0.0000603548
       -0.0000127078  -0.0000214798   0.0000114293  -0.0000330409  -0.0000091908
       -0.0000020269  -0.0000455072  -0.0000191638   0.0000030564  -0.0000365598
        0.0000091216  -0.0000159965  -0.0000366248  -0.0000071910  -0.0000517247
       -0.0000340387   0.0000325445  -0.0000741721   0.0000304922  -0.0001053921
        0.0000027610  -0.0000217956   0.0000153851  -0.0000260069   0.0000274900
       -0.0000191059   0.0000311891  -0.0000077336  -0.0000414091   0.0000393048
       -0.0000179812  -0.0000387123   0.0000011961  -0.0000280125  -0.0000326629
        0.0000024325  -0.0000421797  -0.0000213699  -0.0000140945  -0.0000423467
        0.0000038496  -0.0000313147   0.0000461597  -0.0000213069   0.0000351000
        0.0000147035  -0.0000020143   0.0000487347  -0.0000189830  -0.0000184051
       -0.0000102907   0.0000048174  -0.0000347690  -0.0000270182   0.0000190642
       -0.0000369605   0.0000027987   0.0000192196  -0.0000278841  -0.0000049123
        0.0000389360  -0.0000245981   0.0000209504   0.0000233895   0.0000040361
        0.0000355777  -0.0000231454  -0.0000359760  -0.0000706445   0.0000052756
       -0.0000019359   0.0000536396   0.0000016294  -0.0000487188  -0.0000221998
        0.0000282231  -0.0000326294  -0.0000250848   0.0000712624  -0.0000340699
        0.0000082426   0.0000430156  -0.0000240158   0.0000427088   0.0000291136
       -0.0000168403   0.0000786566   0.0000319139   0.0000469092   0.0001509091
        0.0000089574  -0.0005956148   0.0005785384   0.0001417206  -0.0000906550
        0.0002434445   0.0001171471  -0.0000290421   0.0000170273   0.0000561427
       -0.0001781673   0.0001725955   0.0000409396   0.0000046178   0.0000087027
        0.0012245729  -0.0016183913  -0.0000850299
       -0.1712676187  -0.0632375810   0.0710512086   0.1344083754   0.0554552516
       -0.0895585147   0.0113778258   0.0086603476   0.0118801987  -0.0000399685
        0.0027585042   0.0015777655  -0.0000459877  -0.0002568248  -0.0006602528
        0.0003144886   0.0002286237  -0.0002759968  -0.0000253807  -0.0001991108
        0.0000702801   0.0000067557   0.0000276951  -0.0000193523  -0.0000437664
       -0.0000085941   0.0000291122   0.0000130290  -0.0000135066   0.0000215774
       -0.0000096207   0.0000200643  -0.0000049757   0.0000288277  -0.0000069392
        0.0000081500   0.0000352159   0.0000048991  -0.0000053808  -0.0000504914
       -0.0000103119   0.0000113079  -0.0000091350   0.0000141351  -0.0000122513
       -0.0000387485   0.0000271307  -0.0000383271   0.0001010088   0.0000502922
        0.0000368683  -0.0003051397   0.0001211575  -0.0002031592  -0.0001545675
       -0.0004971409   0.0000436176   0.0001359335   0.0003018845   0.0002017735
        0.0000686699  -0.0001441613   0.0000333514  -0.0000175650   0.0000237842
       -0.0000165880  -0.0000111661  -0.0000336343   0.0000371050   0.0000400531
        0.0000113012   0.0000328103  -0.0000420164   0.0000248808  -0.0000410637
        0.0000438602  -0.0000381575   0.0000651811  -0.0000295915   0.0000556930
       -0.0000469659   0.0000239977  -0.0000393585   0.0000374902  -0.0000132097
        0.0000315486  -0.0000295421  -0.0000408925  -0.0000218184  -0.0000153927
        0.0000288461   0.0000597105   0.0000268561  -0.0002054999  -0.0000238028
       -0.0000736368   0.0002201622   0.0002696762  -0.0011451351  -0.0000949653
        0.0001511671   0.0001993183  -0.0000298671  -0.0001127494  -0.0001118937
       -0.0000397517   0.0000088772   0.0000378671  -0.0000056445  -0.0000129168
       -0.0000023211  -0.0000108347  -0.0000040842  -0.0000000113   0.0000102164
       -0.0000190322   0.0000028947  -0.0000579771   0.0000381852   0.0000012309
        0.0000150075   0.0000076285   0.0000396830  -0.0000213354  -0.0000048226
       -0.0000077491  -0.0000002500   0.0000137150   0.0000188207   0.0000187595
       -0.0000150057   0.0000215369   0.0000125695  -0.0000591757  -0.0000300247
        0.0000555975   0.0000392507  -0.0000439761   0.0016740346  -0.0008180522
       -0.0005633167  -0.0007984145  -0.0003820688   0.0008241612  -0.0000954841
        0.0002402346   0.0000180984  -0.0000881679  -0.0001159296   0.0000642869
       -0.0000419742   0.0000350943   0.0000754613   0.0000069525  -0.0000124270
        0.0000291762   0.0000318054   0.0000165254   0.0000350731  -0.0002044971
       -0.0000390277  -0.0000403513   0.0001745785  -0.0001002094   0.0000289540
       -0.0000919328  -0.0000316039   0.0000312518   0.0001468653  -0.0001247747
        0.0000323610  -0.0001018377   0.0000997451   0.0001799058   0.0006376858
        0.0002433416  -0.0011160815  -0.0008336968   0.0007376217  -0.0006881021
        0.0007914125  -0.0046146148   0.0046430642   0.0009136452   0.0010731815
       -0.0014637104   0.0235030469   0.0012092735   0.0070550638   0.0001153533
        0.0000016409  -0.0008142154  -0.0000376088  -0.0003452016   0.0004374106
        0.0000195721   0.0001577098   0.0000789034  -0.0002182363  -0.0000398241
       -0.0000423913   0.0004183178  -0.0003287178   0.0002839278  -0.0005097527
       -0.0004259089  -0.0010249251   0.0000172394  -0.0000135804  -0.0000024416
        0.0000084759   0.0000042333  -0.0000092082   0.0000156610  -0.0000051292
       -0.0000003811   0.0000188422   0.0000061172  -0.0000059492   0.0000135355
       -0.0000120990   0.0000067794   0.0000138309  -0.0000034915   0.0000205529
        0.0000310985  -0.0000281762   0.0000294168   0.0000122479   0.0000023229
       -0.0000549017   0.0000081622  -0.0000022469  -0.0000055257  -0.0000080397
        0.0000002519  -0.0000100764   0.0000036507   0.0000131668  -0.0000136846
        0.0000081018   0.0000085925  -0.0000017347   0.0000091028   0.0000067927
        0.0000001213   0.0000131600   0.0000007385  -0.0000000888   0.0000237285
       -0.0000030320   0.0000076497  -0.0000017460  -0.0000147192  -0.0000086841
        0.0000336603  -0.0000053819  -0.0000159302   0.0000118729   0.0000073132
       -0.0000003596   0.0000023412   0.0000055619   0.0000061235  -0.0000001637
        0.0000113368  -0.0000065438  -0.0000013974   0.0000135171   0.0000064484
       -0.0000073931   0.0000106422  -0.0000041867   0.0000162024  -0.0000058203
        0.0000051845  -0.0000289225  -0.0000091070   0.0000186659   0.0001145861
        0.0000863395  -0.0000092135   0.0000200027   0.0000177796  -0.0000189573
        0.0000245346   0.0000126467  -0.0000002794   0.0000173483   0.0000178968
       -0.0000283607  -0.0000378297   0.0000804512   0.0000109471  -0.0000558067
        0.0000583144   0.0000041244   0.0000250797   0.0000585089   0.0001219909
       -0.0008291648   0.0009341522  -0.0007096750   0.0000526486   0.0000198398
       -0.0001362751   0.0000657102  -0.0000342762  -0.0000281534   0.0000541504
       -0.0000898598  -0.0000002329  -0.0000034885  -0.0000032848  -0.0000426421
        0.0005791022  -0.0012289951  -0.0003320192
       -0.5575048647  -0.2031408393   0.1344083754   0.8279509824   0.1860425391
       -0.1620555449  -0.0677137936  -0.0236406959   0.0012753484  -0.0268881005
       -0.0119598937   0.0057982033  -0.0066883486  -0.0013729310   0.0018699767
        0.0002846138  -0.0008950850  -0.0000435978  -0.0008831675  -0.0008913972
        0.0002876054   0.0001130142   0.0001500451  -0.0000659958  -0.0001460646
       -0.0000302445   0.0000830924   0.0000363820  -0.0000484683   0.0000888289
       -0.0001699565   0.0001132426  -0.0000655154   0.0001499260  -0.0002149455
        0.0002817495  -0.0001381984   0.0000874377  -0.0001259190  -0.0000405833
       -0.0001622499   0.0001992006   0.0000569605   0.0001868599  -0.0001889848
       -0.0002537765   0.0000812676  -0.0002373865  -0.0001496984   0.0003205572
        0.0004959918  -0.0000440046   0.0002980486  -0.0000153355  -0.0009652688
       -0.0002773479   0.0002426505  -0.0003161904   0.0004206061  -0.0001376979
        0.0001565037  -0.0002246514   0.0001150459   0.0000388114   0.0001198867
       -0.0000086179  -0.0000170658  -0.0000513667   0.0001002548   0.0000669784
        0.0000269931   0.0000546587  -0.0000867560   0.0000408321  -0.0000666466
        0.0000563365  -0.0000365479   0.0000801436  -0.0001159992   0.0001083786
       -0.0001053632   0.0000420689  -0.0000814500   0.0000834873  -0.0000350562
        0.0000612624  -0.0000610593  -0.0001017384  -0.0000421502   0.0000174954
       -0.0000392139  -0.0000059587   0.0000720325  -0.0002295399  -0.0001338282
       -0.0001664511  -0.0001774891   0.0010651598   0.0000815536  -0.0012740057
        0.0026916991   0.0002086103  -0.0003426489  -0.0003713379  -0.0003268210
       -0.0000590074   0.0000584657   0.0002317228   0.0000500513  -0.0001985917
       -0.0000983673  -0.0002272464   0.0000979129  -0.0000956507   0.0001062867
        0.0000945019   0.0002161471  -0.0002924197  -0.0000611251  -0.0002471822
        0.0000919786   0.0002772111   0.0003139436  -0.0001398686  -0.0001032909
       -0.0000885580  -0.0000747766   0.0001693287   0.0001239685   0.0001062288
       -0.0001411265   0.0001699851  -0.0003889231   0.0001197459   0.0000696463
        0.0013200980   0.0000782288   0.0002217911   0.0165123955   0.0114562285
       -0.0032936284  -0.0044333176  -0.0025334931   0.0017334491  -0.0008793054
        0.0001836084   0.0004618499   0.0000480628  -0.0000041788   0.0004898762
        0.0004188489  -0.0002545056  -0.0002260880  -0.0005071160  -0.0002781426
       -0.0003681460  -0.0003086440   0.0004051233   0.0005421271   0.0004726453
       -0.0004028043  -0.0004303438  -0.0008804713   0.0008945664   0.0005073377
       -0.0002271352  -0.0005320465  -0.0001125405  -0.0004652626   0.0000931977
        0.0001689676   0.0000057071  -0.0006692109  -0.0005318946  -0.0016489126
       -0.0007466288  -0.0002685856  -0.0003529655   0.0033196592  -0.0006728982
       -0.0464101467  -0.0267989262   0.0083198765  -0.0001665814   0.0021298930
        0.0007948578  -0.1333579012   0.0575693278   0.0147203545   0.0057681467
        0.0164990179  -0.0013077127   0.0004515307  -0.0054553007   0.0010851975
       -0.0002697244   0.0010806916   0.0000976356  -0.0003463909  -0.0001893143
       -0.0002691506  -0.0003308608   0.0001882329   0.0007626819   0.0003154043
       -0.0027249022   0.0018863689  -0.0000169458   0.0000004004  -0.0001026057
        0.0000277567   0.0000370660  -0.0000884130   0.0000682031  -0.0000134803
       -0.0000204917   0.0000629170   0.0000106673  -0.0000254849   0.0001351704
       -0.0000523904  -0.0000170616   0.0001210314   0.0000187759   0.0000885844
        0.0000373589  -0.0000632035  -0.0000145913   0.0000603380  -0.0001960456
       -0.0001589607   0.0000082060  -0.0000253371   0.0000028196  -0.0000482269
        0.0000167552  -0.0000664829   0.0000033524   0.0000509459  -0.0000576224
        0.0000232027   0.0000209446  -0.0000235972   0.0000275178   0.0000417463
       -0.0000043313   0.0000525032   0.0000026538  -0.0000341782   0.0000507958
       -0.0000066006  -0.0000270803   0.0000338176  -0.0000490469   0.0000230241
        0.0000372715  -0.0000247196  -0.0000562471   0.0000103432   0.0000123793
       -0.0000344467  -0.0000084468   0.0000131788   0.0000002455  -0.0000069650
        0.0000731396  -0.0000318061  -0.0000145898   0.0000041665  -0.0000102876
       -0.0000075795   0.0000134551  -0.0000555871  -0.0000036607   0.0000086356
       -0.0001334122   0.0002072248   0.0000692522  -0.0000656129   0.0000060918
        0.0000895999  -0.0002813368   0.0000299659  -0.0000646113  -0.0001817520
        0.0000739532  -0.0000512784  -0.0001254263   0.0000241204   0.0000417862
       -0.0000834895   0.0002582152   0.0000003759  -0.0000126876   0.0003622833
        0.0001505909   0.0000510717   0.0001670877   0.0001987020   0.0001198512
        0.0011702014   0.0004241355  -0.0014663113  -0.0007955420   0.0003593809
       -0.0008655473   0.0001235493  -0.0003544894   0.0000115889  -0.0001076551
       -0.0002200813  -0.0003009955  -0.0003289816  -0.0004597297  -0.0002402724
       -0.0003753409  -0.0019325001  -0.0027914726
       -0.2054587329  -0.1564502338   0.0554552516   0.1860425391   0.4875829190
       -0.0536431866  -0.0297181435  -0.1510360067   0.0094540379  -0.0314003668
       -0.0198859274   0.0064060860   0.0000183282   0.0137537049  -0.0015718656
        0.0022215804  -0.0007623213  -0.0002196806  -0.0001634244  -0.0004013002
        0.0006387535  -0.0001154414   0.0000619314  -0.0003178207  -0.0001985110
       -0.0001694441   0.0000890503   0.0001358740  -0.0000755938   0.0000603068
        0.0000212003  -0.0000078803  -0.0000731888   0.0001200459  -0.0000422262
        0.0000745111   0.0006446245   0.0001175637  -0.0001120881  -0.0001761719
        0.0000042406  -0.0001929395   0.0000126880  -0.0000954755   0.0000600716
        0.0000149812  -0.0000704028  -0.0001252402   0.0004448685  -0.0004720810
       -0.0000678181  -0.0012331198   0.0013368205  -0.0010064433   0.0008054486
       -0.0101744091  -0.0002798264   0.0036214750   0.0055199091   0.0002281601
        0.0012689151  -0.0023477423   0.0006024069  -0.0000432868   0.0004324423
       -0.0004868483  -0.0001376640  -0.0004621432   0.0003790844   0.0004770990
        0.0001488398   0.0003048195  -0.0004494276   0.0002077327  -0.0003851315
        0.0007001385  -0.0000971109   0.0006846134  -0.0004140447   0.0005588746
       -0.0006985705   0.0003875029  -0.0003250651   0.0003771274  -0.0000538735
        0.0004129401  -0.0003717302  -0.0004000219  -0.0003271783  -0.0003296658
        0.0006118614   0.0002378115   0.0002552986  -0.0028085089   0.0001728073
       -0.0004322025   0.0034870502  -0.0002394934  -0.0011072338  -0.0003421652
       -0.0001674191   0.0000680833  -0.0000516099  -0.0005682436  -0.0005516119
        0.0000196040   0.0000661906   0.0002001215  -0.0000585488  -0.0001742170
       -0.0001572734  -0.0000674866  -0.0000230304  -0.0000645752   0.0000913054
       -0.0000800047   0.0000338583  -0.0001194020   0.0000941849  -0.0000655301
       -0.0000615358   0.0002646889   0.0000879712   0.0000916087  -0.0001260573
       -0.0000175113   0.0000483242   0.0000096147   0.0000546820   0.0002175659
       -0.0000451742   0.0001202516  -0.0000831726  -0.0000904037  -0.0002125942
        0.0007977805  -0.0003345784   0.0006743567   0.0127690519  -0.0337126751
       -0.0012081580  -0.0107279936   0.0001159360   0.0009085480   0.0018053110
       -0.0033554096  -0.0016505100  -0.0004421910   0.0006205327   0.0007880008
        0.0007572320  -0.0002870028  -0.0004394285  -0.0006037556  -0.0003119022
       -0.0004918782   0.0001336866   0.0006019544   0.0005637040  -0.0006557107
       -0.0008236095  -0.0009727684  -0.0005617271   0.0008979972   0.0008534915
       -0.0000439288  -0.0006539406  -0.0004081370  -0.0005423802   0.0004116726
        0.0004243079   0.0007534280  -0.0002069753   0.0007665767  -0.0008811943
       -0.0005213185  -0.0005659333   0.0029095632   0.0039899516   0.0015424678
        0.0268839686   0.0382802822  -0.0066707247  -0.0191180897  -0.0036767943
        0.0046168255   0.0367011603  -0.1358162782  -0.0091744290   0.0213578148
       -0.0295961979  -0.0030072095  -0.0004760949  -0.0021501530  -0.0010143375
        0.0005528859  -0.0016587659   0.0013838926   0.0001859990   0.0002600957
        0.0000657869  -0.0007165288  -0.0009179925   0.0002286072   0.0018048031
        0.0006599582   0.0007263277   0.0000690849   0.0000666322   0.0001988931
        0.0000069784   0.0000339701   0.0000457729   0.0000403453   0.0000351919
        0.0000358000   0.0000801479   0.0000422048   0.0000261113   0.0000058516
        0.0000277373   0.0000548200   0.0000083868   0.0000221865   0.0000823023
        0.0000324886  -0.0000323127   0.0001847494  -0.0002613607   0.0002976477
        0.0002402873   0.0000079853  -0.0000874797   0.0000015425  -0.0000764882
        0.0000541308  -0.0000829074   0.0000240332   0.0000957199  -0.0001062322
        0.0000375045   0.0001362123   0.0000232992   0.0000888104   0.0000810118
       -0.0000152889   0.0000981496   0.0000690869   0.0000900382   0.0001028102
       -0.0000277814   0.0001554345  -0.0001976742   0.0000260549   0.0000242484
        0.0000009739   0.0000293590  -0.0000945463   0.0000600779   0.0000408995
        0.0000372272  -0.0000105045   0.0000986843   0.0000746014  -0.0000589837
        0.0000715987   0.0000040134  -0.0000379283   0.0000813954   0.0000103611
       -0.0001071223   0.0000504078  -0.0000240024  -0.0000714233  -0.0000212327
       -0.0000394860   0.0000065284   0.0000366520   0.0001208164   0.0000323285
       -0.0000264362  -0.0000308087  -0.0000069544   0.0001178634   0.0001114217
       -0.0001036943   0.0000509868   0.0000786689  -0.0001717334   0.0000997639
       -0.0000227428  -0.0001441836  -0.0000796798  -0.0000334385  -0.0000991545
        0.0000833247  -0.0002284910  -0.0000995273  -0.0001158639  -0.0003789848
        0.0008940272   0.0006584946   0.0004421430  -0.0000225758  -0.0000499280
       -0.0002888286  -0.0003024616   0.0000352550  -0.0001395190   0.0000180816
        0.0005067382  -0.0002237863   0.0002002669   0.0003924213   0.0001577305
       -0.0006361504  -0.0009823355  -0.0015745690
        0.1325986904   0.0545504978  -0.0895585147  -0.1620555449  -0.0536431866
        0.2011380837   0.0030904945   0.0064962948  -0.0634676240   0.0036970064
        0.0005759407  -0.0001624819   0.0024318680   0.0000572943   0.0053571641
       -0.0005208482  -0.0000722268   0.0001464083   0.0000830491   0.0003206595
       -0.0000448801   0.0000044754  -0.0000500753   0.0000523887   0.0000822182
        0.0000223359  -0.0000701133  -0.0000437180   0.0000271883  -0.0000480330
        0.0000122205  -0.0000523458   0.0000307524   0.0000109549   0.0000341645
       -0.0000605379  -0.0000914297  -0.0000229872  -0.0000020462   0.0000852853
        0.0000159382  -0.0000067178   0.0000146369  -0.0000258417   0.0000194573
        0.0000689752  -0.0000222052   0.0000435395  -0.0002649291  -0.0000801423
       -0.0000181879   0.0005562141  -0.0003168742   0.0004098762  -0.0004156136
        0.0008472483   0.0006635547  -0.0003241677  -0.0003544956  -0.0014151906
        0.0000897086   0.0002563873  -0.0001281030   0.0000819309  -0.0000037265
        0.0000175019   0.0000008934   0.0000363491  -0.0000442008  -0.0000389179
       -0.0000205977  -0.0000338873   0.0000442452  -0.0000129236   0.0000556584
       -0.0000644667   0.0000906632  -0.0001145895  -0.0000383209  -0.0000971166
        0.0000243766  -0.0000273525   0.0000437861  -0.0000212203   0.0000165574
       -0.0000387022   0.0000298981   0.0000453436   0.0000398153   0.0000175060
       -0.0000611685  -0.0001213554  -0.0000287761   0.0002672365  -0.0001472380
        0.0000951049   0.0009830225  -0.0014747264   0.0078079772  -0.0000328306
       -0.0001775884  -0.0004312391   0.0001665857   0.0001811997   0.0001365152
        0.0000395248  -0.0000053257  -0.0000103956  -0.0000023220  -0.0000240805
       -0.0000125439  -0.0000268489   0.0000208050  -0.0000294619   0.0000256566
        0.0000433180   0.0000729900   0.0000618421  -0.0001076035  -0.0001112646
        0.0000386390   0.0000151117  -0.0000136531  -0.0000026322  -0.0000095774
       -0.0000264503   0.0000202862  -0.0000068169  -0.0000010504  -0.0000087606
        0.0000131211  -0.0000392514  -0.0000435428   0.0000981943   0.0000526266
       -0.0000057058  -0.0000590102   0.0000949702  -0.0057556221  -0.0000336242
       -0.0004708164   0.0017496795   0.0007051843  -0.0035707194   0.0001527343
        0.0002597870   0.0002270755   0.0001647214   0.0000059452  -0.0002220645
       -0.0001180732   0.0000360854   0.0000204125   0.0001374531   0.0000694791
        0.0000785258   0.0000034933  -0.0001313714  -0.0001293155   0.0002722591
        0.0001312394   0.0001669104  -0.0000541926  -0.0003806379  -0.0004001973
        0.0000995555   0.0001488505   0.0000812143   0.0000661827  -0.0000262123
       -0.0000189224   0.0000689132   0.0001372706  -0.0001570728  -0.0013215654
        0.0007239380  -0.0000497093   0.0001603431  -0.0002988386   0.0004816204
        0.0083154931   0.0066462717  -0.0093454234   0.0016349708  -0.0007265261
        0.0046418943   0.0178228338  -0.0158630656  -0.0475153774  -0.0026898576
        0.0002209953  -0.0030453201   0.0001423824   0.0027784037   0.0000129619
       -0.0006328670   0.0002810044   0.0001586631   0.0000748725  -0.0002684879
        0.0000470075  -0.0002194064   0.0002210368   0.0000803295   0.0006374040
       -0.0013437356  -0.0002627317  -0.0000325017   0.0000400578  -0.0000099301
       -0.0000129087  -0.0000023191   0.0000181785  -0.0000304148   0.0000097438
        0.0000033366  -0.0000327574  -0.0000069425   0.0000096403  -0.0000254223
        0.0000253089  -0.0000102562  -0.0000126225   0.0000092685  -0.0000365568
       -0.0000483261   0.0000545583  -0.0000604488   0.0000567394  -0.0000156571
        0.0000107363  -0.0000333296  -0.0000003492  -0.0000092880   0.0000074120
        0.0000033412   0.0000146185  -0.0000052853  -0.0000217461   0.0000148012
       -0.0000150248  -0.0000046112   0.0000031638  -0.0000204841  -0.0000091627
        0.0000002771  -0.0000148532   0.0000010535  -0.0000011160  -0.0000357412
        0.0000054487  -0.0000115950   0.0000172014   0.0000372594  -0.0000111973