$hessian                                                                        
        0.4970105293  -0.0229583724  -0.0224133967  -0.1297905510  -0.0439728940
       -0.0507586596   0.0079343588   0.0028080700   0.0038050996   0.0002150674
       -0.0001867696   0.0000439851   0.0000127584   0.0001832987  -0.0000422519
        0.0000375231  -0.0000464552   0.0000412802   0.0000075102   0.0000746621
       -0.0000138689  -0.0000590965  -0.0000582954  -0.0000634045   0.0000332376
       -0.0000095859   0.0000294178   0.0000077196   0.0000113098  -0.0000143305
        0.0000071474  -0.0000158387   0.0000045237  -0.0000154518   0.0000010590
       -0.0000053095   0.0000191470   0.0000043772  -0.0000029415   0.0000036736
        0.0000033917  -0.0000004100   0.0000102319  -0.0000372988   0.0000124934
       -0.0000012254   0.0000119106  -0.0000135374  -0.0000047248   0.0000141056
       -0.0000038932  -0.0000201231   0.0000019631  -0.0000142790   0.0000384078
       -0.0000078213   0.0000122754  -0.0000067777  -0.0000108491   0.0000009604
       -0.0000015257   0.0000043001  -0.0000024309   0.0000012695   0.0000035103
       -0.0000024280   0.0000089634   0.0000027022   0.0000003238  -0.0000067748
        0.0000153364  -0.0000064055  -0.0000321780  -0.0000131517  -0.0000013794
       -0.1209663962   0.0891108101  -0.0680181942  -0.1238669147  -0.0766900421
        0.0810859881  -0.0991554889   0.0689708181   0.0765672053  -0.0153056309
       -0.0120775235  -0.0093286854  -0.0170589018  -0.0082077384  -0.0144418735
        0.0000857943   0.0016934658   0.0024667839   0.0008882188   0.0008963499
        0.0005205654   0.0000405351   0.0000986124   0.0000218843  -0.0000617951
        0.0003733361   0.0004724048  -0.0000484099   0.0000099933   0.0000333613
        0.0000430026  -0.0000301374  -0.0000328529   0.0000151810   0.0000174110
        0.0000352680  -0.0000041154  -0.0000060215   0.0000054699  -0.0000030875
        0.0000035830   0.0000000307   0.0000027306   0.0000007988   0.0000021554
       -0.0000035131  -0.0000000289   0.0000016200   0.0000050082   0.0000064572
        0.0000036442   0.0000030260  -0.0000004309   0.0000064658   0.0000016878
        0.0000010850   0.0000010589   0.0000011112  -0.0000025951   0.0000016252
        0.0000028477   0.0000067357  -0.0000002664  -0.0000240059   0.0000023966
        0.0000049085
       -0.0229583724   0.5067800527  -0.0194806059  -0.0451400952  -0.0982495514
       -0.0342565676  -0.0100248193  -0.0106414666  -0.0137420151   0.0000048961
        0.0004433770   0.0002203582  -0.0001330999  -0.0000033546  -0.0000363441
       -0.0000214849   0.0000199731   0.0000177145  -0.0000120736  -0.0000265797
       -0.0000104906   0.0000085159   0.0000347940   0.0000700660  -0.0000258991
        0.0000025630  -0.0000313157   0.0000044301   0.0000072001   0.0000089630
        0.0000004865   0.0000189837  -0.0000030297   0.0000081809  -0.0000146565
        0.0000106269  -0.0000007953  -0.0000035678   0.0000065023   0.0000021877
       -0.0000107889   0.0000067362   0.0000224896   0.0000324625  -0.0000103480
        0.0000009018  -0.0000300641   0.0000248732  -0.0000093137  -0.0000024097
       -0.0000137411   0.0000312414  -0.0000198411   0.0000346990  -0.0000270452
        0.0000189749  -0.0000237402   0.0000157824  -0.0000176506   0.0000127883
       -0.0000210214   0.0000062901  -0.0000034437   0.0000040134  -0.0000105339
        0.0000054939   0.0000107292   0.0000394784   0.0000004619  -0.0000265055
       -0.0000132178   0.0000055971   0.0000186747   0.0000335434  -0.0000014073
        0.0890599782  -0.1457101615   0.0807007899  -0.0766062041  -0.1206886854
        0.0795572600   0.0688281140  -0.1270138492  -0.0902035973  -0.0164636296
       -0.0114099545  -0.0097719421   0.0126428933   0.0082475030   0.0094980091
        0.0009663096  -0.0016370899  -0.0028012014  -0.0001906302   0.0007589112
        0.0011919126  -0.0001071639  -0.0001432012  -0.0000599893   0.0001023691
       -0.0007537598  -0.0008375393   0.0000721387  -0.0000190566  -0.0000357476
       -0.0000501982  -0.0000217829   0.0000295311  -0.0000121082   0.0000099767
       -0.0000490623  -0.0000018829  -0.0000051759  -0.0000035048  -0.0000005052
       -0.0000043905  -0.0000010114  -0.0000016170   0.0000004185  -0.0000031062
        0.0000031389  -0.0000023582  -0.0000014738   0.0000032201  -0.0000038816
       -0.0000044923   0.0000028752  -0.0000095188  -0.0000097688  -0.0000005281
       -0.0000030948  -0.0000025208   0.0000055677  -0.0000062582  -0.0000001189
        0.0000114390  -0.0000009054  -0.0000007405   0.0000044196   0.0000223048
       -0.0000035176
       -0.0224133967  -0.0194806059   0.5058305463  -0.0516516616  -0.0335211321
       -0.1069957191  -0.0120369584  -0.0140851685  -0.0168000058   0.0000216170
        0.0000784363   0.0002025276  -0.0001027704  -0.0000235873  -0.0000248259
       -0.0000166936   0.0000690223  -0.0000031297  -0.0000281918  -0.0000291063
        0.0000276937   0.0000617347  -0.0000187514  -0.0000200386  -0.0000614734
        0.0000356346  -0.0000068791   0.0000004460  -0.0000306072   0.0000108851
       -0.0000025349   0.0000028327  -0.0000021762   0.0000114695   0.0000074872
       -0.0000019926  -0.0000094359  -0.0000000903  -0.0000029231   0.0000052995
       -0.0000192054   0.0000074129  -0.0000048723   0.0000347810  -0.0000153632
       -0.0000034461  -0.0000187806   0.0000018901   0.0000081759   0.0000120640
       -0.0000009978   0.0000031945  -0.0000264015   0.0000050535  -0.0000057890
        0.0000029220   0.0000003383  -0.0000004052  -0.0000039962   0.0000020689
       -0.0000062987  -0.0000012603  -0.0000011523   0.0000038611  -0.0000234498
        0.0000148604  -0.0000042246   0.0000381661  -0.0000019149  -0.0000056603
       -0.0000058443  -0.0000012719   0.0000343910   0.0000291466  -0.0000089901
       -0.0676767605   0.0806459566  -0.1061893908   0.0813700863   0.0799018846
       -0.1258529221   0.0765866686  -0.0904000567  -0.1449721402   0.0101811705
        0.0069841429   0.0082527262  -0.0142490533  -0.0063003710  -0.0106371888
        0.0014008672  -0.0032557594  -0.0033437439  -0.0011116679  -0.0003243993
        0.0006808109   0.0000505545  -0.0001233407  -0.0000777817  -0.0003528174
       -0.0001249156  -0.0000494142   0.0000268918   0.0000030732  -0.0000499382
       -0.0000385886  -0.0000277000   0.0000133515  -0.0000266862  -0.0000217051
        0.0000221040   0.0000035563   0.0000133744  -0.0000058172   0.0000102855
        0.0000005517   0.0000018684   0.0000029626  -0.0000000748   0.0000018206
        0.0000018871   0.0000017750   0.0000008899   0.0000020908  -0.0000046689
        0.0000050250   0.0000002193  -0.0000012700   0.0000038104  -0.0000006474
       -0.0000056785   0.0000030407  -0.0000044056  -0.0000087401   0.0000029637
       -0.0000034868   0.0000003474  -0.0000035710   0.0000304968   0.0000250687
       -0.0000223998
       -0.1297905510  -0.0451400952  -0.0516516616   0.4942063420   0.0004884211
       -0.0010880866  -0.0892313724   0.0287647777   0.0416913371  -0.0087125505
        0.0125955255   0.0104279449  -0.0014354751   0.0022262711  -0.0009449320
       -0.0002048261   0.0005266550   0.0004819391   0.0000565249   0.0001776613
       -0.0000303256   0.0000012708  -0.0001156136  -0.0000457262  -0.0000861054
        0.0000241474   0.0000046444   0.0000308846   0.0000150597  -0.0000150466
       -0.0000130312   0.0000042171  -0.0000062222  -0.0000182695  -0.0000132945
       -0.0000002614   0.0000154893   0.0000063736  -0.0000049511  -0.0000013428
       -0.0000166222   0.0000117655   0.0000362746  -0.0000322883  -0.0000383165
       -0.0000144439  -0.0000106842  -0.0000042961   0.0000370530   0.0000491952
       -0.0000798975  -0.0000647572  -0.0000381372   0.0000115974   0.0000326984
       -0.0000269600   0.0000095541   0.0000033442  -0.0000022137   0.0000050908
       -0.0000125013   0.0000068465  -0.0000052155  -0.0000013321  -0.0000231822
        0.0000242388   0.0000241729   0.0000265221   0.0000212284  -0.0000158559
        0.0000036028   0.0000117801  -0.0000372482   0.0000619210  -0.0000165687
       -0.0158570745  -0.0073053403  -0.0133526488  -0.0162405732  -0.0127783038
       -0.0088601931   0.0079421323   0.0057050962   0.0062294929  -0.1116475055
       -0.0732209392   0.0729325644  -0.1259918609   0.0910881654  -0.0577345869
        0.0069116254  -0.0105506326  -0.0153553589  -0.0105439833   0.0086749001
        0.0172870260   0.0007087809  -0.0009633011   0.0000569006  -0.0000799357
       -0.0002342941   0.0001396390  -0.0000366520  -0.0000343364  -0.0001011251
        0.0000586323   0.0000071588  -0.0000775000  -0.0000312564   0.0000421764
        0.0000804659  -0.0000070565  -0.0000117516   0.0000109097   0.0000001668
        0.0000019508   0.0000016638   0.0000049403  -0.0000027862   0.0000038628
        0.0000004475  -0.0000072397   0.0000042802  -0.0000000150   0.0000027521
        0.0000179594   0.0000028902   0.0000006614  -0.0000031801   0.0000006202
       -0.0000024715  -0.0000006179  -0.0000048155  -0.0000071689   0.0000006753
       -0.0000170106   0.0000021876  -0.0000117724   0.0000231111   0.0000354108
       -0.0000380696
       -0.0439728940  -0.0982495514  -0.0335211321   0.0004884211   0.5058099580
       -0.0407900552   0.0276107810  -0.1012078300  -0.0492638146   0.0128862648
       -0.0173290091  -0.0141983484   0.0024896317  -0.0032749077   0.0013876756
        0.0004608708  -0.0005378321  -0.0008315467   0.0000151104  -0.0002201252
        0.0000754713  -0.0000019209   0.0000360081  -0.0000165842  -0.0000095469
        0.0000006651  -0.0000041122   0.0000104704  -0.0000025302   0.0000007465
       -0.0000094746   0.0000089910  -0.0000046926  -0.0000029276  -0.0000038005
        0.0000018380   0.0000166490   0.0000034138   0.0000050724  -0.0000072476
       -0.0000052449  -0.0000089112   0.0000076404   0.0000695752   0.0000716829
       -0.0000201107  -0.0000335897   0.0000164460   0.0000093048   0.0000923703
        0.0000463805  -0.0000896073  -0.0000141151   0.0000158157   0.0000750690
       -0.0000265484  -0.0000030466  -0.0000083341  -0.0000186557   0.0000159273
       -0.0000432241   0.0000126454  -0.0000103977   0.0000109055  -0.0000040208
        0.0000299524   0.0000205979  -0.0000570605   0.0001114764   0.0000229365
        0.0000785316  -0.0000480880   0.0001119297  -0.0000539696   0.0000305216
        0.0121577862   0.0095216947   0.0102289672  -0.0157823586  -0.0116479291
       -0.0090342501  -0.0120228122  -0.0109727087  -0.0129718278  -0.0730564141
       -0.1258233149   0.0823601256   0.0910289878  -0.1466173044   0.0689220175
        0.0041747726  -0.0083575445  -0.0124681338  -0.0065712339   0.0079739498
        0.0109438038   0.0002712105   0.0002902453  -0.0008847675  -0.0003409424
        0.0005644834  -0.0002566987   0.0000345399   0.0001347806   0.0001650124
       -0.0000172639  -0.0000976272   0.0000467128   0.0000420519  -0.0000387451
       -0.0000044209   0.0000026831  -0.0000043139   0.0000025376  -0.0000012108
       -0.0000007103   0.0000002453  -0.0000002650   0.0000008091  -0.0000019415
       -0.0000014812   0.0000020507  -0.0000010500   0.0000035220  -0.0000073955
       -0.0000269588  -0.0000028254  -0.0000041703  -0.0000087509  -0.0000041793
        0.0000095770  -0.0000063029   0.0000044673  -0.0000018693  -0.0000036722
       -0.0000272570  -0.0000095789  -0.0000119454   0.0000369273   0.0000122543
       -0.0000969785
       -0.0507586596  -0.0342565676  -0.1069957191  -0.0010880866  -0.0407900552
        0.4896947100   0.0394110526  -0.0467282580  -0.1321561039  -0.0007184616
        0.0015644831   0.0066582731  -0.0013472697   0.0019966575   0.0000088440
        0.0000190264   0.0000478977   0.0005404230  -0.0000277365   0.0001731208
       -0.0000873840  -0.0001536180  -0.0000542875  -0.0000040265   0.0000906781
       -0.0000383084   0.0000328903  -0.0000223054  -0.0000071801  -0.0000097332
        0.0000023784  -0.0000016522  -0.0000008583   0.0000042921   0.0000001385
       -0.0000027058   0.0000116481  -0.0000223071   0.0000056978   0.0000296223
        0.0000409207  -0.0000035461   0.0000110946  -0.0001048316  -0.0000155404
        0.0000457770   0.0000467147  -0.0000191625  -0.0000612770  -0.0000896590
       -0.0000207569   0.0000728169   0.0000182943  -0.0000209886   0.0000026346
        0.0000446263  -0.0000000639  -0.0000126782  -0.0000331148   0.0000003689
       -0.0000004238  -0.0000081706  -0.0000021764   0.0000303525   0.0000239809
       -0.0000306629  -0.0000207460   0.0000334436  -0.0000238080  -0.0000241031
       -0.0000201967   0.0000198169  -0.0000523323   0.0000469449  -0.0000440991
       -0.0138976797  -0.0063166387  -0.0110046435   0.0105073059   0.0072059440
        0.0091186756  -0.0136529630  -0.0129693286  -0.0145139101   0.0726146182
        0.0818727218  -0.1222039930  -0.0580617049   0.0690564932  -0.0856070720
        0.0064299370  -0.0130342114  -0.0174941278   0.0115809391  -0.0085731209
       -0.0168371662  -0.0006734697   0.0008431849   0.0007119926  -0.0002798363
        0.0000079749   0.0002251526   0.0000750628   0.0000418169  -0.0000048504
       -0.0000844949  -0.0000923183   0.0000228944   0.0000207366   0.0000229924
        0.0000086141  -0.0000017326  -0.0000042945   0.0000062028  -0.0000047128
       -0.0000035284   0.0000036417  -0.0000079040   0.0000023005   0.0000012253
        0.0000008800   0.0000066475   0.0000008930  -0.0000055320   0.0000187753
        0.0000142466  -0.0000011330   0.0000047332   0.0000127762  -0.0000006482
        0.0000094594   0.0000021708   0.0000105160  -0.0000008089   0.0000069002
        0.0000199359  -0.0000009419   0.0000162397  -0.0000317962   0.0000195135
       -0.0000095508
        0.0079343588  -0.0100248193  -0.0120369584  -0.0892313724   0.0276107810
        0.0394110526   0.5093759611   0.0379917376   0.0052677748  -0.0998189767
        0.0467403894  -0.0270379419  -0.0079106897   0.0126789279  -0.0008022593
       -0.0006126812   0.0015094428   0.0017434410   0.0000419023   0.0003989947
       -0.0001157457   0.0000298597  -0.0000930741   0.0000711434  -0.0000522059
       -0.0000272847  -0.0000154960   0.0000295831   0.0000528435  -0.0000181165
       -0.0000109483  -0.0000040848  -0.0000000749  -0.0000204430  -0.0000161863
       -0.0000003675   0.0000047630   0.0000049238  -0.0000040319  -0.0000032467
       -0.0000104023   0.0000128906   0.0000394728  -0.0002212709  -0.0000456897
        0.0000138800   0.0000764927  -0.0000323962   0.0000316486   0.0000931630
       -0.0001708039  -0.0001500559  -0.0000187651  -0.0000309095   0.0000831603
       -0.0000299289   0.0000444041  -0.0000317386   0.0000220149  -0.0000189211
        0.0000158105   0.0000016010   0.0000067145   0.0000294773   0.0000025349
        0.0000051940  -0.0000253763  -0.0001267772  -0.0000118804   0.0000555966
        0.0001312840  -0.0000056361  -0.0002659594   0.0000103425  -0.0000187467
        0.0004877344   0.0001008219  -0.0001081861   0.0007688496  -0.0004377939
       -0.0009189192  -0.0020476604  -0.0026558016  -0.0032032120  -0.0097008378
        0.0083541781   0.0158924812  -0.0101817999   0.0127610708   0.0130181661
       -0.1631083342  -0.0593505157  -0.0967265351  -0.1285607787  -0.0815378637
        0.0722937249   0.0080516440  -0.0118752987   0.0066006817  -0.0160514523
        0.0186991257  -0.0120772940   0.0007599096  -0.0010474840  -0.0005495443
        0.0001569419   0.0003753453  -0.0005155909  -0.0001354646   0.0000775876
       -0.0000088070  -0.0000173816  -0.0000137839   0.0000050774  -0.0000044422
        0.0000045524  -0.0000021236   0.0000049499  -0.0000039955   0.0000027167
        0.0000000378  -0.0000113662   0.0000048628   0.0000000498   0.0000075756
        0.0000448411   0.0000021875   0.0000068886   0.0000003229  -0.0000012234
        0.0000053246  -0.0000009312  -0.0000060088   0.0000042397   0.0000002646
       -0.0000475015  -0.0000105450  -0.0000024088   0.0000788006  -0.0002051425
        0.0000537736
        0.0028080700  -0.0106414666  -0.0140851685   0.0287647777  -0.1012078300
       -0.0467282580   0.0379917376   0.4826212175  -0.0073868819   0.0462128896
       -0.1398304739   0.0404068313   0.0127995377  -0.0189958845   0.0013854477
        0.0015837796  -0.0019467139  -0.0027652813   0.0000632186  -0.0005122104
        0.0001088084  -0.0000311393   0.0000935060   0.0000272493  -0.0000409389
        0.0000113965  -0.0000326498   0.0000207823   0.0000110754   0.0000092219
       -0.0000133003   0.0000237649  -0.0000080307   0.0000023205  -0.0000198536
        0.0000123006   0.0000266935  -0.0000031525   0.0000178619  -0.0000002751
       -0.0000290000  -0.0000056546   0.0000459761   0.0000912484   0.0001980036
        0.0000129832  -0.0000383242   0.0000278500  -0.0000758170   0.0001092877
        0.0001519401  -0.0000645013   0.0000042890   0.0000050645   0.0000503259
       -0.0000123310  -0.0000123099  -0.0000058302  -0.0000144682   0.0000081133
       -0.0000276317   0.0000077853  -0.0000053333   0.0000140502   0.0000531845
       -0.0000061392   0.0000903298  -0.0000250971   0.0000991055   0.0001222190
        0.0000887406  -0.0000595262   0.0002294654  -0.0001670367   0.0000434157
        0.0003273515   0.0003219727   0.0005241759   0.0007047752   0.0001999555
       -0.0003770628  -0.0020356849  -0.0012673420  -0.0022236624  -0.0068413413
        0.0081470848   0.0108625480   0.0134447613  -0.0152914313  -0.0157703402
       -0.0598204910  -0.0704456096  -0.0448161494  -0.0816908964  -0.1193767617
        0.0701094033   0.0081805323  -0.0188861505   0.0106041056  -0.0021884024
        0.0057516139  -0.0016813864   0.0001799274   0.0003466251   0.0008696502
       -0.0007163546   0.0009390620   0.0007741410   0.0000653769   0.0000489287
       -0.0000941926  -0.0000030837  -0.0000142074   0.0000015109   0.0000001197
       -0.0000044763  -0.0000006579  -0.0000013862  -0.0000008373  -0.0000050621
       -0.0000005320   0.0000053349  -0.0000040705   0.0000036983  -0.0000105071
       -0.0000639512  -0.0000090156  -0.0000048919  -0.0000057682  -0.0000133862
        0.0000133052  -0.0000040679   0.0000081221   0.0000064190  -0.0000055208
       -0.0000349464  -0.0000141750   0.0000012156  -0.0001388669  -0.0001355649
       -0.0001008383
        0.0038050996  -0.0137420151  -0.0168000058   0.0416913371  -0.0492638146
       -0.1321561039   0.0052677748  -0.0073868819   0.4884563314  -0.0273243693
        0.0408610023  -0.0836520854   0.0102845464  -0.0160963583   0.0043813206
        0.0013109491  -0.0021120814  -0.0027488646   0.0000764748  -0.0010144069
        0.0004537845   0.0003833288   0.0003018110  -0.0000640543  -0.0001466863
        0.0000769522  -0.0000740019   0.0000337612  -0.0000283645   0.0000209061
       -0.0000212869  -0.0000004871   0.0000001082  -0.0000104874   0.0000151894
       -0.0000033977  -0.0000299153   0.0000590783  -0.0000137647  -0.0000554794
       -0.0000968571  -0.0000152131  -0.0000201669   0.0003390530   0.0001854009
       -0.0001008775  -0.0001290738   0.0000410212   0.0000858928   0.0001949842
        0.0002737017  -0.0001543788  -0.0000482664  -0.0000196340   0.0000220431
       -0.0000840879   0.0000334651   0.0000274953   0.0000790456  -0.0000227267
       -0.0000100125   0.0000608116  -0.0000226126  -0.0000067762  -0.0000431683
        0.0000238663   0.0000629940  -0.0001415032   0.0000345323  -0.0000066153
        0.0000689824  -0.0001285266   0.0004003508  -0.0003409323   0.0002103979
        0.0003528747   0.0002408418   0.0001949234   0.0005850449   0.0010559356
        0.0011193886  -0.0022805144  -0.0018528727  -0.0019789618   0.0122308081
       -0.0088242118  -0.0177420302  -0.0039910438   0.0041836859   0.0061756804
       -0.0965078541  -0.0441785199  -0.1226968378   0.0718935045   0.0702581766
       -0.1083982618  -0.0074800560   0.0161714286  -0.0083815803  -0.0115697924
        0.0131827336  -0.0077777363   0.0009018623  -0.0006682287   0.0006095985
        0.0002232987  -0.0008944010   0.0005456224   0.0000511555  -0.0000611048
       -0.0000356457   0.0000125058   0.0000366934  -0.0000140613   0.0000178150
        0.0000119621  -0.0000019835   0.0000208427  -0.0000047378   0.0000028132
       -0.0000057870  -0.0000081420   0.0000029060   0.0000117781  -0.0000516173
       -0.0000680264  -0.0000106987   0.0000120691   0.0000052092   0.0000030807
       -0.0000083153   0.0000051028  -0.0000199453   0.0000035945  -0.0000006956
       -0.0000472359   0.0000055008  -0.0000001476   0.0000433602  -0.0001390822
        0.0000408785
        0.0002150674   0.0000048961   0.0000216170  -0.0087125505   0.0128862648
       -0.0007184616  -0.0998189767   0.0462128896  -0.0273243693   0.5139326023
        0.0418819097   0.0090794178  -0.0759614697   0.0169069565   0.0348604395
       -0.0087992134   0.0156218036   0.0070904843   0.0004437443   0.0017685649
       -0.0004921479  -0.0000802260  -0.0005762306  -0.0002219763  -0.0001146461
        0.0000418726   0.0001430685   0.0000607312   0.0000382680  -0.0000498491
       -0.0000095180   0.0000018623  -0.0000202230  -0.0000057034  -0.0000280729
       -0.0000082611   0.0000052521  -0.0000250431  -0.0000368786  -0.0000014234
        0.0000222229   0.0000896538  -0.0000112062  -0.0003545095  -0.0007038625
        0.0001625091   0.0000924629  -0.0000274831  -0.0001905758   0.0000825741
       -0.0008311815  -0.0002439719  -0.0000358645   0.0000303133   0.0001648351
       -0.0002168261   0.0000409792  -0.0000368983   0.0000091558  -0.0000074036
       -0.0000056075  -0.0000404762   0.0000015234   0.0000632197   0.0000183939
       -0.0001267939  -0.0002343441   0.0002081443   0.0000847755   0.0002783639
        0.0002075560   0.0002952611  -0.0007315388  -0.0009766184   0.0010162495
        0.0001376496  -0.0001762506  -0.0005978071  -0.0000486552  -0.0000190854
        0.0001020624  -0.0001341730  -0.0000344993  -0.0001164727   0.0002052714
        0.0004743259  -0.0006800952  -0.0007184901   0.0019849948   0.0018086369
       -0.0163936856   0.0184201200  -0.0131681208   0.0082096824  -0.0122487456
        0.0067076698  -0.1274640504  -0.0789646964   0.0771992506  -0.1813080605
       -0.0607035994  -0.0957366926   0.0066207109  -0.0117788561  -0.0166559301
       -0.0089138404   0.0098547788   0.0184936397  -0.0002251976   0.0000372921
        0.0004270189  -0.0000186933  -0.0000263008   0.0000294942  -0.0000054196
        0.0000002394   0.0000058883   0.0000014391  -0.0000004222   0.0000144550
        0.0000080994  -0.0000142437   0.0000076116  -0.0000171185   0.0000548082
        0.0001922583   0.0000014103  -0.0000028673  -0.0000324591   0.0000008035
        0.0000147092  -0.0000046903   0.0000027905   0.0000111466   0.0000226256
       -0.0000033120   0.0000006053  -0.0000174206  -0.0003056163  -0.0006356100
       -0.0001858142
       -0.0001867696   0.0004433770   0.0000784363   0.0125955255  -0.0173290091
        0.0015644831   0.0467403894  -0.1398304739   0.0408610023   0.0418819097
        0.4719607528  -0.0157309893   0.0170012286  -0.0945364132  -0.0555698238
        0.0154352830  -0.0226499560  -0.0113146167  -0.0015541476  -0.0013681997
       -0.0003256522   0.0004426764   0.0002128953  -0.0007941106  -0.0003452916
        0.0001194937   0.0000674816   0.0000501267   0.0000096413  -0.0000032585
       -0.0000225351   0.0000226212  -0.0000236937  -0.0000057440  -0.0000315460
        0.0000200648  -0.0000049830   0.0000313318   0.0000148752  -0.0000566550
       -0.0001052033  -0.0000624609   0.0000901564   0.0000500750   0.0012441444
       -0.0000134946   0.0000293441  -0.0000164717   0.0001544370   0.0002636286
        0.0012322826  -0.0001330001   0.0000062723  -0.0000169197   0.0000803357
       -0.0000585448  -0.0000238375   0.0000254575   0.0000264346   0.0000200036
       -0.0000467892   0.0000624715  -0.0000308774  -0.0000493703  -0.0000174712
        0.0000213560   0.0002176154   0.0001339313   0.0000520218  -0.0000840702
       -0.0001356788  -0.0003334373   0.0014352670   0.0002137644  -0.0002817048
        0.0003789821  -0.0006138028  -0.0002912383   0.0000025132  -0.0001784158
        0.0000153267   0.0000865710   0.0000502316   0.0002055537  -0.0011020701
        0.0010745103   0.0008475885   0.0014920590  -0.0017070574  -0.0020813981
       -0.0014910420   0.0053089097  -0.0018966170   0.0088366186  -0.0194954562
        0.0111608602  -0.0784423600  -0.1138116394   0.0735931217  -0.0606947919
       -0.0672890663  -0.0390035184   0.0023712539  -0.0081741554  -0.0126346734
       -0.0047145669   0.0075953848   0.0098175232   0.0001266337   0.0001192950
        0.0002141410   0.0000031505   0.0000062664   0.0000142799   0.0000106412
        0.0000046275  -0.0000000497   0.0000086545  -0.0000014362  -0.0000073718
       -0.0000036200   0.0000052344  -0.0000014351   0.0000189413  -0.0000905389
       -0.0003107809  -0.0000099651   0.0000148932   0.0000021825  -0.0000080837
        0.0000151101  -0.0000034644   0.0000073788   0.0000075881  -0.0000085390
       -0.0000241061   0.0000060628  -0.0000074770  -0.0005003502  -0.0003700847
       -0.0002723118
        0.0000439851   0.0002203582   0.0002025276   0.0104279449  -0.0141983484
        0.0066582731  -0.0270379419   0.0404068313  -0.0836520854   0.0090794178
       -0.0157309893   0.4900982743   0.0299923327  -0.0476058110  -0.1336436678
        0.0011384574  -0.0015014306   0.0093053591  -0.0011532313   0.0020474403
       -0.0008221458  -0.0004809163  -0.0004902165  -0.0001391009   0.0000774443
       -0.0000771837   0.0000940234  -0.0000545790   0.0000079515  -0.0000469322
        0.0000318773  -0.0000231305   0.0000017130   0.0000285211  -0.0000023608
       -0.0000111313   0.0000257493  -0.0000993844   0.0000121859   0.0000824500
        0.0001241084   0.0000247535   0.0000866839  -0.0008177168  -0.0001904235
        0.0000918387   0.0003299690  -0.0001579738   0.0000879373  -0.0004345062
       -0.0002405940   0.0002530262   0.0000369227  -0.0000505082  -0.0000507453
        0.0002531627  -0.0000042774  -0.0000954500  -0.0000987571   0.0000012635
        0.0000664063  -0.0000799648   0.0000360798   0.0001004601   0.0000917671
       -0.0000975856   0.0000086478   0.0000697348  -0.0004283663  -0.0002967415
       -0.0001512111   0.0000517446  -0.0005113527   0.0015908549  -0.0005416169
        0.0003251417  -0.0005874959  -0.0004076933   0.0000043090  -0.0001726973
       -0.0000280109  -0.0000328309  -0.0001786197   0.0000752832   0.0001852736
       -0.0011283608   0.0007727833   0.0026198642  -0.0032997129  -0.0022912754
       -0.0127225396   0.0136288621  -0.0093868505  -0.0071880905   0.0156700531
       -0.0083609383   0.0770770132   0.0740415747  -0.1197162910  -0.0958302470
       -0.0392532364  -0.1115077753   0.0031651655  -0.0131633767  -0.0177775196
        0.0106004965  -0.0092075889  -0.0186812427  -0.0000631849   0.0000145701
        0.0002573303  -0.0000168733  -0.0000383910   0.0000368124  -0.0000099935
       -0.0000109840   0.0000104119  -0.0000253862   0.0000030644   0.0000062974
        0.0000080394   0.0000148491   0.0000057236  -0.0000223575   0.0000807293
        0.0001368615   0.0000214712  -0.0000041163   0.0000251731  -0.0000022804
        0.0000110008   0.0000050700   0.0000130391  -0.0000037035   0.0000272858
        0.0000166122  -0.0000197277   0.0000205914  -0.0000648640  -0.0002647821
        0.0003181845
        0.0000127584  -0.0001330999  -0.0001027704  -0.0014354751   0.0024896317
       -0.0013472697  -0.0079106897   0.0127995377   0.0102845464  -0.0759614697
        0.0170012286   0.0299923327   0.5120472830   0.0403217202   0.0192261580
       -0.1012325041   0.0534594860  -0.0273630918  -0.0219221600   0.0237635890
       -0.0120192115   0.0007454505   0.0007182717   0.0002491529   0.0003513323
        0.0002181453  -0.0000779454   0.0000546224   0.0001290786  -0.0000569323
        0.0000207297   0.0000101696   0.0000068093  -0.0001039125  -0.0000119507
       -0.0000138260  -0.0001761721  -0.0001550946   0.0000197351  -0.0012212713
        0.0009758796  -0.0004919321  -0.0037388815  -0.0021092304  -0.0003585779
       -0.0004573161   0.0004765609  -0.0002355363  -0.0002224973  -0.0030134765
       -0.0001121998   0.0002248988  -0.0007474965   0.0003557991   0.0001403105
        0.0003084378   0.0000419115  -0.0001654394   0.0000132880  -0.0000310816
        0.0000271950  -0.0000931161   0.0001091884   0.0001418959   0.0000832248
        0.0002326577  -0.0001584225   0.0001952533  -0.0003361057  -0.0002640660
       -0.0002488690   0.0003319780   0.0083599280  -0.0049487222   0.0019838845
       -0.0000488735   0.0000232252   0.0001277006  -0.0000109641  -0.0000155051
       -0.0000095354   0.0001005740  -0.0000041129   0.0000932392   0.0000707209
        0.0000091390  -0.0001241404  -0.0004448032   0.0007065527   0.0005443451
        0.0003273427   0.0005072263   0.0009631928   0.0004830429  -0.0007924358
        0.0001079379  -0.0084557943   0.0097626047   0.0173487644   0.0064591476
       -0.0118230659  -0.0164065688  -0.1764923919  -0.0610515430  -0.0989039204
       -0.1268158199  -0.0775350922   0.0757023236  -0.0008373194   0.0002707670
       -0.0004678677  -0.0000365841  -0.0000865742   0.0000101450  -0.0000480073
       -0.0000147329   0.0000021452  -0.0000457446  -0.0000118229   0.0000022014
        0.0000021348  -0.0000316036   0.0000072871   0.0000798811   0.0000844769
        0.0002397525  -0.0001296859  -0.0002283100   0.0000532956   0.0000089635
        0.0000086529  -0.0000223920   0.0000043128  -0.0000342510  -0.0000469011
        0.0000224201   0.0000146051  -0.0000064560  -0.0013486791  -0.0012606471
        0.0004977783
        0.0001832987  -0.0000033546  -0.0000235873   0.0022262711  -0.0032749077
        0.0019966575   0.0126789279  -0.0189958845  -0.0160963583   0.0169069565