$hessian                                                                        
        0.6158323237   0.0689051685   0.1538654242  -0.1301626331  -0.1244336769
        0.0240927662  -0.0260721611  -0.0291621178   0.0027030600   0.0045166394
        0.0055394692   0.0018472073  -0.0024591754  -0.0004254578  -0.0005847483
        0.0008052777  -0.0005568168   0.0004749709  -0.0004633459  -0.0003134703
       -0.0000997731   0.0000588108  -0.0000847163   0.0000424542   0.0000516082
        0.0000636744   0.0000096880  -0.0000098309   0.0000251571  -0.0000082750
       -0.0000283309  -0.0000048973  -0.0000088831  -0.0000049305   0.0000053173
       -0.0000047988  -0.0000391889  -0.0000107763  -0.0000075162   0.0001455279
        0.0000971512   0.0000429057  -0.0005986212  -0.0000997910  -0.0001775928
        0.0001749761   0.0002632803  -0.0000149335   0.0000418814  -0.0000974206
        0.0000065564   0.0000353372   0.0000451291  -0.0000161201  -0.0000075502
       -0.0000664612  -0.0000274789  -0.0000038937  -0.0000045945   0.0000007123
        0.0000017442   0.0000167455   0.0000017704   0.0000335054  -0.0000136655
       -0.0000082178  -0.0000370582   0.0000082585  -0.0000003889   0.0000229529
       -0.0000018570  -0.0000038377  -0.0000008029   0.0000239386   0.0000097894
       -0.0000192767  -0.0000340791  -0.0000142590  -0.0000070849   0.0000135161
        0.0000066021  -0.0000051952  -0.0000069399  -0.0000038458  -0.0000065628
        0.0000004755  -0.0000011749  -0.0000189203   0.0000031099   0.0000015763
        0.0000098773   0.0000101123   0.0000033862  -0.0000361717  -0.0000026513
       -0.0000094872   0.0000689037   0.0000176693   0.0000178628  -0.0000128233
        0.0000007209   0.0000064174   0.0000306524  -0.0000023415   0.0000279120
       -0.0000309990   0.0000076481  -0.0000270910  -0.0000041381  -0.0000157689
       -0.0000332654   0.0000208388  -0.0000040994   0.0000065661  -0.0000163114
       -0.0000049180  -0.0000168835   0.0000253757   0.0000070498   0.0000114770
       -0.0001139615  -0.0000237593  -0.0000087972   0.0007864298   0.0009637968
       -0.0000878539  -0.0393189010   0.0125680801  -0.0206028010  -0.1542832053
        0.1129054618  -0.0882817044  -0.2721518125  -0.0471096721  -0.0672041229
        0.0058536241   0.0133947542  -0.0040361588  -0.0042691045  -0.0022946957
       -0.0036923990   0.0000217013  -0.0000579082   0.0000012961  -0.0000015658
       -0.0000132170  -0.0000001632   0.0000031483   0.0000023610   0.0000065420
        0.0000060454   0.0000022240   0.0000031002   0.0000058667   0.0000035428
       -0.0000010385  -0.0000202485   0.0000595654   0.0000666712  -0.0000130836
       -0.0000001658  -0.0000037025   0.0000031094   0.0000065364   0.0000053522
        0.0000036515   0.0000027794   0.0000021026   0.0000016476   0.0000007932
        0.0000052113  -0.0000000247   0.0000015692   0.0000018060   0.0000010338
        0.0000022699   0.0000029869   0.0000038865  -0.0000004795  -0.0000006959
        0.0000040425  -0.0000022839  -0.0000015479  -0.0000008074  -0.0000041732
       -0.0000025797   0.0000039830   0.0000074400   0.0000106923  -0.0000041075
       -0.0000065321   0.0000021180  -0.0000287588   0.0000118483   0.0000289454
       -0.0000186911  -0.0000145190  -0.0000099033   0.0000084921   0.0000151817
        0.0000090278  -0.0042744661  -0.0019455119  -0.0038150768   0.0059608496
       -0.0081823608   0.0054921595
        0.0689051685   0.5723241761  -0.1725087362  -0.0552173701  -0.2687765298
        0.0760550058  -0.0809611867   0.0019738199  -0.0302280392   0.0057292814
       -0.0524582191   0.0214689759  -0.0004651104  -0.0008158523   0.0002204020
        0.0009315809  -0.0003194781   0.0003511798  -0.0005228592  -0.0002755662
       -0.0000089716   0.0000586199  -0.0000597811   0.0000151512   0.0000386603
        0.0000185752   0.0000062784   0.0000022425   0.0000369684  -0.0000022891
        0.0000064692  -0.0000106478   0.0000050770   0.0000297012  -0.0000262514
        0.0000166097  -0.0000575972   0.0000022359  -0.0000157297   0.0000081971
        0.0004548681  -0.0001747011   0.0003123243  -0.0000313965   0.0002075623
       -0.0000257639  -0.0000702502  -0.0000417236  -0.0000099094   0.0000657020
        0.0000186233   0.0000274132  -0.0000172135   0.0000012040  -0.0000144449
        0.0000035309   0.0000069554   0.0000017937  -0.0000382850  -0.0000142012
        0.0000072980  -0.0000267683  -0.0000081371  -0.0000077263   0.0000233505
        0.0000086392  -0.0000025760  -0.0000023188   0.0000055009  -0.0000108505
       -0.0000067771  -0.0000050166  -0.0000049467  -0.0000143493  -0.0000075868
        0.0000074141   0.0000134479   0.0000094795  -0.0000044963  -0.0000019524
        0.0000013744  -0.0000030569  -0.0000022806   0.0000007424  -0.0000052767
       -0.0000033324   0.0000006088  -0.0000015488   0.0000052432   0.0000056313
       -0.0000010211  -0.0000014033   0.0000004634   0.0000028204  -0.0000010811
       -0.0000021517   0.0000141527   0.0000171304   0.0000088249  -0.0000060701
       -0.0000305304  -0.0000019499  -0.0000231329  -0.0000033743  -0.0000136441
       -0.0000001486   0.0000421304   0.0000020453   0.0000121176  -0.0000335630
        0.0000107438  -0.0000213999  -0.0000103232  -0.0000268214   0.0000186876
        0.0000276968   0.0000096622   0.0000053300  -0.0000175773  -0.0000028401
        0.0000151300  -0.0000049808  -0.0000011049  -0.0005387574  -0.0002887771
       -0.0002037803   0.0642843146   0.0401594600   0.0069517167   0.0435678033
       -0.2006407554   0.0822935121  -0.0470963910  -0.0519950204  -0.0099967070
       -0.0073129306  -0.0213669500   0.0068755327  -0.0019573990   0.0018926223
        0.0021502245   0.0000036518   0.0000433887  -0.0000063602   0.0000077348
       -0.0000128135   0.0000011218   0.0000054682   0.0000071371   0.0000023560
       -0.0000040163  -0.0000033393   0.0000030574   0.0000080344  -0.0000021998
        0.0000005212  -0.0000571551   0.0000972691   0.0000085685  -0.0000004998
       -0.0000188459  -0.0000084120  -0.0000066059   0.0000026813  -0.0000019491
        0.0000094512   0.0000035680  -0.0000017408  -0.0000028989   0.0000017861
        0.0000015858   0.0000031760   0.0000006144   0.0000008152   0.0000002664
       -0.0000001821   0.0000016245   0.0000024841  -0.0000014194   0.0000017608
        0.0000007138  -0.0000028666   0.0000004654   0.0000006578   0.0000007375
        0.0000016559   0.0000056686   0.0000068861  -0.0000028394   0.0000034018
       -0.0000028017   0.0000015900  -0.0000140846   0.0000312881   0.0000033867
       -0.0000176569  -0.0000008002  -0.0000082430   0.0000075616   0.0000084133
       -0.0000025458  -0.0022909161   0.0018754582   0.0020703384   0.0126210132
       -0.0217433308   0.0144896470
        0.1538654242  -0.1725087362   0.2501510189  -0.0063205753   0.0501210674
       -0.0728259386   0.0253505476  -0.0111980150   0.0155414333   0.0016181440
        0.0220448693  -0.0155381312  -0.0005851696   0.0001802466  -0.0005715681
       -0.0001803376  -0.0000955096  -0.0000118745   0.0000957025   0.0000485735
        0.0000191801  -0.0000056991  -0.0000009682  -0.0000056056   0.0000024262
        0.0000081132  -0.0000005227  -0.0000013795  -0.0000072862   0.0000004036
       -0.0000176815   0.0000092054  -0.0000074306  -0.0000188340   0.0000083924
       -0.0000077299   0.0000190802  -0.0000054059   0.0000076136   0.0000465603
       -0.0002150288   0.0000871620  -0.0003898366  -0.0000044041  -0.0001059119
        0.0000641229   0.0001164402   0.0000051266   0.0000258923  -0.0000523185
       -0.0000030292  -0.0000091373   0.0000085328  -0.0000040678   0.0000129846
       -0.0000133582  -0.0000087841  -0.0000027688   0.0000142558   0.0000060297
       -0.0000043984   0.0000130014   0.0000031427   0.0000220463  -0.0000147464
       -0.0000066280  -0.0000071038   0.0000096488  -0.0000002754   0.0000102177
       -0.0000062655  -0.0000015380  -0.0000050928   0.0000159336   0.0000074773
       -0.0000058830  -0.0000139856  -0.0000073266   0.0000021069   0.0000078437
        0.0000027478  -0.0000000198  -0.0000054802  -0.0000034814  -0.0000044021
        0.0000020764  -0.0000001638  -0.0000014892   0.0000029708   0.0000007587
        0.0000043992  -0.0000024744  -0.0000025764  -0.0000109212   0.0000027342
       -0.0000023604   0.0000209393  -0.0000041215   0.0000035206  -0.0000121578
        0.0000067025  -0.0000048722   0.0000233762   0.0000028935   0.0000185986
       -0.0000128574  -0.0000106439  -0.0000112152  -0.0000227563   0.0000022253
       -0.0000227550   0.0000222494  -0.0000030009   0.0000251298  -0.0000138834
       -0.0000123374  -0.0000082464   0.0000078749   0.0000141329   0.0000081837
       -0.0000450806   0.0000003058  -0.0000026836   0.0005924633   0.0004615547
        0.0000497215  -0.0431219572  -0.0124354715  -0.0093652832  -0.0578514740
        0.1079244222  -0.1168030448  -0.0671939707  -0.0099576117  -0.0554264599
        0.0050857155   0.0147208508  -0.0037059669  -0.0038202297   0.0020113444
        0.0059711448   0.0000113629  -0.0000414094   0.0000110652  -0.0000053393
        0.0000006025  -0.0000014791  -0.0000011839  -0.0000029781   0.0000011557
        0.0000037526   0.0000036135  -0.0000007048  -0.0000029887   0.0000016269
       -0.0000017657   0.0000036363  -0.0000322217   0.0000066370  -0.0000030904
        0.0000069619   0.0000011416   0.0000042010   0.0000038768   0.0000034675
       -0.0000023656  -0.0000003065   0.0000017400   0.0000019452   0.0000008140
        0.0000015700  -0.0000000363  -0.0000002603  -0.0000000483  -0.0000000834
        0.0000014746   0.0000006207   0.0000008857   0.0000003224  -0.0000011846
        0.0000001147  -0.0000000596  -0.0000012279  -0.0000008154  -0.0000001035
       -0.0000007762   0.0000000569   0.0000004056   0.0000053126  -0.0000031279
       -0.0000014239  -0.0000017608  -0.0000061874  -0.0000044379   0.0000133277
       -0.0000019284  -0.0000075548  -0.0000086083   0.0000019573   0.0000036453
        0.0000047926  -0.0036328170   0.0020737869   0.0059891058  -0.0035951258
        0.0068024574  -0.0034653026
       -0.1301626331  -0.0552173701  -0.0063205753   0.6044568876   0.0547990410
        0.1575413115  -0.3076904079  -0.0829728942  -0.0607798949  -0.0407197982
        0.0584854594  -0.0408977459   0.0041807603   0.0025620043  -0.0027340168
       -0.0023204000   0.0011633511  -0.0010770788   0.0006341812   0.0005808901
        0.0002944102  -0.0001139239   0.0000411851  -0.0000519296  -0.0000250455
        0.0000219765  -0.0000112479  -0.0000198511  -0.0000172262  -0.0000018154
       -0.0000326906  -0.0000197431  -0.0000076024  -0.0000064186   0.0000462389
       -0.0000096545   0.0000357849   0.0000263550   0.0000003738  -0.0002620496
       -0.0004699897   0.0000010024   0.0002345228   0.0001737320   0.0001513336
        0.0000070627  -0.0000865118  -0.0000123228  -0.0000082589   0.0000373974
        0.0000117037  -0.0000096980  -0.0000065531  -0.0000491708   0.0000020566
        0.0000415266   0.0000005212   0.0000187873  -0.0000216053  -0.0000052078
       -0.0000110574  -0.0000170494  -0.0000068126   0.0000019014   0.0000165602
        0.0000068527  -0.0000065519  -0.0000040184   0.0000032514   0.0000100666
       -0.0000044775  -0.0000016515  -0.0000100885  -0.0000094651  -0.0000033603
        0.0000105384   0.0000129304   0.0000063976  -0.0000107195   0.0000013700
        0.0000019189   0.0000032884   0.0000002521   0.0000013908   0.0000010058
        0.0000002434   0.0000010292  -0.0000019790  -0.0000026422   0.0000003819
       -0.0000019751   0.0000003613   0.0000028360   0.0000178945   0.0000033893
       -0.0000062694   0.0000039623   0.0000011038   0.0000142980   0.0000157955
       -0.0000252010  -0.0000102934  -0.0000074344   0.0000206749   0.0000050662
        0.0000102121   0.0000305339   0.0000072275  -0.0000173781  -0.0000547128
       -0.0000461980  -0.0000154080   0.0000090106  -0.0000570436   0.0000230396
        0.0000176499   0.0000082045  -0.0000011580   0.0000025298  -0.0000026772
        0.0000776460   0.0000201856  -0.0000015911   0.0000350504  -0.0007655007
        0.0005685189  -0.0395818592  -0.0312308822   0.0010279292   0.0536768243
       -0.0104108131   0.0240415451  -0.0145747372  -0.0255720492   0.0052509752
       -0.1142686439   0.0920136486  -0.0697094867  -0.0133364242  -0.0047221945
       -0.0035503702  -0.0000262342  -0.0000806159   0.0000127736  -0.0000074284
        0.0000078619  -0.0000039371  -0.0000016893   0.0000023343  -0.0000016603
       -0.0000058124   0.0000070225  -0.0000017032   0.0000107938   0.0000105653
        0.0000013493  -0.0000308726  -0.0000777642   0.0000732736   0.0000022147
       -0.0000117911   0.0000085730  -0.0000071409  -0.0000002533   0.0000018609
        0.0000039813   0.0000001383  -0.0000025446  -0.0000036279  -0.0000000620
        0.0000002126   0.0000009372   0.0000009609  -0.0000006847  -0.0000006932
       -0.0000005752   0.0000006642  -0.0000007649  -0.0000005696   0.0000004435
       -0.0000009914  -0.0000011470   0.0000003591   0.0000004380  -0.0000018516
       -0.0000025354   0.0000185146  -0.0000007147   0.0000063697  -0.0000030302
       -0.0000126210  -0.0000009833  -0.0000060658   0.0000509316   0.0000239943
        0.0000121212  -0.0000518289   0.0000345901   0.0000116543  -0.0000014789
        0.0000057028  -0.0001560543  -0.0004808491   0.0001160914  -0.0000509285
        0.0021436063  -0.0038666724
       -0.1244336769  -0.2687765298   0.0501210674   0.0547990410   0.5815130080
       -0.1837623724  -0.0153080020  -0.0969282037   0.0158507726   0.0094480194
        0.0378006155  -0.0114766902   0.0049373461  -0.0007678824   0.0056806532
       -0.0008465633   0.0011617940  -0.0007739259   0.0015849310   0.0001465240
       -0.0000702773  -0.0000565275   0.0001891485  -0.0000092306  -0.0001288981
       -0.0000756121  -0.0000235189  -0.0000191959  -0.0000569766  -0.0000054762
        0.0000093244   0.0000013461   0.0000031737   0.0000049760   0.0000558463
       -0.0000161217   0.0001258792   0.0000175618   0.0000405400  -0.0006494101
       -0.0004548378   0.0001288102   0.0010014291   0.0005744864  -0.0000991940
       -0.0002351788  -0.0005769229  -0.0000045316  -0.0001344357   0.0001886993
        0.0000068310   0.0001443286   0.0000334224  -0.0000770539  -0.0000957601
        0.0000458306   0.0000298582  -0.0000425261  -0.0000328278  -0.0000011755
        0.0000288665  -0.0000274250  -0.0000043950  -0.0000849600   0.0000056433
        0.0000166788   0.0000385847  -0.0000606886  -0.0000082121  -0.0000508540
        0.0000212531   0.0000111217   0.0000080464  -0.0000539677  -0.0000199350
        0.0000366621   0.0000630232   0.0000219484  -0.0000087853  -0.0000289918
       -0.0000122191   0.0000127684   0.0000150488   0.0000069235   0.0000087342
        0.0000021299   0.0000013415   0.0000172841  -0.0000073526  -0.0000048521
       -0.0000221171  -0.0000055556   0.0000012274   0.0000896974   0.0000041826
        0.0000022836  -0.0000813502   0.0000143993   0.0000218980   0.0000332128
        0.0000053696  -0.0000258443   0.0000064109   0.0000207798   0.0000112109
        0.0000104684  -0.0000411568   0.0000168439  -0.0000540585  -0.0000199332
       -0.0000129087  -0.0000158474   0.0000219214   0.0000231680   0.0000000215
       -0.0000010179   0.0000484342  -0.0000625187  -0.0000318909  -0.0000287820
        0.0002762540   0.0000428707   0.0000347342  -0.0012868560  -0.0011555062
       -0.0003240771  -0.0320691028  -0.0228907589  -0.0043134338   0.0395258771
       -0.0524720327   0.0380335989  -0.0048158196  -0.0061864016   0.0015645782
        0.0919402314  -0.1639689755   0.0910663265  -0.0246846942  -0.0063281863
       -0.0058712933  -0.0000046632  -0.0000290821   0.0000149186  -0.0000105511
        0.0000396311  -0.0000068228  -0.0000114181   0.0000051303  -0.0000075870
       -0.0000093433   0.0000044060  -0.0000087665   0.0000101658  -0.0000004784
        0.0000093846   0.0000086336   0.0000977835   0.0001771272   0.0000098033
       -0.0000036311  -0.0000072325  -0.0000080717  -0.0000341762  -0.0000141996
       -0.0000107198  -0.0000168956  -0.0000070576  -0.0000057186  -0.0000092512
       -0.0000094809  -0.0000124464  -0.0000037078  -0.0000031406  -0.0000040254
       -0.0000046379  -0.0000054976  -0.0000130195   0.0000028233  -0.0000003966
       -0.0000092315   0.0000084473   0.0000029814   0.0000028968   0.0000013432
       -0.0000015494   0.0000025281  -0.0000072351  -0.0000055831  -0.0000041467
        0.0000142987  -0.0000065285   0.0000242096   0.0000083352  -0.0000089190
        0.0000023050  -0.0000275437  -0.0000400631   0.0000182421   0.0000086555
       -0.0000115574  -0.0004984085   0.0002379214  -0.0004364672   0.0016217231
       -0.0012874063   0.0045779338
        0.0240927662   0.0760550058  -0.0728259386   0.1575413115  -0.1837623724
        0.2552753468  -0.0899303719  -0.0089073332  -0.0769163036  -0.0201755346
        0.0054338328  -0.0080884524  -0.0034783927   0.0048338021   0.0045452076
       -0.0009479625  -0.0001305456  -0.0003776488  -0.0001373905   0.0000653998
       -0.0008153429  -0.0000693829  -0.0000582265   0.0000527544   0.0000474510
        0.0000415750   0.0000053927   0.0000042577   0.0000204730  -0.0000098125
       -0.0000235257  -0.0000135329  -0.0000037390   0.0000022182  -0.0000055945
       -0.0000077202  -0.0000453186   0.0000143022   0.0000007389   0.0001012302
        0.0000227890   0.0003202953  -0.0004060292  -0.0002728828  -0.0004657977
        0.0001276610   0.0003068909   0.0000442615   0.0000744458  -0.0001014369
        0.0000004215  -0.0000762929  -0.0000046148   0.0000146328   0.0000688484
       -0.0000156547  -0.0000122587   0.0000279054   0.0000120579  -0.0000004026
       -0.0000262683   0.0000022602  -0.0000017829   0.0000417728   0.0000026969
       -0.0000024748  -0.0000177595   0.0000302978   0.0000100194   0.0000306646
       -0.0000132380  -0.0000105279  -0.0000149359   0.0000268087   0.0000107350
       -0.0000119384  -0.0000221535  -0.0000090450  -0.0000021723   0.0000143253
        0.0000072190  -0.0000010839  -0.0000102510  -0.0000041638  -0.0000069360
        0.0000007440   0.0000011429  -0.0000085873   0.0000051899   0.0000046569
        0.0000110227  -0.0000033633  -0.0000018726  -0.0000242376   0.0000027339
       -0.0000059218   0.0000492822  -0.0000069583   0.0000094235  -0.0000129371
       -0.0000239695  -0.0000076823   0.0000032692  -0.0000025747   0.0000059469
       -0.0000095938   0.0000324638  -0.0000079100   0.0000049501  -0.0000256532
       -0.0000153760  -0.0000239242   0.0000030896  -0.0000506902   0.0000113069
        0.0000120175  -0.0000163010   0.0000305030   0.0000232514   0.0000140626
       -0.0000995919   0.0000022764   0.0000129082   0.0013325771   0.0001609046
       -0.0000122277   0.0014374908  -0.0040061346  -0.0034601238   0.0021505318
        0.0194774653  -0.0063489718  -0.0037851320  -0.0062120045   0.0025769938
       -0.0698340646   0.0909689494  -0.1006240676   0.0053937877   0.0016394354
        0.0026150977  -0.0000117241  -0.0000177535   0.0000026718   0.0000024507
       -0.0000143784   0.0000010276   0.0000040268   0.0000005479   0.0000065508
        0.0000013298   0.0000014166   0.0000002774  -0.0000014743   0.0000055469
       -0.0000015816   0.0000412285  -0.0000484359  -0.0000498394  -0.0000138258
        0.0000152004   0.0000131503  -0.0000009030   0.0000176225   0.0000061333
        0.0000022056   0.0000072390   0.0000020665   0.0000019630   0.0000049549
        0.0000031083   0.0000052325   0.0000008748   0.0000016961   0.0000010367
        0.0000022921   0.0000027970   0.0000055392  -0.0000011854   0.0000004195
        0.0000025564  -0.0000039667  -0.0000013355  -0.0000013305   0.0000008252
        0.0000003832   0.0000099877   0.0000035617   0.0000074107   0.0000024795
       -0.0000137945   0.0000037529  -0.0000197575   0.0000343736   0.0000192511
       -0.0000127392  -0.0000190961   0.0000386581  -0.0000038389  -0.0000070458
        0.0000070934   0.0002345696  -0.0003777017  -0.0000013166  -0.0036649025
        0.0047963587   0.0045129238
       -0.0260721611  -0.0809611867   0.0253505476  -0.3076904079  -0.0153080020
       -0.0899303719   0.6139825331   0.0867542268   0.1463345091  -0.1385965351
        0.0470922199  -0.0549875746  -0.0304372889   0.0165478387  -0.0180545220
       -0.0018089092  -0.0039288405  -0.0001074108  -0.0032515101   0.0002539200
       -0.0007007312  -0.0002346781  -0.0002734519   0.0000556926   0.0000647911
        0.0000222975   0.0000162303   0.0000281844   0.0000065612   0.0000083674
        0.0000234303   0.0000463956  -0.0000013323  -0.0000579969  -0.0000622291
       -0.0000121847  -0.0001845468   0.0000600207  -0.0000741522   0.0007857452
        0.0009621946  -0.0002766417  -0.0001367714   0.0007466884   0.0000578231
        0.0002254282   0.0001551094   0.0000509589   0.0000036623   0.0001420964
        0.0000232142  -0.0000811642  -0.0001044884   0.0000691234   0.0000471409
       -0.0000028883   0.0000108101   0.0000175249  -0.0000118623  -0.0000025184
        0.0000031270  -0.0000148770   0.0000011473   0.0000280187   0.0000054386
       -0.0000073454   0.0000118197   0.0000547187   0.0000118428  -0.0000151945
       -0.0000270660  -0.0000032348   0.0000031672  -0.0000056962  -0.0000030096
       -0.0000117483  -0.0000118020  -0.0000011139   0.0000131374   0.0000187046
        0.0000070345  -0.0000205362  -0.0000045516  -0.0000006736  -0.0000063842
       -0.0000066164  -0.0000035942   0.0000058277   0.0000036986   0.0000021868
        0.0000014820   0.0000044787   0.0000038436  -0.0000412308  -0.0000001579
       -0.0000038866   0.0000478175  -0.0000304567  -0.0000140721   0.0000010382
        0.0000044703   0.0000440614   0.0000135245  -0.0000096048   0.0000014967
        0.0000156672  -0.0000179403  -0.0000005537   0.0000118899  -0.0000227588
       -0.0000212673  -0.0000092877   0.0000444180  -0.0000742955   0.0000216462
        0.0000041571  -0.0000239701   0.0000376880   0.0000267735   0.0000156083
       -0.0001167615  -0.0000411584  -0.0000254988  -0.0007084059   0.0034160693
       -0.0021448026   0.0489551122   0.0340815165   0.0024333117  -0.0465441740
        0.0178156643  -0.0229227385   0.0004069922  -0.0034885230  -0.0013028008
       -0.0180652476  -0.0011941974  -0.0065817424  -0.0903555983  -0.0996050131
        0.0241479240  -0.0000395534   0.0000116363  -0.0000191678  -0.0000062347
       -0.0000108683   0.0000016765   0.0000010560  -0.0000130583  -0.0000003469
        0.0000003550   0.0000063337  -0.0000022327   0.0000115213   0.0000221355
       -0.0000011684  -0.0001828365  -0.0000511610  -0.0001929855   0.0000073438
       -0.0000350311  -0.0000193016   0.0000019677   0.0000307367   0.0000076199
        0.0000217055   0.0000156227   0.0000037196  -0.0000038871   0.0000102125
        0.0000030028   0.0000163733   0.0000030511  -0.0000003822   0.0000036624
        0.0000061174   0.0000019726   0.0000109470  -0.0000009015  -0.0000009023
        0.0000030836  -0.0000079759  -0.0000049290  -0.0000036481  -0.0000066679
       -0.0000048533   0.0000064132  -0.0000137389   0.0000071214   0.0000015251
       -0.0000159537   0.0000085509   0.0000183415   0.0000072647   0.0000085721
        0.0000025319  -0.0000034952   0.0000436532  -0.0000160893  -0.0000035958
        0.0000002948   0.0001739973  -0.0035723342  -0.0009537864  -0.0003384329
        0.0004853624  -0.0002498218
       -0.0291621178   0.0019738199  -0.0111980150  -0.0829728942  -0.0969282037
       -0.0089073332   0.0867542268   0.5822604462  -0.1732292775   0.0978256730
       -0.1967551324   0.1002626064   0.0124549070   0.0068844694   0.0012912085
       -0.0051168458   0.0021829779  -0.0016154931   0.0021356014   0.0007712380
        0.0005301894  -0.0003567354   0.0002042501  -0.0001797377  -0.0001954588
       -0.0001545342  -0.0000328143  -0.0000470648  -0.0000529307  -0.0000080621
       -0.0000045268  -0.0000487649   0.0000081986   0.0000343122   0.0000969897
       -0.0000021351   0.0002151069   0.0001274849   0.0000392322  -0.0008415881
       -0.0009769802  -0.0001160041   0.0019169213   0.0017976282  -0.0000642470
       -0.0005238883  -0.0014935899   0.0002702471  -0.0004628271   0.0007116499
       -0.0000353753   0.0000526095  -0.0001720357   0.0001833906   0.0000487551
        0.0000883435   0.0000690006  -0.0000445939   0.0000234238   0.0000034850
        0.0000630526   0.0000524903   0.0000436629  -0.0001994429  -0.0001412126
       -0.0000351966   0.0001798884  -0.0000763310  -0.0000164130  -0.0001228419
        0.0000372699   0.0000204841   0.0000637725  -0.0001175064  -0.0000442226
        0.0000960512   0.0001021305   0.0000391480   0.0000223801  -0.0000474052
       -0.0000204027   0.0000130675   0.0000099967   0.0000088994  -0.0000003524
       -0.0000106678  -0.0000038149   0.0000199969   0.0000024254   0.0000056049
       -0.0000233775  -0.0000092759   0.0000098763   0.0001257675   0.0000207800
       -0.0000298218  -0.0000042633   0.0000707110   0.0001753044  -0.0000678398
       -0.0000114428  -0.0001473534   0.0000634839   0.0000057690   0.0000803914
       -0.0000765676  -0.0000926947   0.0000151750   0.0000549050   0.0000897181
        0.0000861590  -0.0001531997   0.0001266005  -0.0001935561  -0.0000191507
       -0.0000228288   0.0000225831  -0.0001141019  -0.0000691658  -0.0000552648
        0.0003844489   0.0000321224   0.0000173068  -0.0041901961  -0.0040859573
        0.0005391110  -0.0077137495  -0.0486596670   0.0191716633   0.0169474474
       -0.0028920528   0.0051262391  -0.0037535044  -0.0034772486   0.0035377138
        0.0193794249   0.0029959433   0.0061668936  -0.0997463668  -0.2409322259
        0.0553221573  -0.0000188252  -0.0000625725   0.0000213401  -0.0000024176
        0.0000515362  -0.0000110514  -0.0000155451   0.0000266847  -0.0000106913
       -0.0000360941   0.0000108969  -0.0000140520   0.0000194734  -0.0000172484
        0.0000102651  -0.0002270037  -0.0002352989  -0.0005170806   0.0000559713
       -0.0000227566  -0.0000272873   0.0000313289   0.0000061782  -0.0000103323
        0.0000030116  -0.0000096023  -0.0000005217  -0.0000041297  -0.0000210595
       -0.0000140990  -0.0000142672  -0.0000082894  -0.0000048343  -0.0000061593
       -0.0000046222  -0.0000066048  -0.0000125724   0.0000034257  -0.0000020597
       -0.0000063589   0.0000109694   0.0000014897   0.0000043181   0.0000138928
       -0.0000004677   0.0000277594  -0.0000202317  -0.0000112612   0.0000232606
       -0.0000378147   0.0000014754   0.0000234980  -0.0000369505  -0.0000415211
        0.0000132654   0.0000014737   0.0001621730  -0.0000398098  -0.0000555764
       -0.0000343805  -0.0032808030  -0.0036755820   0.0035879061   0.0005237949
        0.0006417228  -0.0001897962
        0.0027030600  -0.0302280392   0.0155414333  -0.0607798949   0.0158507726
       -0.0769163036   0.1463345091  -0.1732292775   0.2486712337  -0.0773329855
        0.0814495018  -0.1152559591  -0.0152604750   0.0034682175  -0.0073286261
        0.0008670291  -0.0016363129   0.0023331277  -0.0020321336  -0.0001804015
       -0.0001396628   0.0000898043  -0.0002150614  -0.0000770741   0.0000890777
        0.0000578355   0.0000187665   0.0000209591   0.0000235561   0.0000146736
        0.0000078445   0.0000354762  -0.0000037975  -0.0000392988  -0.0000547529
        0.0000153239  -0.0001392590  -0.0000189906  -0.0000375265   0.0004469533
        0.0009251093  -0.0000802748  -0.0003160000  -0.0004940852  -0.0001671924
        0.0002131295   0.0006684646  -0.0000379233   0.0002056835  -0.0004452800
       -0.0000674177   0.0001392800   0.0002883093  -0.0000492267  -0.0000788094
       -0.0000663867  -0.0000281556   0.0000212418  -0.0000335579  -0.0000016807
       -0.0000248845  -0.0000418608  -0.0000189488   0.0000604477   0.0000815700
        0.0000296869  -0.0000932943   0.0000085144  -0.0000015358   0.0000512229
       -0.0000062982   0.0000000224  -0.0000326187   0.0000443078   0.0000172332
       -0.0000082112  -0.0000348542  -0.0000093831  -0.0000067683   0.0000332922
        0.0000181313   0.0000028445  -0.0000082068  -0.0000037673   0.0000008664
        0.0000151560   0.0000085221  -0.0000219431  -0.0000038523  -0.0000016099
        0.0000223042  -0.0000127176  -0.0000131000  -0.0000950444   0.0000257158
        0.0000118573   0.0001089596   0.0000499853   0.0000077604  -0.0000803092
       -0.0000455409   0.0000017956  -0.0000049285   0.0000184705  -0.0000019554
       -0.0000210732   0.0000288928  -0.0000253939   0.0000004395  -0.0000090811
       -0.0000271713  -0.0000284385   0.0000064876  -0.0000391322   0.0000102450
       -0.0000436796  -0.0000101787   0.0000467636  -0.0000650838  -0.0000154394
       -0.0001640542   0.0000166807  -0.0000083807   0.0002870349   0.0028830219
       -0.0004067861   0.0210523468   0.0346919376  -0.0058371366  -0.0225248963
        0.0054413478  -0.0164399261  -0.0011236282   0.0037162070   0.0059253117
       -0.0154745918  -0.0014521058  -0.0045061377   0.0243483925   0.0551032521
       -0.0506485620   0.0000018595   0.0000277423  -0.0000165816  -0.0000008301
       -0.0000187371   0.0000033619   0.0000059166  -0.0000132245  -0.0000004726
        0.0000121140  -0.0000007993   0.0000022114   0.0000032243   0.0000124835
       -0.0000081119   0.0000857208   0.0000612287   0.0002074864  -0.0000421865
        0.0000316006   0.0000156663  -0.0000271410  -0.0000177543  -0.0000022286
       -0.0000067698   0.0000019228  -0.0000020231   0.0000012752   0.0000114678
        0.0000056241   0.0000056989   0.0000055092   0.0000012063   0.0000050610
        0.0000036210   0.0000034081   0.0000066464  -0.0000001167   0.0000010775
        0.0000021269  -0.0000044411  -0.0000013226  -0.0000037529  -0.0000005553