$hessian                                                                        
        0.6319106170   0.0680220664   0.1280637047  -0.1288110052   0.0959909725
       -0.0788089212  -0.0240687713   0.0222925158  -0.0205491478   0.0046533666
       -0.0038402413   0.0057867433  -0.0025404636  -0.0001991820  -0.0005569636
        0.0008335208  -0.0007065181   0.0005677362  -0.0006040609  -0.0002782576
       -0.0000959647   0.0000483359  -0.0001025005   0.0000486841   0.0000713015
        0.0000600756   0.0000087941  -0.0000071058   0.0000347452  -0.0000110168
       -0.0000284211  -0.0000081816  -0.0000074087   0.0000045015   0.0000036683
       -0.0000017390  -0.0000521805  -0.0000011055  -0.0000112046   0.0001740741
        0.0001558169   0.0000071467  -0.0005381643  -0.0000301294  -0.0001444888
        0.0002049026   0.0002145531  -0.0000327031   0.0000264737  -0.0000831702
        0.0000154924   0.0000446195   0.0000323377  -0.0000173584  -0.0000225315
       -0.0000584943  -0.0000218478  -0.0000039323  -0.0000111353  -0.0000016866
        0.0000025103   0.0000076424  -0.0000008788   0.0000279609  -0.0000128976
       -0.0000048653  -0.0000339056   0.0000145398  -0.0000002091   0.0000170863
       -0.0000075160  -0.0000043001   0.0000010087   0.0000230301   0.0000073715
       -0.0000223261  -0.0000275565  -0.0000112110  -0.0000065814   0.0000143290
        0.0000056967  -0.0000021730  -0.0000078832  -0.0000034432  -0.0000079703
        0.0000005251  -0.0000013709  -0.0000197961   0.0000074708   0.0000023840
        0.0000111788   0.0000073881   0.0000034869  -0.0000334864   0.0000042569
       -0.0000108549   0.0000731129   0.0000092802   0.0000204343  -0.0000139875
       -0.0000065286   0.0000067137   0.0000183063  -0.0000069744   0.0000243531
       -0.0000263861   0.0000236079  -0.0000270681  -0.0000022842  -0.0000246472
       -0.0000283658   0.0000089796  -0.0000110466   0.0000006947  -0.0000101155
        0.0000058762  -0.0000152604   0.0000247081   0.0000011269   0.0000114010
       -0.0001053585  -0.0000063826  -0.0000095598   0.0008207551   0.0007777915
       -0.0001460732  -0.0430547406  -0.0217967578  -0.0021649332  -0.1626034607
       -0.1407829098   0.0409601118  -0.2789109843  -0.0134013766  -0.0713396776
        0.0058575744  -0.0124014582   0.0084879689  -0.0046556124  -0.0010839475
       -0.0035751007   0.0000123571  -0.0000516494   0.0000021732  -0.0000022249
       -0.0000153527   0.0000010170   0.0000047025   0.0000033934   0.0000079005
        0.0000047911   0.0000009202   0.0000038150   0.0000084471   0.0000019875
       -0.0000009278  -0.0000186224   0.0000696414   0.0000635723  -0.0000125359
       -0.0000002604  -0.0000051878  -0.0000038643   0.0000061439   0.0000038923
        0.0000056666   0.0000026171   0.0000014124   0.0000015334   0.0000008868
        0.0000047696   0.0000004481   0.0000011554   0.0000018428   0.0000010248
        0.0000021308   0.0000031121   0.0000043105  -0.0000025163   0.0000000294
        0.0000030973  -0.0000035547  -0.0000038320  -0.0000016530  -0.0000038156
       -0.0000017690   0.0000064978   0.0000086263   0.0000109592   0.0000015514
       -0.0000076275   0.0000024940  -0.0000287452   0.0000240656   0.0000273352
       -0.0000221036  -0.0000105739  -0.0000106280   0.0000116136   0.0000137622
        0.0000079085  -0.0046633305  -0.0014213263  -0.0034241343   0.0060379490
        0.0085745282  -0.0031210497
        0.0680220664   0.5329737747  -0.2068118669   0.0286963391  -0.2139005313
        0.1003363468   0.0724873847   0.0262604986   0.0097366653  -0.0036350982
       -0.0507276901   0.0224857725  -0.0002054827  -0.0006844223   0.0003095087
        0.0007351235  -0.0003418103   0.0002983123  -0.0004769033  -0.0001517800
        0.0000095542   0.0000425553  -0.0000546453   0.0000117015   0.0000344324
        0.0000070397   0.0000037336   0.0000052237   0.0000316542  -0.0000032241
        0.0000102493  -0.0000139875   0.0000067897   0.0000259012  -0.0000269627
        0.0000174143  -0.0000511695   0.0000113411  -0.0000157002   0.0000645354
        0.0004088635  -0.0001902690   0.0003627745  -0.0000553256   0.0002290351
       -0.0000614691  -0.0000975590  -0.0000323021  -0.0000053987   0.0000767493
        0.0000115609   0.0000185461  -0.0000243382   0.0000060616  -0.0000075555
        0.0000111230   0.0000086434  -0.0000044924  -0.0000356970  -0.0000111148
       -0.0000086511  -0.0000249796  -0.0000063340  -0.0000070549   0.0000231432
        0.0000076260   0.0000008894  -0.0000058682   0.0000045339  -0.0000145675
       -0.0000025123  -0.0000032974  -0.0000050126  -0.0000146017  -0.0000070214
        0.0000105498   0.0000136372   0.0000093283  -0.0000049374  -0.0000038215
       -0.0000001713  -0.0000004963  -0.0000009614   0.0000012754  -0.0000041680
       -0.0000026919   0.0000005524  -0.0000014579   0.0000043201   0.0000040418
       -0.0000023612  -0.0000012603   0.0000004408   0.0000050247   0.0000003974
       -0.0000011540   0.0000084976   0.0000163111   0.0000069814  -0.0000088921
       -0.0000250389  -0.0000024903  -0.0000212911  -0.0000018497  -0.0000157967
        0.0000034606   0.0000348078   0.0000025023   0.0000058643  -0.0000281982
        0.0000156866  -0.0000192653  -0.0000097204  -0.0000256593   0.0000199824
        0.0000217940   0.0000104538  -0.0000038849  -0.0000212869  -0.0000049699
        0.0000258044  -0.0000055439   0.0000004488  -0.0006853563  -0.0003237992
       -0.0001800999  -0.0720776411   0.0163986433  -0.0315736880  -0.0736075715
       -0.2310901266   0.0773793114  -0.0133959074  -0.0427298780  -0.0000361575
        0.0077895939  -0.0207313840   0.0143805733  -0.0014215590   0.0026361702
        0.0027794867   0.0000078518   0.0000486338  -0.0000085088   0.0000059647
       -0.0000115173   0.0000006401   0.0000048046   0.0000056702   0.0000006442
       -0.0000059785  -0.0000033096   0.0000021517   0.0000065240  -0.0000041471
        0.0000005279  -0.0000387097   0.0000942342  -0.0000067458  -0.0000022579
       -0.0000194151  -0.0000066994  -0.0000001447   0.0000027921  -0.0000022416
        0.0000092043   0.0000016431  -0.0000014060  -0.0000028933   0.0000018180
        0.0000009071   0.0000025696  -0.0000005115   0.0000004880  -0.0000003004
       -0.0000007999   0.0000009244   0.0000011360  -0.0000014365   0.0000014728
       -0.0000007526  -0.0000024649   0.0000013913   0.0000005335   0.0000010633
        0.0000020307   0.0000051867   0.0000053387   0.0000051815   0.0000016211
       -0.0000015731   0.0000003652  -0.0000050478   0.0000290136  -0.0000015318
       -0.0000151321   0.0000036581  -0.0000075522   0.0000095926   0.0000062176
       -0.0000043134  -0.0010989640   0.0026624773   0.0028477991  -0.0115219614
       -0.0206093818   0.0080214489
        0.1280637047  -0.2068118669   0.2734040679  -0.0415002688   0.1219934990
       -0.1290167329  -0.0482522672  -0.0067098404  -0.0107065004   0.0056432455
        0.0230919473  -0.0174061579  -0.0005807688   0.0002745893  -0.0006175091
       -0.0002153885  -0.0000632184  -0.0000158344   0.0001188476   0.0000382620
        0.0000166723  -0.0000063827   0.0000005267  -0.0000050802   0.0000021339
        0.0000075385  -0.0000004047  -0.0000025255  -0.0000081820   0.0000009229
       -0.0000168126   0.0000129522  -0.0000082702  -0.0000188196   0.0000120458
       -0.0000091441   0.0000195789  -0.0000089952   0.0000089589   0.0000083679
       -0.0002327402   0.0001057761  -0.0004070200   0.0000534603  -0.0001260601
        0.0000892127   0.0001141704   0.0000022302   0.0000195547  -0.0000630397
       -0.0000003711  -0.0000074150   0.0000111916  -0.0000053564   0.0000074051
       -0.0000160822  -0.0000084172  -0.0000001831   0.0000173003   0.0000056724
        0.0000042164   0.0000128229   0.0000027691   0.0000195088  -0.0000186491
       -0.0000060062  -0.0000070461   0.0000111059  -0.0000012092   0.0000105102
       -0.0000071213  -0.0000008032  -0.0000015871   0.0000181140   0.0000070897
       -0.0000091624  -0.0000147487  -0.0000075293   0.0000031497   0.0000078200
        0.0000026513  -0.0000002673  -0.0000052320  -0.0000029203  -0.0000032897
        0.0000028740  -0.0000001990  -0.0000019368   0.0000021340   0.0000003157
        0.0000046729  -0.0000026233  -0.0000017011  -0.0000112509   0.0000037583
       -0.0000028530   0.0000210794  -0.0000073938   0.0000043024  -0.0000105247
        0.0000098276  -0.0000049024   0.0000236469   0.0000021389   0.0000208355
       -0.0000134680  -0.0000091653  -0.0000114414  -0.0000232947   0.0000049116
       -0.0000253050   0.0000208033  -0.0000031512   0.0000279083  -0.0000152145
       -0.0000114745  -0.0000082425   0.0000105302   0.0000131750   0.0000077026
       -0.0000484222   0.0000061801  -0.0000040852   0.0007064552   0.0003907767
        0.0000497648   0.0256123094  -0.0155052134   0.0180935395   0.0036111647
        0.0554257734  -0.0780563883  -0.0713195155   0.0000034479  -0.0579283140
       -0.0026661170   0.0078764747  -0.0043724586  -0.0033734828   0.0027628542
        0.0056183092   0.0000044450  -0.0000452037   0.0000135997  -0.0000054109
        0.0000018436  -0.0000011346  -0.0000015936  -0.0000027786   0.0000018351
        0.0000047354   0.0000033105  -0.0000005579  -0.0000027502   0.0000025117
       -0.0000018244  -0.0000005398  -0.0000403404   0.0000096996  -0.0000013996
        0.0000096222   0.0000010743  -0.0000003593   0.0000031055   0.0000030705
       -0.0000026461   0.0000003416   0.0000015296   0.0000026192   0.0000006733
        0.0000014472  -0.0000000734   0.0000000860   0.0000000709   0.0000005136
        0.0000017065   0.0000007128   0.0000011726  -0.0000001630  -0.0000009174
        0.0000004101   0.0000002904  -0.0000022120  -0.0000006668  -0.0000002126
       -0.0000011007   0.0000000748   0.0000000239   0.0000005496  -0.0000002910
       -0.0000017283  -0.0000013546  -0.0000071762  -0.0000032598   0.0000139046
       -0.0000023421  -0.0000082275  -0.0000083977   0.0000009472   0.0000026587
        0.0000051881  -0.0035874421   0.0027213548   0.0055956687   0.0080901067
        0.0146714500  -0.0046501427
       -0.1288110052   0.0286963391  -0.0415002688   0.6213926852   0.0807374119
        0.1184522882  -0.3155964757   0.0145553435  -0.0942026492  -0.0439784380
       -0.0666756204   0.0214633766   0.0037328905  -0.0037282109   0.0007790915
        0.0003962034   0.0007980300  -0.0001371051   0.0001545944   0.0000165195
        0.0001940689   0.0000812211  -0.0000113589  -0.0000004964   0.0000031281
       -0.0000007695   0.0000148136   0.0000070541  -0.0000040222   0.0000094833
        0.0000140780   0.0000432072  -0.0000089160  -0.0000352414  -0.0000214827
       -0.0000001347  -0.0000103808  -0.0000274209   0.0000000253  -0.0002379367
        0.0002718153  -0.0002873884   0.0006934428  -0.0001530649   0.0005958525
       -0.0002076820  -0.0002437786  -0.0000361127  -0.0000512788   0.0001349093
        0.0000044407   0.0000633571  -0.0000455718   0.0000017643  -0.0000405980
        0.0000021446   0.0000016642  -0.0000287220  -0.0000154865  -0.0000052957
        0.0000190946  -0.0000156589   0.0000000710  -0.0000169838  -0.0000084934
        0.0000002023  -0.0000095722  -0.0000302240  -0.0000047330  -0.0000183774
       -0.0000017085   0.0000002731  -0.0000056112  -0.0000157542  -0.0000050951
        0.0000172845   0.0000144139   0.0000031266  -0.0000000474   0.0000056047
        0.0000035852  -0.0000036360   0.0000008822  -0.0000003713   0.0000008024
        0.0000033083   0.0000009756   0.0000017243  -0.0000001264  -0.0000003510
       -0.0000007385   0.0000011752  -0.0000010184  -0.0000024460   0.0000036498
        0.0000010452   0.0000236067   0.0000240324   0.0000149614  -0.0000040362
       -0.0000131249  -0.0000324226   0.0000316510   0.0000152788   0.0000251144
       -0.0000016008  -0.0000156403  -0.0000131256  -0.0000451042  -0.0000419702
       -0.0000687822   0.0000258144   0.0000100262   0.0000035081   0.0000087063
       -0.0000234978   0.0000306567  -0.0000219272  -0.0000276255  -0.0000099267
        0.0000619955  -0.0000275549  -0.0000066623  -0.0025665753  -0.0017224555
       -0.0000829389  -0.0392124309   0.0217429036  -0.0228078242   0.0549293239
        0.0217394079   0.0052914092  -0.0143901540   0.0208573525  -0.0165472372
       -0.1225778955  -0.1139512029   0.0344582995  -0.0131196593   0.0008599177
       -0.0050240448   0.0000522893   0.0000249659  -0.0000175289  -0.0000027068
       -0.0000046315   0.0000028258  -0.0000045085  -0.0000093363  -0.0000029946
        0.0000048424   0.0000005508  -0.0000018142  -0.0000023456  -0.0000021844
       -0.0000013312  -0.0000669724   0.0001184875  -0.0000026602   0.0000026134
       -0.0000156514  -0.0000058175  -0.0000022930  -0.0000038310  -0.0000011395
        0.0000026147  -0.0000043568   0.0000006288  -0.0000022409   0.0000010877
        0.0000004336   0.0000005999   0.0000008776   0.0000004389   0.0000012137
        0.0000015317   0.0000004239   0.0000002154   0.0000009956  -0.0000007639
       -0.0000002930   0.0000005043  -0.0000020673  -0.0000033532  -0.0000016852
       -0.0000010194  -0.0000005337  -0.0000005649  -0.0000004701  -0.0000021817
        0.0000192676  -0.0000031518   0.0000047441   0.0000211857   0.0000395762
       -0.0000250424  -0.0000103218  -0.0000142665   0.0000112583   0.0000248601
       -0.0000012907  -0.0001807240   0.0004740695  -0.0001839436  -0.0004513002
       -0.0043476696  -0.0003712652
        0.0959909725  -0.2139005313   0.1219934990   0.0807374119   0.5483849484
       -0.2122376962  -0.0509568167  -0.0856409622   0.0044906900  -0.0197475022
        0.0162212204  -0.0138198588  -0.0060100846  -0.0021742615   0.0036357104
        0.0014550058  -0.0005415768   0.0002675156  -0.0008041985  -0.0001538116
       -0.0003932781   0.0000920020  -0.0001336192   0.0001024855  -0.0000253203
        0.0000029778  -0.0000294124   0.0000908862   0.0000497284   0.0000105033
        0.0000089146   0.0000166332   0.0000003229  -0.0000186335  -0.0000438752
        0.0000026752  -0.0000672982  -0.0000178237  -0.0000062448   0.0004769330
        0.0002623790   0.0002887411  -0.0011446502  -0.0008139978  -0.0006755612
        0.0002477650   0.0005832545  -0.0000464917   0.0001198434  -0.0002924478
        0.0000105353  -0.0000064423   0.0000896320   0.0000020327   0.0000122055
       -0.0000804958  -0.0000346149   0.0000240819   0.0000244585   0.0000082510
       -0.0000188119   0.0000294212   0.0000001720   0.0000853078  -0.0000201395
       -0.0000079690  -0.0000643528   0.0000486698   0.0000020165   0.0000585111
       -0.0000299790  -0.0000116882  -0.0000138094   0.0000720836   0.0000237961
       -0.0000498334  -0.0000544968  -0.0000270618   0.0000053837   0.0000305491
        0.0000109469  -0.0000077157  -0.0000141776  -0.0000087539  -0.0000091387
        0.0000076843   0.0000008176  -0.0000161476   0.0000108667   0.0000023716
        0.0000212253  -0.0000029906  -0.0000059675  -0.0000772062   0.0000127185
        0.0000016504   0.0000775890  -0.0000307670  -0.0000220318  -0.0000250912
        0.0000108755   0.0000108575   0.0000271618  -0.0000072320   0.0000129870
       -0.0000259363  -0.0000026121  -0.0000364244  -0.0000019511  -0.0000002182
       -0.0000308848   0.0000541886  -0.0000292019   0.0000395173  -0.0000203650
       -0.0000202176  -0.0000365650   0.0000622749   0.0000240395   0.0000281393
       -0.0002450519  -0.0000030101   0.0000087752   0.0003004013   0.0008933363
       -0.0003640067   0.0225869555  -0.0086301877   0.0089787465  -0.0267327756
       -0.0517975254   0.0205513212   0.0006733795   0.0006058189   0.0006484634
       -0.1139917850  -0.2020223372   0.0555182504   0.0202333561   0.0003735721
        0.0070714922  -0.0000759029   0.0001241020  -0.0000335207  -0.0000024810
       -0.0000167916   0.0000022729   0.0000202652  -0.0000111623   0.0000145757
        0.0000206146  -0.0000036180   0.0000064150   0.0000040111   0.0000028363
       -0.0000017494   0.0000126827  -0.0000545690   0.0000294455  -0.0000195533
        0.0000296202   0.0000089631  -0.0000060073   0.0000147544   0.0000073588
        0.0000003995   0.0000091947   0.0000032147   0.0000071129   0.0000088747
        0.0000063921   0.0000067323   0.0000026935   0.0000035839   0.0000042880
        0.0000049089   0.0000041857   0.0000102176  -0.0000031621  -0.0000004242
        0.0000051016  -0.0000065770  -0.0000057420  -0.0000056942  -0.0000023321
       -0.0000001326  -0.0000109374   0.0000101503   0.0000051465  -0.0000028410
        0.0000126772   0.0000093441  -0.0000185129   0.0000029191   0.0000310953
       -0.0000149008  -0.0000013845  -0.0000146246   0.0000052620   0.0000141636
        0.0000132646   0.0005228531   0.0004376394  -0.0002095353  -0.0038235480
       -0.0018713101   0.0041916991
       -0.0788089212   0.1003363468  -0.1290167329   0.1184522882  -0.2122376962
        0.2713404580  -0.0584878556   0.0259845816  -0.0803784048  -0.0038378375
       -0.0300666367   0.0168176600   0.0018724548   0.0044472748   0.0062565756
       -0.0009886588   0.0003266962  -0.0009623874   0.0006887703   0.0000246638
       -0.0001134069  -0.0000651082   0.0001009543   0.0000469821   0.0000001531
       -0.0000031003   0.0000227684  -0.0000430368  -0.0000348263  -0.0000113371
       -0.0000043595   0.0000017588  -0.0000020145   0.0000060587   0.0000185489
       -0.0000123456   0.0000419478   0.0000090581   0.0000151018  -0.0004360422
       -0.0000043154   0.0000700675   0.0010831497   0.0001379200  -0.0005412346
       -0.0001421634  -0.0003490339   0.0000317279  -0.0000811852   0.0001912155
       -0.0000079231   0.0000202516  -0.0000596531  -0.0000045807  -0.0000151234
        0.0000369334   0.0000209821  -0.0000222766  -0.0000140687  -0.0000042515
        0.0000160297  -0.0000196496   0.0000006798  -0.0000476075   0.0000019036
        0.0000047914   0.0000405166  -0.0000304843   0.0000028218  -0.0000387857
        0.0000173668   0.0000023877   0.0000053200  -0.0000390666  -0.0000117329
        0.0000345101   0.0000343391   0.0000120150  -0.0000054882  -0.0000147504
       -0.0000037883   0.0000067931   0.0000054416   0.0000038515   0.0000039358
       -0.0000012858   0.0000007735   0.0000084935  -0.0000048673  -0.0000005388
       -0.0000114210  -0.0000022869   0.0000010963   0.0000488823  -0.0000052850
       -0.0000037132  -0.0000193220   0.0000306550   0.0000330482   0.0000025028
       -0.0000120461  -0.0000353739   0.0000020715   0.0000091213   0.0000094442
       -0.0000006629  -0.0000135727   0.0000117855  -0.0000415341  -0.0000259075
       -0.0000203288  -0.0000223883   0.0000109363  -0.0000185775   0.0000184670
        0.0000106676   0.0000317905  -0.0000403994  -0.0000217289  -0.0000183936
        0.0001469610   0.0000116810   0.0000432215  -0.0005520139  -0.0009845663
        0.0002840876  -0.0232915553   0.0087111374  -0.0180437163   0.0321564103
        0.0362413278  -0.0082753788  -0.0054438249   0.0071178132  -0.0043806800
        0.0344661429   0.0554769177  -0.0542755181  -0.0158338784   0.0008467841
       -0.0041917184   0.0000527995  -0.0000642004   0.0000002297   0.0000007467
        0.0000129718  -0.0000040690  -0.0000133196   0.0000060814  -0.0000064517
       -0.0000104942   0.0000033713  -0.0000065596  -0.0000011899  -0.0000008940
        0.0000035187  -0.0000134315   0.0000574613  -0.0000137548   0.0000101565
       -0.0000178500  -0.0000074246   0.0000030624  -0.0000081599  -0.0000049231
        0.0000002080  -0.0000059619  -0.0000017582  -0.0000035123  -0.0000040344
       -0.0000048230  -0.0000043938  -0.0000024551  -0.0000010451  -0.0000022725
       -0.0000016816  -0.0000020509  -0.0000059718   0.0000025823   0.0000001512
       -0.0000041936   0.0000049458   0.0000026029   0.0000023751   0.0000019363
        0.0000004700   0.0000099518  -0.0000062805  -0.0000012656  -0.0000060931
        0.0000065496  -0.0000088178   0.0000094095   0.0000076158   0.0000158467
       -0.0000059719  -0.0000040785   0.0000035145   0.0000057192   0.0000057552
       -0.0000045753  -0.0002694774  -0.0002051836  -0.0001769800  -0.0005947682
        0.0040142921   0.0054881251
       -0.0240687713   0.0724873847  -0.0482522672  -0.3155964757  -0.0509568167
       -0.0584878556   0.6301406825   0.0513036800   0.1373141224  -0.1479050447
       -0.0731063256   0.0097010574  -0.0314261728  -0.0238347139   0.0027476258
       -0.0012916286  -0.0035591062   0.0013545347   0.0001981131  -0.0009661336
        0.0002080952   0.0000929043  -0.0000112532   0.0000270977  -0.0000545980
       -0.0000266410  -0.0000348724   0.0000164607  -0.0000048798  -0.0000021226
       -0.0000085270   0.0000188143  -0.0000072756  -0.0000165490   0.0000346564
       -0.0000167483   0.0000151473  -0.0000213897   0.0000117063   0.0006097304
       -0.0005614015   0.0005848268  -0.0029388528  -0.0013148850  -0.0009589456
       -0.0002373147   0.0005881420  -0.0000442243   0.0001186656  -0.0001469201
        0.0000282524  -0.0000366242   0.0000515215  -0.0000000013   0.0000242775
       -0.0000127984  -0.0000063533   0.0000412732  -0.0000037754   0.0000007508
       -0.0000318010  -0.0000125678  -0.0000107724   0.0000726120   0.0000222926
        0.0000047317  -0.0000796351   0.0000450457   0.0000056629   0.0000314692
       -0.0000324129  -0.0000082381  -0.0000148177   0.0000342505   0.0000113321
       -0.0000286185  -0.0000218799  -0.0000079455  -0.0000095837   0.0000179118
        0.0000060578  -0.0000096879  -0.0000012168  -0.0000014270  -0.0000004725
        0.0000056744   0.0000027741  -0.0000051752  -0.0000022946  -0.0000028354
        0.0000041426   0.0000000490  -0.0000044189  -0.0000283508   0.0000026961
        0.0000052917   0.0000335284  -0.0000299838  -0.0000298994   0.0000112150
        0.0000032623   0.0000536339  -0.0000000368  -0.0000196164  -0.0000121183
        0.0000341294  -0.0000465919  -0.0000004383  -0.0000080355  -0.0000222805
       -0.0000428559   0.0000051783   0.0000021867  -0.0000397124   0.0000347498
        0.0000206688  -0.0000165587   0.0000568879   0.0000168015   0.0000142211
       -0.0001525525  -0.0000812774  -0.0000027212  -0.0021285207   0.0029193203
       -0.0022793485   0.0500527552  -0.0227866974   0.0283922055  -0.0491171912
       -0.0277189115   0.0012814756   0.0002778885   0.0012695485  -0.0031144851
       -0.0193413066  -0.0036967137  -0.0044842562  -0.0870672443   0.0792161235
       -0.0609565068  -0.0000603617  -0.0000092322   0.0000385241  -0.0000172235
        0.0000152430  -0.0000039188   0.0000109714  -0.0000154711   0.0000051005
        0.0000196996   0.0000034567   0.0000042482   0.0000281996   0.0000196651
        0.0000071649  -0.0000300182  -0.0000967285   0.0000059301  -0.0000083310
       -0.0000001421   0.0000072864  -0.0000011689   0.0000046093   0.0000037827
        0.0000036042   0.0000075654   0.0000002491  -0.0000034536   0.0000068258
        0.0000020279   0.0000068817   0.0000005228   0.0000011193   0.0000035770
        0.0000026614   0.0000029290   0.0000054650  -0.0000013594   0.0000019237
       -0.0000003026  -0.0000055159   0.0000011457  -0.0000019336  -0.0000077427
       -0.0000003400  -0.0000043668  -0.0000060540   0.0000089461  -0.0000142132
        0.0000168288   0.0000067023   0.0000248042   0.0000113229   0.0000158776
       -0.0000067939   0.0000074615   0.0000116702  -0.0000004242   0.0000178675
        0.0000022373   0.0001479403   0.0014205759  -0.0033125876  -0.0003707737
       -0.0004529060   0.0002597295
        0.0222925158   0.0262604986  -0.0067098404   0.0145553435  -0.0856409622
        0.0259845816   0.0513036800   0.5364099965  -0.2139678350  -0.1224151431
       -0.2258391465   0.0565880523  -0.0194639353  -0.0024901726  -0.0052020475
        0.0034986806  -0.0035029643   0.0032095681  -0.0016574479   0.0000326523
       -0.0006377878   0.0002265137  -0.0002614902   0.0001678787   0.0003775497
        0.0001744990   0.0001244539   0.0000006033   0.0000004387   0.0000078263
       -0.0000116402   0.0000785540  -0.0000268844  -0.0001137168  -0.0000870072
       -0.0000053874  -0.0002308151  -0.0000966391  -0.0000342982   0.0011674329
        0.0000540345   0.0003734714  -0.0032508870  -0.0009808709  -0.0004938635
        0.0007894845   0.0012494152  -0.0001152640   0.0002852484  -0.0006599010
        0.0000068063  -0.0000938064   0.0001670529  -0.0000168162   0.0000330977
       -0.0000893671  -0.0000431168   0.0000838174   0.0000203332   0.0000143800
       -0.0000701531   0.0000074389  -0.0000137335   0.0001972119   0.0000261032
        0.0000028909  -0.0001075474   0.0001354440   0.0000124893   0.0001033041
       -0.0000748087  -0.0000115125  -0.0000341358   0.0001248696   0.0000422488
       -0.0001031734  -0.0001019547  -0.0000396951   0.0000196437   0.0000660966
        0.0000244961  -0.0000342803  -0.0000133492  -0.0000081645  -0.0000029040
        0.0000054255   0.0000018704  -0.0000095578   0.0000023772  -0.0000003675
        0.0000309544  -0.0000016905  -0.0000020007  -0.0001571916   0.0000221514
        0.0000091910   0.0000766353  -0.0001240929  -0.0001035072  -0.0000135265
        0.0000206490   0.0001004367   0.0000140813   0.0000134861  -0.0000207176
        0.0000267367   0.0000725064  -0.0000098238  -0.0000275718  -0.0000242349
       -0.0000513694   0.0000916693  -0.0000040932   0.0000224865  -0.0000214112
       -0.0000717515  -0.0000700609   0.0001476072   0.0000796431   0.0000577729
       -0.0005049151   0.0000136055  -0.0000542128   0.0040682245   0.0041279305
        0.0003301747   0.0177638113  -0.0479267953   0.0331934315  -0.0269070777
       -0.0137797650  -0.0041667919   0.0015496411  -0.0013119345   0.0055736055
       -0.0236206925  -0.0026407403  -0.0058515213   0.0794091018  -0.1818529218
        0.1068257811   0.0000877916  -0.0002021153  -0.0000383094  -0.0000218129
       -0.0000647748   0.0000117934  -0.0000147671  -0.0000324175  -0.0000016233
        0.0000219790  -0.0000103194   0.0000029335  -0.0000562591   0.0000191767
       -0.0000319169   0.0000513755  -0.0001461238   0.0000757935  -0.0000336601
        0.0000277886   0.0000161970  -0.0000078504   0.0000273486   0.0000130017
        0.0000094900   0.0000224047   0.0000029027   0.0000098821   0.0000239386
        0.0000112948   0.0000250726   0.0000063901   0.0000026251   0.0000094482
        0.0000084817   0.0000058379   0.0000187628  -0.0000055033  -0.0000007996
        0.0000087543  -0.0000152690  -0.0000077118  -0.0000105035  -0.0000099834
       -0.0000059687  -0.0000041895  -0.0000039802   0.0000202684  -0.0000023495
       -0.0000278030   0.0000105319  -0.0000030373   0.0000536788   0.0000191168
       -0.0000002898  -0.0000540154   0.0000173698  -0.0000043447   0.0000061149
        0.0000333241   0.0011656409  -0.0015456303   0.0052945968  -0.0005101933
        0.0003340643  -0.0004685316
       -0.0205491478   0.0097366653  -0.0107065004  -0.0942026492   0.0044906900
       -0.0803784048   0.1373141224  -0.2139678350   0.2797654729   0.0370933125
        0.0723723768  -0.0775916584  -0.0005389821  -0.0064708435   0.0029101437
       -0.0015419492   0.0010363803  -0.0001696973   0.0005247268  -0.0005086663
       -0.0000001703  -0.0000739391   0.0000993002  -0.0000430169  -0.0002872100
       -0.0000901218  -0.0000602262   0.0000466282   0.0000173384   0.0000085967
        0.0000015041  -0.0000466069   0.0000112475   0.0000602105   0.0000462993
        0.0000017388   0.0001135492   0.0000524538   0.0000166898  -0.0002139499
        0.0000142562   0.0000439492   0.0003626006   0.0001070475   0.0003083947
       -0.0004250929  -0.0004002136  -0.0000846341  -0.0000732265   0.0002425269
        0.0000046093   0.0000175617  -0.0000762560   0.0000220804  -0.0000000492
        0.0000453310   0.0000211914  -0.0000246106  -0.0000143191  -0.0000074891
        0.0000165310  -0.0000144642   0.0000013593  -0.0000555052  -0.0000004301
        0.0000012257   0.0000179025  -0.0000510740  -0.0000006734  -0.0000315951
        0.0000177525   0.0000056048   0.0000030077  -0.0000419941  -0.0000153952
        0.0000487074   0.0000402477   0.0000197347  -0.0000118459  -0.0000182650
       -0.0000060247   0.0000161919  -0.0000008483   0.0000010518  -0.0000023373
        0.0000038956   0.0000020208  -0.0000041298   0.0000037111   0.0000017799
       -0.0000071884  -0.0000106098  -0.0000074723   0.0000486296   0.0000035141
       -0.0000038305   0.0000162741   0.0000804302   0.0000579328  -0.0000393945
       -0.0000433421  -0.0000460504  -0.0000373757  -0.0000054919  -0.0000084520
       -0.0000266002  -0.0000550400  -0.0000058361   0.0000079336  -0.0000032794
        0.0000261833  -0.0000609836  -0.0000507426  -0.0000039313   0.0000340265
        0.0000471021   0.0000303260  -0.0000430162  -0.0000579720  -0.0000277692
        0.0001850774  -0.0000175884  -0.0000092827  -0.0032429738  -0.0003135209
        0.0006858618   0.0056111333   0.0201129442  -0.0076667165   0.0007914435
       -0.0044245845  -0.0030293574  -0.0033429773   0.0055147526   0.0038779172
        0.0065421369   0.0006354654   0.0024247841  -0.0612426124   0.1066852256
       -0.1137453641  -0.0000996363   0.0001254147  -0.0000921787   0.0000045013
        0.0000360082  -0.0000109565   0.0000235006   0.0000083208   0.0000064919
        0.0000007592   0.0000071473   0.0000022287   0.0000466843  -0.0000005842
        0.0000183451  -0.0000407847   0.0000498521  -0.0000597575   0.0000088993
       -0.0000116573  -0.0000066171   0.0000020860  -0.0000080667  -0.0000040017
       -0.0000026091  -0.0000075696  -0.0000011787  -0.0000051858  -0.0000065512
       -0.0000038914  -0.0000079641  -0.0000022372  -0.0000013880  -0.0000017609
       -0.0000015437  -0.0000007398  -0.0000040846   0.0000023416   0.0000014748
       -0.0000044070   0.0000045123   0.0000038517   0.0000031778   0.0000064584