 Entering Gaussian System
 *********************************************
 Gaussian 98:
 frequency output generated by the xtb code
 *********************************************
                         Standard orientation:
 --------------------------------------------------------------------
  Center     Atomic     Atomic              Coordinates (Angstroms)
  Number     Number      Type              X           Y           Z
 --------------------------------------------------------------------
    1          6             0        5.299739   -2.737801   -1.294822
    2          6             0        3.945246   -2.985205   -1.508158
    3          6             0        2.977698   -2.070325   -1.140106
    4          6             0        3.396192   -0.891221   -0.539933
    5          6             0        4.769839   -0.621427   -0.340023
    6          6             0        5.723523   -1.557281   -0.718496
    7          6             0        4.846645    0.684093    0.252653
    8          6             0        5.901269    1.476915    0.685896
    9          6             0        5.618338    2.707335    1.243945
   10          6             0        4.302924    3.144185    1.386005
   11          6             0        3.237024    2.374086    0.962486
   12          6             0        3.516152    1.146201    0.379351
   13          7             0        2.651260    0.185091   -0.102624
   14          6             0        1.252003    0.284128   -0.144747
   15          6             0        0.658859    1.408542   -0.723383
   16          6             0       -0.716070    1.546975   -0.780288
   17          6             0       -1.500460    0.533359   -0.261638
   18          6             0       -0.905297   -0.629410    0.326319
   19          6             0        0.472036   -0.738373    0.386075
   20          6             0       -1.981755   -1.497489    0.771529
   21          6             0       -2.249942   -2.715291    1.389673
   22          6             0       -3.585252   -3.079581    1.579051
   23          6             0       -4.691400   -2.315562    1.196195
   24          6             0       -4.464191   -1.091570    0.574932
   25          6             0       -5.129696    0.062136   -0.007345
   26          6             0       -6.462860    0.398986   -0.172091
   27          6             0       -6.780848    1.601463   -0.779977
   28          6             0       -5.787855    2.466280   -1.222772
   29          6             0       -4.445175    2.159223   -1.073368
   30          6             0       -4.115764    0.961542   -0.467857
   31          7             0       -2.877084    0.403629   -0.189875
   32          6             0       -3.119864   -0.788983    0.416210
   33          1             0        6.024943   -3.479894   -1.594209
   34          1             0        3.644921   -3.911906   -1.974863
   35          1             0        1.931560   -2.263881   -1.324642
   36          1             0        6.773895   -1.359069   -0.566532
   37          1             0        6.919711    1.131674    0.589741
   38          1             0        6.424014    3.340406    1.585044
   39          1             0        4.112038    4.105211    1.840765
   40          1             0        2.220242    2.713403    1.092395
   41          1             0        1.292930    2.174739   -1.142956
   42          1             0       -1.160416    2.421943   -1.228483
   43          1             0        0.938522   -1.595679    0.846829
   44          1             0       -1.462183   -3.374681    1.721219
   45          1             0       -3.778618   -4.028020    2.060265
   46          1             0       -5.687889   -2.684284    1.386922
   47          1             0       -7.238734   -0.269301    0.170174
   48          1             0       -7.817102    1.874009   -0.913244
   49          1             0       -6.066604    3.397421   -1.693247
   50          1             0       -3.680408    2.836950   -1.420338
 --------------------------------------------------------------------
     1 basis functions        1 primitive gaussians
     1 alpha electrons        1 beta electrons
 
 Harmonic frequencies (cm**-1), IR intensities (km*mol⁻¹),
 Raman scattering activities (A**4/amu), Raman depolarization ratios,
 reduced masses (AMU), force constants (mDyne/A) and normal coordinates:
                      1                      2                      3
                        a                      a                      a 
 Frequencies --    22.7393                26.5214                35.3380
 Red. masses --    10.9914                10.8209                10.8420
 Frc consts  --     0.0000                 0.0000                 0.0000
 IR Inten    --     0.0186                 0.1951                 0.0203
 Raman Activ --     0.0000                 0.0000                 0.0000
 Depolar     --     0.0000                 0.0000                 0.0000
 Atom AN      X      Y      Z        X      Y      Z        X      Y      Z
   1   6     0.15  -0.04   0.23    -0.09  -0.10   0.17     0.16   0.13  -0.16
   2   6     0.18  -0.07   0.13    -0.10  -0.09   0.23     0.16  -0.01  -0.00
   3   6     0.13  -0.07   0.01    -0.07  -0.04   0.20     0.11  -0.11   0.12
   4   6     0.06  -0.04  -0.01    -0.04  -0.01   0.11     0.06  -0.07   0.08
   5   6     0.03  -0.00   0.09    -0.02  -0.02   0.04     0.05   0.07  -0.08
   6   6     0.08  -0.00   0.21    -0.05  -0.06   0.07     0.11   0.17  -0.20
   7   6    -0.04   0.02   0.05     0.02   0.02  -0.07    -0.01   0.07  -0.08
   8   6    -0.09   0.06   0.10     0.06   0.04  -0.19    -0.04   0.19  -0.21
   9   6    -0.15   0.07   0.04     0.11   0.09  -0.27    -0.10   0.16  -0.18
  10   6    -0.17   0.05  -0.08     0.12   0.11  -0.22    -0.13   0.02  -0.02
  11   6    -0.12   0.01  -0.13     0.09   0.10  -0.10    -0.10  -0.09   0.11
  12   6    -0.06  -0.00  -0.07     0.04   0.05  -0.04    -0.04  -0.06   0.07
  13   7     0.00  -0.04  -0.12    -0.00   0.03   0.07    -0.00  -0.16   0.18
  14   6    -0.00  -0.07  -0.16    -0.00   0.05   0.10    -0.00  -0.16   0.13
  15   6    -0.00  -0.07  -0.17    -0.00   0.07   0.15     0.04  -0.15   0.11
  16   6    -0.00  -0.06  -0.15    -0.00   0.08   0.16     0.05  -0.11   0.07
  17   6    -0.00  -0.05  -0.14    -0.00   0.05   0.10     0.01  -0.09   0.05
  18   6    -0.00  -0.07  -0.17    -0.00   0.02   0.04    -0.04  -0.11   0.07
  19   6    -0.00  -0.08  -0.18    -0.00   0.03   0.05    -0.04  -0.14   0.10
  20   6    -0.00  -0.06  -0.15    -0.00  -0.03  -0.06    -0.08  -0.07   0.04
  21   6     0.00  -0.05  -0.14     0.00  -0.10  -0.19    -0.15  -0.06   0.03
  22   6     0.00  -0.02  -0.07     0.00  -0.15  -0.29    -0.17  -0.00  -0.00
  23   6     0.00   0.02   0.01     0.00  -0.14  -0.26    -0.13   0.04  -0.03
  24   6     0.00   0.02   0.00    -0.00  -0.07  -0.12    -0.07   0.03  -0.02
  25   6     0.00   0.06   0.09    -0.00  -0.04  -0.05    -0.01   0.07  -0.03
  26   6     0.00   0.12   0.21    -0.01  -0.05  -0.07     0.01   0.13  -0.05
  27   6     0.00   0.16   0.29    -0.01   0.00   0.03     0.08   0.15  -0.05
  28   6     0.00   0.14   0.24    -0.01   0.06   0.15     0.13   0.11  -0.03
  29   6    -0.00   0.07   0.11    -0.01   0.08   0.17     0.11   0.04  -0.00
  30   6    -0.00   0.03   0.03    -0.01   0.03   0.07     0.04   0.02  -0.00
  31   7    -0.00  -0.03  -0.09    -0.01   0.03   0.08     0.01  -0.04   0.02
  32   6    -0.00  -0.03  -0.09    -0.00  -0.02  -0.04    -0.05  -0.03   0.01
  33   1     0.06  -0.01   0.09    -0.03  -0.04   0.06     0.06   0.06  -0.07
  34   1     0.07  -0.03   0.04    -0.04  -0.03   0.09     0.06  -0.01   0.01
  35   1     0.04  -0.03  -0.02    -0.02  -0.01   0.07     0.03  -0.06   0.07
  36   1     0.02   0.01   0.08    -0.01  -0.02   0.01     0.03   0.08  -0.09
  37   1    -0.02   0.02   0.06     0.01   0.00  -0.06    -0.00   0.08  -0.10
  38   1    -0.06   0.03   0.02     0.04   0.03  -0.11    -0.04   0.07  -0.08
  39   1    -0.07   0.02  -0.04     0.05   0.04  -0.08    -0.05   0.00   0.00
  40   1    -0.04  -0.00  -0.06     0.03   0.04  -0.02    -0.04  -0.06   0.07
  41   1    -0.00  -0.02  -0.05    -0.00   0.03   0.05     0.02  -0.05   0.04
  42   1    -0.00  -0.02  -0.04    -0.00   0.03   0.06     0.03  -0.03   0.02
  43   1    -0.00  -0.02  -0.05    -0.00   0.00   0.01    -0.02  -0.05   0.03
  44   1     0.00  -0.02  -0.05     0.00  -0.03  -0.07    -0.05  -0.03   0.01
  45   1     0.00  -0.00  -0.02     0.00  -0.06  -0.11    -0.06   0.00  -0.00
  46   1     0.00   0.02   0.02     0.00  -0.05  -0.10    -0.04   0.02  -0.01
  47   1     0.00   0.04   0.07    -0.00  -0.03  -0.05    -0.01   0.05  -0.02
  48   1     0.00   0.06   0.11    -0.00  -0.00   0.00     0.03   0.06  -0.02
  49   1     0.00   0.05   0.09    -0.00   0.03   0.07     0.05   0.04  -0.01
  50   1    -0.00   0.01   0.02    -0.00   0.04   0.08     0.04   0.00   0.01
                      4                      5                      6
                        a                      a                      a 
 Frequencies --    66.5181                98.4505               102.8300
 Red. masses --    11.4445                10.3122                10.2328
 Frc consts  --     0.0000                 0.0000                 0.0000
 IR Inten    --     0.1190                 0.0541                 0.3529
 Raman Activ --     0.0000                 0.0000                 0.0000
 Depolar     --     0.0000                 0.0000                 0.0000
 Atom AN      X      Y      Z        X      Y      Z        X      Y      Z
   1   6     0.13  -0.04   0.06    -0.04   0.07  -0.11     0.01  -0.01  -0.01
   2   6     0.15  -0.06  -0.03    -0.03   0.19  -0.33     0.00  -0.06   0.06
   3   6     0.11  -0.07  -0.13    -0.03   0.15  -0.21    -0.00  -0.05   0.04
   4   6     0.04  -0.05  -0.12    -0.02   0.01   0.05     0.00  -0.01  -0.04
   5   6     0.03  -0.02  -0.03    -0.03  -0.08   0.22     0.01   0.02  -0.08
   6   6     0.07  -0.02   0.07    -0.04  -0.07   0.18     0.01   0.02  -0.08
   7   6    -0.03  -0.02  -0.03    -0.03  -0.08   0.22    -0.00   0.01  -0.06
   8   6    -0.08  -0.01   0.06    -0.02  -0.07   0.20    -0.03   0.00   0.01
   9   6    -0.14  -0.02   0.05     0.00   0.07  -0.09    -0.06  -0.04   0.09
  10   6    -0.16  -0.04  -0.04     0.02   0.18  -0.32    -0.06  -0.05   0.07
  11   6    -0.11  -0.05  -0.13     0.01   0.14  -0.22    -0.04  -0.03  -0.02
  12   6    -0.05  -0.04  -0.12    -0.01   0.01   0.05    -0.01  -0.00  -0.06
  13   7     0.00  -0.06  -0.20    -0.02   0.01   0.06     0.00  -0.01  -0.07
  14   6    -0.00  -0.05  -0.12    -0.02  -0.03   0.05     0.00   0.01  -0.03
  15   6    -0.01  -0.02  -0.05    -0.02  -0.07  -0.01     0.00  -0.07  -0.18
  16   6    -0.00   0.07   0.12    -0.02  -0.09  -0.01     0.00  -0.06  -0.16
  17   6     0.00   0.11   0.21     0.01  -0.08   0.05     0.01   0.02   0.01
  18   6     0.00   0.06   0.11     0.00  -0.07   0.09     0.01   0.10   0.15
  19   6     0.00  -0.02  -0.05     0.01  -0.04   0.09     0.01   0.10   0.15
  20   6     0.00   0.08   0.15    -0.02  -0.06   0.08     0.02   0.09   0.14
  21   6    -0.00  -0.02  -0.04    -0.06  -0.05   0.09     0.03   0.16   0.29
  22   6    -0.00  -0.05  -0.13    -0.08  -0.03   0.04     0.03   0.07   0.12
  23   6    -0.00  -0.03  -0.08    -0.06  -0.04  -0.03     0.02  -0.07  -0.15
  24   6     0.00   0.07   0.12    -0.02  -0.04  -0.03     0.01  -0.11  -0.22
  25   6     0.00   0.05   0.06     0.02  -0.02  -0.05     0.01  -0.12  -0.24
  26   6     0.00  -0.06  -0.16     0.04   0.04  -0.08     0.01  -0.14  -0.26
  27   6     0.01  -0.11  -0.26     0.11   0.08  -0.03     0.00   0.00   0.02
  28   6     0.01  -0.04  -0.11     0.15   0.08   0.04    -0.00   0.16   0.33
  29   6     0.01   0.07   0.12     0.13   0.01   0.06    -0.00   0.14   0.26
  30   6     0.00   0.11   0.19     0.05  -0.04   0.01     0.00  -0.02  -0.05
  31   7     0.00   0.19   0.35     0.02  -0.08   0.03     0.01  -0.02  -0.07
  32   6     0.00   0.15   0.27    -0.01  -0.07   0.02     0.01  -0.03  -0.07
  33   1     0.05  -0.01   0.04    -0.01   0.03  -0.06     0.00  -0.00  -0.00
  34   1     0.06  -0.02  -0.01    -0.01   0.09  -0.17     0.00  -0.03   0.04
  35   1     0.04  -0.03  -0.06    -0.01   0.07  -0.10    -0.00  -0.02   0.03
  36   1     0.02   0.00   0.04    -0.01  -0.05   0.09     0.00   0.01  -0.03
  37   1    -0.02   0.00   0.04    -0.01  -0.04   0.10    -0.01   0.01   0.01
  38   1    -0.05  -0.00   0.04     0.00   0.03  -0.05    -0.02  -0.02   0.05
  39   1    -0.06  -0.01  -0.01     0.01   0.09  -0.17    -0.02  -0.02   0.04
  40   1    -0.04  -0.02  -0.06     0.01   0.07  -0.11    -0.02  -0.02  -0.01
  41   1    -0.00  -0.02  -0.04    -0.01  -0.03  -0.02     0.00  -0.04  -0.09
  42   1    -0.00   0.03   0.05    -0.01  -0.04  -0.02     0.00  -0.04  -0.09
  43   1     0.00  -0.02  -0.04     0.01  -0.00   0.03     0.00   0.04   0.07
  44   1    -0.00  -0.02  -0.05    -0.03  -0.01   0.04     0.01   0.08   0.15
  45   1    -0.00  -0.04  -0.08    -0.03  -0.01   0.01     0.01   0.03   0.06
  46   1    -0.00  -0.03  -0.06    -0.02  -0.01  -0.02     0.01  -0.04  -0.07
  47   1    -0.00  -0.03  -0.08    -0.00   0.02  -0.04     0.00  -0.07  -0.13
  48   1     0.00  -0.06  -0.13     0.03   0.04  -0.01    -0.00   0.00   0.01
  49   1     0.00  -0.02  -0.05     0.06   0.03   0.03    -0.00   0.09   0.18
  50   1     0.00   0.04   0.06     0.05  -0.00   0.04    -0.00   0.07   0.14
                      7                      8                      9
                        a                      a                      a 
 Frequencies --   118.2346               125.2736               143.9272
 Red. masses --    11.0526                10.1612                10.1120
 Frc consts  --     0.0000                 0.0000                 0.0000
 IR Inten    --     0.0778                 0.7430                 0.8133
 Raman Activ --     0.0000                 0.0000                 0.0000
 Depolar     --     0.0000                 0.0000                 0.0000
 Atom AN      X      Y      Z        X      Y      Z        X      Y      Z
   1   6    -0.20  -0.06   0.13    -0.05   0.08  -0.17    -0.12  -0.11   0.13
   2   6    -0.21  -0.03   0.13    -0.07   0.01   0.04    -0.10   0.06  -0.16
   3   6    -0.15   0.08  -0.00    -0.05  -0.04   0.20    -0.06   0.12  -0.20
   4   6    -0.08   0.11  -0.12    -0.01  -0.02   0.12    -0.01  -0.00  -0.01
   5   6    -0.08   0.09  -0.14     0.00   0.00   0.03    -0.02  -0.05   0.08
   6   6    -0.13  -0.00  -0.04    -0.02   0.06  -0.15    -0.07  -0.17   0.22
   7   6    -0.06   0.10  -0.14     0.01  -0.01   0.06    -0.01  -0.03   0.06
   8   6    -0.07   0.07  -0.04     0.01  -0.03   0.11    -0.04   0.17  -0.25
   9   6    -0.10  -0.01   0.12     0.02  -0.02   0.09    -0.10   0.18  -0.28
  10   6    -0.10  -0.02   0.15     0.02   0.04  -0.02    -0.13  -0.04   0.11
  11   6    -0.08   0.04   0.01     0.02   0.05  -0.04    -0.10  -0.19   0.33
  12   6    -0.05   0.10  -0.11     0.02   0.01   0.05    -0.02  -0.10   0.19
  13   7    -0.05   0.13  -0.14     0.01  -0.01   0.12     0.00  -0.05   0.10
  14   6    -0.04   0.05  -0.04     0.01  -0.01   0.01     0.02  -0.01  -0.00
  15   6    -0.07   0.02  -0.06     0.03  -0.17  -0.33     0.06  -0.05  -0.12
  16   6    -0.07  -0.05  -0.01     0.03  -0.16  -0.35     0.06  -0.03  -0.16
  17   6     0.04  -0.10   0.04     0.01   0.00  -0.05     0.04   0.03  -0.05
  18   6     0.05  -0.09   0.05     0.00   0.07   0.10     0.03   0.05   0.00
  19   6     0.06   0.01   0.02    -0.00   0.10   0.19     0.01   0.02   0.03
  20   6     0.05  -0.10   0.06     0.01   0.09   0.13     0.05   0.07   0.03
  21   6     0.02  -0.12   0.01     0.02  -0.03  -0.11     0.09   0.04  -0.02
  22   6     0.00  -0.10  -0.02     0.03  -0.12  -0.27     0.10  -0.00  -0.06
  23   6     0.01  -0.06   0.01     0.02  -0.08  -0.17     0.09  -0.01  -0.04
  24   6     0.03  -0.04   0.05     0.02   0.05   0.09     0.06   0.03   0.02
  25   6     0.08  -0.00   0.04     0.01   0.05   0.09     0.05   0.01   0.01
  26   6     0.12   0.14   0.00    -0.00   0.05   0.16     0.04  -0.03   0.01
  27   6     0.25   0.15  -0.04    -0.03   0.01   0.09     0.00  -0.04   0.01
  28   6     0.32   0.06  -0.08    -0.04  -0.06  -0.07    -0.02  -0.01   0.02
  29   6     0.28  -0.06  -0.04    -0.03  -0.04  -0.10    -0.01   0.02   0.01
  30   6     0.13  -0.07   0.03    -0.01   0.02   0.02     0.03   0.03   0.01
  31   7     0.08  -0.13   0.07     0.01   0.08   0.09     0.04   0.06   0.01
  32   6     0.05  -0.10   0.07     0.01   0.11   0.17     0.05   0.07   0.04
  33   1    -0.07  -0.04   0.07    -0.02   0.04  -0.10    -0.04  -0.05   0.07
  34   1    -0.07  -0.02   0.07    -0.03   0.00   0.02    -0.03   0.04  -0.09
  35   1    -0.05   0.04   0.00    -0.02  -0.02   0.10    -0.02   0.07  -0.10
  36   1    -0.03  -0.02  -0.02    -0.00   0.03  -0.08    -0.02  -0.09   0.11
  37   1    -0.02   0.03  -0.01     0.00  -0.02   0.05    -0.00   0.10  -0.14
  38   1    -0.03  -0.02   0.07     0.01  -0.01   0.04    -0.03   0.10  -0.16
  39   1    -0.03  -0.02   0.08     0.01   0.02  -0.02    -0.05  -0.02   0.05
  40   1    -0.03   0.00   0.01     0.01   0.02  -0.04    -0.04  -0.10   0.15
  41   1    -0.03   0.01  -0.02     0.01  -0.08  -0.15     0.03  -0.03  -0.04
  42   1    -0.05  -0.03   0.00     0.01  -0.08  -0.17     0.02  -0.02  -0.07
  43   1     0.04   0.02   0.01    -0.00   0.05   0.11     0.00   0.01   0.02
  44   1    -0.00  -0.05  -0.00     0.01  -0.02  -0.06     0.03   0.01  -0.01
  45   1    -0.01  -0.03  -0.02     0.01  -0.07  -0.15     0.03  -0.01  -0.03
  46   1     0.00  -0.02  -0.00     0.01  -0.05  -0.10     0.03  -0.02  -0.03
  47   1     0.01   0.07   0.00     0.00   0.03   0.08     0.02  -0.02   0.00
  48   1     0.08   0.07  -0.02    -0.01   0.00   0.04    -0.00  -0.02   0.00
  49   1     0.12   0.02  -0.04    -0.02  -0.03  -0.05    -0.01  -0.00   0.01
  50   1     0.11  -0.05  -0.01    -0.01  -0.02  -0.05    -0.01   0.01   0.01
                     10                     11                     12
                        a                      a                      a 
 Frequencies --   150.4427               155.8022               216.0331
 Red. masses --    10.5124                10.8274                10.6483
 Frc consts  --     0.0000                 0.0000                 0.0000
 IR Inten    --     0.1220                 0.3471                 0.3998
 Raman Activ --     0.0000                 0.0000                 0.0000
 Depolar     --     0.0000                 0.0000                 0.0000
 Atom AN      X      Y      Z        X      Y      Z        X      Y      Z
   1   6     0.10  -0.05   0.09    -0.10   0.00  -0.22    -0.16  -0.15   0.06
   2   6     0.12  -0.02  -0.06    -0.12  -0.09  -0.01    -0.17  -0.01  -0.02
   3   6     0.09  -0.00  -0.17    -0.10  -0.14   0.16    -0.04   0.14  -0.09
   4   6     0.03  -0.00  -0.12    -0.06  -0.13   0.11     0.12   0.06  -0.08
   5   6     0.03  -0.01  -0.05    -0.05  -0.09   0.07     0.14   0.05  -0.13
   6   6     0.06  -0.04   0.09    -0.08  -0.04  -0.15    -0.00  -0.13  -0.07
   7   6     0.01  -0.01  -0.06    -0.07  -0.08   0.08     0.13   0.08  -0.11
   8   6    -0.00  -0.01  -0.03    -0.16   0.01   0.14     0.02   0.14   0.09
   9   6    -0.03  -0.02  -0.01    -0.27   0.05   0.01    -0.11   0.08   0.18
  10   6    -0.03  -0.05  -0.01    -0.28   0.04  -0.14    -0.13   0.08  -0.00
  11   6    -0.02  -0.05  -0.04    -0.21  -0.06  -0.12    -0.02   0.04  -0.15
  12   6     0.01  -0.02  -0.08    -0.07  -0.08   0.01     0.11   0.04  -0.09
  13   7     0.01  -0.01  -0.12    -0.03  -0.10   0.04     0.13  -0.02   0.04
  14   6     0.00   0.02   0.06     0.01   0.02   0.03     0.11  -0.10   0.15
  15   6    -0.01   0.05   0.12     0.08   0.11   0.15     0.15  -0.13   0.08
  16   6    -0.01   0.07   0.16     0.08   0.17   0.16     0.16  -0.08   0.05
  17   6    -0.01   0.06   0.14     0.07   0.11   0.02     0.11  -0.05   0.04
  18   6    -0.01   0.11   0.24     0.05   0.08  -0.03     0.06  -0.07   0.07
  19   6    -0.00   0.09   0.19     0.02   0.02  -0.01     0.08  -0.07   0.18
  20   6    -0.02   0.09   0.17     0.10   0.05  -0.07    -0.02  -0.06  -0.05
  21   6    -0.03   0.08   0.15     0.18   0.07  -0.02    -0.16  -0.06  -0.08
  22   6    -0.04  -0.05  -0.11     0.20   0.04   0.02    -0.19   0.05  -0.03
  23   6    -0.03  -0.11  -0.25     0.18   0.00   0.01    -0.12   0.17   0.03
  24   6    -0.02  -0.06  -0.13     0.11  -0.01  -0.05     0.04   0.09  -0.03
  25   6    -0.02  -0.04  -0.09     0.09  -0.01  -0.03     0.07   0.08   0.00
  26   6    -0.02   0.11   0.22     0.08  -0.01   0.05     0.03  -0.09   0.04
  27   6    -0.03   0.14   0.29     0.05  -0.01   0.06    -0.11  -0.15   0.03
  28   6    -0.03  -0.04  -0.08     0.03  -0.02  -0.02    -0.16  -0.09   0.04
  29   6    -0.03  -0.15  -0.31     0.04  -0.01  -0.07    -0.12   0.06   0.01
  30   6    -0.02  -0.08  -0.17     0.06   0.01  -0.05     0.05   0.08  -0.02
  31   7    -0.02  -0.02  -0.06     0.08   0.04  -0.07     0.09   0.03  -0.07
  32   6    -0.02  -0.00  -0.01     0.09   0.02  -0.10     0.04   0.01  -0.10
  33   1     0.03  -0.02   0.06    -0.03   0.02  -0.12    -0.07  -0.08   0.06
  34   1     0.04  -0.01  -0.02    -0.04  -0.02  -0.00    -0.07   0.00   0.00
  35   1     0.03  -0.00  -0.07    -0.03  -0.05   0.08    -0.02   0.09  -0.03
  36   1     0.01  -0.01   0.06    -0.02  -0.00  -0.08     0.01  -0.08  -0.03
  37   1     0.00   0.00  -0.01    -0.04   0.02   0.08     0.02   0.06   0.06
  38   1    -0.01  -0.01   0.01    -0.09   0.03   0.00    -0.05   0.02   0.10
  39   1    -0.01  -0.02   0.01    -0.10   0.02  -0.07    -0.06   0.02  -0.00
  40   1    -0.01  -0.02  -0.01    -0.07  -0.04  -0.06    -0.02  -0.01  -0.07
  41   1    -0.00   0.01   0.02     0.03   0.03   0.06     0.05  -0.05   0.00
  42   1    -0.00   0.02   0.05     0.03   0.07   0.07     0.06  -0.03   0.00
  43   1     0.00   0.02   0.05    -0.00  -0.00  -0.01     0.01  -0.02   0.06
  44   1    -0.01   0.04   0.09     0.06   0.04   0.00    -0.06  -0.04  -0.03
  45   1    -0.01  -0.02  -0.05     0.07   0.02   0.02    -0.07   0.02  -0.01
  46   1    -0.01  -0.06  -0.12     0.06  -0.00   0.02    -0.05   0.09   0.03
  47   1    -0.00   0.06   0.12     0.03  -0.00   0.03     0.04  -0.06   0.02
  48   1    -0.01   0.08   0.17     0.01  -0.00   0.04    -0.04  -0.07   0.00
  49   1    -0.01  -0.02  -0.04     0.00  -0.01  -0.01    -0.07  -0.03   0.01
  50   1    -0.01  -0.07  -0.15     0.01  -0.01  -0.04    -0.06   0.05  -0.01
                     13                     14                     15
                        a                      a                      a 
 Frequencies --   240.7659               265.5920               271.1551
 Red. masses --    10.6279                10.2498                10.3722
 Frc consts  --     0.0000                 0.0000                 0.0000
 IR Inten    --     0.3507                 0.0399                 1.1267
 Raman Activ --     0.0000                 0.0000                 0.0000
 Depolar     --     0.0000                 0.0000                 0.0000
 Atom AN      X      Y      Z        X      Y      Z        X      Y      Z
   1   6     0.11   0.00   0.04     0.00  -0.00   0.00    -0.03  -0.12   0.11
   2   6     0.13  -0.00  -0.06     0.00  -0.00   0.00    -0.04  -0.13   0.20
   3   6     0.05  -0.06  -0.08     0.00   0.00  -0.01     0.04   0.12  -0.20
   4   6    -0.05  -0.03  -0.05    -0.00   0.00  -0.01     0.09   0.12  -0.26
   5   6    -0.05  -0.02  -0.04    -0.00   0.00  -0.01     0.10   0.08  -0.21
   6   6     0.02   0.01   0.07     0.00   0.00  -0.00     0.05   0.06  -0.30
   7   6    -0.04  -0.02  -0.06    -0.00  -0.00  -0.00     0.07  -0.07   0.16
   8   6    -0.02  -0.06  -0.05    -0.00  -0.00   0.01     0.02  -0.06   0.29
   9   6    -0.02  -0.08  -0.01    -0.00  -0.00   0.00    -0.01   0.10  -0.06
  10   6    -0.02  -0.07  -0.02    -0.00   0.00  -0.01    -0.01   0.14  -0.22
  11   6    -0.03  -0.03  -0.05    -0.00  -0.00  -0.00     0.01  -0.10   0.16
  12   6    -0.03  -0.03  -0.05    -0.00  -0.00  -0.00     0.05  -0.13   0.25
  13   7    -0.04  -0.02  -0.01    -0.00  -0.00   0.00     0.05  -0.03   0.04
  14   6    -0.04   0.10   0.19    -0.00   0.00   0.01     0.02  -0.02   0.04
  15   6    -0.04  -0.00  -0.02     0.00   0.02   0.04    -0.01  -0.03   0.03
  16   6    -0.04   0.02  -0.03     0.00   0.01   0.02    -0.02  -0.02  -0.02
  17   6    -0.04   0.06   0.05     0.00  -0.00  -0.01    -0.07   0.02  -0.02
  18   6    -0.03   0.14   0.18    -0.00   0.01   0.01    -0.04   0.04  -0.02
  19   6    -0.04   0.26   0.46    -0.00  -0.00   0.01    -0.04   0.00   0.00
  20   6     0.00  -0.03  -0.13     0.00   0.06   0.11    -0.03   0.03  -0.01
  21   6     0.09  -0.11  -0.27     0.00  -0.14  -0.27     0.09   0.02  -0.00
  22   6     0.11  -0.05  -0.05     0.00  -0.01  -0.02     0.11  -0.04   0.01
  23   6     0.07   0.08   0.28     0.00   0.13   0.27     0.06  -0.09   0.04
  24   6    -0.02  -0.02   0.04     0.00   0.08   0.15    -0.06  -0.05   0.03
  25   6    -0.04   0.03   0.11    -0.00  -0.14  -0.27    -0.11  -0.03   0.03
  26   6    -0.02   0.05  -0.01    -0.00  -0.15  -0.29    -0.08   0.08  -0.03
  27   6     0.02  -0.00  -0.14     0.00   0.09   0.17    -0.01   0.10  -0.06
  28   6     0.04   0.04  -0.03     0.00   0.12   0.24     0.02   0.07  -0.04
  29   6     0.02   0.04   0.09    -0.00  -0.12  -0.24    -0.01  -0.02   0.02
  30   6    -0.04   0.00   0.05    -0.00  -0.15  -0.30    -0.09  -0.04   0.02
  31   7    -0.04  -0.09  -0.18     0.00   0.04   0.07    -0.09  -0.02  -0.00
  32   6    -0.02  -0.12  -0.22     0.00   0.15   0.30    -0.07  -0.01   0.01
  33   1     0.04   0.00   0.03     0.00  -0.00   0.00    -0.02  -0.07   0.10
  34   1     0.05   0.00  -0.03     0.00  -0.00   0.00    -0.03  -0.08   0.16
  35   1     0.02  -0.04  -0.03     0.00  -0.00  -0.00     0.01   0.05  -0.07
  36   1    -0.00   0.02   0.05    -0.00   0.00  -0.00     0.02   0.02  -0.12
  37   1    -0.01  -0.02  -0.02    -0.00  -0.00   0.00     0.01  -0.02   0.13
  38   1    -0.01  -0.03   0.01    -0.00  -0.00   0.00    -0.00   0.06  -0.07
  39   1    -0.00  -0.02   0.00    -0.00   0.00  -0.00    -0.01   0.09  -0.16
  40   1    -0.01  -0.01  -0.02    -0.00  -0.00   0.00    -0.00  -0.04   0.05
  41   1    -0.01  -0.03  -0.07     0.00   0.01   0.02    -0.00  -0.01   0.01
  42   1    -0.01  -0.01  -0.05     0.00   0.01   0.01     0.01  -0.00  -0.01
  43   1    -0.01   0.10   0.17    -0.00   0.00   0.00    -0.03  -0.01  -0.00
  44   1     0.04  -0.04  -0.12     0.00  -0.11  -0.21     0.04   0.02  -0.01
  45   1     0.04  -0.01  -0.01     0.00  -0.02  -0.04     0.05  -0.01   0.00
  46   1     0.03   0.06   0.19     0.00   0.05   0.10     0.03  -0.05   0.02
  47   1    -0.02   0.02  -0.02    -0.00  -0.06  -0.12    -0.05   0.04  -0.02
  48   1     0.01  -0.01  -0.08     0.00   0.07   0.14     0.00   0.04  -0.03
  49   1     0.02   0.01  -0.02     0.00   0.09   0.18     0.02   0.02  -0.01
  50   1     0.02   0.01   0.04    -0.00  -0.04  -0.08     0.02  -0.02   0.02
                     16                     17                     18
                        a                      a                      a 
 Frequencies --   273.5234               277.9357               310.1411
 Red. masses --    10.7137                10.9975                11.0162
 Frc consts  --     0.0000                 0.0000                 0.0000
 IR Inten    --     0.9089                 0.2538                 0.2490
 Raman Activ --     0.0000                 0.0000                 0.0000
 Depolar     --     0.0000                 0.0000                 0.0000
 Atom AN      X      Y      Z        X      Y      Z        X      Y      Z
   1   6    -0.05  -0.08   0.02    -0.04  -0.09  -0.22    -0.04   0.05   0.03
   2   6    -0.05   0.05  -0.14    -0.07  -0.06  -0.04    -0.04   0.04   0.03
   3   6     0.01   0.04   0.02     0.05  -0.03   0.18    -0.04   0.05   0.00
   4   6     0.08  -0.04   0.12     0.17  -0.02   0.08     0.01   0.02   0.01
   5   6     0.09   0.01  -0.02     0.20  -0.12   0.16    -0.01   0.04   0.01
   6   6     0.02  -0.12   0.08     0.07  -0.21  -0.01    -0.01   0.05  -0.00
   7   6     0.09   0.11  -0.19     0.22  -0.05   0.11    -0.05   0.03   0.03
   8   6     0.04   0.14  -0.10     0.10   0.18   0.04    -0.00  -0.01  -0.02
   9   6    -0.02  -0.00   0.20    -0.04   0.20  -0.03     0.06  -0.01  -0.00
  10   6    -0.02   0.00   0.09    -0.08   0.02   0.11     0.07   0.00   0.02
  11   6     0.04   0.08  -0.20     0.05  -0.11   0.04     0.02   0.04   0.03
  12   6     0.07   0.06  -0.14     0.19  -0.02  -0.05    -0.05   0.02   0.05
  13   7     0.05  -0.10   0.19     0.15   0.10  -0.23    -0.02  -0.02   0.02
  14   6     0.03  -0.15   0.12     0.08   0.14  -0.17    -0.01  -0.16  -0.10
  15   6     0.03  -0.14   0.13    -0.06   0.10  -0.14     0.02  -0.26  -0.30
  16   6     0.03  -0.05  -0.01    -0.10   0.05   0.06     0.04   0.04   0.14
  17   6    -0.10   0.02  -0.07    -0.08   0.03   0.08     0.01   0.17   0.35
  18   6    -0.08   0.03  -0.10    -0.00   0.05   0.05    -0.01   0.02   0.07
  19   6    -0.09  -0.13  -0.04     0.04   0.20  -0.04    -0.02  -0.10  -0.00
  20   6    -0.04   0.08  -0.02    -0.02  -0.04  -0.02    -0.01  -0.09  -0.21
  21   6     0.21   0.08   0.03    -0.08  -0.06  -0.04     0.05  -0.06  -0.13
  22   6     0.26  -0.05   0.03    -0.09  -0.03   0.03     0.06   0.09   0.18
  23   6     0.16  -0.17   0.01    -0.11  -0.03   0.08     0.05   0.02   0.07
  24   6    -0.09  -0.06   0.05    -0.09  -0.07  -0.01    -0.00  -0.14  -0.27
  25   6    -0.16  -0.05   0.02    -0.11  -0.05   0.01    -0.01  -0.07  -0.15
  26   6    -0.13   0.13  -0.07    -0.09   0.05  -0.02    -0.01   0.01  -0.01
  27   6    -0.02   0.17  -0.08    -0.01   0.08  -0.03    -0.01   0.09   0.14
  28   6     0.02   0.13  -0.06     0.04   0.03  -0.02    -0.02  -0.03  -0.11
  29   6    -0.03  -0.02   0.00     0.01  -0.06   0.02    -0.02  -0.03  -0.10
  30   6    -0.15  -0.04   0.02    -0.09  -0.07   0.04    -0.01   0.05   0.07
  31   7    -0.13   0.02   0.03    -0.09  -0.07   0.03     0.00   0.17   0.30
  32   6    -0.10   0.03   0.06    -0.07  -0.10  -0.03    -0.01  -0.07  -0.17
  33   1    -0.02  -0.04   0.01    -0.02  -0.01  -0.13    -0.02   0.01   0.01
  34   1    -0.03   0.05  -0.09    -0.05  -0.00  -0.02    -0.01   0.01   0.01
  35   1    -0.00   0.04   0.00     0.00   0.02   0.09    -0.01   0.02  -0.00
  36   1     0.01  -0.07   0.03     0.03  -0.10  -0.02    -0.00   0.01  -0.01
  37   1     0.02   0.06  -0.03     0.05   0.10   0.02    -0.01  -0.01  -0.03
  38   1    -0.01  -0.03   0.13    -0.03   0.09  -0.04     0.02  -0.01  -0.01
  39   1    -0.02  -0.02   0.06    -0.06  -0.01   0.05     0.03   0.00   0.00
  40   1     0.01   0.02  -0.08    -0.00  -0.08   0.01     0.01   0.03   0.00
  41   1     0.02  -0.04   0.05    -0.05   0.04  -0.07     0.02  -0.13  -0.17
  42   1     0.05   0.00  -0.02    -0.04   0.01   0.03     0.02   0.02   0.05
  43   1    -0.07  -0.06  -0.01     0.03   0.07  -0.00    -0.02  -0.04  -0.01
  44   1     0.09   0.06  -0.00    -0.03  -0.03  -0.01     0.02  -0.01  -0.04
  45   1     0.10  -0.02   0.01    -0.02  -0.00   0.02     0.02   0.07   0.14
  46   1     0.07  -0.10  -0.00    -0.03   0.00   0.05     0.02   0.03   0.09
  47   1    -0.07   0.07  -0.03    -0.05   0.03  -0.02    -0.00   0.00  -0.00
  48   1    -0.00   0.07  -0.03     0.00   0.04  -0.01    -0.00   0.05   0.09
  49   1     0.03   0.04  -0.02     0.03   0.01  -0.01    -0.00  -0.03  -0.06
  50   1     0.02  -0.03   0.01     0.02  -0.04   0.01    -0.00  -0.02  -0.05
                     19                     20                     21
                        a                      a                      a 
 Frequencies --   358.6068               385.0567               397.7528
 Red. masses --    11.6267                10.8261                 9.8060
 Frc consts  --     0.0000                 0.0000                 0.0000
 IR Inten    --     0.4508                 0.8890                 0.4943
 Raman Activ --     0.0000                 0.0000                 0.0000
 Depolar     --     0.0000                 0.0000                 0.0000
 Atom AN      X      Y      Z        X      Y      Z        X      Y      Z
   1   6    -0.07   0.13  -0.09    -0.03  -0.05   0.10     0.02  -0.02   0.01
   2   6    -0.08   0.02   0.08    -0.02  -0.03   0.05     0.01  -0.09   0.17
   3   6    -0.06   0.02   0.09     0.02   0.09  -0.15     0.02   0.09  -0.23
   4   6     0.04   0.06  -0.08     0.02  -0.07   0.15    -0.02  -0.04   0.07
   5   6    -0.00   0.01   0.13     0.02  -0.03   0.09    -0.03  -0.14   0.26
   6   6    -0.02   0.03   0.07     0.02   0.07  -0.17     0.01   0.09  -0.20
   7   6    -0.07   0.01   0.12    -0.02  -0.02   0.08    -0.01  -0.13   0.25
   8   6    -0.02  -0.03   0.04     0.01   0.09  -0.16     0.01   0.09  -0.20
   9   6     0.07   0.06  -0.12     0.02  -0.03   0.11    -0.02  -0.02   0.01
  10   6     0.07  -0.02   0.07     0.02  -0.01   0.06    -0.03  -0.09   0.17
  11   6     0.01   0.02   0.10     0.02   0.10  -0.15    -0.00   0.10  -0.23
  12   6    -0.07   0.08  -0.08    -0.03  -0.06   0.14     0.01  -0.03   0.06
  13   7     0.02   0.11  -0.38    -0.02  -0.12   0.21     0.01   0.07  -0.11
  14   6     0.00  -0.27  -0.10    -0.01  -0.05  -0.20     0.00   0.06   0.10
  15   6     0.00  -0.23   0.04     0.04  -0.00  -0.15    -0.04   0.05   0.12
  16   6     0.04  -0.06   0.17     0.03   0.13   0.07    -0.04  -0.10  -0.07
  17   6     0.04  -0.07   0.09    -0.03   0.19   0.15     0.02  -0.11  -0.03
  18   6     0.04  -0.03   0.19    -0.05   0.20   0.18     0.04  -0.09   0.00
  19   6     0.05  -0.25   0.03    -0.07  -0.03  -0.25     0.06  -0.00   0.06
  20   6    -0.01   0.07   0.14    -0.01   0.10   0.14     0.02  -0.03   0.02
  21   6     0.12   0.01   0.04    -0.07   0.06   0.04     0.05  -0.08  -0.06
  22   6     0.13  -0.08  -0.14    -0.07  -0.08  -0.18     0.05   0.03   0.09
  23   6     0.12   0.03   0.07    -0.07   0.05   0.10     0.05   0.00  -0.00
  24   6    -0.00   0.08   0.10    -0.00   0.02   0.10     0.00  -0.02  -0.09
  25   6    -0.02   0.10   0.05     0.00  -0.01   0.12     0.00  -0.05  -0.21
  26   6    -0.03   0.09  -0.03     0.01  -0.08   0.02    -0.00   0.13   0.11
  27   6    -0.10   0.03  -0.11     0.09  -0.09  -0.03    -0.08   0.04  -0.05
  28   6    -0.11   0.11   0.02     0.10  -0.03   0.10    -0.09   0.00  -0.13
  29   6    -0.11   0.08  -0.01     0.09  -0.07  -0.00    -0.08   0.12   0.13
  30   6    -0.01   0.03  -0.11    -0.00  -0.08  -0.02     0.01  -0.01  -0.12
  31   7     0.01  -0.11  -0.27    -0.02  -0.12  -0.25     0.02   0.04   0.10
  32   6    -0.01  -0.01  -0.07    -0.01  -0.07  -0.14     0.01   0.04   0.11
  33   1    -0.02   0.05  -0.07    -0.01  -0.02   0.04     0.01   0.01  -0.02
  34   1    -0.02  -0.01   0.05    -0.01  -0.00   0.01     0.00  -0.04   0.08
  35   1    -0.02   0.01   0.05     0.01   0.07  -0.12     0.02   0.07  -0.16
  36   1    -0.00  -0.01   0.02     0.01   0.05  -0.13     0.01   0.08  -0.16
  37   1    -0.01  -0.03   0.01     0.00   0.05  -0.12     0.01   0.08  -0.16
  38   1     0.03   0.03  -0.08     0.01  -0.02   0.05    -0.01   0.01  -0.02
  39   1     0.03  -0.01   0.04     0.01  -0.00   0.02    -0.01  -0.04   0.08
  40   1     0.01   0.02   0.06     0.01   0.07  -0.11     0.00   0.07  -0.16
  41   1     0.02  -0.08   0.02     0.01  -0.01  -0.06    -0.02   0.02   0.04
  42   1     0.02  -0.00   0.07     0.02   0.04   0.01    -0.03  -0.05  -0.04
  43   1    -0.00  -0.08   0.00    -0.03  -0.04  -0.12     0.03  -0.00   0.00
  44   1     0.05   0.02   0.01    -0.03   0.02   0.03     0.02  -0.04  -0.06
  45   1     0.03  -0.05  -0.10    -0.01  -0.05  -0.11     0.01   0.02   0.05
  46   1     0.04  -0.00   0.04    -0.02   0.04   0.06     0.02  -0.01  -0.01
  47   1    -0.00   0.02  -0.01    -0.00  -0.02  -0.01     0.01   0.07   0.12
  48   1    -0.03  -0.02  -0.05     0.03  -0.02  -0.04    -0.03   0.01   0.01
  49   1    -0.03   0.04   0.03     0.03   0.00   0.05    -0.02  -0.00  -0.05
  50   1    -0.04   0.03  -0.00     0.04  -0.04  -0.01    -0.03   0.08   0.11
                     22                     23                     24
                        a                      a                      a 
 Frequencies --   399.3104               408.0200               421.6516
 Red. masses --     9.5155                 9.4331                10.1513
 Frc consts  --     0.0000                 0.0000                 0.0000
 IR Inten    --     0.8236                 1.3218                 0.3438
 Raman Activ --     0.0000                 0.0000                 0.0000
 Depolar     --     0.0000                 0.0000                 0.0000
 Atom AN      X      Y      Z        X      Y      Z        X      Y      Z
   1   6    -0.01  -0.00  -0.01     0.02  -0.03  -0.02    -0.05   0.12   0.19
   2   6    -0.00   0.03  -0.08     0.03  -0.05   0.01    -0.06   0.21   0.11
   3   6    -0.01  -0.05   0.10     0.02  -0.03  -0.03    -0.08   0.23  -0.07
   4   6     0.01   0.00  -0.01    -0.04  -0.03   0.04     0.03  -0.07   0.32
   5   6     0.01   0.05  -0.10    -0.03  -0.05   0.05     0.04  -0.05   0.19
   6   6    -0.01  -0.04   0.08    -0.02  -0.01  -0.03     0.11   0.19  -0.11
   7   6     0.00   0.07  -0.13     0.02  -0.00  -0.03     0.06   0.05  -0.20
   8   6    -0.01  -0.03   0.11    -0.01  -0.01   0.05     0.08  -0.20   0.11
   9   6     0.01   0.02  -0.01    -0.02   0.03  -0.04    -0.06  -0.12  -0.18
  10   6     0.02   0.05  -0.07    -0.02   0.02   0.02    -0.09  -0.20  -0.12
  11   6     0.01  -0.04   0.12     0.00  -0.01   0.03    -0.12  -0.22   0.06
  12   6    -0.00   0.03  -0.06     0.04   0.05  -0.09     0.06   0.06  -0.31
  13   7    -0.01  -0.02   0.04     0.00   0.07  -0.05     0.05  -0.01   0.02
  14   6    -0.00  -0.02  -0.02     0.00   0.11   0.18     0.07   0.02  -0.03
  15   6     0.02   0.04   0.07    -0.03   0.13   0.26     0.09   0.02  -0.04
  16   6     0.02  -0.02  -0.12    -0.03  -0.22  -0.37     0.08   0.01   0.03
  17   6    -0.01   0.10   0.09     0.01   0.06   0.23     0.03  -0.00  -0.02
  18   6    -0.03   0.13   0.16     0.02   0.10   0.27     0.03  -0.00  -0.02
  19   6    -0.03  -0.09  -0.19     0.03  -0.14  -0.24     0.05   0.06   0.00
  20   6    -0.01   0.10   0.15     0.01  -0.02   0.01     0.01  -0.01  -0.00
  21   6    -0.03  -0.04  -0.13     0.02  -0.03  -0.01    -0.02  -0.01   0.01
  22   6    -0.03   0.01  -0.00     0.02  -0.02  -0.03    -0.02  -0.01   0.01
  23   6    -0.03   0.06   0.12     0.03   0.03   0.06    -0.03  -0.02   0.00
  24   6    -0.00  -0.07  -0.11     0.00  -0.03  -0.09    -0.02  -0.02   0.02
  25   6    -0.00  -0.18  -0.29     0.01   0.08   0.10    -0.06  -0.03   0.01
  26   6     0.01   0.10   0.30     0.01  -0.04  -0.15    -0.06   0.03  -0.01
  27   6     0.05  -0.08  -0.08    -0.03   0.07   0.09    -0.04   0.04  -0.02
  28   6     0.05  -0.11  -0.14    -0.04   0.03   0.01    -0.01   0.01  -0.01
  29   6     0.05   0.12   0.29    -0.04  -0.04  -0.15    -0.02  -0.04   0.02
  30   6    -0.00  -0.15  -0.23     0.01   0.13   0.19    -0.04  -0.05   0.01
  31   7    -0.01  -0.01  -0.04     0.01   0.02   0.06     0.00  -0.01   0.00
  32   6    -0.01   0.03   0.05     0.01  -0.09  -0.16    -0.00  -0.01   0.01
  33   1    -0.00  -0.00   0.00     0.01   0.00  -0.02    -0.04   0.02   0.03
  34   1    -0.00   0.02  -0.04     0.01  -0.01  -0.00    -0.00   0.08  -0.02
  35   1    -0.00  -0.03   0.06     0.01  -0.01  -0.04    -0.02   0.14  -0.13
  36   1    -0.01  -0.03   0.06    -0.01   0.02  -0.03     0.04   0.11  -0.15
  37   1    -0.01  -0.04   0.09    -0.00  -0.01   0.05     0.01  -0.11   0.15
  38   1     0.00  -0.00   0.01    -0.00   0.01  -0.01    -0.04  -0.02  -0.03
  39   1     0.00   0.02  -0.03    -0.01  -0.00   0.02    -0.02  -0.08   0.01
  40   1     0.00  -0.04   0.09    -0.00  -0.03   0.04    -0.04  -0.14   0.13
  41   1     0.01   0.01   0.04    -0.01   0.05   0.08     0.02   0.01  -0.01
  42   1     0.02  -0.04  -0.10    -0.02  -0.16  -0.28     0.02   0.01   0.02
  43   1    -0.02  -0.07  -0.12     0.01  -0.12  -0.22     0.02   0.02   0.01
  44   1    -0.01  -0.04  -0.10     0.01   0.01   0.02    -0.01  -0.01   0.00
  45   1    -0.00  -0.00  -0.01     0.00  -0.00   0.00    -0.00  -0.00   0.00
  46   1    -0.01   0.04   0.07     0.01   0.04   0.07    -0.01  -0.01  -0.00
  47   1    -0.00   0.11   0.24     0.01  -0.06  -0.13    -0.02   0.02  -0.00
  48   1     0.02  -0.01  -0.01    -0.01   0.02   0.03    -0.01   0.02  -0.01
  49   1     0.01  -0.04  -0.05    -0.01  -0.00  -0.02     0.01   0.01  -0.00
  50   1     0.02   0.11   0.24    -0.02  -0.05  -0.13     0.00  -0.02   0.01
                     25                     26                     27
                        a                      a                      a 
 Frequencies --   426.1018               434.5196               458.6400
 Red. masses --    11.0962                10.4651                11.0131
 Frc consts  --     0.0000                 0.0000                 0.0000
 IR Inten    --     2.2025                 2.9294                 9.1562
 Raman Activ --     0.0000                 0.0000                 0.0000
 Depolar     --     0.0000                 0.0000                 0.0000
 Atom AN      X      Y      Z        X      Y      Z        X      Y      Z
   1   6    -0.02   0.05  -0.07     0.05  -0.25   0.02    -0.01   0.00  -0.02
   2   6    -0.03  -0.04   0.10     0.08  -0.24  -0.12     0.02  -0.14  -0.04
   3   6    -0.00   0.04  -0.05     0.13  -0.11  -0.19    -0.03  -0.15  -0.09
   4   6     0.04   0.03  -0.07    -0.07  -0.18   0.23    -0.08  -0.08  -0.07
   5   6     0.02  -0.04   0.14    -0.06  -0.10   0.13    -0.14  -0.00   0.01
   6   6     0.01   0.01  -0.00    -0.11  -0.06  -0.20    -0.12   0.03   0.01
   7   6    -0.02  -0.02   0.10    -0.05   0.12  -0.15    -0.14   0.02   0.02
   8   6    -0.01   0.00   0.03    -0.11   0.08   0.19    -0.13  -0.01   0.00
   9   6     0.04   0.07  -0.09     0.09   0.23   0.00     0.01   0.04  -0.01
  10   6     0.02  -0.04   0.10     0.11   0.23   0.10     0.04   0.11   0.09
  11   6     0.02   0.02  -0.02     0.14   0.09   0.21     0.00   0.15   0.06
  12   6    -0.02   0.06  -0.14    -0.04   0.18  -0.20    -0.08   0.11   0.00
  13   7     0.01   0.06  -0.26    -0.07  -0.01   0.02     0.06  -0.00  -0.03
  14   6    -0.02  -0.17   0.16    -0.08  -0.03  -0.03     0.16   0.03  -0.02
  15   6     0.03  -0.14   0.18    -0.11  -0.05  -0.08     0.38   0.10  -0.03
  16   6     0.07   0.06  -0.12    -0.10   0.03   0.07     0.37   0.02  -0.03
  17   6    -0.09   0.15  -0.16    -0.03  -0.04  -0.02     0.18   0.06  -0.05
  18   6    -0.11   0.15  -0.12    -0.03  -0.04  -0.03     0.12   0.02  -0.01
  19   6    -0.14  -0.08   0.14    -0.04   0.01   0.09     0.14   0.07  -0.01
  20   6    -0.06   0.13  -0.13    -0.01  -0.01  -0.01     0.06  -0.01   0.00
  21   6    -0.08   0.17  -0.11     0.03  -0.00   0.01    -0.08  -0.02   0.00
  22   6    -0.06   0.13  -0.01     0.03   0.01   0.00    -0.09  -0.03   0.03
  23   6    -0.10   0.01  -0.04     0.04   0.01  -0.02    -0.08  -0.04   0.02
  24   6    -0.02  -0.02  -0.01     0.02   0.03   0.01    -0.02  -0.06   0.02
  25   6    -0.03  -0.10   0.06     0.07   0.04  -0.02    -0.20  -0.11   0.06
  26   6    -0.01  -0.19   0.07     0.07  -0.02   0.02    -0.20   0.10  -0.06
  27   6     0.21  -0.13   0.10     0.02  -0.04   0.01    -0.13   0.14  -0.06
  28   6     0.24  -0.16   0.07    -0.01   0.00   0.01    -0.01   0.02  -0.02
  29   6     0.22  -0.10   0.03     0.01   0.06  -0.03    -0.08  -0.20   0.10
  30   6    -0.04  -0.07   0.09     0.04   0.05  -0.05    -0.11  -0.18   0.11
  31   7    -0.06   0.09   0.03    -0.00  -0.00  -0.01     0.07   0.00   0.01
  32   6    -0.05   0.09  -0.01     0.00   0.01   0.01     0.04  -0.01   0.01
  33   1    -0.01   0.03  -0.05     0.05  -0.04   0.01     0.02   0.02   0.00
  34   1    -0.01  -0.03   0.06     0.01  -0.04  -0.08     0.03  -0.05  -0.01
  35   1    -0.00   0.03  -0.02     0.05   0.00  -0.15    -0.00  -0.06  -0.03
  36   1     0.01   0.00  -0.02    -0.03   0.03  -0.16    -0.04   0.02   0.01
  37   1    -0.01  -0.01   0.01    -0.04  -0.03   0.15    -0.04  -0.02  -0.00
  38   1     0.01   0.03  -0.05     0.05   0.03   0.00     0.03  -0.01  -0.02
  39   1     0.00  -0.03   0.07     0.02   0.05   0.07     0.03   0.03   0.04
  40   1     0.01   0.01   0.01     0.04  -0.00   0.16     0.01   0.06   0.03
  41   1     0.05  -0.07   0.07    -0.03  -0.02  -0.02     0.13   0.02  -0.00
  42   1     0.09   0.04  -0.07    -0.04   0.02   0.06     0.12   0.01  -0.01
  43   1    -0.11  -0.06   0.05    -0.01   0.02   0.05     0.06   0.03  -0.00
  44   1    -0.02   0.05  -0.04     0.01   0.00   0.00    -0.04  -0.02   0.01
  45   1     0.01   0.04   0.02     0.00   0.00   0.00    -0.02  -0.01   0.01
  46   1    -0.03   0.00  -0.02     0.01  -0.00  -0.01    -0.03  -0.00  -0.00
  47   1    -0.02  -0.05  -0.00     0.03  -0.01   0.01    -0.09   0.06  -0.03
  48   1     0.07  -0.00   0.01     0.00  -0.02   0.00    -0.03   0.06  -0.03
  49   1     0.05  -0.06   0.01    -0.02  -0.00   0.01     0.06   0.02  -0.01
  50   1     0.09  -0.06   0.01    -0.01   0.03  -0.01     0.01  -0.09   0.04
                     28                     29                     30
                        a                      a                      a 
 Frequencies --   497.3184               507.2653               518.3560
 Red. masses --    10.3602                11.2019                10.8663
 Frc consts  --     0.0000                 0.0000                 0.0000
 IR Inten    --     0.0417                 1.4804                 1.4685
 Raman Activ --     0.0000                 0.0000                 0.0000
 Depolar     --     0.0000                 0.0000                 0.0000
 Atom AN      X      Y      Z        X      Y      Z        X      Y      Z
   1   6    -0.03  -0.01   0.03     0.02  -0.07   0.06     0.09  -0.24  -0.12
   2   6    -0.03   0.01  -0.02     0.02   0.04  -0.07     0.02   0.04   0.03
   3   6     0.02   0.03   0.02     0.02  -0.01   0.05     0.23   0.21   0.12
   4   6     0.08  -0.02   0.04    -0.02  -0.02   0.11     0.21   0.17   0.09
   5   6     0.07   0.03   0.01    -0.01  -0.01  -0.04     0.23  -0.05  -0.01
   6   6     0.04  -0.01  -0.02     0.00  -0.01  -0.06     0.17  -0.25  -0.09
   7   6    -0.06   0.04   0.00    -0.01  -0.01  -0.04    -0.23  -0.02  -0.03
   8   6    -0.04   0.00  -0.02    -0.01  -0.02  -0.06    -0.19  -0.22  -0.11
   9   6     0.03  -0.02   0.03    -0.04  -0.08   0.06    -0.12  -0.23  -0.12
  10   6     0.03   0.00  -0.03    -0.02   0.05  -0.07    -0.02   0.05   0.02
  11   6    -0.01   0.02   0.02    -0.03   0.01   0.06    -0.20   0.24   0.11
  12   6    -0.09  -0.01   0.03     0.00  -0.01   0.12    -0.19   0.20   0.08
  13   7    -0.01  -0.07  -0.02     0.02   0.07  -0.03     0.01   0.10   0.03
  14   6    -0.01  -0.10  -0.22     0.02  -0.00  -0.02     0.00  -0.00  -0.02
  15   6     0.02   0.06   0.08    -0.17  -0.07   0.01     0.01   0.03   0.03
  16   6     0.02   0.01  -0.01    -0.16  -0.09   0.07     0.01   0.00  -0.04
  17   6    -0.01  -0.14  -0.31     0.01  -0.16   0.05     0.00   0.03   0.02
  18   6    -0.03   0.01   0.02     0.18  -0.07   0.02    -0.01   0.03   0.02
  19   6    -0.03   0.05   0.05     0.20  -0.09   0.03    -0.00   0.02   0.01
  20   6    -0.02   0.14   0.33     0.13   0.12  -0.01    -0.00  -0.03  -0.04
  21   6    -0.01  -0.05  -0.03     0.14   0.17  -0.07    -0.02  -0.03  -0.02
  22   6    -0.01  -0.09  -0.06     0.08   0.36  -0.22    -0.01  -0.01   0.07
  23   6     0.01   0.05   0.18    -0.01   0.27  -0.10    -0.00  -0.05  -0.04
  24   6     0.00  -0.15  -0.24    -0.04   0.17  -0.11     0.01  -0.01   0.02
  25   6     0.03  -0.04  -0.08    -0.19   0.02  -0.03     0.01   0.01   0.04
  26   6     0.04  -0.07  -0.14    -0.26  -0.03  -0.01     0.02   0.02   0.02
  27   6     0.01   0.12   0.25    -0.10   0.02   0.03     0.00  -0.02  -0.05
  28   6    -0.02  -0.10  -0.24     0.11  -0.19   0.06    -0.01   0.04   0.04
  29   6    -0.01   0.09   0.10     0.09  -0.17   0.11    -0.01  -0.01  -0.03
  30   6     0.01   0.19   0.33    -0.02  -0.13   0.11    -0.00  -0.01  -0.04
  31   7    -0.00  -0.01  -0.04     0.01  -0.09   0.04     0.00   0.01   0.01
  32   6    -0.00  -0.02  -0.03     0.03  -0.01  -0.01     0.00   0.01   0.01
  33   1    -0.02  -0.01   0.01     0.00  -0.03   0.03    -0.01  -0.10  -0.05
  34   1    -0.01   0.01  -0.02     0.00   0.03  -0.06    -0.08   0.04   0.01
  35   1    -0.00   0.03   0.01     0.01  -0.00  -0.00     0.06   0.09   0.05
  36   1     0.02  -0.02  -0.02    -0.00   0.01  -0.03     0.06  -0.11  -0.04
  37   1    -0.02  -0.02  -0.02    -0.00   0.01  -0.03    -0.07  -0.10  -0.04
  38   1     0.01  -0.01   0.01    -0.01  -0.03   0.03    -0.00  -0.10  -0.05
  39   1     0.01   0.01  -0.02     0.01   0.03  -0.05     0.09   0.03   0.02
  40   1     0.01   0.03   0.01    -0.01   0.01  -0.00    -0.05   0.10   0.04
  41   1     0.01   0.07   0.12    -0.07   0.00   0.00     0.01   0.01   0.01
  42   1     0.01   0.05   0.09    -0.07  -0.03   0.04     0.01  -0.01  -0.03
  43   1    -0.01   0.06   0.10     0.08  -0.01   0.02    -0.00   0.00  -0.00
  44   1     0.00  -0.04  -0.06     0.01   0.02  -0.01    -0.00  -0.01  -0.01
  45   1    -0.00  -0.04  -0.05     0.01   0.10  -0.07    -0.00   0.01   0.04
  46   1     0.00   0.05   0.12     0.01   0.06  -0.00    -0.00  -0.02  -0.02
  47   1     0.01  -0.06  -0.11    -0.07  -0.01  -0.01     0.00   0.01   0.01
  48   1     0.00   0.05   0.12    -0.01   0.07  -0.02    -0.00  -0.02  -0.02
  49   1    -0.01  -0.09  -0.19     0.07  -0.05  -0.00    -0.00   0.02   0.03
  50   1    -0.01  -0.00  -0.03     0.03  -0.05   0.03    -0.00  -0.00  -0.01
                     31                     32                     33
                        a                      a                      a 
 Frequencies --   528.0898               537.3565               541.2591
 Red. masses --    10.6255                10.8656                10.0564
 Frc consts  --     0.0000                 0.0000                 0.0000
 IR Inten    --     0.1194                 0.4323                 0.5349
 Raman Activ --     0.0000                 0.0000                 0.0000
 Depolar     --     0.0000                 0.0000                 0.0000
 Atom AN      X      Y      Z        X      Y      Z        X      Y      Z
   1   6     0.08   0.01  -0.20    -0.01  -0.07   0.15    -0.02  -0.14   0.30
   2   6     0.04  -0.05   0.17     0.01   0.06  -0.14     0.02   0.15  -0.30
   3   6     0.04   0.07  -0.10    -0.00  -0.04   0.10    -0.02  -0.10   0.22
   4   6    -0.05   0.15  -0.17     0.00  -0.07   0.15    -0.00  -0.02   0.05
   5   6    -0.04  -0.07  -0.01     0.01   0.01  -0.01     0.02   0.11  -0.25
   6   6    -0.01  -0.09   0.08     0.01   0.04  -0.09     0.01   0.09  -0.20
   7   6     0.03  -0.07   0.00    -0.02   0.00  -0.00    -0.01  -0.12   0.25
   8   6    -0.00  -0.09   0.09    -0.01   0.03  -0.09    -0.01  -0.10   0.20
   9   6    -0.07   0.03  -0.21    -0.01  -0.07   0.13     0.01   0.14  -0.30
  10   6    -0.06  -0.05   0.18     0.01   0.06  -0.12    -0.02  -0.15   0.30
  11   6    -0.02   0.07  -0.10    -0.02  -0.02   0.09     0.01   0.10  -0.22
  12   6     0.08   0.13  -0.18    -0.02  -0.06   0.15     0.01   0.02  -0.05
  13   7    -0.02  -0.01   0.35     0.03   0.13  -0.31     0.00   0.00   0.00
  14   6    -0.01   0.07   0.12     0.01  -0.00   0.08     0.01   0.00   0.00
  15   6    -0.02  -0.05  -0.11     0.03  -0.01   0.05    -0.00   0.00   0.01
  16   6    -0.03   0.01   0.07     0.04   0.01  -0.06    -0.00  -0.00   0.00
  17   6    -0.00  -0.02   0.01     0.00   0.03  -0.04    -0.00   0.00   0.01
  18   6     0.01  -0.08  -0.12    -0.01  -0.03  -0.13    -0.00   0.00   0.00
  19   6     0.01  -0.02  -0.05     0.00  -0.00   0.06     0.00  -0.00  -0.01
  20   6     0.01   0.00   0.00    -0.02  -0.06  -0.15    -0.00   0.01   0.01
  21   6     0.03   0.12   0.21    -0.05   0.14   0.26    -0.00  -0.00  -0.01
  22   6     0.01  -0.09  -0.30    -0.03  -0.23  -0.27    -0.00   0.01   0.01
  23   6     0.01   0.14   0.18    -0.02   0.03   0.24    -0.00  -0.01  -0.01
  24   6    -0.01   0.06   0.03     0.01  -0.01   0.12    -0.00  -0.00  -0.00
  25   6    -0.02  -0.05  -0.13     0.03  -0.09  -0.10     0.00   0.00   0.00
  26   6    -0.03  -0.03  -0.05     0.05  -0.00  -0.01     0.00  -0.00  -0.00
  27   6    -0.02   0.04   0.09     0.04   0.00   0.00     0.00  -0.00   0.00
  28   6     0.01  -0.08  -0.09    -0.02   0.04  -0.04    -0.00   0.00  -0.00
  29   6     0.01   0.02   0.07    -0.02   0.03  -0.00     0.00   0.01  -0.00
  30   6     0.01  -0.02  -0.01    -0.02  -0.05  -0.14     0.00   0.01   0.01
  31   7     0.00   0.04   0.12    -0.01   0.18   0.28    -0.00  -0.01  -0.02
  32   6     0.00  -0.07  -0.11    -0.01  -0.07  -0.18    -0.00   0.00   0.01
  33   1     0.02   0.01  -0.08    -0.01  -0.03   0.06    -0.01  -0.09   0.19
  34   1    -0.01  -0.05   0.13     0.01   0.05  -0.10     0.01   0.08  -0.15
  35   1     0.01  -0.02   0.00     0.00   0.01  -0.00    -0.01  -0.05   0.10
  36   1    -0.01  -0.03   0.08     0.01   0.03  -0.07     0.00   0.01  -0.03
  37   1     0.00  -0.03   0.09    -0.00   0.02  -0.07    -0.00  -0.01   0.03
  38   1    -0.02   0.02  -0.08    -0.00  -0.03   0.05     0.01   0.09  -0.19
  39   1    -0.00  -0.05   0.13     0.01   0.05  -0.10    -0.01  -0.07   0.15
  40   1    -0.02  -0.02  -0.00    -0.00   0.01  -0.00     0.00   0.05  -0.10
  41   1    -0.01  -0.02  -0.05     0.02  -0.02   0.01    -0.00  -0.00  -0.01
  42   1    -0.01   0.01   0.04     0.03   0.00  -0.03     0.00  -0.00  -0.00
  43   1     0.01   0.01  -0.00    -0.01  -0.01   0.02    -0.00  -0.00  -0.00
  44   1     0.00   0.06   0.12    -0.01   0.10   0.18    -0.00  -0.00  -0.01
  45   1    -0.00  -0.06  -0.16     0.00  -0.10  -0.14     0.00   0.00   0.01
  46   1     0.00   0.06   0.10    -0.01   0.05   0.12    -0.00  -0.00  -0.00
  47   1    -0.01   0.00   0.01     0.01   0.03   0.05     0.00  -0.00  -0.00
  48   1    -0.00   0.04   0.07     0.01   0.01   0.05     0.00  -0.00   0.00
  49   1     0.01  -0.03  -0.04    -0.01   0.03   0.02    -0.00  -0.00  -0.00
  50   1     0.00   0.02   0.05    -0.00   0.03   0.06    -0.00   0.00  -0.00
                     34                     35                     36
                        a                      a                      a 
 Frequencies --   554.1266               571.3200               576.8056
 Red. masses --    11.1904                11.1485                11.1093
 Frc consts  --     0.0000                 0.0000                 0.0000
 IR Inten    --     0.7109                 2.5304                 4.8268
 Raman Activ --     0.0000                 0.0000                 0.0000
 Depolar     --     0.0000                 0.0000                 0.0000
 Atom AN      X      Y      Z        X      Y      Z        X      Y      Z
   1   6    -0.10   0.08  -0.02     0.11  -0.03   0.01    -0.06   0.05   0.01
   2   6    -0.08  -0.07   0.01     0.07   0.11   0.04    -0.03  -0.07  -0.03
   3   6     0.01   0.00  -0.04    -0.08  -0.01  -0.00    -0.02  -0.06  -0.03
   4   6     0.14  -0.04  -0.07    -0.18   0.03   0.01     0.05  -0.06  -0.03
   5   6     0.10   0.10   0.04    -0.14  -0.15  -0.07     0.01   0.05   0.02
   6   6     0.03   0.02   0.05    -0.00  -0.01  -0.02    -0.02   0.04   0.02
   7   6    -0.08   0.10   0.05     0.09  -0.16  -0.07    -0.05   0.05   0.02
   8   6    -0.02   0.04   0.06    -0.02  -0.05  -0.04    -0.01  -0.03  -0.01
   9   6     0.12   0.09  -0.02    -0.15  -0.07  -0.02     0.00  -0.03  -0.02
  10   6     0.06  -0.11   0.02    -0.07   0.16   0.05     0.01  -0.01  -0.00
  11   6     0.01  -0.01  -0.07     0.04   0.05   0.04    -0.06   0.06   0.02
  12   6    -0.14  -0.04  -0.09     0.19   0.06   0.05    -0.04   0.04   0.01
  13   7    -0.04  -0.24   0.10     0.07   0.19   0.02     0.09  -0.06   0.01
  14   6    -0.02  -0.08  -0.25     0.08   0.01   0.03     0.14   0.09  -0.12
  15   6    -0.00   0.14   0.13     0.04  -0.08  -0.06     0.17   0.13  -0.01
  16   6    -0.03  -0.08  -0.10     0.04  -0.06   0.11     0.13  -0.31   0.11
  17   6    -0.00  -0.10  -0.12    -0.00  -0.13  -0.11     0.01  -0.18   0.16
  18   6    -0.02   0.01   0.08     0.04  -0.04  -0.01    -0.03  -0.13   0.10
  19   6    -0.03   0.10   0.06     0.08  -0.05  -0.06     0.05   0.17  -0.04
  20   6     0.01  -0.03   0.02    -0.08   0.23   0.21    -0.24   0.04  -0.17
  21   6     0.06  -0.03   0.04    -0.05   0.09  -0.12     0.04   0.14  -0.05
  22   6     0.03   0.03  -0.10     0.01  -0.04   0.01     0.11   0.01   0.00
  23   6     0.04   0.11   0.02    -0.06  -0.08   0.11    -0.00  -0.12   0.03
  24   6    -0.01  -0.02  -0.20    -0.07  -0.24  -0.28    -0.25   0.06   0.13
  25   6    -0.03   0.08   0.06     0.02   0.02   0.11    -0.04   0.08  -0.08
  26   6    -0.05   0.08   0.15     0.04   0.02   0.18    -0.08  -0.17   0.02
  27   6    -0.05  -0.11  -0.23     0.10  -0.14  -0.16     0.10  -0.10   0.13
  28   6     0.02   0.06   0.25     0.01   0.13   0.18     0.09  -0.13  -0.02
  29   6     0.03  -0.11  -0.15     0.02   0.02  -0.19     0.17   0.22  -0.05
  30   6     0.03  -0.07  -0.10    -0.03   0.08   0.00     0.02   0.14  -0.10
  31   7     0.01   0.13   0.35    -0.04   0.10   0.08    -0.07   0.01  -0.04
  32   6     0.01  -0.09  -0.12    -0.10   0.03  -0.06    -0.26   0.07  -0.02
  33   1    -0.02   0.03  -0.00     0.02  -0.02  -0.00    -0.01   0.02   0.01
  34   1    -0.01  -0.04   0.03     0.02   0.03   0.01     0.01  -0.03  -0.01
  35   1    -0.01   0.04   0.02    -0.01  -0.06  -0.03    -0.01   0.00   0.00
  36   1     0.02  -0.04   0.01    -0.01   0.06   0.01    -0.00  -0.01   0.00
  37   1    -0.02  -0.04   0.01     0.02   0.04   0.01    -0.01  -0.02  -0.01
  38   1     0.03   0.03  -0.01    -0.02  -0.04  -0.01     0.00  -0.01  -0.00
  39   1    -0.01  -0.05   0.03     0.00   0.05   0.01     0.02  -0.00   0.00
  40   1     0.02   0.03   0.02    -0.01  -0.04  -0.02    -0.01   0.03   0.02
  41   1    -0.02   0.09   0.12    -0.00  -0.00   0.00    -0.01   0.08  -0.02
  42   1    -0.02  -0.01   0.02     0.01   0.01   0.09    -0.01  -0.11   0.02
  43   1     0.01   0.06   0.07     0.03   0.01   0.02     0.07   0.07  -0.03
  44   1     0.01   0.01   0.06     0.01   0.03  -0.08     0.06   0.10  -0.02
  45   1    -0.01   0.02  -0.01     0.05  -0.01   0.02     0.07  -0.00   0.00
  46   1     0.01   0.06   0.08    -0.01  -0.00   0.11     0.03  -0.11   0.01
  47   1    -0.01   0.03   0.07     0.01   0.00   0.03    -0.00  -0.06   0.02
  48   1    -0.01  -0.04  -0.12     0.02  -0.08  -0.11     0.04   0.02   0.05
  49   1     0.01   0.06   0.14    -0.03   0.04   0.08    -0.04  -0.06  -0.00
  50   1    -0.00  -0.02  -0.05     0.01  -0.02  -0.09     0.03   0.09  -0.00
                     37                     38                     39
                        a                      a                      a 
 Frequencies --   589.2081               598.2674               622.2863
 Red. masses --    11.3349                11.4285                11.5086
 Frc consts  --     0.0000                 0.0000                 0.0000
 IR Inten    --     1.6010                 4.4922                 1.9470
 Raman Activ --     0.0000                 0.0000                 0.0000
 Depolar     --     0.0000                 0.0000                 0.0000
 Atom AN      X      Y      Z        X      Y      Z        X      Y      Z
   1   6    -0.09  -0.06  -0.04    -0.04   0.11   0.01     0.04  -0.04  -0.03
   2   6     0.01  -0.29  -0.13    -0.05   0.02   0.04     0.02   0.03   0.03
   3   6     0.26  -0.05  -0.01    -0.14  -0.05  -0.06     0.04   0.05   0.02
   4   6     0.06   0.06   0.03     0.04  -0.11  -0.05    -0.04   0.06   0.03
   5   6    -0.05   0.24   0.11     0.04  -0.04  -0.03    -0.02   0.00  -0.02
   6   6    -0.34   0.04   0.00     0.13   0.03   0.05    -0.04  -0.03  -0.01
   7   6     0.06   0.24   0.11    -0.07  -0.03  -0.04     0.02  -0.00  -0.01
   8   6     0.33  -0.04   0.01    -0.13  -0.02   0.01     0.01   0.02   0.02
   9   6     0.05  -0.10  -0.05    -0.01   0.02  -0.02     0.02   0.04   0.01
  10   6    -0.05  -0.26  -0.12     0.02   0.07   0.07     0.00  -0.04  -0.00
  11   6    -0.29   0.03  -0.00     0.06   0.05  -0.00     0.03  -0.05  -0.04
  12   6    -0.04   0.10   0.04    -0.02  -0.00  -0.01     0.00  -0.04  -0.01
  13   7     0.04   0.06   0.04     0.08  -0.14   0.11    -0.08  -0.00   0.07
  14   6     0.05   0.04   0.10     0.11  -0.07  -0.15    -0.09  -0.03  -0.16
  15   6    -0.06  -0.07  -0.03    -0.14  -0.05   0.11    -0.08   0.07   0.02
  16   6    -0.05   0.01   0.04    -0.15  -0.07  -0.03    -0.08  -0.08  -0.00
  17   6    -0.02  -0.02  -0.01    -0.07  -0.03   0.04     0.10  -0.11   0.04
  18   6     0.09   0.01  -0.05     0.21   0.12   0.02     0.08  -0.14   0.16
  19   6     0.10  -0.05  -0.02     0.21   0.00   0.06     0.10  -0.08   0.07
  20   6     0.05   0.12   0.04     0.18   0.11  -0.19    -0.10   0.02  -0.08
  21   6    -0.05   0.11  -0.06    -0.07   0.26  -0.13    -0.18   0.05  -0.04
  22   6    -0.03   0.02  -0.02    -0.05   0.14  -0.05    -0.06  -0.18   0.11
  23   6    -0.09  -0.06   0.06    -0.25  -0.15   0.04     0.20   0.04  -0.05
  24   6     0.01  -0.12  -0.04     0.02  -0.12   0.19     0.27   0.05   0.05
  25   6     0.05  -0.06   0.05     0.14  -0.14   0.05    -0.13  -0.22   0.11
  26   6     0.09   0.02   0.02     0.24   0.03  -0.06    -0.12  -0.12   0.03
  27   6     0.05  -0.01  -0.04     0.09   0.05   0.02     0.20  -0.00   0.03
  28   6    -0.04   0.10  -0.01    -0.11   0.17  -0.13     0.05   0.12  -0.09
  29   6    -0.06  -0.00  -0.03    -0.16   0.01   0.03    -0.03   0.00   0.02
  30   6    -0.03   0.01   0.02    -0.05  -0.04  -0.02    -0.27  -0.05  -0.01
  31   7    -0.02  -0.00  -0.01    -0.06  -0.05   0.05     0.01   0.32  -0.13
  32   6     0.00   0.00   0.01     0.02  -0.07   0.01     0.13   0.29  -0.18
  33   1     0.06   0.05   0.02    -0.03   0.02  -0.00     0.01  -0.01  -0.01
  34   1    -0.03  -0.07  -0.03     0.03  -0.01   0.02    -0.02   0.01   0.01
  35   1     0.06   0.01   0.01    -0.04  -0.01  -0.01     0.01   0.00   0.00
  36   1    -0.09  -0.02  -0.01     0.04  -0.01   0.02    -0.01   0.00   0.01
  37   1     0.08  -0.04  -0.01    -0.04  -0.01   0.01     0.00   0.01   0.01
  38   1    -0.05   0.04   0.02     0.02  -0.02  -0.02     0.00   0.02   0.01
  39   1     0.04  -0.07  -0.03     0.00   0.02   0.03    -0.02  -0.01   0.00
  40   1    -0.07   0.03   0.01     0.02   0.01   0.01     0.01  -0.02  -0.01
  41   1    -0.02  -0.02  -0.03    -0.07   0.03   0.06    -0.03   0.05   0.04
  42   1    -0.01   0.01   0.01    -0.03  -0.01  -0.01    -0.08  -0.04   0.03
  43   1     0.03  -0.02  -0.01     0.05   0.01   0.03     0.09   0.01   0.03
  44   1    -0.02   0.02  -0.03    -0.04   0.06  -0.00    -0.01   0.06  -0.01
  45   1     0.03  -0.00  -0.00     0.08   0.03   0.00    -0.03  -0.04   0.04
  46   1    -0.03  -0.01   0.03    -0.07  -0.05  -0.00     0.02   0.09  -0.06
  47   1     0.01   0.01  -0.01     0.05   0.03  -0.01    -0.10   0.03  -0.01
  48   1     0.01  -0.04  -0.01     0.00  -0.05   0.06     0.06   0.01   0.01
  49   1    -0.02   0.03  -0.00    -0.03   0.05  -0.03    -0.01   0.03  -0.02
  50   1    -0.01  -0.02  -0.02    -0.02  -0.01   0.03     0.06  -0.05   0.04
                     40                     41                     42
                        a                      a                      a 
 Frequencies --   630.6870               638.2287               673.3542
 Red. masses --    11.3871                11.0837                11.5587
 Frc consts  --     0.0000                 0.0000                 0.0000
 IR Inten    --     0.7112                 1.6667                 0.6335
 Raman Activ --     0.0000                 0.0000                 0.0000
 Depolar     --     0.0000                 0.0000                 0.0000
 Atom AN      X      Y      Z        X      Y      Z        X      Y      Z
   1   6    -0.07   0.11   0.05     0.09  -0.08  -0.02     0.00  -0.10   0.16
   2   6    -0.04  -0.08  -0.05     0.08   0.03   0.01     0.02   0.10  -0.18
   3   6    -0.10  -0.13  -0.07     0.05   0.03   0.01     0.01  -0.05   0.17
   4   6     0.04  -0.12  -0.05    -0.16   0.10   0.03     0.02   0.20  -0.36
   5   6     0.00  -0.00   0.01    -0.17  -0.03  -0.02    -0.02  -0.13   0.29
   6   6     0.04   0.07   0.03    -0.19  -0.00  -0.02    -0.00   0.08  -0.21
   7   6     0.01  -0.00  -0.01     0.17  -0.06  -0.01    -0.03  -0.13   0.30
   8   6     0.04  -0.08  -0.04     0.20  -0.04  -0.02    -0.01   0.11  -0.20
   9   6    -0.09  -0.10  -0.05    -0.11  -0.08  -0.04     0.01  -0.07   0.18
  10   6    -0.03   0.09   0.04    -0.08   0.05   0.01     0.02   0.07  -0.19
  11   6    -0.09   0.14   0.07    -0.06   0.06   0.01     0.01  -0.10   0.15
  12   6     0.06   0.12   0.05     0.18   0.09   0.05     0.01   0.16  -0.39
  13   7     0.21  -0.01  -0.01     0.02   0.14   0.09    -0.03  -0.06   0.17
  14   6     0.21  -0.00   0.02     0.01  -0.27  -0.41    -0.01   0.00  -0.01
  15   6    -0.02  -0.14   0.06     0.03  -0.01   0.15     0.03   0.01  -0.01
  16   6    -0.03  -0.14   0.08     0.04   0.01  -0.10     0.02  -0.06   0.02
  17   6    -0.25   0.04  -0.02    -0.03   0.02  -0.15    -0.02  -0.01   0.04
  18   6    -0.05   0.10  -0.06    -0.04   0.19   0.24    -0.02  -0.02  -0.01
  19   6    -0.05   0.16  -0.08    -0.05  -0.00   0.07    -0.03   0.03  -0.02
  20   6     0.17  -0.17   0.09     0.01  -0.11  -0.13     0.01   0.00   0.00
  21   6     0.06  -0.23   0.12     0.04  -0.08  -0.02     0.02   0.02  -0.00
  22   6    -0.04   0.02  -0.01     0.01   0.04   0.05     0.01   0.05  -0.03
  23   6     0.11   0.19  -0.09    -0.02  -0.04  -0.08    -0.01   0.02  -0.01
  24   6     0.18   0.10  -0.06    -0.05   0.10   0.17     0.02  -0.00  -0.00
  25   6    -0.07  -0.05   0.02     0.02   0.07  -0.01     0.02  -0.03   0.01
  26   6    -0.09  -0.12   0.06     0.01  -0.01  -0.08     0.04   0.00   0.00
  27   6     0.17  -0.06   0.03    -0.06   0.03   0.05     0.03  -0.00  -0.00
  28   6     0.02   0.12  -0.06    -0.00  -0.08  -0.04    -0.02   0.04  -0.02
  29   6     0.02   0.16  -0.08     0.02   0.02   0.05    -0.03  -0.02   0.01
  30   6    -0.21   0.06  -0.03     0.07  -0.04  -0.10    -0.02  -0.02   0.02
  31   7    -0.22   0.00  -0.00     0.00   0.00   0.15    -0.02  -0.01  -0.01
  32   6     0.17  -0.06   0.03    -0.02  -0.12  -0.07     0.01  -0.00   0.01
  33   1    -0.01   0.04   0.02     0.05  -0.01   0.01    -0.00  -0.05   0.08
  34   1     0.04  -0.04  -0.02    -0.01   0.02   0.01    -0.01   0.01   0.00
  35   1    -0.03  -0.02  -0.01     0.02  -0.04  -0.01    -0.00  -0.05   0.11
  36   1     0.02   0.01  -0.00    -0.07   0.06   0.02    -0.00   0.01  -0.03
  37   1     0.02  -0.01  -0.00     0.08   0.04   0.02    -0.01   0.01  -0.03
  38   1    -0.02  -0.04  -0.02    -0.05  -0.00   0.00     0.00  -0.03   0.08
  39   1     0.05   0.03   0.02     0.02   0.02   0.01    -0.01  -0.01  -0.00
  40   1    -0.03   0.03   0.01    -0.03  -0.04  -0.00    -0.00  -0.06   0.10
  41   1    -0.05  -0.01  -0.00     0.03   0.05   0.17    -0.00   0.01   0.01
  42   1     0.05  -0.02   0.01     0.05   0.06   0.04     0.00  -0.02   0.01
  43   1    -0.07   0.02  -0.02    -0.04   0.02   0.09    -0.01   0.02   0.01
  44   1    -0.03  -0.11   0.05     0.00  -0.00   0.05    -0.00  -0.00  -0.00
  45   1    -0.09   0.02  -0.01    -0.01   0.03   0.05     0.00   0.01  -0.01
  46   1     0.01   0.09  -0.05     0.00  -0.03  -0.02    -0.00   0.00  -0.00
  47   1    -0.06  -0.00   0.00     0.02  -0.01   0.01     0.01   0.01  -0.00
  48   1     0.05  -0.01   0.00    -0.02   0.03   0.04     0.00  -0.01   0.01
  49   1    -0.06   0.02  -0.01     0.01  -0.01   0.01    -0.00   0.01  -0.00
  50   1     0.04   0.02  -0.01    -0.01   0.04   0.04    -0.00  -0.02   0.01
                     43                     44                     45
                        a                      a                      a 
 Frequencies --   681.9198               683.7451               692.5668
 Red. masses --    11.3728                11.8249                11.0906
 Frc consts  --     0.0000                 0.0000                 0.0000
 IR Inten    --     1.3408                 2.2538                 0.7532
 Raman Activ --     0.0000                 0.0000                 0.0000
 Depolar     --     0.0000                 0.0000                 0.0000
 Atom AN      X      Y      Z        X      Y      Z        X      Y      Z
   1   6    -0.12   0.14   0.10    -0.02   0.01   0.01    -0.03   0.05   0.02
   2   6    -0.07  -0.11  -0.10    -0.02  -0.01  -0.01    -0.02  -0.04  -0.02
   3   6    -0.14  -0.19  -0.05    -0.00  -0.01   0.01    -0.05  -0.06  -0.03
   4   6     0.10  -0.12  -0.15     0.04  -0.01  -0.02     0.02  -0.05  -0.01
   5   6     0.10  -0.04   0.09     0.04   0.01   0.02     0.02  -0.01   0.01
   6   6     0.18   0.08   0.00     0.05   0.00  -0.00     0.06   0.02   0.02
   7   6     0.06  -0.00   0.01    -0.05   0.01   0.02     0.06   0.02  -0.05
   8   6     0.11  -0.07  -0.05    -0.06   0.02  -0.00     0.09  -0.05   0.01
   9   6    -0.10  -0.12  -0.05     0.04   0.02   0.02    -0.06  -0.06  -0.05
  10   6    -0.04   0.12   0.03     0.02  -0.03  -0.02    -0.03   0.06   0.05
  11   6    -0.10   0.16   0.08     0.01  -0.03  -0.00    -0.05   0.10   0.03
  12   6     0.07   0.13   0.02    -0.05  -0.02  -0.03     0.05   0.05   0.07
  13   7     0.13  -0.05   0.08    -0.01  -0.02  -0.02     0.05   0.03  -0.06
  14   6     0.02  -0.01   0.02     0.00   0.15   0.28    -0.00   0.03   0.00
  15   6    -0.21  -0.03   0.01     0.01  -0.06  -0.16     0.03  -0.00  -0.01
  16   6    -0.20   0.24  -0.12     0.00   0.07   0.16     0.03  -0.24   0.13
  17   6     0.09   0.07  -0.04     0.00  -0.19  -0.34    -0.05  -0.12   0.05
  18   6     0.08  -0.00   0.01     0.01   0.12   0.25    -0.25  -0.06   0.03
  19   6     0.11  -0.11   0.04     0.01  -0.07  -0.17    -0.28   0.16  -0.08
  20   6    -0.11   0.05  -0.02     0.01   0.07   0.14    -0.21   0.06  -0.02
  21   6    -0.14   0.01  -0.01     0.00  -0.07  -0.13    -0.04   0.10  -0.05
  22   6    -0.04  -0.27   0.14     0.00   0.06   0.10     0.03   0.07  -0.03
  23   6     0.11  -0.09   0.04    -0.01  -0.07  -0.13     0.12   0.12  -0.06
  24   6    -0.01   0.01   0.00    -0.00   0.05   0.11     0.10   0.05  -0.02
  25   6    -0.03   0.11  -0.05    -0.01   0.13   0.26     0.17  -0.06   0.05
  26   6    -0.11   0.06  -0.03    -0.01  -0.08  -0.14     0.31   0.15  -0.09
  27   6    -0.19   0.04  -0.02     0.02   0.05   0.12    -0.05   0.07  -0.03
  28   6     0.06  -0.19   0.09    -0.00  -0.05  -0.13    -0.04  -0.02   0.00
  29   6     0.11  -0.03   0.02    -0.00   0.07   0.10    -0.16  -0.35   0.18
  30   6     0.13   0.02  -0.02    -0.01  -0.15  -0.30     0.08  -0.20   0.08
  31   7     0.12   0.09  -0.04    -0.01   0.12   0.24     0.06   0.07  -0.02
  32   6    -0.03   0.11  -0.06    -0.00  -0.14  -0.26    -0.02   0.13  -0.08
  33   1    -0.04   0.03   0.02    -0.01  -0.00  -0.00    -0.01   0.02  -0.00
  34   1     0.06  -0.06  -0.03     0.00  -0.00  -0.00     0.02  -0.02  -0.02
  35   1    -0.05  -0.03  -0.00    -0.00   0.01   0.00    -0.02  -0.01  -0.01
  36   1     0.06  -0.02  -0.02     0.02  -0.02  -0.01     0.02  -0.00  -0.01
  37   1     0.04  -0.00   0.02    -0.03  -0.01  -0.01     0.04   0.01   0.01
  38   1    -0.03  -0.04   0.00     0.01   0.00   0.00    -0.02  -0.01  -0.01
  39   1     0.06   0.03   0.03    -0.01  -0.01  -0.01     0.03   0.02   0.01
  40   1    -0.03   0.02   0.03     0.01   0.01   0.00    -0.02   0.02  -0.00
  41   1    -0.04  -0.02   0.01     0.00  -0.02  -0.06    -0.04   0.03  -0.02
  42   1    -0.06   0.07  -0.03    -0.01   0.01   0.04    -0.03  -0.08   0.04
  43   1     0.03  -0.03   0.02     0.01  -0.03  -0.07    -0.10   0.03  -0.03
  44   1     0.01   0.04  -0.02    -0.00   0.00   0.01     0.03   0.06  -0.03
  45   1     0.00  -0.08   0.04     0.00   0.04   0.07    -0.00   0.02  -0.01
  46   1     0.02  -0.00   0.00    -0.00   0.01   0.02     0.03   0.06  -0.03
  47   1    -0.00  -0.01   0.00    -0.01  -0.01  -0.03     0.11   0.02  -0.02
  48   1    -0.04   0.06  -0.03     0.00   0.02   0.05    -0.03  -0.05   0.02
  49   1     0.05  -0.04   0.02    -0.01   0.00   0.00     0.09   0.02  -0.01
  50   1    -0.01   0.03  -0.01     0.00   0.04   0.07    -0.02  -0.12   0.06
                     46                     47                     48
                        a                      a                      a 
 Frequencies --   705.1013               708.6670               710.1413
 Red. masses --    11.8070                11.4570                11.4448
 Frc consts  --     0.0000                 0.0000                 0.0000
 IR Inten    --     0.1074                 4.2274                 0.1240
 Raman Activ --     0.0000                 0.0000                 0.0000
 Depolar     --     0.0000                 0.0000                 0.0000
 Atom AN      X      Y      Z        X      Y      Z        X      Y      Z
   1   6     0.01  -0.00  -0.01     0.00  -0.08   0.13    -0.00   0.00   0.00
   2   6     0.01   0.00   0.01     0.02   0.06  -0.09    -0.00  -0.00  -0.00
   3   6     0.00   0.01  -0.01    -0.01  -0.06   0.17    -0.00  -0.00  -0.00
   4   6    -0.01  -0.00   0.02     0.01   0.19  -0.36     0.00  -0.00  -0.00
   5   6    -0.01   0.00  -0.01    -0.03  -0.20   0.43     0.00  -0.00   0.01
   6   6    -0.02  -0.00   0.00    -0.01   0.04  -0.10     0.01   0.00   0.00
   7   6     0.01  -0.01   0.00     0.03   0.19  -0.43    -0.00   0.01  -0.01
   8   6     0.02  -0.00  -0.00    -0.01  -0.04   0.10    -0.01  -0.00   0.00
   9   6    -0.01  -0.01  -0.00     0.02   0.08  -0.13     0.00   0.00  -0.00
  10   6    -0.01   0.01   0.00    -0.00  -0.06   0.10     0.00  -0.00   0.00
  11   6    -0.00   0.00   0.00     0.01   0.07  -0.17     0.00   0.00  -0.01
  12   6     0.01   0.01   0.00    -0.03  -0.18   0.36    -0.00  -0.01   0.01
  13   7     0.00   0.01  -0.00    -0.02   0.00  -0.00     0.00   0.00  -0.01
  14   6    -0.00  -0.07  -0.13    -0.02  -0.00  -0.00    -0.00   0.00   0.01
  15   6    -0.00   0.05   0.12     0.02   0.02  -0.01     0.00   0.01   0.02
  16   6    -0.00  -0.06  -0.14     0.02   0.00  -0.00     0.00  -0.03  -0.05
  17   6     0.00   0.19   0.35     0.01   0.00   0.01    -0.00   0.05   0.09
  18   6     0.00  -0.21  -0.42     0.01  -0.01  -0.00    -0.00  -0.10  -0.20
  19   6     0.00   0.06   0.13     0.00  -0.01   0.01    -0.00   0.01   0.02
  20   6     0.00   0.13   0.27     0.02  -0.01   0.00     0.00   0.17   0.35
  21   6    -0.00  -0.02  -0.04     0.02  -0.01   0.00     0.00  -0.07  -0.13
  22   6    -0.00   0.01   0.04     0.01   0.03  -0.02     0.00   0.08   0.16
  23   6    -0.00  -0.02  -0.03    -0.02   0.00   0.00    -0.00  -0.06  -0.13
  24   6    -0.00  -0.06  -0.12    -0.01  -0.01  -0.01     0.00   0.19   0.38
  25   6     0.00   0.19   0.36    -0.01  -0.00   0.02    -0.00  -0.15  -0.29
  26   6    -0.00  -0.06  -0.12    -0.01  -0.02   0.01     0.00   0.02   0.05
  27   6    -0.00   0.06   0.12     0.03  -0.01   0.01    -0.00  -0.05  -0.09
  28   6     0.00  -0.06  -0.11    -0.01   0.02  -0.02     0.00   0.03   0.05
  29   6     0.00   0.07   0.13    -0.01   0.02  -0.01    -0.00  -0.06  -0.12
  30   6     0.00  -0.17  -0.35    -0.02   0.00  -0.01     0.00   0.11   0.23
  31   7    -0.00   0.01   0.03    -0.01  -0.01   0.00     0.00   0.04   0.08
  32   6     0.00  -0.05  -0.09    -0.00  -0.02   0.01    -0.00  -0.23  -0.45
  33   1     0.00  -0.00   0.00     0.01   0.02  -0.07    -0.00   0.00  -0.00
  34   1    -0.00   0.00   0.00    -0.00   0.03  -0.06     0.00  -0.00  -0.00
  35   1     0.00  -0.00   0.01     0.00   0.01  -0.01    -0.00   0.00   0.00
  36   1    -0.01   0.00   0.01     0.00   0.05  -0.11     0.00  -0.00  -0.00
  37   1     0.01   0.01   0.00    -0.01  -0.05   0.11    -0.00  -0.00   0.00
  38   1    -0.00   0.00  -0.00    -0.00  -0.03   0.07     0.00  -0.00   0.00
  39   1     0.00   0.00   0.00    -0.01  -0.03   0.06    -0.00  -0.00   0.00
  40   1    -0.00  -0.00  -0.00     0.00  -0.01   0.01     0.00   0.00   0.00
  41   1     0.00   0.01   0.02     0.01   0.00   0.00     0.00   0.01   0.01
  42   1     0.00  -0.01  -0.02     0.00   0.00   0.00     0.00   0.01   0.02
  43   1    -0.00   0.03   0.07     0.01  -0.00   0.00    -0.00   0.02   0.04
  44   1    -0.00  -0.03  -0.05    -0.00  -0.01   0.00    -0.00  -0.04  -0.09
  45   1    -0.00  -0.00  -0.00     0.00   0.01  -0.00    -0.00  -0.02  -0.05
  46   1    -0.00   0.01   0.02    -0.00  -0.01   0.00    -0.00  -0.05  -0.09
  47   1    -0.00  -0.03  -0.06    -0.01  -0.00  -0.00     0.00   0.05   0.10
  48   1    -0.00  -0.00  -0.00     0.01  -0.01   0.00     0.00   0.04   0.07
  49   1    -0.00  -0.01  -0.01    -0.01   0.00  -0.00     0.00   0.03   0.07
  50   1     0.00   0.02   0.04     0.00   0.00  -0.00     0.00   0.02   0.04
                     49                     50                     51
                        a                      a                      a 
 Frequencies --   749.4441               760.1634               769.3845
 Red. masses --    11.0314                11.0915                 3.4100
 Frc consts  --     0.0000                 0.0000                 0.0000
 IR Inten    --     0.0414                 0.5536                54.2472
 Raman Activ --     0.0000                 0.0000                 0.0000
 Depolar     --     0.0000                 0.0000                 0.0000
 Atom AN      X      Y      Z        X      Y      Z        X      Y      Z
   1   6     0.07  -0.04  -0.02    -0.21   0.20   0.08     0.00   0.06  -0.11
   2   6    -0.01   0.05   0.03    -0.07  -0.23  -0.11     0.00   0.05  -0.11
   3   6    -0.26  -0.13  -0.09     0.26   0.03   0.04     0.01   0.07  -0.13
   4   6    -0.08  -0.11  -0.03     0.15   0.05   0.03    -0.01  -0.07   0.15
   5   6     0.08  -0.08  -0.05     0.06   0.11   0.04     0.00  -0.02   0.05
   6   6     0.27  -0.09  -0.02    -0.08   0.15   0.06     0.01   0.06  -0.12
   7   6     0.09   0.06   0.06     0.05  -0.12  -0.04    -0.01  -0.02   0.05
   8   6     0.30   0.05   0.03    -0.09  -0.13  -0.07     0.00   0.06  -0.13
   9   6     0.07   0.02   0.02    -0.24  -0.18  -0.09     0.01   0.06  -0.11
  10   6    -0.02  -0.04  -0.03    -0.05   0.25   0.11     0.01   0.05  -0.11
  11   6    -0.24   0.17   0.08     0.26  -0.06  -0.02     0.00   0.07  -0.13
  12   6    -0.06   0.12   0.03     0.15  -0.06  -0.03    -0.01  -0.07   0.15
  13   7    -0.09   0.01  -0.01    -0.03   0.00  -0.01     0.01   0.04  -0.09
  14   6    -0.20  -0.01  -0.00    -0.14  -0.01   0.00     0.00   0.01   0.02
  15   6     0.06   0.17  -0.08     0.03   0.13  -0.06    -0.00  -0.01  -0.02
  16   6     0.05   0.17  -0.08     0.01   0.16  -0.08     0.00  -0.00  -0.01
  17   6     0.16  -0.00   0.00     0.13   0.00  -0.00     0.00   0.00   0.01
  18   6    -0.04  -0.14   0.07    -0.04  -0.12   0.06    -0.00   0.00   0.01
  19   6    -0.04  -0.16   0.08    -0.03  -0.13   0.06     0.00  -0.01  -0.02
  20   6    -0.07  -0.06   0.03    -0.09  -0.05   0.03    -0.00  -0.00  -0.00
  21   6     0.14  -0.07   0.03     0.11  -0.07   0.03     0.00  -0.00   0.00
  22   6     0.06   0.20  -0.10     0.05   0.15  -0.08     0.00   0.00  -0.00
  23   6    -0.09   0.04  -0.02    -0.05   0.04  -0.02     0.00   0.00  -0.00
  24   6    -0.11  -0.00   0.00    -0.10   0.01  -0.01    -0.00   0.00   0.00
  25   6    -0.04  -0.08   0.04    -0.02  -0.06   0.03     0.00  -0.00  -0.00
[...]
  29   6     0.02   0.01  -0.01     0.04   0.03  -0.02     0.00   0.00  -0.00
  30   6     0.00   0.00  -0.00     0.00   0.00  -0.00    -0.00   0.00  -0.00
  31   7     0.00  -0.00   0.00     0.00  -0.00   0.00     0.00   0.00  -0.00
  32   6     0.00   0.00  -0.00     0.00   0.00  -0.00     0.00  -0.00   0.00
  33   1     0.20  -0.21  -0.09    -0.09   0.09   0.04    -0.27   0.27   0.11
  34   1    -0.06  -0.17  -0.09     0.02   0.07   0.04     0.04   0.14   0.07
  35   1     0.33   0.06   0.06    -0.14  -0.03  -0.02    -0.38  -0.07  -0.07
  36   1    -0.38  -0.07  -0.06     0.16   0.03   0.02     0.33   0.06   0.05
  37   1     0.37  -0.12  -0.03    -0.14   0.05   0.01     0.34  -0.11  -0.03
  38   1    -0.23  -0.18  -0.10     0.08   0.06   0.03    -0.30  -0.24  -0.13
  39   1     0.03  -0.18  -0.08    -0.01   0.07   0.03     0.03  -0.15  -0.07
  40   1    -0.31   0.10   0.04     0.11  -0.04  -0.01    -0.37   0.13   0.05
  41   1    -0.02  -0.02   0.01    -0.00  -0.00   0.00    -0.02  -0.02   0.01
  42   1    -0.01   0.02  -0.01    -0.01   0.02  -0.01    -0.01   0.02  -0.01
  43   1     0.01  -0.02   0.01    -0.01   0.01  -0.01    -0.01   0.02  -0.01
  44   1     0.00  -0.00   0.00     0.02  -0.01   0.01     0.00  -0.00   0.00
  45   1     0.00   0.01  -0.01     0.00   0.02  -0.01    -0.00  -0.00   0.00
  46   1     0.01   0.00  -0.00     0.02   0.01  -0.00    -0.01  -0.00   0.00
  47   1    -0.09  -0.08   0.04    -0.23  -0.20   0.10     0.01   0.00  -0.00
  48   1     0.22  -0.06   0.03     0.57  -0.15   0.07    -0.02   0.00  -0.00
  49   1    -0.06   0.19  -0.10    -0.14   0.47  -0.24     0.00  -0.01   0.00
  50   1    -0.06  -0.06   0.03    -0.16  -0.14   0.07    -0.00  -0.00   0.00
                    133                    134                    135
                        a                      a                      a 
 Frequencies --  3085.1385              3086.8148              3088.0840
 Red. masses --     1.8051                 1.8638                 1.8337
 Frc consts  --     0.0000                 0.0000                 0.0000
 IR Inten    --    25.1069                14.9729                 6.3505
 Raman Activ --     0.0000                 0.0000                 0.0000
 Depolar     --     0.0000                 0.0000                 0.0000
 Atom AN      X      Y      Z        X      Y      Z        X      Y      Z
   1   6     0.00  -0.00  -0.00     0.04  -0.04  -0.02    -0.00   0.00   0.00
   2   6     0.00   0.00   0.00     0.02   0.07   0.03    -0.00  -0.01  -0.00
   3   6     0.00   0.00   0.00     0.12   0.02   0.02    -0.01  -0.00  -0.00
   4   6     0.00  -0.00  -0.00     0.00  -0.00  -0.00    -0.00   0.00   0.00
   5   6    -0.00  -0.00  -0.00    -0.00   0.00   0.00    -0.00  -0.00  -0.00
   6   6    -0.00  -0.00  -0.00     0.11   0.02   0.02    -0.01  -0.00  -0.00
   7   6    -0.00   0.00   0.00     0.00   0.00   0.00    -0.00   0.00   0.00
   8   6    -0.01   0.00   0.00    -0.11   0.04   0.01    -0.01   0.00   0.00
   9   6    -0.00  -0.00  -0.00    -0.04  -0.03  -0.02    -0.00  -0.00  -0.00
  10   6    -0.00   0.00   0.00    -0.01   0.07   0.03    -0.00   0.01   0.00
  11   6    -0.00   0.00   0.00    -0.12   0.04   0.02    -0.01   0.00   0.00
  12   6     0.00  -0.00  -0.00    -0.00  -0.00  -0.00    -0.00  -0.00  -0.00
  13   7    -0.00   0.00  -0.00     0.00   0.00  -0.00    -0.00   0.00  -0.00
  14   6    -0.00  -0.00   0.00    -0.00  -0.00   0.00    -0.00  -0.00   0.00
  15   6    -0.01  -0.01   0.01    -0.01  -0.02   0.01    -0.00  -0.01   0.00
  16   6    -0.01   0.02  -0.01    -0.01   0.01  -0.01    -0.01   0.01  -0.01
  17   6    -0.00   0.00  -0.00    -0.00   0.00  -0.00    -0.00  -0.00   0.00
  18   6     0.00  -0.00   0.00    -0.00  -0.00   0.00     0.00   0.00  -0.00
  19   6     0.00  -0.00   0.00     0.01  -0.01   0.01    -0.01   0.02  -0.01
  20   6    -0.00  -0.00   0.00     0.00   0.00  -0.00     0.01   0.00  -0.00
  21   6    -0.02   0.02  -0.01     0.00  -0.00   0.00     0.14  -0.12   0.06
  22   6    -0.00  -0.01   0.00     0.00   0.00  -0.00    -0.00  -0.00   0.00
  23   6    -0.04  -0.01   0.01     0.00   0.00  -0.00     0.17   0.07  -0.03
  24   6    -0.00   0.00  -0.00     0.00  -0.00   0.00     0.01  -0.00   0.00
  25   6     0.00   0.01  -0.00     0.00  -0.00   0.00     0.00   0.00  -0.00
  26   6     0.12   0.10  -0.05    -0.01  -0.00   0.00     0.01   0.01  -0.00
  27   6    -0.08   0.02  -0.01     0.00  -0.00   0.00    -0.04   0.01  -0.01
  28   6    -0.04   0.12  -0.06     0.00  -0.01   0.00    -0.00   0.01  -0.01
  29   6    -0.09  -0.08   0.04     0.00   0.00  -0.00    -0.03  -0.02   0.01
  30   6    -0.01  -0.00   0.00     0.00   0.00  -0.00    -0.00   0.00  -0.00
  31   7     0.00   0.00  -0.00     0.00  -0.00   0.00     0.00  -0.00   0.00
  32   6     0.00  -0.00   0.00    -0.00   0.00  -0.00    -0.00   0.00  -0.00
  33   1    -0.00   0.00   0.00    -0.13   0.13   0.05     0.00  -0.00  -0.00
  34   1    -0.00  -0.00  -0.00    -0.07  -0.23  -0.11     0.01   0.02   0.01
  35   1    -0.01  -0.00  -0.00    -0.42  -0.08  -0.07     0.03   0.00   0.00
  36   1     0.00   0.00   0.00    -0.39  -0.07  -0.06     0.03   0.01   0.00
  37   1     0.02  -0.01  -0.00     0.37  -0.12  -0.03     0.02  -0.01  -0.00
  38   1     0.00   0.00   0.00     0.15   0.11   0.06     0.00   0.00   0.00
  39   1     0.00  -0.02  -0.01     0.04  -0.23  -0.11     0.00  -0.02  -0.01
  40   1     0.01  -0.00  -0.00     0.42  -0.14  -0.05     0.02  -0.01  -0.00
  41   1     0.03   0.04  -0.02     0.05   0.06  -0.03     0.02   0.02  -0.01
  42   1     0.04  -0.08   0.04     0.02  -0.04   0.02     0.02  -0.04   0.02
  43   1    -0.00   0.01  -0.00    -0.02   0.04  -0.02     0.03  -0.06   0.03
  44   1     0.07  -0.06   0.03    -0.00   0.00  -0.00    -0.48   0.41  -0.21
  45   1     0.01   0.03  -0.02    -0.00  -0.00   0.00     0.00   0.01  -0.00
  46   1     0.13   0.05  -0.03    -0.01  -0.00   0.00    -0.60  -0.23   0.12
  47   1    -0.43  -0.37   0.19     0.02   0.02  -0.01    -0.03  -0.02   0.01
  48   1     0.28  -0.07   0.04    -0.00   0.00  -0.00     0.13  -0.03   0.02
  49   1     0.13  -0.42   0.21    -0.01   0.02  -0.01     0.01  -0.05   0.02
  50   1     0.32   0.28  -0.14    -0.00  -0.00   0.00     0.09   0.08  -0.04
                    136                    137                    138
                        a                      a                      a 
 Frequencies --  3088.4491              3091.1160              3093.3034
 Red. masses --     1.8594                 1.8102                 1.8475
 Frc consts  --     0.0000                 0.0000                 0.0000
 IR Inten    --   141.2769                24.9733                15.6204
 Raman Activ --     0.0000                 0.0000                 0.0000
 Depolar     --     0.0000                 0.0000                 0.0000
 Atom AN      X      Y      Z        X      Y      Z        X      Y      Z
   1   6    -0.01   0.02   0.01    -0.01   0.01   0.00     0.01  -0.01  -0.00
   2   6    -0.02  -0.08  -0.04     0.00   0.01   0.00    -0.00  -0.01  -0.00
   3   6    -0.12  -0.02  -0.02     0.01   0.00   0.00    -0.01  -0.00  -0.00
   4   6    -0.00   0.00   0.00     0.00  -0.00  -0.00    -0.00   0.00   0.00
   5   6    -0.00  -0.00  -0.00    -0.00  -0.00  -0.00     0.00   0.00   0.00
   6   6    -0.12  -0.02  -0.02    -0.00  -0.00  -0.00     0.01   0.00   0.00
   7   6     0.00   0.00   0.00    -0.00  -0.00  -0.00     0.00   0.00   0.00
   8   6    -0.11   0.04   0.01     0.02  -0.01  -0.00    -0.01   0.00   0.00
   9   6    -0.02  -0.01  -0.01     0.01   0.01   0.01    -0.01  -0.01  -0.01
  10   6    -0.01   0.08   0.04     0.00  -0.00  -0.00     0.00  -0.01  -0.00
  11   6    -0.11   0.04   0.01     0.03  -0.01  -0.00    -0.01   0.00   0.00
  12   6    -0.00  -0.00  -0.00     0.00   0.00   0.00    -0.00  -0.00  -0.00
  13   7     0.00   0.00  -0.00     0.00   0.00  -0.00    -0.00  -0.00   0.00
  14   6    -0.00  -0.00   0.00    -0.00  -0.00   0.00     0.00   0.00  -0.00
  15   6    -0.01  -0.02   0.01    -0.08  -0.10   0.06     0.06   0.07  -0.04
  16   6    -0.01   0.01  -0.01    -0.07   0.13  -0.07     0.03  -0.06   0.03
  17   6    -0.00   0.00  -0.00    -0.01   0.00  -0.00     0.00  -0.00   0.00
  18   6     0.00   0.00  -0.00     0.00  -0.00   0.00    -0.00   0.00  -0.00
  19   6    -0.00   0.01  -0.00     0.01  -0.01   0.01    -0.00  -0.00   0.00
  20   6    -0.00  -0.00   0.00    -0.00  -0.00   0.00    -0.00  -0.00   0.00
  21   6    -0.01   0.01  -0.00    -0.02   0.02  -0.01    -0.07   0.06  -0.03
  22   6    -0.00  -0.00   0.00     0.00   0.01  -0.01     0.01   0.05  -0.03
  23   6    -0.01  -0.01   0.00     0.00   0.00  -0.00     0.06   0.02  -0.01
  24   6    -0.00   0.00  -0.00    -0.00  -0.00   0.00     0.00  -0.00   0.00
  25   6     0.00  -0.00   0.00     0.00  -0.00   0.00     0.00  -0.00   0.00
  26   6    -0.01  -0.01   0.00    -0.07  -0.06   0.03    -0.09  -0.07   0.04
  27   6     0.00  -0.00   0.00    -0.05   0.01  -0.01    -0.10   0.03  -0.01
  28   6     0.00  -0.01   0.00     0.01  -0.04   0.02     0.00  -0.00   0.00
  29   6     0.00   0.00  -0.00    -0.06  -0.06   0.03    -0.09  -0.08   0.04
  30   6     0.00   0.00  -0.00    -0.00   0.00  -0.00    -0.00   0.00  -0.00
  31   7    -0.00  -0.00   0.00     0.00  -0.00   0.00     0.00   0.00  -0.00
  32   6     0.00  -0.00   0.00     0.00   0.00  -0.00    -0.00  -0.00   0.00
  33   1     0.05  -0.05  -0.02     0.02  -0.02  -0.01    -0.03   0.03   0.01
  34   1     0.08   0.26   0.13    -0.01  -0.02  -0.01     0.01   0.03   0.02
  35   1     0.41   0.08   0.07    -0.02  -0.00  -0.00     0.02   0.00   0.00
  36   1     0.42   0.08   0.06     0.00   0.00   0.00    -0.03  -0.01  -0.00
  37   1     0.40  -0.13  -0.04    -0.07   0.02   0.01     0.05  -0.02  -0.00
  38   1     0.05   0.04   0.02    -0.04  -0.03  -0.02     0.04   0.03   0.02
  39   1     0.05  -0.26  -0.13    -0.00   0.01   0.01    -0.01   0.03   0.01
  40   1     0.39  -0.13  -0.05    -0.10   0.04   0.01     0.02  -0.01  -0.00
  41   1     0.05   0.06  -0.03     0.31   0.37  -0.20    -0.22  -0.27   0.15
  42   1     0.03  -0.05   0.03     0.25  -0.48   0.25    -0.12   0.24  -0.12
  43   1     0.01  -0.02   0.01    -0.03   0.05  -0.03    -0.00   0.00  -0.00
  44   1     0.03  -0.03   0.01     0.09  -0.07   0.04     0.23  -0.19   0.10
  45   1     0.00  -0.00   0.00    -0.01  -0.05   0.02    -0.04  -0.17   0.09
  46   1     0.05   0.02  -0.01    -0.00  -0.00   0.00    -0.19  -0.07   0.04
  47   1     0.03   0.02  -0.01     0.23   0.20  -0.10     0.30   0.25  -0.13
  48   1    -0.00   0.00  -0.00     0.16  -0.04   0.02     0.35  -0.09   0.05
  49   1    -0.01   0.02  -0.01    -0.05   0.15  -0.08    -0.00   0.00  -0.00
  50   1    -0.00  -0.00   0.00     0.21   0.19  -0.10     0.32   0.28  -0.14
                    139                    140                    141
                        a                      a                      a 
 Frequencies --  3094.1463              3094.2238              3095.7445
 Red. masses --     1.9016                 1.8855                 1.9108
 Frc consts  --     0.0000                 0.0000                 0.0000
 IR Inten    --   166.4427                51.3327                47.3736
 Raman Activ --     0.0000                 0.0000                 0.0000
 Depolar     --     0.0000                 0.0000                 0.0000
 Atom AN      X      Y      Z        X      Y      Z        X      Y      Z
   1   6     0.07  -0.07  -0.03     0.05  -0.05  -0.02     0.08  -0.08  -0.03
   2   6    -0.02  -0.07  -0.04    -0.02  -0.06  -0.03    -0.03  -0.08  -0.04
   3   6    -0.05  -0.01  -0.01    -0.05  -0.01  -0.01    -0.06  -0.01  -0.01
   4   6    -0.00   0.00   0.00    -0.00   0.00   0.00    -0.00   0.00   0.00
   5   6     0.00   0.00   0.00     0.00   0.00   0.00     0.00   0.00   0.00
   6   6     0.07   0.01   0.01     0.05   0.01   0.01     0.11   0.02   0.02
   7   6    -0.00   0.00   0.00    -0.00   0.00   0.00     0.00  -0.00  -0.00
   8   6    -0.07   0.03   0.01    -0.04   0.01   0.00     0.10  -0.04  -0.01
   9   6    -0.08  -0.06  -0.03    -0.05  -0.04  -0.02     0.09   0.07   0.04
  10   6     0.02  -0.08  -0.04     0.01  -0.05  -0.02    -0.02   0.09   0.04
  11   6     0.06  -0.02  -0.01     0.04  -0.01  -0.00    -0.06   0.02   0.01
  12   6     0.00   0.00   0.00     0.00   0.00   0.00    -0.00  -0.00  -0.00
  13   7    -0.00  -0.00  -0.00     0.00  -0.00  -0.00     0.00  -0.00   0.00
  14   6    -0.00   0.00  -0.00    -0.00  -0.00   0.00    -0.00   0.00  -0.00
  15   6     0.01   0.01  -0.00    -0.02  -0.03   0.01    -0.00  -0.00   0.00
  16   6    -0.00   0.00  -0.00    -0.01   0.02  -0.01     0.00  -0.00   0.00
  17   6     0.00  -0.00   0.00    -0.00   0.00  -0.00    -0.00  -0.00   0.00
  18   6     0.00   0.00  -0.00    -0.00  -0.00   0.00     0.00   0.00  -0.00
  19   6    -0.02   0.03  -0.02     0.02  -0.03   0.02    -0.01   0.01  -0.01
  20   6     0.00   0.00  -0.00    -0.00  -0.00   0.00     0.00   0.00  -0.00
  21   6     0.06  -0.05   0.03    -0.08   0.07  -0.03     0.00  -0.00   0.00
  22   6    -0.01  -0.06   0.03     0.02   0.08  -0.04    -0.00  -0.01   0.00
  23   6    -0.09  -0.03   0.02     0.12   0.05  -0.02    -0.01  -0.00   0.00
  24   6    -0.00   0.00  -0.00     0.00  -0.00   0.00    -0.00   0.00  -0.00
  25   6     0.00  -0.00   0.00    -0.00   0.00  -0.00     0.00   0.00  -0.00
  26   6    -0.02  -0.02   0.01     0.05   0.04  -0.02    -0.00  -0.00   0.00
  27   6    -0.01   0.00  -0.00     0.03  -0.01   0.00     0.00  -0.00   0.00
  28   6     0.01  -0.02   0.01    -0.01   0.02  -0.01     0.00  -0.00   0.00
  29   6    -0.03  -0.03   0.01     0.05   0.05  -0.02    -0.01  -0.01   0.00
  30   6    -0.00   0.00  -0.00     0.00  -0.00   0.00    -0.00   0.00  -0.00
  31   7    -0.00  -0.00   0.00     0.00   0.00  -0.00     0.00   0.00  -0.00
  32   6     0.00   0.00  -0.00    -0.00  -0.00   0.00     0.00  -0.00   0.00
  33   1    -0.22   0.23   0.09    -0.17   0.18   0.07    -0.27   0.28   0.11
  34   1     0.08   0.25   0.12     0.06   0.19   0.10     0.09   0.28   0.14
  35   1     0.17   0.03   0.03     0.16   0.03   0.03     0.20   0.04   0.04
  36   1    -0.23  -0.04  -0.03    -0.18  -0.03  -0.03    -0.37  -0.07  -0.05
  37   1     0.25  -0.08  -0.02     0.14  -0.05  -0.01    -0.36   0.12   0.03
  38   1     0.27   0.21   0.11     0.16   0.12   0.07    -0.30  -0.24  -0.13
  39   1    -0.05   0.27   0.13    -0.03   0.17   0.08     0.06  -0.29  -0.14
  40   1    -0.20   0.07   0.02    -0.13   0.04   0.02     0.21  -0.07  -0.03
  41   1    -0.02  -0.02   0.01     0.08   0.10  -0.05     0.00   0.01  -0.00
  42   1     0.01  -0.01   0.01     0.04  -0.08   0.04    -0.01   0.01  -0.01
  43   1     0.06  -0.11   0.06    -0.05   0.10  -0.05     0.02  -0.04   0.02
  44   1    -0.21   0.18  -0.09     0.28  -0.24   0.12    -0.02   0.01  -0.01
  45   1     0.04   0.20  -0.10    -0.05  -0.26   0.13     0.00   0.02  -0.01
  46   1     0.31   0.12  -0.06    -0.42  -0.16   0.08     0.03   0.01  -0.01
  47   1     0.08   0.07  -0.04    -0.16  -0.13   0.07     0.01   0.00  -0.00
  48   1     0.04  -0.01   0.01    -0.11   0.03  -0.01    -0.00   0.00  -0.00
  49   1    -0.02   0.06  -0.03     0.02  -0.07   0.03    -0.00   0.02  -0.01
  50   1     0.10   0.09  -0.04    -0.18  -0.16   0.08     0.03   0.02  -0.01
                    142                    143                    144
                        a                      a                      a 
 Frequencies --  3098.1410              3099.0712              3102.8215
 Red. masses --     1.8344                 1.9098                 1.8823
 Frc consts  --     0.0000                 0.0000                 0.0000
 IR Inten    --    30.1000                51.4101                32.9429
 Raman Activ --     0.0000                 0.0000                 0.0000
 Depolar     --     0.0000                 0.0000                 0.0000
 Atom AN      X      Y      Z        X      Y      Z        X      Y      Z
   1   6     0.00  -0.00  -0.00    -0.00   0.00   0.00    -0.00   0.00   0.00
   2   6    -0.00  -0.01  -0.00     0.00   0.00   0.00     0.00   0.00   0.00
   3   6    -0.02  -0.00  -0.00     0.00   0.00   0.00     0.00   0.00   0.00
   4   6    -0.00   0.00   0.00    -0.00   0.00  -0.00     0.00   0.00   0.00
   5   6    -0.00   0.00   0.00     0.00  -0.00  -0.00     0.00   0.00  -0.00
   6   6     0.00   0.00   0.00    -0.00  -0.00  -0.00    -0.00  -0.00  -0.00
   7   6     0.00   0.00   0.00     0.00   0.00   0.00     0.00   0.00   0.00
   8   6     0.00  -0.00  -0.00    -0.00   0.00   0.00    -0.00   0.00   0.00
   9   6     0.00   0.00   0.00    -0.00  -0.00  -0.00    -0.00  -0.00  -0.00
  10   6     0.00  -0.00  -0.00     0.00  -0.00  -0.00     0.00  -0.00  -0.00
  11   6     0.00  -0.00  -0.00    -0.00   0.00   0.00     0.01  -0.00  -0.00
  12   6    -0.00  -0.00   0.00    -0.00  -0.00  -0.00     0.00  -0.00   0.00
  13   7    -0.00   0.00  -0.00     0.00   0.00   0.00     0.00  -0.00  -0.00
  14   6     0.01  -0.00   0.00     0.00  -0.00   0.00    -0.01   0.00  -0.00
  15   6    -0.00  -0.00   0.00     0.04   0.04  -0.02    -0.11  -0.14   0.07
  16   6     0.01  -0.03   0.01    -0.01   0.02  -0.01     0.08  -0.16   0.08
  17   6     0.00   0.00  -0.00    -0.00  -0.00   0.00     0.01   0.00  -0.00
  18   6    -0.01  -0.01   0.00     0.00  -0.00   0.00    -0.00   0.00  -0.00
  19   6     0.11  -0.21   0.11     0.00  -0.00   0.00    -0.01   0.02  -0.01
  20   6     0.00   0.00  -0.00    -0.00   0.00  -0.00     0.00  -0.00   0.00
  21   6     0.03  -0.03   0.01    -0.01   0.01  -0.00    -0.00   0.00  -0.00
  22   6    -0.00  -0.02   0.01     0.00   0.01  -0.01     0.00   0.00  -0.00
  23   6    -0.02  -0.01   0.00     0.02   0.01  -0.00     0.01   0.00  -0.00
  24   6    -0.00   0.00  -0.00     0.00  -0.00   0.00     0.00  -0.00   0.00
  25   6     0.00  -0.00   0.00    -0.00   0.00  -0.00     0.00   0.00  -0.00
  26   6    -0.01  -0.00   0.00     0.07   0.06  -0.03     0.01   0.01  -0.00
  27   6    -0.00   0.00  -0.00     0.14  -0.04   0.02     0.02  -0.00   0.00
  28   6     0.00  -0.00   0.00     0.04  -0.14   0.07     0.01  -0.03   0.01
  29   6    -0.01  -0.01   0.01    -0.10  -0.09   0.05    -0.04  -0.03   0.02
  30   6    -0.00   0.00  -0.00    -0.01   0.00  -0.00    -0.00   0.00  -0.00
  31   7     0.00  -0.00   0.00     0.00  -0.00   0.00    -0.00  -0.00   0.00
  32   6    -0.00  -0.00   0.00     0.00  -0.00   0.00    -0.00  -0.00   0.00
  33   1    -0.01   0.01   0.01     0.01  -0.01  -0.00     0.01  -0.01  -0.00
  34   1     0.01   0.03   0.01    -0.00  -0.01  -0.00    -0.00  -0.00  -0.00
  35   1     0.08   0.02   0.01    -0.00  -0.00  -0.00    -0.00  -0.00  -0.00
  36   1    -0.01  -0.00  -0.00     0.01   0.00   0.00     0.01   0.00   0.00
  37   1    -0.00   0.00   0.00     0.01  -0.00  -0.00     0.01  -0.00  -0.00
  38   1    -0.00  -0.00  -0.00     0.01   0.01   0.00     0.01   0.01   0.00
  39   1    -0.00   0.00   0.00    -0.00   0.00   0.00    -0.00   0.01   0.01
  40   1    -0.01   0.00   0.00     0.01  -0.00  -0.00    -0.03   0.01   0.00
  41   1     0.01   0.00  -0.00    -0.12  -0.15   0.08     0.38   0.47  -0.25
  42   1    -0.05   0.10  -0.05     0.03  -0.07   0.03    -0.27   0.53  -0.27
  43   1    -0.40   0.74  -0.39    -0.00   0.00  -0.00     0.04  -0.08   0.04
  44   1    -0.12   0.10  -0.05     0.03  -0.03   0.01     0.01  -0.01   0.01
  45   1     0.01   0.06  -0.03    -0.01  -0.03   0.02    -0.00  -0.01   0.01
  46   1     0.06   0.02  -0.01    -0.07  -0.03   0.01    -0.02  -0.01   0.00
  47   1     0.02   0.02  -0.01    -0.23  -0.20   0.10    -0.03  -0.02   0.01
  48   1     0.01  -0.00   0.00    -0.47   0.12  -0.06    -0.07   0.02  -0.01
  49   1    -0.00   0.01  -0.01    -0.14   0.45  -0.23    -0.03   0.09  -0.04
  50   1     0.04   0.04  -0.02     0.34   0.31  -0.16     0.13   0.12  -0.06
