91
 energy: -139.436973700827 gnorm: 0.000053247886 xtb: 6.7.1 (edcfbbe)
C            1.27277877711234       -3.82841205967024        3.41773788835805
C            0.82541446667808       -2.55560307405622        3.73773821732992
C            0.51725209481173       -1.63759627674281        2.74128094269827
C            0.68136829607274       -2.01720498017609        1.42838150485186
C            1.13766234226112       -3.30271988130594        1.09720616061865
C            1.43441626728930       -4.21502653389789        2.09618575731033
C            1.25080455832678       -3.39600028970464       -0.35268181222250
C            1.69102399551817       -4.42409173260416       -1.16909676389250
C            1.74184104328137       -4.20864865210738       -2.53810030201951
C            1.36287802454876       -2.99090470659942       -3.08156281407636
C            0.91069076045570       -1.95779001817990       -2.26919803086822
C            0.86291712413689       -2.16595347374494       -0.90964633019565
C            0.36150962255332       -1.21868294138797        0.16954986706411
C            1.01223849834189        0.13875462085299        0.12891817496360
C            0.20221689774150        1.31281752974563        0.15496707737088
C            0.84462159108777        2.57740420364565        0.00994229476970
C            2.18524761191746        2.69086856701346       -0.11197049630674
C            3.02324279891137        1.54223698902400       -0.05365478175249
C            4.40403596776463        1.67509632680185       -0.14103093129856
C            5.25775387574041        0.57545863713509       -0.09418497456553
C            6.70436830331270        0.72816642760429       -0.20668240911742
C            7.47543897199204       -0.25836843413732       -0.86801213290543
C            8.82646674886239       -0.12985599032769       -0.99445652992061
C            9.50638145026251        0.98787491839924       -0.46015799240942
C           10.90064413505537        1.14802526179882       -0.57117184415032
C           11.52366998452285        2.24451267721076       -0.03809657643646
C           10.77661386728858        3.22837617478972        0.62831536045971
C            9.42075320949826        3.10231938526523        0.75083606184347
C            8.74728173601604        1.98384232546218        0.21111935470353
C            7.35417203659729        1.82848841579625        0.31837630339920
C            4.66608872251485       -0.68877534492642        0.07649467316175
C            3.31116816846250       -0.84386947526844        0.16995999973125
C            2.41500155465786        0.25524091260595        0.08193186422224
C           -1.20225406611671        1.24268418530681        0.29085372311913
C           -2.00413221103631        2.38908993725504        0.57597291894292
C           -3.36349048415806        2.33165721561139        0.57681776544120
C           -4.05910915749362        1.14613887940778        0.24219151602815
C           -5.49942648183939        1.19519434269794        0.10231109006923
C           -6.24707259426843        1.82265933006226        1.07497116115174
C           -7.65709887058407        1.80476316914419        1.07301493185776
C           -8.37896299283393        2.39231584242479        2.13213148308821
C           -9.74684659704426        2.33360723207877        2.17019132172779
C          -10.43841580823863        1.67729446877418        1.14998834100034
C           -9.75526841680183        1.10248421630794        0.10207147678201
C           -8.35791422905492        1.15489060409325        0.02435399747639
C           -7.59755420305772        0.60421537093990       -1.07565026320325
C           -8.21764295491690        0.06721410135548       -2.21478487295918
C           -7.48831947640248       -0.38831009170903       -3.28712212375979
C           -6.09860091455395       -0.30000262594157       -3.27135803361828
C           -5.46215336761124        0.20941792344938       -2.16684900982739
C           -6.18236275605592        0.63643424325779       -1.03937797255753
C           -3.30427198813761       -0.06172063244724        0.12340671289408
C           -3.93891281231366       -1.30905809201325        0.05933622325596
C           -3.20167752399452       -2.47569175492821       -0.02266719681348
C           -1.82256775200957       -2.42555310997493       -0.02037243522435
C           -1.15226176136790       -1.20372100382248        0.08279039200683
C           -1.88111374630880       -0.01590916153498        0.16589014367241
H            1.50077672111157       -4.52707925395260        4.20973647131553
H            0.71209671696936       -2.27397946419972        4.77445396749503
H            0.16261442427441       -0.64813452122763        2.99123498268823
H            1.78540119527271       -5.20685557498629        1.85205443097766
H            1.99043921531792       -5.37332949345570       -0.74975464511485
H            2.08438272653338       -4.99969326791513       -3.18961776938986
H            1.41691270259475       -2.84277868454856       -4.15030846968541
H            0.61170273835947       -1.01070276659705       -2.69472730476168
H            0.23827948573472        3.46681177357172       -0.04839242891057
H            2.64715743335456        3.65831770616338       -0.24971296778879
H            4.81488711568795        2.66540678111373       -0.27819614314369
H            6.97204926262533       -1.10952646869369       -1.30301844057341
H            9.40091352234179       -0.88499124377452       -1.51326989886168
H           11.47227635177041        0.38735072958213       -1.08472668020382
H           12.59443160371575        2.36010682922305       -0.12638657598861
H           11.28382902372786        4.08738691523469        1.04409819026735
H            8.84221384344740        3.85883529848188        1.26268210537321
H            6.79390982763676        2.58332938458989        0.85177743090818
H            5.29921578206199       -1.55913936584556        0.17244006837741
H            2.93031565145763       -1.83256253549214        0.34125185231015
H           -1.52633484563830        3.32505892002765        0.81608489498976
H           -3.93683427706674        3.22695366816386        0.76982151484851
H           -5.74846850056843        2.27081711088464        1.92306313087866
H           -7.82819687274153        2.88670403284590        2.92015948327376
H          -10.29253189050399        2.78514901210259        2.98612208576234
H          -11.51670807772633        1.61971686621722        1.18480338458133
H          -10.32296316713242        0.59975793385021       -0.66513234804437
H           -9.29375609942873        0.02146037734379       -2.26796386480961
H           -7.99422240765127       -0.79586724033653       -4.15049627614114
H           -5.52442294957036       -0.62347042184845       -4.12731942880762
H           -4.38584833407287        0.29317208650320       -2.16260287797394
H           -5.01660524424620       -1.35669687578925        0.08037481700593
H           -3.70632177174606       -3.42885358932923       -0.07969918040836
H           -1.26087703735035       -3.34448772138664       -0.08132867643343
