91
 energy: -139.437427637699 gnorm: 0.000040126990 xtb: 6.7.1 (edcfbbe)
C            1.84018235368671       -4.49451678713145        2.16383419555618
C            1.39788223955996       -3.34760281848121        2.80489906553256
C            0.92462686152542       -2.26219325814056        2.07744737993012
C            0.92037886979091       -2.34560441096379        0.70355049748059
C            1.37005870996808       -3.50375887338344        0.04855421019155
C            1.83136962024151       -4.58519909965713        0.78021418378861
C            1.28555785049720       -3.28343097108044       -1.38955877367754
C            1.63695917154234       -4.09156043679657       -2.45796335335293
C            1.48836091930964       -3.59433961927895       -3.74366453143389
C            0.99899152039627       -2.31522659294824       -3.95990769236226
C            0.63583884878361       -1.50165245041510       -2.89351783448185
C            0.78834514174702       -1.98975770668060       -1.61555230868669
C            0.41042957493383       -1.32067832077937       -0.29940565492989
C            1.00970443776464        0.04746120072755       -0.10511160549517
C            0.15879223443269        1.18561394161679        0.00762825785185
C            0.75944958021154        2.44496809277103        0.30231706203113
C            2.09477858368743        2.58828712636400        0.44898668970452
C            2.97167922944273        1.48328218046872        0.26822875833212
C            4.34674964537356        1.64839403711753        0.39364931021067
C            5.23631758661654        0.58997533478223        0.23185974751351
C            6.67583083067635        0.77057641324788        0.39136154186216
C            7.46646983783537       -0.26935073854169        0.93781321265494
C            8.81022327800148       -0.11884334364725        1.10908667821516
C            9.46340760501727        1.07799949484364        0.73830870376927
C           10.84977808915344        1.26316106477391        0.89896248654883
C           11.44609016205367        2.43840730750505        0.52813103040188
C           10.67945213560560        3.47809890665693       -0.02095755236625
C            9.33107008906537        3.32842280455655       -0.18983209630994
C            8.68469880629435        2.12935306431568        0.18445396827913
C            7.29929014942173        1.94825179560772        0.02759696487449
C            4.68867257991144       -0.66227500855062       -0.10045496019510
C            3.34112066366523       -0.84751882304444       -0.23396471923566
C            2.40811665304547        0.20377679457048       -0.02876671514692
C           -1.24473384087252        1.08243826090887       -0.13451372433971
C           -2.09285345211136        2.22651850841182       -0.22923472129728
C           -3.44922658952552        2.12181337203685       -0.24143918610088
C           -4.10094940992463        0.86954066770950       -0.13241792169161
C           -5.52502873430797        0.82833974925322        0.10762102240583
C           -6.01586570242744        0.07445141537600        1.15527913602776
C           -7.36385782053140        0.13163531648144        1.55969495341506
C           -7.80640866057343       -0.61905257309971        2.66910070896132
C           -9.10195299977676       -0.53523573618390        3.10459721062266
C           -9.99809743510868        0.31058596280048        2.44728053182826
C           -9.58999825938282        1.04975523982405        1.35965875013184
C           -8.27637139377364        0.98034258553070        0.87977069920432
C           -7.80840347483789        1.71195434156503       -0.27662861281149
C           -8.66984304698224        2.49061853240161       -1.06418048056990
C           -8.23135955749872        3.12924728558067       -2.20069746929145
C           -6.91003583712344        2.98541946433530       -2.61339906665924
C           -6.03996181924439        2.23548097049296       -1.85933365666842
C           -6.44895333117358        1.62125409855087       -0.66456676780045
C           -3.29697919751797       -0.31100429678814       -0.16960983739942
C           -3.88301779467086       -1.57850059790370       -0.27887935074501
C           -3.10221338712576       -2.71898038313589       -0.33598102025872
C           -1.72686520000974       -2.61694023999449       -0.31124877347322
C           -1.10372172859443       -1.36743625511369       -0.24751278711108
C           -1.87580061546363       -0.20581374745643       -0.18620906871903
H            2.19913550132797       -5.32771632395521        2.75063485895759
H            1.41880287608480       -3.29691027872813        3.88378728143793
H            0.57551589840678       -1.37121596686545        2.57908794115107
H            2.17833498479453       -5.48023758528820        0.28512374126069
H            2.02018191379219       -5.08797278570296       -2.29415200218426
H            1.75938450819761       -4.21104064779960       -4.58841632273727
H            0.89578887132191       -1.94628934536125       -4.96998387601243
H            0.24833820007165       -0.50765721487111       -3.06399617922766
H            0.12679950520532        3.30374947012820        0.45625887638401
H            2.52179906837934        3.54866321184608        0.70155702721547
H            4.72175102594981        2.62800999638210        0.65465599395566
H            6.98328787172571       -1.18406525052291        1.24911244760380
H            9.39876823546596       -0.91735990987249        1.53963965814646
H           11.43627927600003        0.45932643319420        1.32216021920452
H           12.51075787751254        2.57359484398388        0.65416348272470
H           11.16598126358025        4.39909431219445       -0.30933665785449
H            8.73768728882520        4.12750138865398       -0.61224205662046
H            6.72551627873651        2.74955353950860       -0.41608005065657
H            5.35130899110549       -1.49443451902815       -0.29008552953551
H            2.99559230438229       -1.82006073882160       -0.52797240620034
H           -1.65680296402525        3.20988585007674       -0.29379996513979
H           -4.05292954877017        3.01766825618198       -0.25920353191658
H           -5.33164468436980       -0.51748478787521        1.74719837780272
H           -7.09738031695989       -1.26255547827351        3.17094006906545
H           -9.43297672103443       -1.11322764387445        3.95536525458070
H          -11.01782727227882        0.38587263109610        2.79608768180376
H          -10.30944082882698        1.69564996498512        0.88136768629601
H           -9.70810958150244        2.58707262272537       -0.78929962287628
H           -8.91878458557453        3.72357390644774       -2.78521146339794
H           -6.57318905595049        3.45254644822669       -3.52746514482135
H           -5.02473013021999        2.09467409544704       -2.19912867262106
H           -4.95714468808887       -1.66140417603390       -0.34130449196546
H           -3.56986981616550       -3.68960673181239       -0.41150565698648
H           -1.13025908491566       -3.51437757668236       -0.36019504797142
