$hessian                                                                        
        0.6435865897   0.0864424542   0.0434523059  -0.1030958007  -0.0029960069
       -0.0120440960   0.0426377884   0.0016395042   0.0104396960  -0.0226820788
        0.0177000121  -0.0300614309  -0.0016911026  -0.0012306630   0.0026985978
       -0.0003164530   0.0005760909  -0.0008251529   0.0002160868   0.0002309261
       -0.0000146553   0.0000837454  -0.0000987588   0.0001599605   0.0001184070
       -0.0000536214  -0.0001789890  -0.0000734912   0.0002157795  -0.0000205341
       -0.0000339702  -0.0002082061   0.0001929313   0.0002499763   0.0000010668
        0.0002581003  -0.0003626945   0.0001676650   0.0002393713   0.0002659343
        0.0000008439   0.0000330409  -0.0001597654  -0.0001183349  -0.0000479484
       -0.0001148036   0.0001780829   0.0000229787   0.0003354450  -0.0000055317
        0.0000402529  -0.0000186233  -0.0000210764  -0.0000337156   0.0000504638
        0.0000237273   0.0000187148  -0.0000316002  -0.0000223847   0.0000128223
        0.0000234164   0.0000290268   0.0000139418   0.0000086324  -0.0000098301
       -0.0000044399   0.0000036283   0.0000154195   0.0000087132  -0.0000023830
        0.0000050881   0.0000033750  -0.0000008298  -0.0000004177  -0.0000034497
       -0.0000055522  -0.0000049401  -0.0000103738  -0.0000069794  -0.0000044122
       -0.0000135162  -0.0000322703   0.0000002943  -0.0000130971   0.0000019040
       -0.0000096112   0.0000039075  -0.0000096104   0.0000003957   0.0000015512
       -0.0000008199   0.0000031715  -0.0000014612   0.0000004053   0.0000046753
       -0.0000075290   0.0000113110   0.0000220411  -0.0000081269  -0.0000458313
        0.0000606152   0.0000000406   0.0001046522  -0.0002249348  -0.0000124255
       -0.0000399688   0.0001831112   0.0000347071   0.0000885855  -0.0000456636
       -0.0000117552  -0.0000850786  -0.0000044864   0.0000009031   0.0000296271
       -0.0000703011  -0.0000072444   0.0000308310   0.0000366815   0.0000083632
        0.0000046442  -0.0000072627   0.0000056917  -0.0000087697   0.0000335718
        0.0000038353   0.0000643684  -0.0000282840  -0.0000030869  -0.0000337304
        0.0001172142   0.0000165065   0.0000437480  -0.0001318103  -0.0000189389
        0.0000598003   0.0001014415  -0.0000053691  -0.0001847498  -0.0000404458
        0.0000047032  -0.0617402019  -0.0428986074   0.0359314919  -0.2957217503
        0.0276862127  -0.1120331927  -0.1813536514  -0.0970154805   0.0854967891
       -0.0081091895   0.0153306969  -0.0232452031  -0.0023365955  -0.0037517545
        0.0019411955   0.0000048892  -0.0000401374  -0.0000352122   0.0000229404
       -0.0000275358   0.0000011985  -0.0000074249  -0.0000159397  -0.0000172047
       -0.0000004975  -0.0000004277   0.0000038684   0.0000006989  -0.0000012008
       -0.0000270520  -0.0002748419  -0.0000322678   0.0000663515  -0.0000255168
       -0.0000036807   0.0000377718   0.0000079467   0.0000457612   0.0000299908
        0.0000013167   0.0000127316  -0.0000028399  -0.0000004353  -0.0000016542
       -0.0000012294   0.0000014332  -0.0000054937  -0.0000007862  -0.0000067890
       -0.0000031428  -0.0000017187  -0.0000007519   0.0000005581  -0.0000022248
        0.0000053752   0.0000007371  -0.0000017968  -0.0000009993   0.0000019628
       -0.0000019488   0.0000027589  -0.0000008160  -0.0000009858  -0.0000000500
        0.0000013442  -0.0000006341  -0.0000009372  -0.0000016318   0.0000043579
       -0.0000059981  -0.0000050949   0.0000028185   0.0000124765  -0.0000009522
       -0.0000082330  -0.0000000969   0.0000029881  -0.0000015195   0.0000084122
        0.0000074974   0.0000017989  -0.0000002031  -0.0000055564   0.0000000002
        0.0000002894  -0.0000034107   0.0000028880  -0.0000023373  -0.0000055137
        0.0000029795  -0.0000098933  -0.0000100715   0.0000030235  -0.0020807219
       -0.0035053074   0.0014662684  -0.0073726871   0.0017932710  -0.0039386872
        0.0864424542   0.3222325207  -0.2526641947   0.0433535177  -0.1365774307
        0.1322718559  -0.0330029027  -0.0241203402   0.0257403340   0.0183872984
       -0.0088207880   0.0098781271  -0.0015122623  -0.0015037790   0.0002729927
       -0.0000726485   0.0002125353  -0.0003039526  -0.0000006185  -0.0003720308
        0.0000855010  -0.0000186433   0.0001607122  -0.0001475905  -0.0000381485
       -0.0000530759   0.0000931114   0.0000266096   0.0000197929  -0.0000377452
        0.0000094776  -0.0000311581  -0.0000183796   0.0001797188   0.0003508523
        0.0002799029   0.0000530078  -0.0003984036  -0.0000358133  -0.0001498123
        0.0000557099   0.0000121330   0.0001427616  -0.0001941538  -0.0000017819
       -0.0002952098   0.0002402792   0.0000170789   0.0002145190  -0.0000615713
       -0.0000419951   0.0002550171   0.0002142911   0.0000200953  -0.0002058219
       -0.0002017955  -0.0000038788   0.0002091569  -0.0002409030  -0.0000583125
        0.0000264468   0.0000895340   0.0000183841   0.0000162696  -0.0000184734
       -0.0000004547   0.0000038555   0.0000132213   0.0000090888  -0.0000021578
        0.0000087789   0.0000127715  -0.0000013904  -0.0000039680  -0.0000063116
       -0.0000023721  -0.0000105703  -0.0000045234  -0.0000125658  -0.0000010839
       -0.0000144200  -0.0000092462   0.0000020433   0.0000160533  -0.0000075117
       -0.0000185165   0.0000038578  -0.0000026774  -0.0000082838   0.0000139818
        0.0000025052   0.0000049151  -0.0000073324  -0.0000085900   0.0000045806
       -0.0000082305   0.0000139858   0.0000294293  -0.0000002941  -0.0001990621
        0.0001227770  -0.0000186502   0.0000130052   0.0001192568   0.0000214232
       -0.0001416053  -0.0001647612  -0.0000143379  -0.0000721461  -0.0000122565
       -0.0000060505   0.0001498636  -0.0000704163  -0.0000093010  -0.0001240671
        0.0001651195   0.0000267634  -0.0001188831  -0.0001401084  -0.0000207373
        0.0001212828   0.0000360851   0.0000028612   0.0000210061   0.0000340995
        0.0000047182  -0.0001701169   0.0001114809   0.0000182807   0.0001485230
       -0.0002665398  -0.0000405926   0.0001941360   0.0003025434   0.0000377443
       -0.0001188755  -0.0000561733  -0.0000015640   0.0000089702   0.0000697152
        0.0000161134  -0.0071680812   0.0127558887  -0.0180012854  -0.0188728927
       -0.0660411180   0.0183853781  -0.0969664256  -0.1035793900   0.0649867760
        0.0013115944  -0.0009023464   0.0023240087  -0.0035317932   0.0038162227
        0.0047689194  -0.0000186753  -0.0001034473   0.0000796805  -0.0000050912
       -0.0000279745  -0.0000061784   0.0000077454  -0.0000067488   0.0000062196
        0.0000037061  -0.0000031755   0.0000096317   0.0000016255  -0.0000165131
       -0.0000248828  -0.0000428422   0.0000266599   0.0000285981  -0.0000189172
        0.0000157770  -0.0000021209   0.0000189107   0.0000195660   0.0000279679
        0.0000011014   0.0000019121  -0.0000013943   0.0000004962  -0.0000004535
       -0.0000010583  -0.0000011535  -0.0000004528  -0.0000034782  -0.0000028301
        0.0000024984  -0.0000032156  -0.0000010161   0.0000032544  -0.0000011004
        0.0000055070   0.0000014284  -0.0000036761  -0.0000008381   0.0000033500
        0.0000004075   0.0000015739   0.0000029518  -0.0000008600   0.0000025642
        0.0000017062   0.0000001236   0.0000001518  -0.0000012919   0.0000032078
       -0.0000003217  -0.0000024098   0.0000025334   0.0000088788   0.0000021893
        0.0000147542   0.0000003392  -0.0000026613  -0.0000023241   0.0000033181
        0.0000046565   0.0000009174  -0.0000035555  -0.0000026492  -0.0000004763
        0.0000024648   0.0000016768   0.0000027119  -0.0000023254   0.0000028390
        0.0000010739   0.0000062942   0.0000002514   0.0000016047  -0.0037436157
        0.0037278423   0.0047376681   0.0152980498  -0.0009537310   0.0072631387
        0.0434523059  -0.2526641947   0.4662182927  -0.0752700131   0.1176197440
       -0.2278147045   0.0571386160   0.0350910056  -0.0305561700  -0.0293572214
        0.0086834907  -0.0283893347   0.0016889597   0.0012518093   0.0002683955
        0.0000212266   0.0000133291   0.0001472545   0.0001548745   0.0006765921
       -0.0001742970   0.0000776877  -0.0002754276   0.0002942321   0.0001012903
        0.0000351474  -0.0002055745  -0.0000780818   0.0000916429   0.0000579690
       -0.0000493759  -0.0000676712   0.0001624167  -0.0002812694  -0.0004279694
       -0.0002085249  -0.0003327257   0.0005517650   0.0002487843   0.0003483717
       -0.0000882636   0.0000250144  -0.0002372380   0.0001821790  -0.0000266461
        0.0003563501  -0.0002218177  -0.0000033414  -0.0001080750   0.0001210888
        0.0000780990  -0.0003578514  -0.0002896181  -0.0000350543   0.0003055988
        0.0002750602   0.0000158686  -0.0003141466   0.0003227467   0.0000847998
       -0.0000261935  -0.0001095331  -0.0000244642  -0.0000201188   0.0000269395
       -0.0000014912  -0.0000022939  -0.0000122089  -0.0000083214  -0.0000018423
       -0.0000067248  -0.0000144520   0.0000016898   0.0000037971   0.0000066364
        0.0000006764   0.0000132102  -0.0000007442   0.0000118493  -0.0000021718
        0.0000119515   0.0000051599  -0.0000009684  -0.0000255587   0.0000062763
        0.0000223588  -0.0000029663   0.0000014497   0.0000115549  -0.0000168232
       -0.0000032175  -0.0000076383   0.0000065794   0.0000120987  -0.0000017715
        0.0000086298  -0.0000155538  -0.0000274828  -0.0000038177   0.0002573894
       -0.0001516531   0.0000161714  -0.0000076525  -0.0002042878  -0.0000252181
        0.0001594143   0.0002441670   0.0000324925   0.0001198408   0.0000095687
       -0.0000026431  -0.0002124564   0.0000885460   0.0000173962   0.0001646191
       -0.0002214213  -0.0000344952   0.0001532152   0.0001821863   0.0000302104
       -0.0001374803  -0.0000490002  -0.0000076444  -0.0000435425  -0.0000407628
        0.0000009803   0.0002507511  -0.0001533436  -0.0000287284  -0.0002063271
        0.0003751539   0.0000549755  -0.0002184635  -0.0004339247  -0.0000508992
        0.0001587566   0.0001118484  -0.0000074144  -0.0000514584  -0.0001094356
       -0.0000126477  -0.0101494917  -0.0286187193   0.0365100735  -0.0486340229
        0.0332822804  -0.1067244205   0.0855880073   0.0648341608  -0.0946973092
       -0.0044992462   0.0072196187  -0.0093397310   0.0014564429   0.0046794779
        0.0022557895   0.0000682635   0.0001787271  -0.0001378847   0.0000160161
        0.0000357907   0.0000018516  -0.0000187389   0.0000007018  -0.0000179365
       -0.0000044497   0.0000016764  -0.0000104735  -0.0000043858   0.0000238917
        0.0000232729  -0.0000871731  -0.0000621045   0.0000212401   0.0000070866
       -0.0000252638   0.0000191946  -0.0000201638  -0.0000129504  -0.0000318744
       -0.0000045110  -0.0000007058  -0.0000002922   0.0000018519   0.0000021132
       -0.0000025702   0.0000007246  -0.0000027385   0.0000046182   0.0000007603
       -0.0000030285   0.0000005813   0.0000000774  -0.0000022761  -0.0000007302
       -0.0000042317   0.0000006238   0.0000036947  -0.0000037949  -0.0000030972
       -0.0000011693  -0.0000021484  -0.0000015759  -0.0000000483  -0.0000036488
        0.0000006416  -0.0000009963  -0.0000012552   0.0000019496  -0.0000045225
        0.0000001783   0.0000051101  -0.0000069351  -0.0000069876  -0.0000002966
       -0.0000213664  -0.0000005964   0.0000047788   0.0000019903  -0.0000001418
       -0.0000023132  -0.0000004073   0.0000046514   0.0000031844  -0.0000001668
       -0.0000022328   0.0000003141  -0.0000011086   0.0000016151  -0.0000009717
        0.0000007663  -0.0000079411  -0.0000030974  -0.0000009926   0.0019301374
        0.0048896665   0.0020717157  -0.0232365197   0.0031367905  -0.0100190263
       -0.1030958007   0.0433535177  -0.0752700131   0.6555655117   0.0767072066
        0.0626085110  -0.2233883480  -0.1209961767   0.1070201207  -0.0585920864
       -0.0091978529  -0.0066148733  -0.0019441272   0.0016129775  -0.0027975465
        0.0000692343  -0.0002700042   0.0004378152  -0.0000176411   0.0006661648
        0.0001046091   0.0000792867  -0.0002515533   0.0001469871   0.0000671940
        0.0000407698  -0.0001598193  -0.0000339146   0.0000363386   0.0000338449
        0.0000594790   0.0000993096   0.0001049059  -0.0021374497  -0.0004691881
       -0.0002522828  -0.0001643633  -0.0001933527   0.0002369563   0.0000799956
       -0.0000358941   0.0000716326   0.0001251988  -0.0000587620  -0.0000299824
        0.0001284120   0.0000020703   0.0000041772  -0.0001553047   0.0003307176
        0.0001227045  -0.0001207296  -0.0000699205  -0.0000098026   0.0002227497
        0.0000088403   0.0000389965  -0.0002511409  -0.0000230838   0.0000069639
        0.0000607814   0.0001005138   0.0000351004   0.0000169682  -0.0000283700
       -0.0000049610   0.0000319586   0.0000522580   0.0000290588   0.0000045329
        0.0000255432   0.0000328670   0.0000105215  -0.0000111699   0.0000089737
       -0.0000202526  -0.0000243161  -0.0000408319  -0.0000355903  -0.0000206236
       -0.0000388104  -0.0000448322   0.0000133178  -0.0000043018   0.0000008725
       -0.0000534647   0.0000111719  -0.0000185411  -0.0000226221   0.0000320797
       -0.0000172531  -0.0000036341  -0.0000050564   0.0000159718   0.0000236438
       -0.0000283072   0.0000175608   0.0000613652  -0.0000128991  -0.0000474868
       -0.0000617019  -0.0000263088  -0.0001904075   0.0001962690   0.0000268717
       -0.0001886923  -0.0002596484  -0.0000188046  -0.0000605454   0.0000439722
        0.0000056046   0.0000797134  -0.0000613362  -0.0000104197  -0.0000739521
        0.0001090792   0.0000161646  -0.0001398096  -0.0001024123  -0.0000134035
        0.0001780119   0.0000129655   0.0000084576  -0.0001548522  -0.0000327546
       -0.0000096004   0.0000549780   0.0000523345   0.0000072759   0.0000348524
       -0.0000372274  -0.0000166332   0.0003087874   0.0000211750   0.0000033814
       -0.0001965481   0.0000511867  -0.0000143966   0.0001915622   0.0000456572
        0.0000000386  -0.0029265385  -0.0102218034   0.0142390842   0.0019767900
        0.0202090933  -0.0265637516   0.0032067403  -0.0125438952   0.0175000384
       -0.2678972108   0.0100627801  -0.0861174831   0.0037983576   0.0017414036
       -0.0017820678  -0.0000889789  -0.0001653190  -0.0001462704   0.0000129903
        0.0000228571   0.0000073566  -0.0000025179   0.0000122943  -0.0000281304
        0.0000070694   0.0000147329  -0.0000299635   0.0000212031  -0.0000150643
       -0.0000572507  -0.0002152598  -0.0000229683   0.0000209280  -0.0000040302
       -0.0000110765  -0.0000145445   0.0000029635   0.0000749186   0.0000046689
        0.0000010193   0.0000191256  -0.0000087299  -0.0000081579   0.0000016881
        0.0000107597  -0.0000021856  -0.0000079218  -0.0000058492  -0.0000123075
       -0.0000002595  -0.0000035868  -0.0000009849   0.0000053862   0.0000005586
        0.0000181762  -0.0000003479  -0.0000126597  -0.0000031941   0.0000027280
        0.0000019996   0.0000130869   0.0000004263  -0.0000030515   0.0000104889
        0.0000004931   0.0000013659   0.0000020365  -0.0000135644   0.0000135474
       -0.0000114872  -0.0000059474  -0.0000041361   0.0000408193  -0.0000005154
        0.0000006684   0.0000021939   0.0000108593  -0.0000035814   0.0000192206
        0.0000163266  -0.0000007516   0.0000061935  -0.0000172027  -0.0000038823
       -0.0000004802  -0.0000098052  -0.0000006092   0.0000001569  -0.0000125766
        0.0000016446  -0.0000122679  -0.0000166299   0.0000008939   0.0006550243
       -0.0001419062   0.0004921564  -0.0049233940  -0.0003704336  -0.0032855870
       -0.0029960069  -0.1365774307   0.1176197440   0.0767072066   0.3164115403
       -0.2462488656  -0.0748656914  -0.1266681897   0.0858974718  -0.0423093530
        0.0080435674  -0.0268916719   0.0035565582   0.0077745539   0.0012131018
        0.0008784206  -0.0005541083   0.0008152168  -0.0000845667   0.0005625616
       -0.0001062568   0.0000460384  -0.0002204629   0.0000869034   0.0000124194
        0.0001351168  -0.0001011679  -0.0000336483  -0.0001490860   0.0000198180
        0.0000124402   0.0002639636  -0.0001894421  -0.0007651439  -0.0007458693
        0.0001925919  -0.0004420740   0.0005865764   0.0002632132   0.0003766474
       -0.0000570099   0.0000231236  -0.0003100237   0.0003792132   0.0000034061
        0.0003277597  -0.0004838895  -0.0000631202  -0.0001525574   0.0002026496
       -0.0000832819  -0.0003187608  -0.0002170785   0.0000122738   0.0002533799
        0.0002630988  -0.0000253836  -0.0002878131   0.0005184044   0.0001003599
       -0.0000958482  -0.0002168463  -0.0000194134  -0.0000374307   0.0000119796
        0.0000232524  -0.0000164911  -0.0000185321  -0.0000113958  -0.0000097945
        0.0000018624  -0.0000160675   0.0000072060  -0.0000003159   0.0000028021
        0.0000020615   0.0000069625   0.0000060569   0.0000297817   0.0000168098
        0.0000214954   0.0000030310   0.0000074557  -0.0000239066   0.0000158810
        0.0000403453  -0.0000342243   0.0000037804   0.0000222282  -0.0000126344
       -0.0000101573  -0.0000178325   0.0000146338   0.0000138500  -0.0000100196
        0.0000142299  -0.0000313930  -0.0000428422   0.0000012858   0.0003377299
       -0.0002954704   0.0000445590   0.0000324216  -0.0001013679  -0.0000223200
        0.0002246700   0.0002238767   0.0000079565   0.0001158614   0.0000297953
        0.0000248262  -0.0002273436   0.0001325445   0.0000212308   0.0002117082
       -0.0002372348  -0.0000414731   0.0001977239   0.0001966201   0.0000269769
       -0.0001736349  -0.0000880017  -0.0000127634  -0.0000569093  -0.0000641923
       -0.0000015579   0.0003056389  -0.0002094830  -0.0000356173  -0.0002921785
        0.0004176740   0.0000460360  -0.0002922639  -0.0004828446  -0.0000591702
        0.0002855603   0.0001803748   0.0000028789  -0.0000780625  -0.0001997611
       -0.0000412103  -0.0121677242  -0.0249772320   0.0239553641   0.0536293603
        0.0080369518   0.0082075213   0.0016605421  -0.0093893968   0.0136754459
        0.0097584885  -0.0382239440   0.0087213678  -0.0118519196  -0.0091484332
        0.0099554828  -0.0001006477  -0.0000815791  -0.0000734169  -0.0000175550
        0.0000294674   0.0000162030  -0.0000106158   0.0000087571  -0.0000054447
        0.0000055905   0.0000220653  -0.0000257269   0.0000081911  -0.0000114603
        0.0000177046  -0.0000972972   0.0000017772   0.0000279970  -0.0000110572
        0.0000003252   0.0000131858  -0.0000376501   0.0000398877  -0.0000263649
       -0.0000004205  -0.0000158368   0.0000046369   0.0000002481   0.0000146387
        0.0000032450   0.0000101708  -0.0000124366   0.0000143270  -0.0000068626
       -0.0000165081   0.0000036532  -0.0000072245  -0.0000169046  -0.0000061964
       -0.0000033899   0.0000059697  -0.0000160309   0.0000079070  -0.0000150272
        0.0000066477  -0.0000098460  -0.0000111441  -0.0000017136  -0.0000062763
        0.0000024351  -0.0000062263  -0.0000075564  -0.0000003101  -0.0000029677
       -0.0000170265   0.0000125053   0.0000083120   0.0000106576   0.0000019640
       -0.0000358214  -0.0000044873  -0.0000088389  -0.0000046422  -0.0000050805
        0.0000024041  -0.0000027948  -0.0000111175   0.0000026484   0.0000021567
        0.0000001010   0.0000203152   0.0000041276   0.0000020739   0.0000197915
        0.0000078418   0.0000155537   0.0000087754   0.0000053835  -0.0000794695
       -0.0003856479   0.0000786605  -0.0007262900   0.0053121148   0.0030135817
       -0.0120440960   0.1322718559  -0.2278147045   0.0626085110  -0.2462488656
        0.4670907773   0.0453509189   0.0734893261  -0.1286653630   0.0388499851
       -0.0165752973   0.0347702969  -0.0060623296   0.0012090045   0.0015748918
        0.0003443505   0.0003811381  -0.0002377503  -0.0001943829  -0.0009978566
       -0.0000841581  -0.0001231125   0.0002541306  -0.0002063333  -0.0001201013
       -0.0000961141   0.0002906157   0.0001292489  -0.0001262963  -0.0000970324
        0.0000437206   0.0000293591  -0.0001205117  -0.0004866501   0.0004061358
        0.0010061243   0.0004024609  -0.0010781479  -0.0002271964  -0.0004910190
        0.0001321417  -0.0000653180   0.0004788704  -0.0006039658  -0.0000180704
       -0.0005371990   0.0006790717  -0.0000343585   0.0000842311  -0.0000879171
       -0.0000790948   0.0004538998   0.0003423135   0.0000237883  -0.0003481343
       -0.0003965538   0.0000390677   0.0003986291  -0.0007613023  -0.0001526989
        0.0001436249   0.0003227311   0.0000393837   0.0000549131  -0.0000177614
       -0.0000366542   0.0000293024   0.0000382272   0.0000252951   0.0000089644
        0.0000107576   0.0000333492  -0.0000063406  -0.0000050602  -0.0000020520
       -0.0000080751  -0.0000165791  -0.0000173818  -0.0000513489  -0.0000286245
       -0.0000374152  -0.0000141539  -0.0000026621   0.0000496488  -0.0000281557
       -0.0000659886   0.0000489141  -0.0000074975  -0.0000401150   0.0000313936
        0.0000089351   0.0000220981  -0.0000204855  -0.0000152261   0.0000184492
       -0.0000246772   0.0000481881   0.0000821353  -0.0000041966  -0.0005054115
        0.0004416222  -0.0000665605  -0.0000675053   0.0001535790   0.0000414838
       -0.0003851570  -0.0003474545  -0.0000310597  -0.0001594078  -0.0000436173
       -0.0000217565   0.0003403222  -0.0002080235  -0.0000254344  -0.0003248202
        0.0003689694   0.0000582550  -0.0003163140  -0.0003110151  -0.0000400541
        0.0002998601   0.0001315725   0.0000153679   0.0000503377   0.0000932179
        0.0000060905  -0.0004281367   0.0003137654   0.0000486512   0.0004272287
       -0.0006131430  -0.0000725942   0.0005039100   0.0006965428   0.0000789832
       -0.0004557801  -0.0002185406   0.0000197485   0.0001002794   0.0002741976
        0.0000523290   0.0171650662   0.0249766099  -0.0332115244  -0.0728345966
       -0.0030038946  -0.0173631117  -0.0014035160   0.0095541096  -0.0124304311
       -0.0859456308   0.0080507056  -0.0733244977   0.0172160400   0.0139117882
       -0.0133309253   0.0000592479  -0.0000973946   0.0002426712  -0.0000050463
        0.0000049487  -0.0000198202   0.0000245209   0.0000070842   0.0000163003
       -0.0000054047  -0.0000031655   0.0000248499  -0.0000152577   0.0000143541
       -0.0000184883   0.0001357576   0.0000297116  -0.0000123938   0.0000065156
        0.0000146445  -0.0000369517   0.0000626716  -0.0000113169   0.0000724092
        0.0000019655   0.0000254192  -0.0000055066  -0.0000008941  -0.0000132101
       -0.0000017931  -0.0000129213   0.0000132719  -0.0000165114   0.0000051008
        0.0000218154  -0.0000044787   0.0000075169   0.0000243768   0.0000102282
        0.0000115879  -0.0000063216   0.0000185298  -0.0000156533   0.0000206123
       -0.0000039973   0.0000152904   0.0000156478   0.0000040123   0.0000095314
       -0.0000020635   0.0000107012   0.0000080655  -0.0000041270   0.0000089560
        0.0000207138  -0.0000167710  -0.0000138566  -0.0000024920   0.0000040885
        0.0000419020   0.0000059665   0.0000137892   0.0000058057   0.0000149058
        0.0000036193   0.0000040904   0.0000155999  -0.0000073631  -0.0000040411
        0.0000020551  -0.0000254707  -0.0000060315  -0.0000023858  -0.0000252756
       -0.0000108615  -0.0000172641  -0.0000124368  -0.0000097141   0.0003752177
        0.0001075823  -0.0001991845  -0.0028826113   0.0031431913   0.0024221213
        0.0426377884  -0.0330029027   0.0571386160  -0.2233883480  -0.0748656914
        0.0453509189   0.6224414498   0.0858005152   0.0434306776  -0.2579637674
       -0.0019545399  -0.0559714499  -0.0488701481  -0.0158616648   0.0062150526
       -0.0022300252   0.0030280568  -0.0033689649  -0.0001821880  -0.0015228733
        0.0002323125  -0.0001595042   0.0006410773  -0.0004171144  -0.0000381806
       -0.0002450740   0.0002123988   0.0000680635   0.0003449484  -0.0002977507
        0.0000342377   0.0000266967  -0.0001722484   0.0006016772  -0.0027726182
        0.0014879493   0.0010805237  -0.0015431333  -0.0008125429  -0.0003903704
        0.0002929012  -0.0002150885   0.0005809039  -0.0009878846  -0.0000275788
       -0.0003903209   0.0008753707  -0.0000460316  -0.0017145056   0.0000734486
        0.0003167924   0.0002020351   0.0002388588  -0.0000703405  -0.0003842944
       -0.0003425714   0.0000887657   0.0006046851  -0.0012667982  -0.0002461916
        0.0002198951   0.0005608527   0.0000512587   0.0001031141  -0.0000580953
       -0.0000441070   0.0000276169   0.0000469157   0.0000152117   0.0000118940
        0.0000113972   0.0000508390  -0.0000143664  -0.0000038697  -0.0000018735
       -0.0000120757  -0.0000170970  -0.0000217112  -0.0000712036  -0.0000214578
       -0.0000375954  -0.0000008462  -0.0000050587   0.0000834997  -0.0000315930
       -0.0000790449   0.0000623582  -0.0000009503  -0.0000612323   0.0000445575
        0.0000106564   0.0000329772  -0.0000347569  -0.0000198020   0.0000265704
       -0.0000287298   0.0000679636   0.0000989955   0.0000099919  -0.0006710920
        0.0009187592  -0.0000694658  -0.0000142758  -0.0003371154   0.0000015589
       -0.0004419233   0.0000557320   0.0000462349  -0.0000250856  -0.0001628860
       -0.0000632659   0.0002223599  -0.0002253317  -0.0000354506  -0.0003033577
        0.0002416978   0.0000460225  -0.0002554273  -0.0002301891  -0.0000329191
        0.0002291587   0.0001658304   0.0000187002   0.0001992016   0.0002008661
        0.0000150684  -0.0004918960   0.0003061105   0.0000515117   0.0004653491
       -0.0005334112  -0.0000554513   0.0004525338   0.0006191452   0.0000557495
       -0.0006962078  -0.0003113717   0.0000370702  -0.0000493784   0.0003871212
        0.0000883180   0.0013203276   0.0433161986  -0.0611389553  -0.0553557104
       -0.0149097375   0.0035476269   0.0009817333   0.0001085616  -0.0016819063
       -0.0247170490  -0.0146574540   0.0116850162  -0.0545448529   0.0282922169
       -0.0445438138   0.0001611584  -0.0011221074  -0.0000955217   0.0000466739
       -0.0000790144  -0.0000320925   0.0000520737  -0.0000352873   0.0000043610
        0.0000040305  -0.0000485937   0.0000452336   0.0000729041  -0.0000456157
       -0.0001479823  -0.0000336306   0.0004443888   0.0000176493  -0.0000156103
        0.0000542840   0.0000050790   0.0001708007   0.0001555201   0.0001529633
        0.0000029151   0.0000606164   0.0000052813   0.0000055387  -0.0000329532
       -0.0000014616  -0.0000178539   0.0000275746  -0.0000378291   0.0000150479
        0.0000361992  -0.0000094968   0.0000100158   0.0000330239   0.0000154766
        0.0000111289  -0.0000134728   0.0000232482  -0.0000169362   0.0000261005
       -0.0000061346   0.0000131854   0.0000250281   0.0000015243   0.0000117617
       -0.0000041931   0.0000142160   0.0000133787  -0.0000048183   0.0000076050
        0.0000324342  -0.0000252307  -0.0000185738  -0.0000178935   0.0000077791
        0.0000637950   0.0000081973   0.0000254461   0.0000074413   0.0000157481
       -0.0000026143   0.0000053523   0.0000258458  -0.0000019826  -0.0000044510
        0.0000007770  -0.0000371386  -0.0000075715  -0.0000049712  -0.0000324916
       -0.0000150538  -0.0000357921  -0.0000209427  -0.0000143103   0.0008500076
       -0.0001587140  -0.0013342325  -0.0005153577   0.0000364915   0.0004067112
        0.0016395042  -0.0241203402   0.0350910056  -0.1209961767  -0.1266681897
        0.0734893261   0.0858005152   0.3247226360  -0.2605905285   0.0276002654
       -0.0649488426   0.0311017494  -0.0182662349   0.0017706821  -0.0029395123
       -0.0020644749  -0.0009373380  -0.0004888174  -0.0007710838  -0.0024724567
        0.0000222329  -0.0001770463   0.0006073126  -0.0007174152  -0.0002619845
       -0.0000205775   0.0005843351   0.0002903029  -0.0004231553   0.0000611283
       -0.0000246548   0.0006884820  -0.0004920049  -0.0005237148  -0.0019426346
        0.0005596054   0.0003970574   0.0000954612  -0.0002569336  -0.0001108282
        0.0000067014  -0.0000355877  -0.0002195244   0.0003807732   0.0000497944
       -0.0004939630  -0.0003889344  -0.0001799169  -0.0006238921   0.0000659702
        0.0005106915   0.0001823121   0.0002490649  -0.0000826490  -0.0003438219
       -0.0000155970  -0.0000979604   0.0003067746   0.0004934856   0.0000845170
       -0.0001939723  -0.0003600947  -0.0000388456  -0.0000500484   0.0000039751
        0.0000617926  -0.0000674006  -0.0000741397  -0.0000441332  -0.0000182884
       -0.0000275968  -0.0000509252  -0.0000007458   0.0000022996  -0.0000177260
        0.0000337147   0.0000159262   0.0000590310   0.0000807722   0.0000603635
        0.0000558889   0.0000109210  -0.0000147769  -0.0000636163   0.0000311941
        0.0001055334  -0.0000593249   0.0000134752   0.0000513975  -0.0000485070
        0.0000103645  -0.0000123854   0.0000148305  -0.0000234557  -0.0000405172
        0.0000372863  -0.0000353557  -0.0001102844   0.0000214871   0.0002154561
       -0.0002668195   0.0000711371   0.0003083578  -0.0000098546  -0.0000108045
        0.0003877341   0.0002241468   0.0000134174   0.0000267052   0.0000088076
        0.0000002072  -0.0000957746   0.0001430121   0.0000219840   0.0001510355
       -0.0001469510  -0.0000225366   0.0002365972   0.0001501306   0.0000192882
       -0.0002864268  -0.0000776775  -0.0000079676   0.0001664928  -0.0000180448
       -0.0000017538  -0.0000033937  -0.0001376578  -0.0000235682  -0.0001503567
        0.0000860273   0.0000066677  -0.0005203346  -0.0000861162   0.0000074423
        0.0005034989   0.0000366460  -0.0000027538  -0.0002771986  -0.0002052167
        0.0000223218   0.0184592891   0.0068618777  -0.0026284826  -0.0164175051
       -0.0062791282  -0.0028092426  -0.0002424876   0.0029109207   0.0060783937
       -0.0008529709   0.0002988581  -0.0000937573   0.0280183135  -0.1116980414
        0.1181094207  -0.0004664627  -0.0012296576   0.0000193152  -0.0000793564
        0.0000044910  -0.0000263094   0.0000134997   0.0000043141   0.0000613045