$hessian                                                                        
        0.5082719807   0.0356990419   0.0007749539  -0.0977611468   0.0545589186
       -0.0011496968  -0.0258860443   0.0236003313  -0.0022537661   0.0027306478
       -0.0037953364   0.0002595520   0.0012958027   0.0004412260   0.0020460624
       -0.0009651687  -0.0004095131  -0.0005264350   0.0000895072   0.0000981032
        0.0000841298   0.0000062671  -0.0000879004  -0.0002269471   0.0001424569
        0.0000118727   0.0001121856   0.0006117877  -0.0001516385  -0.0008466683
       -0.0000827377  -0.0000799487   0.0000218711  -0.0000103202  -0.0000479006
       -0.0000121674   0.0000019510  -0.0000866942   0.0000329479   0.0000756770
        0.0000250772  -0.0000342193  -0.0001354552   0.0000554110  -0.0000123734
        0.0000711353  -0.0000626408   0.0000364848   0.0000022105   0.0000020404
        0.0000470647   0.0000924496  -0.0000765546   0.0000446044  -0.0000358970
        0.0001610221  -0.0001869126  -0.0000483034  -0.0000212928   0.0000552734
        0.0000031238   0.0000482197   0.0000063089   0.0000381424   0.0000765108
       -0.0000462068  -0.0000367213  -0.0001533104  -0.0000090078   0.0001010618
        0.0001238001  -0.0000301082   0.0000364441   0.0000474098   0.0000210734
        0.0001574425   0.0002315322  -0.0000501033  -0.0004503629  -0.0001356762
        0.0000716355   0.0001681800  -0.0001179264  -0.0000046808  -0.0000747656
       -0.0000541294   0.0000674026   0.0001096509   0.0000145062  -0.0002198407
       -0.0001966069  -0.0000284323  -0.0000309360   0.0002927549   0.0000970136
       -0.0001492251  -0.0003902215  -0.0001157523   0.0001634763   0.0004702166
        0.0001101800  -0.0001429738  -0.0004191419  -0.0000930463   0.0001804824
       -0.0001900135  -0.0001016297   0.0003905185   0.0001502561   0.0000825966
       -0.0003598360  -0.0002284239  -0.0000392883   0.0000180349   0.0000641664
        0.0000240844  -0.0000393119  -0.0000779982  -0.0000341303   0.0001189185
        0.0001416962   0.0000644712  -0.0002001540   0.0002109892   0.0000335731
        0.0000369011   0.0001130861   0.0000030355   0.0000998906   0.0000571530
        0.0000167903   0.0000157216  -0.0000232502   0.0000000760  -0.0000028463
        0.0000197745   0.0000129847   0.0000282333   0.0000814240  -0.0000689904
       -0.0000301340   0.0000010797   0.0000021674   0.0000000168  -0.0000703508
       -0.0000310439  -0.0000068357   0.0000318959  -0.0000049082  -0.0000010131
       -0.0000112842  -0.0000189326  -0.0000032666  -0.0000143015   0.0000210351
        0.0000050671  -0.0000531481  -0.0000157578  -0.0000047649   0.0000434154
        0.0000180355   0.0000035429  -0.0000002188  -0.0000455217  -0.0000114385
       -0.0000065983   0.0000534501   0.0000146538  -0.0000251188   0.0000044416
        0.0000004427   0.0000143199   0.0000152906   0.0000031747   0.0000196414
       -0.0000253894  -0.0000041432   0.0000001664   0.0000782214   0.0000125357
       -0.0000003883  -0.0000306981   0.0000403233   0.0000746585  -0.0000915395
        0.0000036403   0.0000167998   0.0000125000   0.0000477102   0.0000225815
       -0.0000465739  -0.0000232878  -0.0000119958   0.0000003250  -0.0000089391
       -0.0000092203   0.0000043604  -0.0000027945  -0.0000013312  -0.0000010921
       -0.0000033877  -0.0000066226  -0.0000048515   0.0000018206  -0.0000488470
        0.0000763775   0.0000010985  -0.0000457462  -0.0000160646  -0.0000901827
       -0.0000151977   0.0000833183   0.0001339637  -0.0659029626  -0.0439196346
        0.0538503838  -0.2702385322  -0.0471609672  -0.0219519387  -0.0487797105
       -0.0176132119  -0.0308711806   0.0005178426   0.0011591225   0.0006693570
       -0.0067112249  -0.0001489053  -0.0007646972   0.0007410748   0.0010620617
       -0.0003387825   0.0001505930  -0.0002896950   0.0000535444   0.0002130125
       -0.0014155279   0.0012554727   0.0008494176  -0.0008824808   0.0004176191
        0.0005485349  -0.0005102423  -0.0007754321   0.0000240778  -0.0000147833
        0.0000064138   0.0000013917  -0.0001003055   0.0000940262   0.0000098116
       -0.0000007542   0.0000051420   0.0000084545  -0.0000200991  -0.0000000707
        0.0000012807  -0.0000173361   0.0000128137  -0.0000004908  -0.0000074287
       -0.0000039858   0.0000166889   0.0000049909  -0.0000035918   0.0000035279
       -0.0000049076  -0.0000013581  -0.0000010633   0.0000017519  -0.0000111175
        0.0000151942  -0.0000049041  -0.0000044598  -0.0000062764  -0.0000063093
       -0.0000102432  -0.0000055517   0.0000116233   0.0000125419   0.0000206199
       -0.0000026432   0.0000052714  -0.0000201299  -0.0000194207   0.0000159205
        0.0000137668  -0.0000074326   0.0000035122   0.0000027787   0.0000024215
        0.0000052204   0.0000029721  -0.0000030053   0.0000009342  -0.0000003493
       -0.0000032920   0.0000084510  -0.0000060433  -0.0000011123   0.0000064350
       -0.0000072441  -0.0000072539  -0.0000007303   0.0000033833  -0.0000061688
       -0.0000026611   0.0000061500   0.0000007894   0.0000120044  -0.0000055193
        0.0000023170  -0.0000041434  -0.0000077280   0.0000078861   0.0000001962
        0.0000033529   0.0000081551   0.0000021329   0.0000062100   0.0000022887
        0.0000007503   0.0000041610  -0.0000046258  -0.0000011651   0.0000049075
       -0.0000019908   0.0000002123  -0.0000007822  -0.0000063879  -0.0000012682
       -0.0000070621  -0.0000055353  -0.0000017301  -0.0000136929   0.0000027303
        0.0000005251   0.0000015563   0.0000107637   0.0000002285   0.0000041110
       -0.0000007862   0.0000061665   0.0000004197   0.0000042989   0.0000053762
        0.0000034809  -0.0000036411   0.0000002781   0.0000029029  -0.0000012783
       -0.0000010093  -0.0000018483   0.0000051829   0.0000064038   0.0000065427
       -0.0000017826   0.0000015133   0.0000039423   0.0000009833  -0.0000009365
        0.0000031507  -0.0000040240   0.0000030837   0.0000033755  -0.0000001953
       -0.0000004149   0.0000013498   0.0000052479   0.0000041074   0.0000063895
       -0.0000018657   0.0000060361   0.0000107400  -0.0000079266   0.0000017292
        0.0356990419   0.4672145880  -0.0061004258   0.0553193266  -0.1507659832
        0.0009415114   0.0022497262   0.0004116566   0.0000391818   0.0094384927
       -0.0234305712   0.0068519731   0.0081931349  -0.0170380351  -0.0056570284
       -0.0001503969  -0.0003521747   0.0002782621   0.0003176591  -0.0000967026
        0.0003035515   0.0001411261  -0.0001800963  -0.0000348998   0.0004306980
       -0.0007576421  -0.0002861571  -0.0001907816  -0.0006921344  -0.0022193428
       -0.0000898229  -0.0000764102  -0.0001258698  -0.0000073128  -0.0000002865
       -0.0000009566  -0.0000694458   0.0000488291   0.0000089276   0.0000726800
        0.0000073383  -0.0000407988  -0.0000723364   0.0000306160   0.0000097256
        0.0000390425  -0.0000117707  -0.0000053178   0.0000179878  -0.0000026834
        0.0000014776   0.0000312743  -0.0000245348   0.0000157120  -0.0000495486
        0.0000369044  -0.0000374713   0.0000200193  -0.0000066801  -0.0000042418
       -0.0000419882  -0.0000048753   0.0000194861   0.0000094674  -0.0000014496
       -0.0000068595  -0.0000004781   0.0000031522   0.0000013840  -0.0000024265
       -0.0000075008   0.0000019611  -0.0000093626   0.0000050241  -0.0000013018
       -0.0000118945  -0.0000074270   0.0000017120   0.0000307421   0.0000033349
       -0.0000052762  -0.0000073779   0.0000114226  -0.0000001075   0.0000078022
       -0.0000052916  -0.0000078896  -0.0000049081   0.0000141128  -0.0000548736
       -0.0000617113  -0.0000188341   0.0000614683   0.0000372106   0.0000079227
       -0.0000026530  -0.0001196643  -0.0000375820   0.0000385623   0.0001051789
        0.0000226882  -0.0000326268  -0.0001160830  -0.0000242193   0.0000196261
       -0.0000520130  -0.0000250513   0.0000930109   0.0000391096   0.0000185179
       -0.0000901742  -0.0000631531  -0.0000093667   0.0000038695   0.0000195700
        0.0000094466  -0.0000196453  -0.0000215284  -0.0000086490   0.0000406179
        0.0000553726   0.0000217459  -0.0000591299   0.0000718380   0.0000164924
       -0.0000122032   0.0000609235  -0.0000000713   0.0000482855  -0.0000035211
        0.0000137842   0.0000064498  -0.0000054714  -0.0000028459  -0.0000082511
       -0.0000034462   0.0000121321   0.0000037790   0.0000565758  -0.0000401579
       -0.0000087384   0.0000283951  -0.0000068745  -0.0000014626  -0.0000907643
       -0.0000279714  -0.0000072969   0.0000213712  -0.0000066202  -0.0000009840
       -0.0000106952  -0.0000188339  -0.0000041358  -0.0000179813   0.0000103432
        0.0000043964  -0.0000394156   0.0000020957  -0.0000034712   0.0000267694
       -0.0000031773  -0.0000014601   0.0000090901  -0.0000196511  -0.0000050581
       -0.0000147244   0.0000323869   0.0000088541  -0.0000188680   0.0000121994
        0.0000026032   0.0000123414   0.0000177622   0.0000028410   0.0000085863
       -0.0000155807  -0.0000026994  -0.0000024806   0.0000805433   0.0000141550
       -0.0000060751  -0.0000117871   0.0000114128   0.0000506580  -0.0000803467
       -0.0000085080  -0.0000043646   0.0000071119  -0.0000071189   0.0000131854
       -0.0000226475  -0.0000113673  -0.0000096881   0.0000170365   0.0000155336
        0.0000041001  -0.0000044204   0.0000057743  -0.0000074841  -0.0000019248
        0.0000057168  -0.0000009572   0.0000050129   0.0000036072  -0.0000111519
        0.0000191626  -0.0000010775   0.0000053862  -0.0000257382  -0.0000152808
       -0.0000177796   0.0000461850   0.0000641251  -0.0438489253  -0.1278957409
        0.1060273833  -0.0473627469  -0.0523185569  -0.0040710092  -0.0176323316
       -0.0935161481  -0.0961257106  -0.0010052272   0.0005251664   0.0000671719
       -0.0011804849   0.0005788654  -0.0002261835  -0.0007861074   0.0005847082
       -0.0002653612   0.0003334904   0.0006027746  -0.0010490028  -0.0008908026
       -0.0027376756   0.0030660768   0.0008654384   0.0003876609  -0.0005747074
        0.0002441425  -0.0004554238  -0.0007837274   0.0000070098   0.0000159500
        0.0000248366  -0.0001273863   0.0000495104  -0.0000505699   0.0000644588
       -0.0000283964  -0.0000094790   0.0000103604  -0.0000171116   0.0000160393
       -0.0000061858  -0.0000068766   0.0000079445  -0.0000072090  -0.0000059072
        0.0000050566  -0.0000002186   0.0000041567   0.0000016067   0.0000073006
       -0.0000109223   0.0000001788   0.0000004220  -0.0000028827   0.0000015726
       -0.0000014210  -0.0000060107   0.0000008076   0.0000048643  -0.0000028477
        0.0000008429   0.0000012104  -0.0000048093  -0.0000002272   0.0000031242
       -0.0000107148   0.0000028913   0.0000071988   0.0000192543  -0.0000369281
        0.0000060381   0.0000011063  -0.0000174281   0.0000100752   0.0000023194
        0.0000040789   0.0000048248   0.0000001422   0.0000022342   0.0000042316
        0.0000008464  -0.0000008676   0.0000014797   0.0000012847  -0.0000018090
       -0.0000008809  -0.0000007420  -0.0000008053   0.0000035075  -0.0000070626
        0.0000002004   0.0000007412  -0.0000011432   0.0000036983   0.0000038233
       -0.0000039572  -0.0000024036  -0.0000056503   0.0000056364   0.0000008909
        0.0000059329   0.0000116493   0.0000036705   0.0000123475   0.0000042496
        0.0000010409   0.0000087815  -0.0000068166  -0.0000016844   0.0000116340
       -0.0000035134  -0.0000006833   0.0000037050  -0.0000106166  -0.0000035816
       -0.0000061137  -0.0000073788  -0.0000022205  -0.0000063363   0.0000018718
        0.0000010921   0.0000060003  -0.0000029197  -0.0000004046   0.0000014299
       -0.0000057902  -0.0000062067  -0.0000009883  -0.0000045618  -0.0000082019
       -0.0000021692   0.0000009150  -0.0000010392   0.0000007195   0.0000014753
       -0.0000024316   0.0000049120  -0.0000051124  -0.0000041594  -0.0000019089
        0.0000001234   0.0000004613   0.0000013662   0.0000031811   0.0000004972
        0.0000003503   0.0000009454  -0.0000027509  -0.0000010950   0.0000002128
       -0.0000019133   0.0000003698  -0.0000076108  -0.0000039596  -0.0000026216
       -0.0000037074  -0.0000144560  -0.0000012606   0.0000020031  -0.0000077543
        0.0007749539  -0.0061004258   0.5245421462  -0.0001389468  -0.0006546598
       -0.0637412216  -0.0028346982   0.0026931461  -0.0000480781  -0.0094756177
        0.0208230387  -0.0047387752   0.0120100533  -0.0217235758  -0.0027556645
       -0.0003250851  -0.0001689437  -0.0016654935   0.0003363181  -0.0001658727
        0.0007185070   0.0001106936  -0.0005303064  -0.0005016188   0.0007639595
       -0.0010874237  -0.0001377641  -0.0007689848  -0.0022208189  -0.0036481313
        0.0000952617  -0.0003428810  -0.0002269408   0.0000364806   0.0000868074
       -0.0000318940  -0.0000651229  -0.0001246750   0.0000643749   0.0000721163
        0.0001282852  -0.0001508309  -0.0000423800   0.0000124712   0.0001592018
        0.0000344797  -0.0000041505  -0.0000343016  -0.0000505231  -0.0000679268
       -0.0000001190   0.0000130809   0.0000716008  -0.0000890825  -0.0000674411
       -0.0001379265   0.0001960964   0.0000408088   0.0001166379  -0.0001149821
       -0.0000305234  -0.0000049389  -0.0000600929  -0.0000182917   0.0001467226
       -0.0000819617   0.0001750642   0.0000310965   0.0000652969  -0.0000966849
       -0.0000221662  -0.0000119511   0.0000421420  -0.0000835976  -0.0000764878
       -0.0003184761  -0.0001757211   0.0000650282   0.0007189564   0.0000767097
       -0.0001116933  -0.0004052624   0.0000905965   0.0000725777  -0.0000112017
       -0.0001167360   0.0000928365  -0.0004016574  -0.0000216510   0.0000851783
        0.0001776470   0.0000423980   0.0000406311  -0.0002040281  -0.0000412795
        0.0000893168   0.0003328436   0.0000528022  -0.0000899607  -0.0002640876
       -0.0000597050  -0.0000081045   0.0002883730   0.0001151305  -0.0001087502
        0.0000790211   0.0000403112  -0.0001607114  -0.0000530085  -0.0000331519
        0.0001663602   0.0001073276   0.0000165602   0.0000170064  -0.0000547634
       -0.0000115427  -0.0000142098  -0.0000088163   0.0000084437  -0.0000233743
       -0.0000321846  -0.0000279618   0.0000492701  -0.0001897004  -0.0000224675
        0.0000449615  -0.0000854325   0.0000182133  -0.0000721794  -0.0000006603
       -0.0000234450  -0.0000023760  -0.0000033666  -0.0000008617  -0.0000273395
       -0.0000352344  -0.0000256562  -0.0000175260  -0.0000912731   0.0000497454
        0.0000252637  -0.0000463051   0.0000346129   0.0000019633   0.0001085675
        0.0000547121   0.0000078976  -0.0000045017  -0.0000493661  -0.0000138917
       -0.0000194599  -0.0000049287  -0.0000019888  -0.0000022309  -0.0001025639
       -0.0000280094   0.0001090901   0.0001187385   0.0000358928  -0.0001321511
       -0.0000607161  -0.0000184564   0.0000025997   0.0001447618   0.0000333986
       -0.0000704961  -0.0001468368  -0.0000379619   0.0001005866   0.0000462943
        0.0000133480  -0.0000029146   0.0000176387   0.0000077777   0.0000454066
        0.0000271456   0.0000052247  -0.0000060930  -0.0001244842  -0.0000219973
        0.0000237356   0.0000423824   0.0000001148   0.0002213346  -0.0003162179
        0.0000314622   0.0000351715   0.0000691281   0.0000860696   0.0000852794
       -0.0001543540  -0.0000386603  -0.0000383748   0.0000463348   0.0000133167
       -0.0000028533   0.0000032200  -0.0000043132   0.0000038095   0.0000124026
        0.0000055467  -0.0000007225   0.0000000798   0.0000025725  -0.0001305252
        0.0002216104   0.0000178861  -0.0000599040  -0.0000974143  -0.0002220324
       -0.0000080140   0.0003390950   0.0003776006   0.0536234582   0.1061705978
       -0.1746020043  -0.0220103520  -0.0039194234  -0.0456676291  -0.0308394815
       -0.0961705663  -0.2248329984  -0.0006762139   0.0007023244   0.0003911934
       -0.0010326373  -0.0000194903   0.0002603372   0.0004301590  -0.0003896249
        0.0003183139  -0.0005046397   0.0013019883   0.0007561726   0.0008635479
        0.0039336092  -0.0033152832  -0.0006066584  -0.0000806289   0.0004370914
        0.0002383200  -0.0022132683  -0.0017966239   0.0000358662  -0.0000032504
        0.0000348336   0.0000414132   0.0000200659   0.0000408208   0.0000182689
        0.0000213421  -0.0000486810   0.0000227633   0.0000215192  -0.0000004224
       -0.0000073303   0.0000142163  -0.0000084650   0.0000034781   0.0000109816
        0.0000290245  -0.0000107581  -0.0000380978  -0.0000023765  -0.0000042791
       -0.0000091554   0.0000069205  -0.0000121129  -0.0000043105   0.0000335158
       -0.0000343163  -0.0000033480   0.0000140527   0.0000235087   0.0000142254
        0.0000301437   0.0000217685  -0.0000054347  -0.0000402441  -0.0000090862
       -0.0000118834  -0.0000271709  -0.0000058273  -0.0000123185  -0.0000044683
        0.0000251724  -0.0000122340   0.0000162844  -0.0000069902   0.0000082544
       -0.0000029193  -0.0000052517  -0.0000024008  -0.0000035064   0.0000035188
        0.0000025628  -0.0000119081   0.0000131829   0.0000018485  -0.0000059214
        0.0000153342   0.0000018347   0.0000103511   0.0000037421  -0.0000025248
       -0.0000045197   0.0000026508   0.0000054513   0.0000071563   0.0000072510
        0.0000033675  -0.0000022634  -0.0000004683  -0.0000040816   0.0000012767
        0.0000009821   0.0000019400   0.0000006825   0.0000011260   0.0000004286
        0.0000001386   0.0000012944  -0.0000008103  -0.0000006658   0.0000012135
       -0.0000012165  -0.0000009073   0.0000000645  -0.0000011650  -0.0000010962
       -0.0000020372  -0.0000010048   0.0000009007   0.0000025806   0.0000006990
       -0.0000024771  -0.0000007066  -0.0000092442   0.0000097470   0.0000110419
       -0.0000158085   0.0000015012  -0.0000000661  -0.0000027397  -0.0000009180
       -0.0000010102  -0.0000016403  -0.0000003985   0.0000019297  -0.0000044007
        0.0000013668  -0.0000028918  -0.0000058942   0.0000019538   0.0000044579
       -0.0000012134  -0.0000000885  -0.0000003871  -0.0000025128   0.0000020649
        0.0000008964  -0.0000040800   0.0000040436  -0.0000010964  -0.0000018428
        0.0000000984   0.0000038974  -0.0000033758  -0.0000028492   0.0000013208
       -0.0000094612  -0.0000143664   0.0000032260  -0.0000103279  -0.0000040119
       -0.0977611468   0.0553193266  -0.0001389468   0.4636633031  -0.0140742456
       -0.0006338521  -0.1701607084  -0.0275461968  -0.0181772514  -0.0724521987
       -0.0198167759   0.0308578311  -0.0596941227  -0.0007112389  -0.0099795612
       -0.0010542835  -0.0069745309  -0.0151347799   0.0018796954   0.0041727531
       -0.0037938845  -0.0005098383  -0.0003336968  -0.0010857606   0.0027119967
        0.0049573521  -0.0005861248   0.0015720807   0.0055402723   0.0110842467
        0.0000629787   0.0004931910   0.0005484302   0.0000214769  -0.0002353130
        0.0000804631  -0.0000162442  -0.0001413992   0.0000749957   0.0001498211
        0.0000702507  -0.0001372257  -0.0001499291   0.0000451490   0.0000918943
        0.0001113456  -0.0000660914   0.0000263915  -0.0000393837  -0.0000428948
        0.0000575643   0.0000511726   0.0000337525  -0.0000666725  -0.0001109635
       -0.0000063429   0.0000507393   0.0000785517   0.0000716053  -0.0001045261
       -0.0000626835   0.0000881143  -0.0000198496   0.0000311389   0.0001401206
       -0.0000721542   0.0000768600  -0.0000338987   0.0000202691  -0.0000063106
        0.0000527698  -0.0000197128   0.0000378425  -0.0000238994  -0.0000255948
       -0.0001430558  -0.0000375205   0.0000222613   0.0002575621  -0.0000207117
       -0.0000339936  -0.0001950936   0.0000537693   0.0000285005  -0.0001313277
       -0.0000447276   0.0000351419   0.0002733661   0.0001327864  -0.0001377941
       -0.0001196532  -0.0000514856  -0.0000232631   0.0001103317   0.0000173133
       -0.0001512539  -0.0002489172  -0.0000509637   0.0001052302   0.0002700376
        0.0000395080  -0.0000689880  -0.0002925036  -0.0000937686   0.0001864688
       -0.0001081812  -0.0000549484   0.0002425309   0.0001345546   0.0000509732
       -0.0002276852  -0.0001702004  -0.0000337710   0.0000267068   0.0000165230
        0.0000048860   0.0000039806  -0.0000629701  -0.0000168286   0.0000289327
        0.0000715559   0.0000402751  -0.0000967395   0.0001279260  -0.0000039724
        0.0000203043   0.0000596743   0.0000269976   0.0000477066   0.0000721728
       -0.0000075114  -0.0000058935   0.0000079078  -0.0000163606  -0.0000102818
        0.0000029314  -0.0000104955  -0.0000071276   0.0000493048  -0.0000415601
        0.0000016831  -0.0000065650   0.0000182112   0.0000005671  -0.0000547581
       -0.0000131309  -0.0000057740   0.0000332879  -0.0000256041  -0.0000047432
       -0.0000111743  -0.0000247228  -0.0000058730  -0.0000164118  -0.0000242412
       -0.0000056692  -0.0000099338   0.0000363705   0.0000079404  -0.0000076474
       -0.0000101011  -0.0000059957   0.0000020198   0.0000123144   0.0000023469
       -0.0000369111  -0.0000085155  -0.0000013740   0.0000149864   0.0000247871
        0.0000066804   0.0000187138   0.0000192805   0.0000032523   0.0000324781
       -0.0000182723  -0.0000021859  -0.0000060505   0.0000450474   0.0000038328
       -0.0000060020  -0.0000113093   0.0000391521   0.0002448205  -0.0002071599
        0.0001814607   0.0000395285  -0.0000019245   0.0002730508   0.0001378543
       -0.0002575726  -0.0000701432  -0.0000296108   0.0000528669  -0.0000117428
       -0.0000146754   0.0000225359   0.0000024188   0.0000083703   0.0000134343
        0.0000248875  -0.0000109977   0.0000060381   0.0000459403  -0.0001844462
        0.0003960478   0.0000030318  -0.0001619230  -0.0001134505  -0.0004864507
       -0.0008803024   0.0002156685   0.0009769184   0.0038060925  -0.0058985322
       -0.0006084335  -0.0202841319   0.0243832638   0.0000214140   0.0012117237
       -0.0013138126   0.0009937103  -0.0074944380  -0.0031494949  -0.0040494404
       -0.0200948550  -0.0005143562  -0.0025988843  -0.0131851424  -0.0053429203
        0.0008998906   0.0005847547   0.0007705407  -0.0000023805   0.0039582970
        0.0089794095  -0.0112584462  -0.0130425296  -0.0167730402   0.0216236207
       -0.0012567836  -0.0009596027   0.0007551796  -0.0002913123  -0.0004344028
       -0.0006695750  -0.0014379963  -0.0008100182   0.0009299840  -0.0000176438
       -0.0000140410   0.0000017466  -0.0000016094  -0.0000115433  -0.0000062240
       -0.0000076971  -0.0000043649   0.0000042854   0.0000076508  -0.0000023153
        0.0000076640  -0.0000060804  -0.0000085038  -0.0000057045   0.0000014235
       -0.0000041290  -0.0000028906  -0.0000012760  -0.0000033778   0.0000110819
       -0.0000086109  -0.0000035305   0.0000044654   0.0000147087   0.0000121536
        0.0000087286   0.0000148502  -0.0000030222  -0.0000100286   0.0000071552
       -0.0000045973  -0.0000017829   0.0000253827   0.0000199036   0.0000010879
        0.0000076296   0.0000027411  -0.0000010805   0.0000209750   0.0000291234
       -0.0000106667   0.0000069672   0.0000039194   0.0000046740  -0.0000000826
        0.0000016623   0.0000086137  -0.0000006714   0.0000020060   0.0000036638
       -0.0000083710  -0.0000022858   0.0000087336  -0.0000259845  -0.0000042920
        0.0000096175  -0.0000081113   0.0000090543   0.0000137643  -0.0000065966
        0.0000055539  -0.0000069184  -0.0000131183   0.0000040686   0.0000045059
        0.0000012500   0.0000122806   0.0000067103   0.0000074427   0.0000079580
       -0.0000016400   0.0000049856  -0.0000055812  -0.0000039794   0.0000077530
       -0.0000010271  -0.0000023489   0.0000006102  -0.0000068407  -0.0000058206
       -0.0000095732  -0.0000041162   0.0000031416  -0.0000095988   0.0000114411
        0.0000019782  -0.0000040436   0.0000044925   0.0000074370  -0.0000141810
        0.0000199804   0.0000035064  -0.0000017759   0.0000077373   0.0000098784
       -0.0000041461  -0.0000016286  -0.0000044816   0.0000060769  -0.0000054371
       -0.0000050567  -0.0000103185   0.0000035591   0.0000123820   0.0000130086
       -0.0000037566   0.0000014144   0.0000066822   0.0000038662  -0.0000002095
        0.0000026330  -0.0000095891   0.0000000288  -0.0000013650  -0.0000051362
       -0.0000093369   0.0000062641   0.0000197119  -0.0000032350   0.0000082538
       -0.0000048598   0.0000067828   0.0000084272  -0.0000108857   0.0000239882
        0.0545589186  -0.1507659832  -0.0006546598  -0.0140742456   0.4852601655
        0.0110693653  -0.0239848335  -0.0689162915  -0.0047781449  -0.0206379144
       -0.0997270460   0.0541270744  -0.0027291940  -0.0936717861  -0.0549894977
       -0.0012052757   0.0056284071   0.0023378081   0.0037389670   0.0013111901
        0.0003862758   0.0001879601  -0.0002925499   0.0002307082   0.0047294704
       -0.0017634861  -0.0011766743   0.0008472207  -0.0184516375  -0.0215859101
        0.0000580931  -0.0005264199  -0.0008633430   0.0000258486   0.0000683895
       -0.0000079750  -0.0000140955   0.0000409920   0.0001119828   0.0000332218
        0.0000194678  -0.0000539543  -0.0000931730   0.0000465732  -0.0000084439
        0.0000615606  -0.0000193577   0.0000372633   0.0000079137   0.0000142051
        0.0000022938   0.0000497785  -0.0001188386   0.0001315522  -0.0000236012
        0.0001984661  -0.0002694863  -0.0000271563  -0.0000838463   0.0001265787
       -0.0000099935  -0.0000219151   0.0000106948  -0.0000065750   0.0000423797
       -0.0000078375   0.0000091299  -0.0000855655   0.0000218729   0.0000236444
        0.0000644128  -0.0000134177   0.0000004635   0.0000063889  -0.0000046113
        0.0001020371   0.0000840954  -0.0000200793  -0.0002100819  -0.0000787712
        0.0000273745   0.0000814557  -0.0000052082  -0.0000024369   0.0000175398
       -0.0000137326   0.0000162131  -0.0003162469   0.0000072687   0.0000368723
        0.0000666515   0.0000325629   0.0000946049  -0.0000783681  -0.0000400586
        0.0000788519   0.0001699495   0.0000258261   0.0000350945  -0.0001481497
       -0.0000259196  -0.0000506409   0.0001257177   0.0000496276  -0.0001105146
        0.0000454685   0.0000139512  -0.0000559843  -0.0000633076  -0.0000222936
        0.0000492866   0.0000691498   0.0000122809  -0.0000094851  -0.0000142646
        0.0000043758  -0.0000573833  -0.0000016393  -0.0000108864   0.0000447360
       -0.0000027370   0.0000194396  -0.0000600590  -0.0001267382  -0.0000438438
        0.0000622660  -0.0000072650   0.0000091058  -0.0000071682  -0.0000037746
       -0.0000181330   0.0000079515  -0.0000039540   0.0000072256   0.0000034597
        0.0000094880  -0.0000054520  -0.0000009956   0.0000007450  -0.0000047564
       -0.0000014223  -0.0000143455   0.0000110529   0.0000001095   0.0000058582
       -0.0000115089  -0.0000011428   0.0000070761   0.0000112140   0.0000050940
       -0.0000032058   0.0000001372  -0.0000005785   0.0000051542   0.0000118979
        0.0000057893  -0.0000182671  -0.0000175070  -0.0000085125   0.0000207354
        0.0000289494   0.0000061374  -0.0000217362  -0.0000322584  -0.0000081295
        0.0000109758   0.0000213353   0.0000072759  -0.0000148232  -0.0000119034
       -0.0000028260  -0.0000024121   0.0000028419  -0.0000010870  -0.0000113455
       -0.0000127423  -0.0000031737   0.0000157483  -0.0000025786  -0.0000066931
        0.0000167960  -0.0000145776  -0.0000188202  -0.0000199318  -0.0000005735
       -0.0001124231  -0.0000591170  -0.0000518202  -0.0000726318  -0.0000511783
        0.0000779871  -0.0000057713   0.0000209126  -0.0000077186   0.0000033977
        0.0000078381   0.0000016050   0.0000111992  -0.0000156400  -0.0000053726
        0.0000013835  -0.0000035366   0.0000102462   0.0000008646   0.0000904802
       -0.0000837116  -0.0000087612   0.0000154380   0.0000718799   0.0000915767
       -0.0004063381  -0.0004912967   0.0001650180   0.0088163963  -0.0193649946
        0.0031271573  -0.0000214514   0.0035202373   0.0004324638   0.0084516229
       -0.0169652850  -0.0042029603  -0.0162768969  -0.0053879387  -0.0046291985
        0.0233515134   0.0037848969   0.0032655880  -0.0169988753  -0.0057165224
       -0.0004709756   0.0042244267   0.0066786430  -0.0094012815  -0.0059022950
       -0.0180359026   0.0193317616  -0.0048223514  -0.0052779571   0.0064695941
       -0.0003572116  -0.0009544167   0.0010064706   0.0001310801   0.0001261792
        0.0006800979  -0.0014343991  -0.0000800484   0.0001755654   0.0000209009
       -0.0000605420  -0.0000559874  -0.0000172932  -0.0000264448  -0.0000012321
        0.0000016689  -0.0000171872   0.0000169698  -0.0000000498   0.0000036232
       -0.0000175452  -0.0000012831   0.0000105581  -0.0000118434   0.0000116317
        0.0000167544  -0.0000058944   0.0000113602  -0.0000035928  -0.0000006904
        0.0000116164   0.0000041900  -0.0000041437  -0.0000026641   0.0000008617
        0.0000022956  -0.0000056182  -0.0000034888  -0.0000023259  -0.0000281851
        0.0000017731  -0.0000041929   0.0000276545  -0.0000272090  -0.0000298070
        0.0000106929   0.0000117741  -0.0000080622   0.0000090938  -0.0000007556
        0.0000289763   0.0000115992   0.0000046635   0.0000084437  -0.0000016740
        0.0000007631   0.0000147344  -0.0000089993   0.0000001047   0.0000039066
       -0.0000079104   0.0000058652  -0.0000006174  -0.0000032594   0.0000094315
        0.0000150275  -0.0000030480   0.0000021913  -0.0000048816  -0.0000055264
        0.0000017541  -0.0000069893   0.0000046505  -0.0000039057   0.0000040610
       -0.0000039369  -0.0000020585   0.0000041211  -0.0000055118   0.0000051866
       -0.0000036418  -0.0000027943   0.0000036458  -0.0000023686  -0.0000035364
        0.0000031001  -0.0000016172   0.0000006911   0.0000066187  -0.0000035671
        0.0000044194   0.0000035797   0.0000056604   0.0000092685   0.0000009455
        0.0000008700  -0.0000012296  -0.0000064072   0.0000074373  -0.0000086118
       -0.0000024654  -0.0000099435  -0.0000024489  -0.0000081496  -0.0000066341