$hessian                                                                        
        0.4823448489  -0.0235965585  -0.0368016038  -0.1292491911  -0.0365553769
       -0.0429530591   0.0000244651  -0.0022795300  -0.0004786684  -0.0304448494
       -0.0104683183  -0.0096112075  -0.0044584351   0.0018080716  -0.0110305433
        0.0007458948  -0.0007291516   0.0000871025   0.0001686549   0.0004821002
       -0.0004617440  -0.0000421632  -0.0002440619   0.0005736700  -0.0002829450
        0.0006852910  -0.0003267009  -0.0012748446  -0.0005475298   0.0011297131
        0.0000133838  -0.0000635464  -0.0000038954  -0.0000949085  -0.0000054392
        0.0000949213  -0.0000608424   0.0001190764   0.0000090757  -0.0000815831
       -0.0001090794  -0.0000379960   0.0000861293   0.0001066278   0.0000910903
       -0.0000799136   0.0000007216   0.0000350580  -0.0000548980   0.0001036836
        0.0000034893   0.0000239244  -0.0001093524  -0.0000797870  -0.0000292012
        0.0001754613   0.0001086694   0.0000654571  -0.0001691512  -0.0000953478
        0.0001252644   0.0000070948  -0.0000443905   0.0000390363  -0.0001409688
        0.0000035464  -0.0000075156  -0.0000230257  -0.0000507447   0.0000164219
        0.0000112162   0.0000187240  -0.0000227949  -0.0000124395   0.0000242886
        0.0000545238   0.0000865643   0.0000728514  -0.0001750458  -0.0001918741
       -0.0001146877   0.0001160875   0.0000827122   0.0000269477   0.0000103301
        0.0000638403   0.0000180372  -0.0000118419   0.0000163340  -0.0000148093
       -0.0000117176  -0.0000435629  -0.0001121810   0.0000663801   0.0000785857
       -0.0000237143  -0.0000771598  -0.0000748171   0.0000130445   0.0000624812
        0.0000782370   0.0000111284  -0.0000654222  -0.0000485845  -0.0000098972
        0.0000042930  -0.0000856722   0.0000186152  -0.0000256592   0.0000882476
       -0.0000253996  -0.0000227469  -0.0000041800  -0.0000045943   0.0000006408
        0.0000393886  -0.0000081091   0.0000081475  -0.0000368163   0.0000172888
        0.0000060449   0.0001053876  -0.0000286003   0.0000553470  -0.0000217025
        0.0000397080   0.0000251922  -0.0000398489  -0.0000132014   0.0000066414
        0.0000044070   0.0000166135   0.0000127079  -0.0000048384   0.0000039088
        0.0000244541   0.0000062933   0.0000142138  -0.0000039544  -0.0000341657
       -0.0000251570  -0.0000325455   0.0000033022   0.0000116786   0.0000179549
       -0.0000097845  -0.0000085169   0.0000022325   0.0000181881   0.0000054577
        0.0000186378  -0.0000049463  -0.0000066917   0.0000209817   0.0000235880
        0.0000024841  -0.0000303807  -0.0000262634   0.0000014575   0.0000319206
        0.0000127653  -0.0000095197  -0.0000180586  -0.0000375895  -0.0000099899
        0.0000432612   0.0000222422  -0.0000093443  -0.0000164492  -0.0000082845
       -0.0000018091  -0.0000019328  -0.0000227435  -0.0000116151   0.0000086097
       -0.0000092598  -0.0000069731   0.0000124906   0.0000277213   0.0000057901
        0.0000092177   0.0000024309  -0.0000088614  -0.0002988462   0.0001046488
        0.0000491571  -0.0000146111   0.0000401990  -0.0000797627  -0.0001374501
        0.0000112964   0.0000948366   0.0000281082  -0.0000071832  -0.0000169671
       -0.0000009709  -0.0000020536  -0.0000015154  -0.0000141598   0.0000017931
       -0.0000169418  -0.0000088447   0.0000108829  -0.0000078228   0.0001819658
       -0.0000044756  -0.0001271893   0.0000706416  -0.0001364400   0.0001930893
        0.0001528662   0.0001166368  -0.0004807451  -0.2227121341   0.0264773391
        0.1023086790  -0.0491525406   0.0375764624   0.0062669880  -0.0430453586
        0.0064123160  -0.0102053071   0.0002047172   0.0003847859   0.0002195626
        0.0005235013   0.0007962470   0.0002552042   0.0007594211   0.0007592366
        0.0003982471   0.0005574074   0.0000290049  -0.0012560069  -0.0055958176
       -0.0000654178   0.0023572171   0.0006288925  -0.0007456809  -0.0008289567
        0.0000710076  -0.0001780803  -0.0000382885   0.0000548105  -0.0000015274
       -0.0000208956   0.0000795769  -0.0000987190   0.0007971617   0.0000392672
        0.0000140891  -0.0000037474   0.0000284824  -0.0000381011  -0.0000160275
        0.0000365151  -0.0000046995  -0.0000216116   0.0000262362  -0.0000003885
        0.0000225983  -0.0000264701   0.0000255002  -0.0000141758   0.0000048827
        0.0000122110  -0.0000007560   0.0000109847   0.0000187504   0.0000035207
        0.0000052198   0.0000177400   0.0000093249  -0.0000109143   0.0000058588
       -0.0000069004  -0.0000151452  -0.0000028277   0.0000166391  -0.0000087733
        0.0000073217  -0.0000103667  -0.0000086736  -0.0000089228   0.0000526383
       -0.0000033771  -0.0000176868   0.0000079717   0.0000092139  -0.0000248682
        0.0000011908   0.0000106015  -0.0000099379   0.0000059134   0.0000013832
       -0.0000147309   0.0000044649  -0.0000038431  -0.0000117451   0.0000017924
       -0.0000067403  -0.0000046105  -0.0000019966   0.0000005545   0.0000022713
       -0.0000032727  -0.0000035786  -0.0000009135  -0.0000044321  -0.0000069540
        0.0000027388   0.0000027274  -0.0000021722  -0.0000014986  -0.0000005686
       -0.0000077041  -0.0000020582   0.0000027496  -0.0000069730   0.0000029082
        0.0000039537  -0.0000025239   0.0000076690   0.0000058086  -0.0000064145
        0.0000078608   0.0000082060   0.0000003221   0.0000128697   0.0000092184
       -0.0000101267   0.0000125785   0.0000112425  -0.0000231961   0.0000064862
        0.0000121064  -0.0000054243   0.0000073651   0.0000100021   0.0000074824
        0.0000017188  -0.0000061854   0.0000025655   0.0000017744  -0.0000029456
        0.0000047942   0.0000001568   0.0000056857   0.0000003404  -0.0000037679
        0.0000021238   0.0000072102   0.0000045997  -0.0000005691   0.0000010907
       -0.0000010761   0.0000032235   0.0000005744  -0.0000008517   0.0000012886
        0.0000000230   0.0000024386   0.0000026293   0.0000030973   0.0000042108
        0.0000039336   0.0000032985  -0.0000031490  -0.0000052923   0.0000065762
       -0.0000016586  -0.0000020963   0.0000210465  -0.0000080128   0.0000010333
       -0.0235965585   0.5085713909  -0.0185505617  -0.0330966521  -0.0774024735
       -0.0217543876  -0.0211687116  -0.0191283773  -0.0164868920  -0.0008794301
        0.0003571413   0.0006426596   0.0080778980   0.0044009506   0.0060293836
        0.0000550754  -0.0011054670   0.0016486400   0.0001622051  -0.0006666657
       -0.0002681120   0.0001368424  -0.0002439564   0.0003063904  -0.0003682739
        0.0000135954  -0.0005292280   0.0002056853   0.0001310822   0.0010293970
       -0.0000510248   0.0000134412   0.0000266905  -0.0000635060  -0.0000587225
        0.0000413055  -0.0000808358   0.0001079420   0.0000277212  -0.0000488894
       -0.0001040328  -0.0000575560   0.0000250695   0.0000757141   0.0001155488
       -0.0000335262   0.0000104339  -0.0000282479  -0.0000497872   0.0001062526
       -0.0000190537   0.0000956717  -0.0001185899  -0.0001477272  -0.0000891893
        0.0002328837   0.0001861480   0.0000585825  -0.0001905430  -0.0000952842
        0.0000809777  -0.0000046156  -0.0000240378   0.0000529648  -0.0001379945
       -0.0000055366  -0.0000319262   0.0000032225  -0.0000196013   0.0000122377
       -0.0000137453  -0.0000090395  -0.0000333819  -0.0000173995   0.0000082595
        0.0000703839   0.0000540850   0.0000365357  -0.0001196254  -0.0001176901
       -0.0000587068   0.0000723094   0.0000737713   0.0000373398   0.0000226218
        0.0000983623   0.0000332969   0.0000914554   0.0000956464   0.0000023485
       -0.0000929905  -0.0000523345  -0.0000378142   0.0000933588   0.0000832484
        0.0000184578  -0.0000865908  -0.0000807699  -0.0000054382   0.0000983324
        0.0000670933   0.0000298690  -0.0000787702  -0.0000983922  -0.0000377654
       -0.0000157625  -0.0000817598   0.0000119957   0.0000022836   0.0000705940
       -0.0000201076  -0.0000316006  -0.0000131336  -0.0000060696   0.0000190422
        0.0000034173   0.0000054084  -0.0000002438  -0.0000134251   0.0000032958
        0.0000116951   0.0000238413  -0.0000030708   0.0000637961   0.0000447467
        0.0000265718   0.0000246999  -0.0000244691  -0.0000129708   0.0000066906
        0.0000024451   0.0000124585   0.0000168161  -0.0000099190   0.0000075285
        0.0000262486   0.0000039840   0.0000060026   0.0000075167  -0.0000316936
       -0.0000233717  -0.0000030480   0.0000084005  -0.0000026465  -0.0000109292
        0.0000012223   0.0000105507   0.0000046001   0.0000234374   0.0000094871
        0.0000215984  -0.0000016181  -0.0000111026   0.0000351505   0.0000369451
        0.0000027203  -0.0000669897  -0.0000321192   0.0000110423   0.0000578194
        0.0000026178  -0.0000241595  -0.0000367826  -0.0000484738  -0.0000082761
        0.0000638909   0.0000237338  -0.0000202468  -0.0000490372  -0.0000035811
        0.0000149615  -0.0000341464  -0.0000189027   0.0000011544  -0.0000306048
        0.0000038069   0.0000110134   0.0000128290   0.0000168815   0.0000005660
       -0.0000101722  -0.0000103854  -0.0000045250  -0.0002283841   0.0000438283
        0.0000924857  -0.0000229145   0.0000458863  -0.0000922074  -0.0000975078
       -0.0000049726   0.0000950674   0.0000267427  -0.0000048878  -0.0000210432
        0.0000023124  -0.0000038355  -0.0000025019  -0.0000078536  -0.0000061061
       -0.0000136068  -0.0000024685  -0.0000008249  -0.0000024501   0.0001527494
       -0.0000139195  -0.0001084446   0.0000529675  -0.0001138760   0.0001609331
        0.0001718966   0.0002126115  -0.0003267937   0.0268422080  -0.0474250738
       -0.0145229794   0.0372732643  -0.2709350583  -0.0318546817   0.0067426503
       -0.0937199658   0.0971773089  -0.0006851677   0.0009572350  -0.0008038350
       -0.0002744042  -0.0064225479  -0.0019304457  -0.0008250788   0.0009460463
        0.0001615408  -0.0002425688   0.0000415093  -0.0002988824   0.0005034564
        0.0004553602  -0.0001796085   0.0008497696   0.0007055496   0.0000957574
        0.0000493724   0.0002193110   0.0000340189   0.0000663344  -0.0000629078
        0.0001365653   0.0000647776   0.0001241800   0.0000451624   0.0000266113
       -0.0000243079  -0.0000026910   0.0000102602  -0.0000636550   0.0000427092
        0.0000382548   0.0000029610  -0.0000054695   0.0000194355  -0.0000040373
        0.0000259519  -0.0000246226   0.0000245898  -0.0000210198  -0.0000041254
        0.0000163112  -0.0000087114   0.0000086431   0.0000122991   0.0000011125
        0.0000057289   0.0000114998   0.0000062877  -0.0000043501   0.0000016050
       -0.0000065211  -0.0000037804  -0.0000019714   0.0000022904  -0.0000117429
        0.0000105094  -0.0000166413   0.0000021294  -0.0000043680   0.0000028843
       -0.0000039870   0.0000035867   0.0000007933   0.0000039955  -0.0000039698
       -0.0000006159  -0.0000014872  -0.0000019651   0.0000037473  -0.0000028923
       -0.0000108640   0.0000014976  -0.0000061775  -0.0000056577   0.0000013883
       -0.0000079415   0.0000006496   0.0000000572  -0.0000009553   0.0000044196
       -0.0000014339  -0.0000051933   0.0000005835  -0.0000013645  -0.0000051370
        0.0000031243   0.0000049999   0.0000009322   0.0000010398  -0.0000025452
       -0.0000040007  -0.0000018920   0.0000019780  -0.0000043904   0.0000036636
        0.0000033699   0.0000000265   0.0000041594   0.0000027585   0.0000031798
        0.0000056074   0.0000044422   0.0000053588   0.0000064001   0.0000054103
        0.0000150396   0.0000047787  -0.0000014767   0.0000043886  -0.0000022467
        0.0000007523  -0.0000029443   0.0000062142   0.0000028584  -0.0000026656
        0.0000094735   0.0000028944   0.0000013489   0.0000016590   0.0000007931
        0.0000016378   0.0000011663   0.0000045262  -0.0000008702   0.0000002530
       -0.0000001281   0.0000024590   0.0000059035   0.0000007672  -0.0000012182
        0.0000008122   0.0000022729   0.0000016468   0.0000018768   0.0000051275
       -0.0000006769   0.0000055510   0.0000007736   0.0000010026   0.0000062372
        0.0000022440  -0.0000003939   0.0000004072  -0.0000003502   0.0000022995
       -0.0000038173   0.0000074787   0.0000056584   0.0000027876   0.0000022307
       -0.0368016038  -0.0185505617   0.4972475935  -0.0479457900  -0.0270520569
       -0.0936860729  -0.0059326997  -0.0070271141  -0.0041781509   0.0093833345
        0.0038578470   0.0045630941  -0.0207763802  -0.0040562735  -0.0222126185
        0.0005760379  -0.0001022055  -0.0023311086  -0.0000985676   0.0015826837
       -0.0001842778  -0.0004233452   0.0003870848  -0.0002516562   0.0001303086
        0.0003031598   0.0009491626  -0.0001423586  -0.0001504098  -0.0008900407
        0.0000238257  -0.0000926528   0.0000327717   0.0000693636  -0.0000151767
       -0.0000720102  -0.0000285753  -0.0000640633   0.0000256065   0.0001063019
        0.0001138517  -0.0000007982  -0.0001032261  -0.0000998247   0.0000029853
        0.0000598699   0.0000484470   0.0000109427   0.0000189849  -0.0000144652
       -0.0000073681   0.0000364381   0.0000146969  -0.0000359956  -0.0000399060
        0.0000219828   0.0000591258  -0.0000171939   0.0000168834   0.0000142951
       -0.0000833263  -0.0000339251   0.0000311140  -0.0000053462   0.0000810456
       -0.0000053963  -0.0000010035  -0.0000077928  -0.0000047316   0.0000089701
        0.0000259071   0.0000214252  -0.0000058232   0.0000089457   0.0000058246
       -0.0000461823   0.0000253378   0.0000318928  -0.0000034602   0.0000079529
       -0.0000160703   0.0000137191  -0.0000381010  -0.0000225415  -0.0000239283
       -0.0000405481   0.0000142972  -0.0001258578   0.0000023966  -0.0000199755
       -0.0000517060  -0.0000550428   0.0000782921  -0.0000490981  -0.0000048916
        0.0000147913   0.0000663862   0.0000067981  -0.0000069694   0.0000122560
        0.0000628517  -0.0000072460  -0.0000297491  -0.0000240389   0.0000042610
       -0.0000247299  -0.0000739832   0.0000133056   0.0000298992   0.0000390562
        0.0000003928  -0.0000297018  -0.0000387790   0.0000003795  -0.0000084475
        0.0000101963  -0.0000072496  -0.0000376330  -0.0000445488   0.0000016086
        0.0000449680   0.0000338928   0.0000034636  -0.0000083482  -0.0000003265
        0.0000089006  -0.0000291396   0.0000220042   0.0000010848   0.0000037654
       -0.0000178482   0.0000079357  -0.0000251635   0.0000166189  -0.0000145800
       -0.0000287603  -0.0000224427   0.0000144087  -0.0000485765   0.0000879076
        0.0000422389   0.0000173340   0.0000488729   0.0000347008   0.0001123779
        0.0000045248  -0.0000575829  -0.0000306576  -0.0000559391  -0.0000098313
       -0.0000305374   0.0000096555   0.0000126275  -0.0000789322  -0.0001053158
       -0.0000150177   0.0001759106   0.0000678372  -0.0000384452  -0.0001606311
       -0.0000029449   0.0000709896   0.0000959170   0.0001444467   0.0000302979
       -0.0001721374  -0.0001044481   0.0000255617   0.0001086163   0.0000015687
       -0.0000396474   0.0000118249   0.0000250607   0.0000099128   0.0000556873
       -0.0000071180  -0.0000207970  -0.0000905912  -0.0001300131  -0.0000168121
        0.0000350297   0.0000007069   0.0000108024   0.0002445310  -0.0000267121
       -0.0001123935   0.0000196444  -0.0000512772   0.0000973245   0.0001018365
        0.0000112252  -0.0000972157  -0.0000357657  -0.0000075257   0.0000252295
        0.0000019119  -0.0000043606   0.0000012164   0.0000040847  -0.0000086484
        0.0000101097   0.0000024741  -0.0000096784   0.0000051355  -0.0001506033
        0.0000221248   0.0001037456  -0.0000439986   0.0001003816  -0.0001720723
       -0.0002559667  -0.0002518347   0.0002723700   0.1023636572  -0.0143053956
       -0.1002064830   0.0060642009  -0.0316950663  -0.0481997442  -0.0104221483
        0.0968345095  -0.2302957751   0.0003719821   0.0007657146   0.0006179591
        0.0001710577  -0.0013585963   0.0001881481  -0.0005528045   0.0002944233
        0.0001391350   0.0013037697   0.0001220513   0.0008316289   0.0033555703
        0.0002404233  -0.0008070357   0.0003932715   0.0004261080   0.0003467293
       -0.0000794719  -0.0002267372  -0.0002481198  -0.0000215492   0.0001703188
       -0.0001668837  -0.0007510961  -0.0001677983  -0.0013509729   0.0000183890
        0.0000216702  -0.0000023252  -0.0000029327  -0.0000067979  -0.0000198271
        0.0000055519  -0.0000041051  -0.0000080510  -0.0000082571  -0.0000114249
       -0.0000079669   0.0000107876  -0.0000079300  -0.0000054018   0.0000121119
       -0.0000107835  -0.0000087678  -0.0000036905  -0.0000083477  -0.0000106231
        0.0000082359  -0.0000098249  -0.0000117159   0.0000161975  -0.0000018306
       -0.0000068361   0.0000160100  -0.0000018589  -0.0000047394   0.0000210787
       -0.0000115766  -0.0000048592  -0.0000044345   0.0000339627  -0.0000343869
        0.0000565085  -0.0000027765  -0.0000051453   0.0000028820   0.0000166724
        0.0000021278  -0.0000075049   0.0000034366  -0.0000048769   0.0000011138
        0.0000196753  -0.0000042425   0.0000105974   0.0000128220  -0.0000016853
        0.0000196560   0.0000027119   0.0000049984   0.0000073280   0.0000103157
       -0.0000014741   0.0000088418   0.0000060354   0.0000045196   0.0000082186
        0.0000071917  -0.0000114665   0.0000010705   0.0000009376   0.0000053666
        0.0000049081   0.0000022057  -0.0000024473   0.0000038798  -0.0000027968
       -0.0000000415   0.0000020949  -0.0000016267  -0.0000033019   0.0000032217
       -0.0000026276  -0.0000070355   0.0000022886  -0.0000033595  -0.0000065266
        0.0000075675  -0.0000107433  -0.0000102048   0.0000172386   0.0000069072
       -0.0000133391   0.0000104692  -0.0000015848   0.0000017264   0.0000051717
       -0.0000012674  -0.0000137721  -0.0000012239   0.0000034522  -0.0000053320
       -0.0000015224   0.0000010002  -0.0000020160  -0.0000003112   0.0000044633
       -0.0000013235   0.0000029631   0.0000031437  -0.0000028699   0.0000012899
        0.0000016864  -0.0000021247   0.0000013472   0.0000051188  -0.0000010344
       -0.0000012428   0.0000015246  -0.0000015016   0.0000009390   0.0000023129
       -0.0000004679   0.0000015329   0.0000011255  -0.0000037927  -0.0000029897
        0.0000131166  -0.0000123799   0.0000020183  -0.0000012457   0.0000000325
       -0.1292491911  -0.0330966521  -0.0479457900   0.4752669491  -0.0000452418
       -0.0171500735  -0.0643921005   0.0182268191   0.0041818925  -0.1482068238
        0.0088709933   0.0558809753  -0.0632518131   0.0042125239  -0.0011692393
       -0.0018977002   0.0115228820  -0.0189867961  -0.0028875658   0.0037562750
        0.0006847732  -0.0007422906   0.0007734331  -0.0009345442  -0.0018955318
        0.0011695037   0.0043868260   0.0014624247  -0.0099863972   0.0174982913
       -0.0002458182  -0.0003972382   0.0010011893   0.0002459107  -0.0001918321
       -0.0002609832   0.0000289761  -0.0000211045  -0.0000018859   0.0001739795
        0.0000556895  -0.0000253709  -0.0001195181  -0.0000711827  -0.0000366572
        0.0000495738  -0.0000023674  -0.0000634008   0.0000460661  -0.0000517596
       -0.0000063029   0.0000332781   0.0000145868  -0.0000391893  -0.0000263337
        0.0000474407   0.0000846313  -0.0000670066  -0.0000161555   0.0000123331
       -0.0001749133  -0.0000380476   0.0001084977  -0.0000191798   0.0001707964
        0.0000052479   0.0000003093  -0.0000277745  -0.0000633907   0.0000230442
        0.0000589251   0.0000484230  -0.0000136325   0.0000113408   0.0000382747
       -0.0000250945   0.0001084289   0.0001116226  -0.0001416417  -0.0001635293
       -0.0001353631   0.0001290099   0.0000280940  -0.0000051004  -0.0001455236
       -0.0000292386  -0.0000702789   0.0003508210   0.0003165343   0.0002270969
       -0.0001672420   0.0000464970  -0.0001104424   0.0000618639   0.0001891049
       -0.0000184276  -0.0003468423  -0.0000971792  -0.0000789853   0.0002994122
        0.0000564274   0.0000922894  -0.0001765084  -0.0003508032  -0.0000742679
       -0.0000431525  -0.0001830474   0.0000454992   0.0000849490   0.0001998396
       -0.0000240886  -0.0001613229  -0.0000965004  -0.0000339333   0.0000647309
       -0.0000891805   0.0000404601  -0.0000307328   0.0000838542  -0.0000270085
        0.0000203343  -0.0000402164  -0.0000050953   0.0001680155   0.0002001517
        0.0000566274   0.0000900930  -0.0000496720   0.0000356891  -0.0000260506
       -0.0000433104  -0.0000152261   0.0000072805  -0.0000194573  -0.0000288216
       -0.0000283099  -0.0000014558  -0.0000054682   0.0000104615  -0.0000043421
        0.0000219909   0.0000037921  -0.0000115384  -0.0000048446  -0.0000101861
        0.0000046093   0.0000080652   0.0000005533  -0.0000264353  -0.0000133655
       -0.0000201581  -0.0000102888   0.0000024306  -0.0000294145  -0.0000225549
        0.0000023733   0.0000444796   0.0000314658  -0.0000007770  -0.0000420925
       -0.0000074226   0.0000154179   0.0000278692   0.0000262488   0.0000034625
       -0.0000455780  -0.0000032485   0.0000210921   0.0000454172   0.0000122033
       -0.0000110030   0.0000267716   0.0000072512  -0.0000073158   0.0000313812
       -0.0000235520  -0.0000190846   0.0000057044   0.0000129376   0.0000023328
        0.0000330263   0.0000423679   0.0000079738   0.0003961546  -0.0001567701
        0.0000092105   0.0001030623  -0.0001742771   0.0001523659   0.0002575399
       -0.0000047688  -0.0002133526  -0.0000575296   0.0000159416   0.0000233015
       -0.0000242251   0.0000015961   0.0000112255   0.0000127058  -0.0000054454
        0.0000291461   0.0000015452  -0.0000361367   0.0000141934  -0.0003702431
        0.0000523812   0.0002774083  -0.0002089128   0.0002971230  -0.0003846185
       -0.0005102414  -0.0006896263   0.0006247258  -0.0243485302  -0.0096333242
       -0.0114711744   0.0017926984  -0.0007663734   0.0006858773  -0.0042192822
       -0.0006232409  -0.0048114441  -0.0004664488   0.0031015990  -0.0001193786
        0.0018015506  -0.0218583985  -0.0042272289  -0.0068392072   0.0241572148
        0.0056017166   0.0005569441  -0.0011289256   0.0016708529  -0.0244736522
       -0.0000019501   0.0114433956  -0.0069537632   0.0035292523   0.0047202862
       -0.0002418804  -0.0007023421  -0.0003874019  -0.0002482449   0.0005676893
       -0.0009965075  -0.0002254086  -0.0009023349  -0.0001295150  -0.0000044954
       -0.0000492214   0.0000095392   0.0000065653   0.0000133135   0.0000199869
       -0.0000011191  -0.0000068712   0.0000074717  -0.0000155861   0.0000036307
       -0.0000120758   0.0000227063   0.0000023040   0.0000169616  -0.0000019705
        0.0000001835   0.0000122119  -0.0000064829  -0.0000018633  -0.0000046605
        0.0000101224  -0.0000010584  -0.0000061313   0.0000054825   0.0000004562
       -0.0000079115  -0.0000035861  -0.0000059345   0.0000115852   0.0000414890
       -0.0000423963   0.0000558120  -0.0000013802   0.0000012637   0.0000336316
        0.0000015602  -0.0000112205  -0.0000050332   0.0000038057   0.0000261854
        0.0000107707  -0.0000040026   0.0000015233   0.0000031003  -0.0000012741
        0.0000071714   0.0000019819   0.0000064325   0.0000033945   0.0000005327
        0.0000026702  -0.0000080093   0.0000022732  -0.0000003093   0.0000090761
       -0.0000056694   0.0000047708   0.0000032687   0.0000040446   0.0000001069
        0.0000007793  -0.0000042744  -0.0000045021   0.0000026809   0.0000065242
        0.0000053466   0.0000055942  -0.0000005190   0.0000057369  -0.0000018434
       -0.0000024843  -0.0000016180  -0.0000028861  -0.0000027822   0.0000004085
       -0.0000047199  -0.0000057706  -0.0000058439  -0.0000032008  -0.0000009203
       -0.0000159104   0.0000059754   0.0000081849  -0.0000152263   0.0000073217
        0.0000065682  -0.0000002666  -0.0000011342   0.0000109043  -0.0000181254
       -0.0000044261   0.0000231258  -0.0000037508  -0.0000064712   0.0000161261
        0.0000037744   0.0000003729  -0.0000075419   0.0000061650   0.0000046823
       -0.0000053869  -0.0000119177  -0.0000127168   0.0000102765   0.0000078528
        0.0000084915  -0.0000015007   0.0000076142   0.0000030873  -0.0000010501
        0.0000024054  -0.0000011688  -0.0000065061   0.0000045136   0.0000014636
       -0.0000035100  -0.0000053807   0.0000057682   0.0000214465   0.0000114945
       -0.0000053475   0.0000049403   0.0000198852  -0.0000248807   0.0000093870
       -0.0365553769  -0.0774024735  -0.0270520569  -0.0000452418   0.4576206023
       -0.0053041934   0.0184884871  -0.1716357560  -0.0152344910   0.0098228159
       -0.0642437180  -0.0059446703   0.0064024685  -0.0833466544   0.0490722787
        0.0052307698  -0.0075314516   0.0141157657   0.0039081180   0.0039527066
        0.0020463179   0.0002947133  -0.0005907356   0.0007157556   0.0015669000
        0.0052923948   0.0009685148  -0.0044236787  -0.0009751157   0.0047906494
        0.0003780661   0.0000560064  -0.0001785603   0.0000904776   0.0000958896
       -0.0000168918   0.0000390016  -0.0000609858  -0.0000168977   0.0000894655
        0.0000116466  -0.0000403772  -0.0000878332  -0.0000768327   0.0000669541
        0.0000781595   0.0000326396   0.0000268097  -0.0000416653  -0.0000177825
       -0.0000035916   0.0000466072  -0.0000095810  -0.0000507296  -0.0000819409
        0.0001333076   0.0001427718   0.0000215294  -0.0000479453  -0.0000438852
       -0.0000558360  -0.0000174100  -0.0000075426   0.0000217406  -0.0000354295
       -0.0000142978  -0.0000111376   0.0000113199   0.0000229296  -0.0000036401
       -0.0000215752  -0.0000138894  -0.0000043924  -0.0000030184  -0.0000104865
        0.0000040032  -0.0000287636  -0.0000278275   0.0000188940   0.0000430080
        0.0000337878  -0.0000105409  -0.0000137038  -0.0000113021  -0.0000320828
       -0.0000218578   0.0000792005  -0.0004035799  -0.0001851864  -0.0001007513
        0.0001171049  -0.0001046049   0.0000452968  -0.0000165875  -0.0000610890
       -0.0000162521   0.0001723484  -0.0000095481   0.0000721080  -0.0001235201
        0.0000743875  -0.0000700518   0.0000719191   0.0001838972   0.0000421304
        0.0000038029  -0.0000206321  -0.0000065745  -0.0000299980  -0.0000091195
       -0.0000115314   0.0000618501   0.0000283560   0.0000168257  -0.0000441718
        0.0000944403  -0.0000398965  -0.0000082564  -0.0001249279   0.0000255272
        0.0000204937   0.0001329677  -0.0000153639  -0.0001046718  -0.0001341064
       -0.0000267106  -0.0000093589  -0.0000080724  -0.0000013774   0.0000177308
        0.0000153008   0.0000098354  -0.0000034098   0.0000037073   0.0000018065
        0.0000091752  -0.0000001857   0.0000062272  -0.0000050582  -0.0000239829
       -0.0000295664  -0.0000048394   0.0000288180   0.0000167550   0.0000225022
        0.0000031481  -0.0000066580  -0.0000070566  -0.0000112739  -0.0000001556
       -0.0000010830  -0.0000003750  -0.0000024953  -0.0000056750  -0.0000082413
       -0.0000014223   0.0000073794   0.0000060001  -0.0000018866  -0.0000100788
        0.0000053248   0.0000082983   0.0000026583   0.0000123258   0.0000058870
       -0.0000156678  -0.0000138632  -0.0000005937   0.0000009707  -0.0000026374
       -0.0000011405  -0.0000097844  -0.0000059243   0.0000001136   0.0000055958
       -0.0000107837  -0.0000078300  -0.0000192934  -0.0000177401  -0.0000059520
        0.0000039074  -0.0000111000   0.0000046680  -0.0002885372   0.0001184475
        0.0000360264  -0.0000751820  -0.0000256143  -0.0000694040  -0.0001714748
        0.0000240385   0.0001063755   0.0000324941   0.0000015317  -0.0000104094
        0.0000100800  -0.0000024403  -0.0000150610  -0.0000096587  -0.0000015812
       -0.0000274903  -0.0000011072   0.0000107285  -0.0000173120   0.0002371900
        0.0000445280  -0.0001185454   0.0001381548  -0.0001780138   0.0001761708
       -0.0001999531  -0.0006818199  -0.0009403438   0.0014347845   0.0007429110
        0.0017316843  -0.0214927352  -0.0150432902  -0.0165672240   0.0084399332
        0.0044367478   0.0066320435   0.0036495723  -0.0202961385   0.0012330535
       -0.0009898530  -0.0158229109  -0.0041042172   0.0036876103  -0.0062204336
       -0.0026542363  -0.0116254809   0.0002823483   0.0093830403  -0.0099410108
        0.0001920520   0.0056185318   0.0239346826  -0.0053943410  -0.0165604412
       -0.0013443619  -0.0012506635  -0.0009038134  -0.0000788141  -0.0003778608
        0.0003641955  -0.0002121901  -0.0017234403  -0.0012235469  -0.0000356903
        0.0000653758   0.0000062090   0.0000023859  -0.0000334575  -0.0000710742
        0.0000254495  -0.0000174543  -0.0000321142   0.0000075500  -0.0000046387
        0.0000025737  -0.0000022727   0.0000142541  -0.0000155181   0.0000098215
        0.0000097733   0.0000032686   0.0000044941   0.0000012163  -0.0000013360
        0.0000016168   0.0000000386   0.0000008507   0.0000017472   0.0000020928
        0.0000039441   0.0000028900   0.0000107683   0.0000037864  -0.0000077254
        0.0000364787  -0.0000140032   0.0000125109   0.0000162001   0.0000031782
        0.0000062953   0.0000034710   0.0000077248  -0.0000107678   0.0000040384
        0.0000046814  -0.0000019412  -0.0000059662   0.0000005880  -0.0000013329
       -0.0000068171  -0.0000002031  -0.0000045271  -0.0000049221  -0.0000000205
       -0.0000054978   0.0000010184   0.0000030403  -0.0000028389   0.0000028909
        0.0000015325  -0.0000044312   0.0000033815   0.0000009572  -0.0000007124
        0.0000043372  -0.0000006177   0.0000002503   0.0000034016   0.0000008211
        0.0000021624   0.0000016870   0.0000005096   0.0000014371   0.0000008870
        0.0000004849   0.0000009951   0.0000001360  -0.0000006773   0.0000053732
        0.0000015777  -0.0000004851   0.0000044661   0.0000030082   0.0000008461
        0.0000127192   0.0000047253  -0.0000031281   0.0000009466   0.0000110526
        0.0000055269  -0.0000009761   0.0000044793  -0.0000001296   0.0000178734
       -0.0000049204  -0.0000148496   0.0000042713   0.0000042160  -0.0000063148