$hessian                                                                        
        0.0392367923   0.1596726495  -0.0117845749  -0.0506156151  -0.1477254656
        0.0110369419   0.0163482477  -0.0139279154   0.0011035461   0.0013013200
        0.0034248233  -0.0002842010   0.0005811565  -0.0008661007   0.0000793972
       -0.0050758082  -0.0010859265   0.0000011019   0.0007705333  -0.0007729645
        0.0001105399   0.0001784013   0.0000545380  -0.0000062908   0.0000461966
        0.0000668966  -0.0000108858   0.0001727809   0.0000808319   0.0000004174
        0.0000163949  -0.0002359868   0.0000172129  -0.0003441586  -0.0000302311
       -0.0000178702  -0.0005097954   0.0003190044  -0.0000286527   0.0005211066
        0.0004127462   0.0000397159  -0.0006576836  -0.0002660120   0.0000152725
        0.0003930254   0.0001022726  -0.0000151310  -0.0001801780  -0.0001614760
       -0.0000818296   0.0001278018  -0.0000994065  -0.0000174116  -0.0002374279
        0.0000181088   0.0000112429   0.0001387626   0.0000152623   0.0000013154
        0.0000017248  -0.0000025522  -0.0000181158   0.0000411018  -0.0000044470
        0.0000205376   0.0000029082  -0.0000130434   0.0000134137  -0.0000027742
        0.0000041154  -0.0000010905  -0.0000104627   0.0000085975  -0.0000104163
       -0.0000210223   0.0000272125  -0.0000060047   0.0000165458  -0.0000301990
        0.0000182058  -0.0000313754  -0.0000165252   0.0000099257  -0.0000106157
       -0.0000082019   0.0000117180  -0.0000000269   0.0000063864   0.0000013594
        0.0000059252   0.0000077408  -0.0000082733   0.0000412923   0.0000116498
       -0.0000117301   0.0001151820   0.0000981369   0.0000334172  -0.0001742535
        0.0001646510   0.0000292066  -0.0000340215   0.0006204471  -0.0001073320
       -0.0012548988  -0.0021763580   0.0001012843   0.0012359827   0.0002649765
       -0.0000095995   0.0000467426   0.0000484673   0.0000000015  -0.0000053908
       -0.0000192006   0.0000016705   0.0000176100  -0.0000222719   0.0000014276
        0.0000341974  -0.0000766462   0.0000049808  -0.0000226711   0.0000374255
       -0.0000069343   0.0000216313   0.0000417585   0.0000358198   0.0000109988
        0.0000125370  -0.0000030258  -0.0000086596  -0.0000035690  -0.0000085793
        0.0000021906   0.0000129294  -0.0000074714   0.0000017438   0.0000049306
       -0.0000017735   0.0000023277   0.0000032541   0.0000004536   0.0000002668
       -0.0000059922  -0.0000035226   0.0000056903   0.0000095866   0.0000004665
        0.0000044052  -0.0000001834   0.0000003854   0.0000013884  -0.0000011830
        0.0000025446  -0.0000017900  -0.0000045938   0.0000053947  -0.0000093092
       -0.0000033937   0.0000061493  -0.0000015006  -0.0000093712   0.0000108941
       -0.0000113219  -0.0000248096  -0.0000069058   0.0001101601   0.0000567049
       -0.0000016725  -0.0023317745   0.0019853850  -0.0002666654
        0.1596726495   1.2456395959  -0.0918370465  -0.1480405227  -1.1834135337
        0.0860288281  -0.0083165114  -0.0686775681   0.0061598914   0.0106167336
       -0.0035883333   0.0004999461  -0.0050659613   0.0007367383  -0.0001684855
       -0.0177725729   0.0120434719  -0.0010146366   0.0003836311  -0.0045046108
        0.0002038962   0.0013848071   0.0007045295  -0.0000620651   0.0003327622
        0.0000713642   0.0000177964   0.0007140929   0.0005763278  -0.0000154889
       -0.0007924491  -0.0011866729   0.0001270900  -0.0013028298   0.0013394759
       -0.0002347567  -0.0023014070   0.0019055116  -0.0001919400   0.0023293674
        0.0016146346   0.0002748540  -0.0030670885  -0.0003334269   0.0000925862
        0.0026593870  -0.0000991734  -0.0000342866  -0.0012633529  -0.0010543839
       -0.0003531887   0.0010079008  -0.0009489454  -0.0002283689  -0.0024018326
        0.0001439324   0.0000257168   0.0018929059  -0.0001321330   0.0000031613
       -0.0001703121  -0.0002809930  -0.0002574483   0.0002679627   0.0000526522
        0.0000510520  -0.0000009025  -0.0001232575   0.0000893938   0.0000153135
        0.0000032900   0.0000155953  -0.0000977937   0.0000560921  -0.0000906133
       -0.0000889538   0.0002153282  -0.0000540574  -0.0001256842   0.0003010405
        0.0002407728  -0.0001227657  -0.0001973171   0.0000539614  -0.0001038523
       -0.0000221201   0.0000827540   0.0000289308   0.0000089357  -0.0000253088
        0.0000143115   0.0001219656  -0.0000801646   0.0002735030  -0.0000702541
       -0.0000420195   0.0011397536   0.0008369640   0.0002382656  -0.0010780342
        0.0012506251   0.0002942357   0.0014690613  -0.0013062436  -0.0002974379
       -0.0023810228  -0.0014621043   0.0001166211   0.0067312920   0.0007871802
        0.0001156197   0.0001962207   0.0001281817  -0.0000123094  -0.0000814553
       -0.0001011891   0.0000039983   0.0000205074  -0.0001268003  -0.0000125912
        0.0001357187  -0.0001091390   0.0000082621   0.0000640089  -0.0000736774
       -0.0000017436  -0.0000516910   0.0001172986   0.0000104467   0.0000988447
        0.0000873636  -0.0000224484  -0.0000607821  -0.0000297556   0.0000190097
       -0.0000039659   0.0000611749  -0.0000291549   0.0000319811   0.0000396354
        0.0000044102   0.0000496261   0.0000079046   0.0000285189   0.0000015266
       -0.0000698669  -0.0000161498   0.0000185587   0.0000654601   0.0000085052
        0.0000458054  -0.0000197354  -0.0000297398   0.0000158629  -0.0000438779
       -0.0000060086  -0.0000202527  -0.0000586322   0.0000267928  -0.0000677827
        0.0000121669  -0.0000177521   0.0000651312  -0.0001091143   0.0000248248
       -0.0001153029  -0.0001208159   0.0000051316   0.0001240689   0.0000260114
       -0.0000043528   0.0030928552  -0.0006911777   0.0002676255
       -0.0117845749  -0.0918370465   0.0234351638   0.0110516062   0.0860257422
       -0.0381575386   0.0006863868   0.0061652912   0.0134967268  -0.0009165464
        0.0003635047   0.0006590969   0.0004490121  -0.0000652972  -0.0000193894
        0.0013184596  -0.0008984448   0.0014702137   0.0000084812   0.0001755804
       -0.0022082481  -0.0001183295  -0.0000625775   0.0000010466  -0.0000129921
        0.0000262877   0.0003020493  -0.0000643130  -0.0000385036  -0.0000239951
        0.0000600139   0.0001310613   0.0002473312   0.0001098359  -0.0001395159
       -0.0000927630   0.0001721439  -0.0001472085  -0.0000533352  -0.0001851308
       -0.0001225908  -0.0000983435   0.0002279991   0.0000242643  -0.0000562888
       -0.0002143328   0.0000237755   0.0000433253   0.0001136024   0.0000491615
        0.0000215963  -0.0000799224   0.0000816090   0.0000105783   0.0001962252
       -0.0000164426   0.0000036524  -0.0001481308   0.0000131146   0.0000031817
        0.0000132961   0.0000115016   0.0000176264  -0.0000239995  -0.0000034160
       -0.0000051260  -0.0000027395   0.0000152775  -0.0000087119   0.0000018903
       -0.0000027245  -0.0000026590   0.0000035071  -0.0000001074   0.0000167467
        0.0000087405  -0.0000187531   0.0000085275   0.0000060627  -0.0000088822
       -0.0000259241   0.0000163412   0.0000119223  -0.0000043891   0.0000021789
       -0.0000005478  -0.0000074630  -0.0000020091   0.0000034835   0.0000059659
       -0.0000006216  -0.0000068747   0.0000130054  -0.0000149312   0.0000080077
        0.0000027853  -0.0000936437  -0.0000529710  -0.0000100007   0.0000727549
       -0.0001096894  -0.0000007782  -0.0001240057   0.0001074027  -0.0001128647
        0.0001752675   0.0001080128   0.0004046847  -0.0005137679   0.0000077252
        0.0009745145  -0.0000102903  -0.0000216797  -0.0001191639   0.0000052029
        0.0000073051  -0.0000151480  -0.0000019639   0.0000039753  -0.0000787505
       -0.0000085127   0.0000125016   0.0000552368  -0.0000017466   0.0000013500
       -0.0000194775   0.0000151906  -0.0000022010  -0.0000039506  -0.0000021973
       -0.0000029220   0.0000021281   0.0000029683   0.0000028924  -0.0000015748
        0.0000008265  -0.0000079091   0.0000002856  -0.0000011631  -0.0000054883
       -0.0000007467  -0.0000027116  -0.0000008718   0.0000011262  -0.0000011986
        0.0000006771   0.0000011892  -0.0000046976  -0.0000026885  -0.0000017281
       -0.0000030581   0.0000022635  -0.0000011565  -0.0000032301   0.0000028074
       -0.0000029122   0.0000049676  -0.0000034405  -0.0000074968  -0.0000016923
        0.0000001979  -0.0000001128  -0.0000100065   0.0000103373  -0.0000038693
        0.0000065069   0.0000135525  -0.0000021933  -0.0000136050  -0.0000026294
       -0.0000121397  -0.0003634036   0.0001708381  -0.0000395456
       -0.0506156151  -0.1480405227   0.0110516062   0.1282672262   0.1989814332
       -0.0141942425  -0.0633366398  -0.0441360062   0.0030888269  -0.0171157992
       -0.0299281399   0.0019592148  -0.0031869542   0.0035653377  -0.0003618824
        0.0138145972   0.0139621790  -0.0008905734  -0.0026017790   0.0030960687
       -0.0004564145  -0.0006276172  -0.0001741130   0.0000194749  -0.0000436769
       -0.0001357669   0.0000360596  -0.0002701901  -0.0002724625   0.0000051111
        0.0000091318   0.0004920947  -0.0000274070   0.0006510930   0.0004714924
        0.0000185250   0.0010487900  -0.0007011585   0.0000669255  -0.0009498591
       -0.0008210197  -0.0001010739   0.0012408415   0.0003654014  -0.0000472717
       -0.0009794201  -0.0000799225   0.0000201446   0.0004527079   0.0003991602
        0.0001559708  -0.0003497924   0.0003085564   0.0000761713   0.0007131769
       -0.0000392132  -0.0000158310  -0.0005270466   0.0000284300   0.0000002041
        0.0000357554   0.0000631555   0.0000689460  -0.0001053395   0.0000047294
       -0.0000409399  -0.0000006633   0.0000415956  -0.0000311381  -0.0000072793
       -0.0000035516  -0.0000055982   0.0000337040  -0.0000108315   0.0000253675
        0.0000452171  -0.0000731527   0.0000276832   0.0000218775  -0.0000470821
       -0.0000661427   0.0000625455   0.0000660330  -0.0000289396   0.0000338056
        0.0000054386  -0.0000255331  -0.0000064206   0.0000032916   0.0000081191
       -0.0000011902  -0.0000391742   0.0000239088  -0.0001037629   0.0000037370
        0.0000339960  -0.0003617535  -0.0002808503  -0.0000948102   0.0004030506
       -0.0004475564  -0.0000991395  -0.0007185204   0.0001206353   0.0001425645
        0.0001721719   0.0032101803  -0.0002163616  -0.0028758982   0.0000791273
        0.0000046239  -0.0000844358   0.0001012104  -0.0000208928   0.0000281166
        0.0000663653  -0.0000036316  -0.0000209102   0.0000566068  -0.0000003169
       -0.0000876114   0.0001574575  -0.0000040270   0.0000161547  -0.0000188614
        0.0000068826   0.0000018630  -0.0000789809  -0.0000425626  -0.0000276668
       -0.0000325933   0.0000029705   0.0000278661   0.0000065534   0.0000056218
       -0.0000008232  -0.0000246201   0.0000102840  -0.0000094508  -0.0000101419
       -0.0000025422  -0.0000152856   0.0000015540  -0.0000103428  -0.0000009059
        0.0000304957   0.0000004524  -0.0000075046  -0.0000257660   0.0000011167
       -0.0000117904   0.0000069160   0.0000093963   0.0000003429   0.0000144870
        0.0000016504   0.0000089099   0.0000225092  -0.0000083637   0.0000316679
        0.0000014485  -0.0000052377  -0.0000094478   0.0000369335  -0.0000103695
        0.0000479850   0.0000553509   0.0000155217  -0.0000565402  -0.0000989451
        0.0000028017  -0.0020510083  -0.0003055326  -0.0000785559
       -0.1477254656  -1.1834135337   0.0860257422   0.1989814332   1.4999003329
       -0.1059502635  -0.0482366399  -0.2445569888   0.0139164753  -0.0390062922
       -0.0150429812   0.0005981558   0.0107470020   0.0009166188   0.0001958965
        0.0347187831  -0.0617492243   0.0051503845   0.0033880232   0.0076628186
        0.0002079831  -0.0025574862  -0.0013805384   0.0001174773  -0.0006243572
       -0.0001040329  -0.0000689532  -0.0013022598  -0.0010313900   0.0000384129
        0.0018797494   0.0021952538  -0.0002829792   0.0024685724  -0.0041269703
        0.0005677130   0.0042154998  -0.0039570868   0.0003767727  -0.0045773580
       -0.0029237780  -0.0004509244   0.0055800629   0.0009814621  -0.0002067546
       -0.0047127435   0.0001281641   0.0000569660   0.0022334490   0.0018501632
        0.0006191371  -0.0017787929   0.0016347312   0.0004058628   0.0042261619
       -0.0002370104  -0.0000414977  -0.0033629138   0.0002456287  -0.0000033559
        0.0002987512   0.0004962463   0.0004456156  -0.0004653930  -0.0000981707
       -0.0001107479   0.0000155447   0.0002221764  -0.0001588614  -0.0000285593
       -0.0000113928  -0.0000333677   0.0001797601  -0.0000800155   0.0001432894
        0.0001455989  -0.0003807360   0.0001008791   0.0002213370  -0.0005311821
       -0.0004219557   0.0002099116   0.0003519618  -0.0001017730   0.0001821201
        0.0000193454  -0.0001365608  -0.0000437364  -0.0000051304   0.0000493900
       -0.0000074369  -0.0002291556   0.0001374000  -0.0004667262   0.0001323591
        0.0000964577  -0.0020007062  -0.0014413926  -0.0004330433   0.0019058249
       -0.0022080385  -0.0005265142  -0.0022756631   0.0017576610   0.0006047113
        0.0049691189   0.0044139082  -0.0002779612  -0.0145888909  -0.0003895530
       -0.0005224201  -0.0002401915  -0.0000245568   0.0000312383   0.0001518926
        0.0001703066   0.0000053978  -0.0000285599   0.0002512768   0.0000488257
       -0.0002372381   0.0000934087  -0.0000058816  -0.0001903865   0.0001541282
        0.0000122037   0.0000954030  -0.0002300038  -0.0000500679  -0.0001858532
       -0.0001570883   0.0000163708   0.0001177017   0.0000402792  -0.0000240897
        0.0000070942  -0.0001134609   0.0000412532  -0.0000575349  -0.0000710634
       -0.0000210346  -0.0000885361  -0.0000043890  -0.0000620432  -0.0000054236
        0.0001376941   0.0000087069  -0.0000326185  -0.0001297342  -0.0000030173
       -0.0000777418   0.0000278618   0.0000599821  -0.0000235743   0.0000792328
        0.0000181201   0.0000368781   0.0001067034  -0.0000396175   0.0001302611
       -0.0000188401   0.0000173496  -0.0001254590   0.0001965939  -0.0000245670
        0.0002064300   0.0002251188   0.0000242638  -0.0003328782  -0.0000698332
        0.0000009166  -0.0019249482   0.0003258359  -0.0001810984
        0.0110369419   0.0860288281  -0.0381575386  -0.0141942425  -0.1059502635
        0.0785137316   0.0033603482   0.0138827085  -0.0474954345   0.0026380848
        0.0007567098   0.0015093441  -0.0009108764   0.0000332597   0.0006599990
       -0.0024190331   0.0050302125  -0.0005500133  -0.0004179752   0.0002232975
        0.0103055959   0.0001943518   0.0000896950  -0.0000065815   0.0000463061
       -0.0000650932  -0.0011216267   0.0001083622   0.0000828512   0.0001305054
       -0.0001566054  -0.0002407800  -0.0009507589  -0.0002164455   0.0003748715
        0.0000690053  -0.0002810248   0.0003104427   0.0001473272   0.0003227157
        0.0002230391   0.0004215983  -0.0004065330  -0.0000697414   0.0000272538
        0.0003354301  -0.0000056942  -0.0001637622  -0.0001941160  -0.0001067997
       -0.0000453276   0.0001354370  -0.0001289001  -0.0000491363  -0.0003021659
        0.0000258497   0.0000276225   0.0002414546  -0.0000201599  -0.0000259811
       -0.0000170401  -0.0000353519  -0.0000301468   0.0000395958  -0.0000018154
       -0.0000005791  -0.0000014232  -0.0000170490  -0.0000049874   0.0000042039
        0.0000018267  -0.0000169495  -0.0000149723   0.0000090214  -0.0000134910
       -0.0000117499   0.0000270610  -0.0000145848  -0.0000126463   0.0000380411
        0.0000367719  -0.0000164380  -0.0000295098   0.0000089829  -0.0000172301
       -0.0000086320   0.0000147615   0.0000060336   0.0000016516   0.0000063011
       -0.0000028757   0.0000189963   0.0000061943   0.0000339948  -0.0000039964
       -0.0000017780   0.0001450490   0.0000858466   0.0000286533  -0.0001050322
        0.0001742620   0.0000352401   0.0001921175  -0.0001204542   0.0005070849
       -0.0004085178  -0.0003027989  -0.0000790077   0.0010790256  -0.0003030559
       -0.0045652870   0.0000200033   0.0000342723   0.0004085134  -0.0000120629
       -0.0000088671   0.0000691418   0.0000017478   0.0000059684   0.0003149658
        0.0000181094  -0.0000181544  -0.0002027759   0.0000113759  -0.0000000841
        0.0000995604  -0.0000179299   0.0000155355  -0.0000060019   0.0000062557
        0.0000129253  -0.0000081493  -0.0000113953  -0.0000071619  -0.0000043921
        0.0000012061   0.0000051458  -0.0000190055   0.0000036464   0.0000034797
       -0.0000146300   0.0000043574   0.0000056845  -0.0000034865  -0.0000022485
       -0.0000059564  -0.0000034828   0.0000024191   0.0000077751   0.0000001453
        0.0000079081  -0.0000073676   0.0000005295   0.0000007356  -0.0000073510
        0.0000108975   0.0000004260  -0.0000075093   0.0000131445  -0.0000126338
        0.0000067004   0.0000056660   0.0000112745  -0.0000249936   0.0000078192
       -0.0000074954  -0.0000295893   0.0000014607   0.0000359279   0.0000099824
       -0.0000028955   0.0001258636   0.0000011890   0.0001699740
        0.0163482477  -0.0083165114   0.0006863868  -0.0633366398  -0.0482366399
        0.0033603482   0.6070624242  -0.0707951335   0.0138485619  -0.2483969464
       -0.0390672743  -0.0006247644  -0.0698056080  -0.0112787936  -0.0006681226
       -0.1995368165   0.1467589683  -0.0136782240   0.0053279225   0.0175237434
       -0.0012558484  -0.0034427252  -0.0034509135   0.0002320667  -0.0006329296
        0.0006778069  -0.0000493801  -0.0013227461  -0.0013550118   0.0000755729
        0.0020164581   0.0028107556  -0.0002396367   0.0036081725  -0.0053759101
        0.0005812252   0.0006121517  -0.0067771961   0.0005725438  -0.0059413130
       -0.0020399476  -0.0006569197   0.0066184299   0.0009311008  -0.0001811224
       -0.0053003673   0.0002920836   0.0000646331   0.0023679469   0.0020802688
        0.0005827920  -0.0018751918   0.0019125956   0.0004142971   0.0043826544
       -0.0003184068  -0.0000190814  -0.0034242828   0.0002551837  -0.0000245059
        0.0003701135   0.0005960578   0.0004955858  -0.0004974796  -0.0001075669
       -0.0000152135  -0.0000359700   0.0001832850  -0.0001812303  -0.0000260170
        0.0000462707  -0.0000332602   0.0001820444  -0.0001153571   0.0001971159
        0.0001302869  -0.0003817965   0.0000429405   0.0002888248  -0.0006494125
       -0.0004765419   0.0001795124   0.0003637262  -0.0000392142   0.0001978905
        0.0000793069  -0.0001966193  -0.0000379655  -0.0000427805   0.0000330310
       -0.0000686987  -0.0001777105   0.0001738406  -0.0004719896   0.0001801771
        0.0000048193  -0.0021122597  -0.0016049487  -0.0004414239   0.0020067591
       -0.0024367195  -0.0005053216  -0.0036243510   0.0032793254   0.0005471450
        0.0077672872   0.0066611543  -0.0003352113  -0.0483344086   0.0181843635
       -0.0021229979  -0.0001269155   0.0000865987  -0.0000396971  -0.0000195308
        0.0000051682   0.0000044135  -0.0000347084  -0.0000244697   0.0000099001
        0.0000015020  -0.0002012468   0.0000153955  -0.0004969439   0.0000054355
        0.0000039269   0.0000917157  -0.0002256067   0.0000540057  -0.0001348665
       -0.0001689548   0.0000966202   0.0000819582   0.0000317817  -0.0000776052
        0.0000059618  -0.0001115051   0.0000576190  -0.0000617357  -0.0000831945
       -0.0000039124  -0.0001078718  -0.0000227348  -0.0000569523  -0.0000230670
        0.0000962877   0.0000562420  -0.0000266117  -0.0000936063  -0.0000571309
       -0.0001079872   0.0000375959   0.0000534745  -0.0000501712   0.0000908049
        0.0000020557   0.0000300447   0.0001075758  -0.0000583572   0.0000763837
       -0.0000397106   0.0000781833  -0.0001061795   0.0001870956  -0.0000999257
        0.0001583176   0.0001831876  -0.0000704342  -0.0001472886  -0.0000009239
       -0.0000022239  -0.0002444261  -0.0001477215  -0.0001338636
       -0.0139279154  -0.0686775681   0.0061652912  -0.0441360062  -0.2445569888
        0.0138827085  -0.0707951335   0.6059746581  -0.0395435479  -0.0428869328
       -0.0606811372   0.0004811537  -0.0057778820   0.0168341505  -0.0003811941
        0.1411286707  -0.2114308072   0.0155851706   0.0169406615  -0.0415369788
        0.0035263983   0.0050833041   0.0037849994  -0.0002480709   0.0009082290
       -0.0005217012  -0.0000153567   0.0015472115   0.0014949898  -0.0000947641
       -0.0008963749  -0.0036977528   0.0002801738  -0.0049072334  -0.0008237120
       -0.0000045695  -0.0068182210   0.0055780138  -0.0003777975   0.0051018896
        0.0033038454   0.0005663143  -0.0060809524  -0.0010076040   0.0001859412
        0.0050362530  -0.0002373295  -0.0000764833  -0.0022701584  -0.0019014002
       -0.0005730679   0.0017168088  -0.0017740050  -0.0003614192  -0.0040030952
        0.0002956677   0.0000378527   0.0030514298  -0.0002185872   0.0000205849
       -0.0003048615  -0.0005038809  -0.0004418696   0.0004756304   0.0000801310
        0.0000374757   0.0000415706  -0.0001728718   0.0001895013   0.0000109885
       -0.0000441035   0.0000335811  -0.0001705355   0.0001175391  -0.0001858709
       -0.0001525139   0.0003623643  -0.0000397136  -0.0002322121   0.0005355190
        0.0004194676  -0.0002020208  -0.0003403176   0.0000391316  -0.0001912602
       -0.0000765443   0.0001820522   0.0000299851   0.0000537930  -0.0000385169
        0.0000712516   0.0001601957  -0.0001770465   0.0004670964  -0.0001362803
       -0.0000226171   0.0019347945   0.0015114925   0.0003891184  -0.0019437261
        0.0022666384   0.0004799741   0.0034917633  -0.0028808489  -0.0005412561
       -0.0072145260  -0.0051455101   0.0002655983   0.0255124677   0.0047970672
        0.0001275821  -0.0001065524  -0.0002868472   0.0000764912  -0.0000280940
       -0.0000688626  -0.0000115064   0.0000305776   0.0000192346  -0.0000134839
        0.0000949990  -0.0003825523  -0.0000000900  -0.0000718798   0.0001028662
       -0.0000326590  -0.0000417845   0.0002117898  -0.0000116880   0.0001278500
        0.0001447377  -0.0000941252  -0.0000662822  -0.0000279327   0.0000758695
        0.0000060228   0.0001103473  -0.0000408579   0.0000660827   0.0000762175
        0.0000186427   0.0001062062   0.0000152312   0.0000611868   0.0000279727
       -0.0000983266  -0.0000549654   0.0000340654   0.0000913728   0.0000509633
        0.0001054548  -0.0000356854  -0.0000577410   0.0000474208  -0.0000878906
       -0.0000150201  -0.0000313928  -0.0001092655   0.0000429529  -0.0000729411
        0.0000146912  -0.0000718786   0.0000883683  -0.0001727974   0.0000981854
       -0.0001351310  -0.0002025229   0.0000336736   0.0001044604  -0.0000399950
        0.0000126875   0.0000761323  -0.0000589455   0.0001614527
        0.0011035461   0.0061598914   0.0134967268   0.0030888269   0.0139164753
       -0.0474954345   0.0138485619  -0.0395435479   0.0961914692  -0.0003886464
        0.0004291287  -0.0450765924  -0.0010355520  -0.0004282457   0.0138842180
       -0.0133291835   0.0157589078  -0.0369382772  -0.0012504315   0.0034354142
        0.0008730478  -0.0004229084  -0.0003334520  -0.0000499751  -0.0000760539
        0.0000130159  -0.0003157844  -0.0001376198  -0.0001248803   0.0000958755
        0.0000926660   0.0003301256  -0.0000040681   0.0003780656   0.0001205370
        0.0018730263   0.0004735522  -0.0003091236   0.0023345794  -0.0004082954
       -0.0002207686  -0.0000245829   0.0004924055   0.0000999834   0.0000741136
       -0.0004270661   0.0000048957   0.0000718285   0.0002059517   0.0001594632
        0.0000488182  -0.0001469637   0.0001595918   0.0000274458   0.0003406553
       -0.0000412006   0.0000046385  -0.0002602711   0.0000221498  -0.0000070225
        0.0000329125   0.0000454559   0.0000416557  -0.0000411201  -0.0000067092
        0.0000035827  -0.0000047784   0.0000190991  -0.0000064240   0.0000006458
        0.0000040358   0.0000066853   0.0000131413  -0.0000120178   0.0000305188
        0.0000111354  -0.0000364373   0.0000109157   0.0000226707  -0.0000465210
       -0.0000369550   0.0000197712   0.0000312658  -0.0000067899   0.0000146210
        0.0000086847  -0.0000220044  -0.0000014791  -0.0000031882  -0.0000049376
       -0.0000072470  -0.0000170238   0.0000106461  -0.0000392234   0.0000111599
       -0.0000046318  -0.0001595489  -0.0001155563  -0.0000305589   0.0001439507
       -0.0002099977  -0.0000250756  -0.0002959963   0.0002286357  -0.0002667561
        0.0005990200   0.0004464710  -0.0000690715  -0.0024132912   0.0000058066
        0.0013044430   0.0000064773   0.0000393274   0.0002136748   0.0000025404
        0.0000049878  -0.0000164832  -0.0000040257   0.0000039832   0.0000559083
       -0.0000057731   0.0000092311  -0.0002199546   0.0000180104  -0.0000450575
       -0.0002860795   0.0000062599  -0.0000219252   0.0000092583  -0.0000124087
       -0.0000164187   0.0000155274   0.0000059450   0.0000062795   0.0000024702
        0.0000011034  -0.0000074360   0.0000177535  -0.0000056458  -0.0000090967
        0.0000135987  -0.0000108039  -0.0000058176   0.0000058605  -0.0000034427
        0.0000027920   0.0000074460  -0.0000035865  -0.0000028471  -0.0000037726
       -0.0000081921   0.0000074685  -0.0000016093  -0.0000056466   0.0000081042
       -0.0000115129   0.0000044195   0.0000031530  -0.0000170634   0.0000029498
       -0.0000040161   0.0000007883  -0.0000104661   0.0000212095  -0.0000131762
        0.0000090564   0.0000251957  -0.0000072853  -0.0000078016   0.0000019083
        0.0000062547  -0.0000153930   0.0000174505   0.0002291033
        0.0013013200   0.0106167336  -0.0009165464  -0.0171157992  -0.0390062922
        0.0026380848  -0.2483969464  -0.0428869328  -0.0003886464   1.5177757818
        0.1562581581   0.0145494588  -1.1969233333  -0.1116528351  -0.0130187694
       -0.0655964147   0.0316761139  -0.0033020179  -0.0001292791  -0.0086399112
        0.0007865953   0.0029717747   0.0015779050  -0.0001192589  -0.0001411794
        0.0005686591  -0.0000723526   0.0012440258   0.0011232525  -0.0000161381
       -0.0017598914  -0.0024158882   0.0002209019  -0.0023332538   0.0026574183
       -0.0004603893  -0.0057543211   0.0042768371  -0.0003912171   0.0044915539
        0.0030765582   0.0005113271  -0.0057241621  -0.0009002224   0.0002230850
        0.0049363440  -0.0002291985  -0.0000524874  -0.0022981826  -0.0019343943
       -0.0005775444   0.0018719067  -0.0017526932  -0.0004346399  -0.0044326798
        0.0002375418   0.0000083281   0.0035531386  -0.0002869859   0.0000078615
       -0.0003218959  -0.0005223178  -0.0004664450   0.0004892485   0.0000972123
        0.0000875857  -0.0000030531  -0.0002263808   0.0001517641   0.0000463352
       -0.0000130375   0.0000429051  -0.0001873460   0.0000716181  -0.0001541884
       -0.0001353528   0.0003870528  -0.0001024171  -0.0002555528   0.0005895683
        0.0004489712  -0.0001891990  -0.0003726241   0.0000960471  -0.0001945345
       -0.0000410242   0.0001501149   0.0000410477   0.0000004031  -0.0000451022
        0.0000150059   0.0002299117  -0.0001492775   0.0004666386  -0.0001722683
       -0.0000793743   0.0021178822   0.0014901014   0.0004621352  -0.0019504716
        0.0022858969   0.0005442832   0.0027833334  -0.0026135120  -0.0005006064
       -0.0049315096  -0.0041007095   0.0002304508   0.0139997555   0.0034072915
       -0.0002216059   0.0003471308  -0.0020596248   0.0001868158  -0.0000965742
       -0.0002612804   0.0000182978   0.0000101083  -0.0001940817  -0.0000170008
        0.0002187969  -0.0001163725  -0.0000036564   0.0001748113  -0.0001722164
        0.0000105388  -0.0001673846   0.0002517174   0.0000096440   0.0001659614
        0.0001809620  -0.0000226794  -0.0001368007  -0.0000285379   0.0000281996
       -0.0000267089   0.0001084546  -0.0000480792   0.0000501458   0.0000737245
        0.0000128956   0.0000883708   0.0000075147   0.0000599915  -0.0000005240
       -0.0001384804  -0.0000117510   0.0000195639   0.0001314158   0.0000112480
        0.0000768815  -0.0000297643  -0.0000602103   0.0000250038  -0.0000854956
       -0.0000147057  -0.0000422716  -0.0001060590   0.0000493784  -0.0001326706
        0.0000435621  -0.0000279188   0.0001329809  -0.0002021438   0.0000235435
       -0.0002090381  -0.0002148516  -0.0000141730   0.0002320503   0.0001415982
       -0.0000140954  -0.0000605672  -0.0001910467   0.0001328422
        0.0034248233  -0.0035883333   0.0003635047  -0.0299281399  -0.0150429812
        0.0007567098  -0.0390672743  -0.0606811372   0.0004291287   0.1562581581
        0.1174443531  -0.0006674388  -0.1121035835  -0.0425074485  -0.0012944969
        0.0152101473   0.0113902489  -0.0006551382   0.0001047039  -0.0013423673
       -0.0002509556   0.0028658256  -0.0009564357  -0.0000468994  -0.0002779630
       -0.0001398301   0.0000454955   0.0003239201   0.0003390569  -0.0000142763
       -0.0004981484  -0.0004419046   0.0000749198  -0.0002770381   0.0006886704
       -0.0000793235   0.0003125017   0.0008453442  -0.0000464745   0.0008192246
        0.0001569074   0.0000336107  -0.0009943436  -0.0001785212   0.0000489672
        0.0008043293  -0.0000529941   0.0000089208  -0.0003842970  -0.0003280063
       -0.0001020860   0.0003093230  -0.0002910971  -0.0000772359  -0.0007244304
        0.0000355746   0.0000070110   0.0005837940  -0.0000704378  -0.0000001969
       -0.0000442201  -0.0000688735  -0.0000780380   0.0000851270   0.0000098120
        0.0000225325  -0.0000041998  -0.0000393097   0.0000220228   0.0000068227
        0.0000007211   0.0000065014  -0.0000319098   0.0000118679  -0.0000254079
       -0.0000334133   0.0000679654  -0.0000241634  -0.0000497696   0.0001156072
        0.0000745410  -0.0000324615  -0.0000665645   0.0000236288  -0.0000352373
        0.0000013332   0.0000250256   0.0000089691  -0.0000005687  -0.0000044198
        0.0000004201   0.0000456026  -0.0000253202   0.0000875775  -0.0000273938
       -0.0000195775   0.0003628875   0.0002528189   0.0000825682  -0.0003252695
        0.0004067390   0.0001089688   0.0003686038  -0.0003761974  -0.0001877036