      -----------------------------------------------------------      
     |                   =====================                   |     
     |                           x T B                           |     
     |                   =====================                   |     
     |                         S. Grimme                         |     
     |          Mulliken Center for Theoretical Chemistry        |     
     |                    University of Bonn                     |     
      -----------------------------------------------------------      

   * xtb version 6.7.1 (edcfbbe) compiled by 'albert@albert-system' on 2024-07-22

   xtb is free software: you can redistribute it and/or modify it under
   the terms of the GNU Lesser General Public License as published by
   the Free Software Foundation, either version 3 of the License, or
   (at your option) any later version.
   
   xtb is distributed in the hope that it will be useful,
   but WITHOUT ANY WARRANTY; without even the implied warranty of
   MERCHANTABILITY or FITNESS FOR A PARTICULAR PURPOSE.  See the
   GNU Lesser General Public License for more details.
   
   Cite this work as:
   * C. Bannwarth, E. Caldeweyher, S. Ehlert, A. Hansen, P. Pracht,
     J. Seibert, S. Spicher, S. Grimme, WIREs Comput. Mol. Sci., 2020, 11,
     e01493. DOI: 10.1002/wcms.1493
   
   for GFN2-xTB:
   * C. Bannwarth, S. Ehlert and S. Grimme., J. Chem. Theory Comput., 2019,
     15, 1652-1671. DOI: 10.1021/acs.jctc.8b01176
   for GFN1-xTB:
   * S. Grimme, C. Bannwarth, P. Shushkov, J. Chem. Theory Comput., 2017,
     13, 1989-2009. DOI: 10.1021/acs.jctc.7b00118
   for GFN0-xTB:
   * P. Pracht, E. Caldeweyher, S. Ehlert, S. Grimme, ChemRxiv, 2019, preprint.
     DOI: 10.26434/chemrxiv.8326202.v1
   for GFN-FF:
   * S. Spicher and S. Grimme, Angew. Chem. Int. Ed., 2020, 59, 15665-15673.
     DOI: 10.1002/anie.202004239
   
   for ALPB and GBSA implicit solvation:
   * S. Ehlert, M. Stahn, S. Spicher, S. Grimme, J. Chem. Theory Comput.,
     2021, 17, 4250-4261. DOI: 10.1021/acs.jctc.1c00471
   
   for ddCOSMO and CPCM-X implicit solvation:
   * M. Stahn, S. Ehlert, S. Grimme, J. Phys. Chem. A,
     2023, XX, XXXX-XXXX. DOI: 10.1021/acs.jpca.3c04382
   
   for DFT-D4:
   * E. Caldeweyher, C. Bannwarth and S. Grimme, J. Chem. Phys., 2017,
     147, 034112. DOI: 10.1063/1.4993215
   * E. Caldeweyher, S. Ehlert, A. Hansen, H. Neugebauer, S. Spicher,
     C. Bannwarth and S. Grimme, J. Chem. Phys., 2019, 150, 154122.
     DOI: 10.1063/1.5090222
   * E. Caldeweyher, J.-M. Mewes, S. Ehlert and S. Grimme, Phys. Chem. Chem. Phys.
     2020, 22, 8499-8512. DOI: 10.1039/D0CP00502A
   
   for sTDA-xTB:
   * S. Grimme and C. Bannwarth, J. Chem. Phys., 2016, 145, 054103.
     DOI: 10.1063/1.4959605
   
   in the mass-spec context:
   * V. Asgeirsson, C. Bauer and S. Grimme, Chem. Sci., 2017, 8, 4879.
     DOI: 10.1039/c7sc00601b
   * J. Koopman and S. Grimme, ACS Omega 2019, 4, 12, 15120-15133.
     DOI: 10.1021/acsomega.9b02011
   
   for metadynamics refer to:
   * S. Grimme, J. Chem. Theory Comput., 2019, 155, 2847-2862
     DOI: 10.1021/acs.jctc.9b00143
   
   for SPH calculations refer to:
   * S. Spicher and S. Grimme, J. Chem. Theory Comput., 2021, 17, 1701-1714
     DOI: 10.1021/acs.jctc.0c01306
   
   for ONIOM refer to:
   * C. Plett, A. Katbashev, S. Ehlert, S. Grimme, M. Bursch,
     Phys. Chem. Chem. Phys., 2023, 25, 17860-17868. DOI: 10.1039/D3CP02178E
   
   for DIPRO refer to:
   * J. Kohn, N. Gildemeister, S. Grimme, D. Fazzi, A. Hansen,
     J. Chem. Phys., 2023, just accepted.
   
   for PTB refer to:
   * S. Grimme, M. Mueller, A. Hansen, J. Chem. Phys., 2023, 158, 124111.
     DOI: 10.1063/5.0137838
   
   with help from (in alphabetical order)
   P. Atkinson, C. Bannwarth, F. Bohle, G. Brandenburg, E. Caldeweyher
   M. Checinski, S. Dohm, S. Ehlert, S. Ehrlich, I. Gerasimov, C. Hölzer
   A. Katbashev, J. Kohn, J. Koopman, C. Lavigne, S. Lehtola, F. März, M. Müller,
   F. Musil, H. Neugebauer, J. Pisarek, C. Plett, P. Pracht, F. Pultar,
   J. Seibert, P. Shushkov, S. Spicher, M. Stahn, M. Steiner, T. Strunk,
   J. Stückrath, T. Rose, and J. Unsleber
   
 * started run on 2025/07/20 at 08:06:25.508     
   ID    Z sym.   atoms
    1    7 N      1, 5, 20
    2    6 C      2-4, 6-19, 21-37
    3    1 H      38-58

           -------------------------------------------------
          |                Calculation Setup                |
           -------------------------------------------------

          program call               : xtb data2507/toluene/3TPAFM/3TPAFM_toluene_S0_crest.xyz --gfn 2 --gbsa toluene --ohess vtight --parallel 40 --molden --ceasefiles --namespace data2507/toluene/3TPAFM/3TPAFM_toluene_S0_finalOpt
          calculation namespace      : data2507/toluene/3TPAFM/3TPAFM_toluene_S0_finalOpt
          coordinate file            : data2507/toluene/3TPAFM/3TPAFM_toluene_S0_crest.xyz
          omp threads                :                    40


           -------------------------------------------------
          |                 G F N 2 - x T B                 |
           -------------------------------------------------

        Reference                      10.1021/acs.jctc.8b01176
      * Hamiltonian:
        H0-scaling (s, p, d)           1.850000    2.230000    2.230000
        zeta-weighting                 0.500000
      * Dispersion:
        s8                             2.700000
        a1                             0.520000
        a2                             5.000000
        s9                             5.000000
      * Repulsion:
        kExp                           1.500000    1.000000
        rExp                           1.000000
      * Coulomb:
        alpha                          2.000000
        third order                    shell-resolved
        anisotropic                    true
        a3                             3.000000
        a5                             4.000000
        cn-shift                       1.200000
        cn-exp                         4.000000
        max-rad                        5.000000

      * Solvation model:               GBSA
        Solvent                        toluene
        Parameter file                 internal GFN2-xTB/GBSA
        Dielectric constant                7.0000E+00
        Reference state                gsolv [1 M gas/solution]
        Free energy shift                  4.5239E-03 Eh       2.8388E+00 kcal/mol
        Temperature                        2.9815E+02 K
        Density                            8.6700E-01 kg/L
        Solvent mass                       9.2140E+01 g/mol
        Interaction kernel             Still
        Born radius scaling (c1)           1.5686E+00
        Born radii integrator          GBOBC
        Born offset                        0.0000E+00 a0       0.0000E+00 AA
        H-bond correction              false
        Ion screening                  false
        Surface tension                    1.0000E-05 Eh       1.5569E+01 dyn/cm
        Grid points                               230 per atom

          ...................................................
          :                      SETUP                      :
          :.................................................:
          :  # basis functions                 169          :
          :  # atomic orbitals                 169          :
          :  # shells                           95          :
          :  # electrons                       172          :
          :  max. iterations                   250          :
          :  Hamiltonian                  GFN2-xTB          :
          :  restarted?                      false          :
          :  GBSA solvation                   true          :
          :  PC potential                    false          :
          :  electronic temp.          300.0000000     K    :
          :  accuracy                    1.0000000          :
          :  -> integral cutoff          0.2500000E+02      :
          :  -> integral neglect         0.1000000E-07      :
          :  -> SCF convergence          0.1000000E-05 Eh   :
          :  -> wf. convergence          0.1000000E-03 e    :
          :  Broyden damping             0.4000000          :
          :  net charge                          0          :
          :  unpaired electrons                  0          :
          ...................................................

 iter      E             dE          RMSdq      gap      omega  full diag
   1    -93.9953401 -0.939953E+02  0.506E+00    0.55       0.0  T
   2    -94.0241873 -0.288473E-01  0.316E+00    1.24       1.0  T
   3    -93.8086705  0.215517E+00  0.210E+00    0.40       1.0  T
   4    -94.0634299 -0.254759E+00  0.445E-01    0.97       1.0  T
   5    -94.0706497 -0.721985E-02  0.141E-01    0.79       1.0  T
   6    -94.0711194 -0.469654E-03  0.510E-02    0.73       1.0  T
   7    -94.0711349 -0.155139E-04  0.236E-02    0.75       1.0  T
   8    -94.0711441 -0.925814E-05  0.870E-03    0.75       1.5  T
   9    -94.0711465 -0.233337E-05  0.322E-03    0.75       4.1  T
  10    -94.0711467 -0.179233E-06  0.163E-03    0.75       8.0  T
  11    -94.0711467 -0.680242E-07  0.617E-04    0.75      21.3  T
  12    -94.0711467 -0.727150E-08  0.351E-04    0.75      37.4  T

   *** convergence criteria satisfied after 12 iterations ***

         #    Occupation            Energy/Eh            Energy/eV
      -------------------------------------------------------------
         1        2.0000           -0.6814130             -18.5422
       ...           ...                  ...                  ...
        80        2.0000           -0.4132717             -11.2457
        81        2.0000           -0.4119493             -11.2097
        82        2.0000           -0.4092277             -11.1357
        83        2.0000           -0.4086805             -11.1208
        84        2.0000           -0.4026600             -10.9569
        85        2.0000           -0.3944091             -10.7324
        86        2.0000           -0.3551523              -9.6642 (HOMO)
        87        0.0000           -0.3277080              -8.9174 (LUMO)
        88                         -0.2602588              -7.0820
        89                         -0.2534086              -6.8956
        90                         -0.2451078              -6.6697
        91                         -0.2345494              -6.3824
       ...                                ...                  ...
       169                          1.1563483              31.4658
      -------------------------------------------------------------
                  HL-Gap            0.0274443 Eh            0.7468 eV
             Fermi-level           -0.3414302 Eh           -9.2908 eV

 SCC (total)                   0 d,  0 h,  0 min,  0.097 sec
 SCC setup                      ...        0 min,  0.001 sec (  1.275%)
 Dispersion                     ...        0 min,  0.002 sec (  2.262%)
 classical contributions        ...        0 min,  0.000 sec (  0.213%)
 integral evaluation            ...        0 min,  0.005 sec (  5.256%)
 iterations                     ...        0 min,  0.080 sec ( 82.471%)
 molecular gradient             ...        0 min,  0.007 sec (  7.644%)
 printout                       ...        0 min,  0.001 sec (  0.790%)

         :::::::::::::::::::::::::::::::::::::::::::::::::::::
         ::                     SUMMARY                     ::
         :::::::::::::::::::::::::::::::::::::::::::::::::::::
         :: total energy             -92.244669290644 Eh    ::
         :: total w/o Gsasa/hb       -92.205428857455 Eh    ::
         :: gradient norm              0.008063722208 Eh/a0 ::
         :: HOMO-LUMO gap              0.746796826748 eV    ::
         ::.................................................::
         :: SCC energy               -94.071653863035 Eh    ::
         :: -> isotropic ES            0.028262731293 Eh    ::
         :: -> anisotropic ES          0.007004108859 Eh    ::
         :: -> anisotropic XC          0.079560997676 Eh    ::
         :: -> dispersion             -0.078085647969 Eh    ::
         :: -> Gsolv                  -0.045708371374 Eh    ::
         ::    -> Gelec               -0.006467938185 Eh    ::
         ::    -> Gsasa               -0.043764313061 Eh    ::
         ::    -> Ghb                  0.000000000000 Eh    ::
         ::    -> Gshift               0.004523879872 Eh    ::
         :: repulsion energy           1.826984572391 Eh    ::
         :: add. restraining           0.000000000000 Eh    ::
         :: total charge              -0.000000000000 e     ::
         :::::::::::::::::::::::::::::::::::::::::::::::::::::

      ----------------------------------------------------------- 
     |                   =====================                   |
     |                        A N C O P T                        |
     |                   =====================                   |
     |               Approximate Normal Coordinate               |
     |                Rational Function Optimizer                |
      ----------------------------------------------------------- 

Optimization log is written to '/dev/null'
      ----------------------------------------------------------- 
     |                   =====================                   |
     |                        A N C O P T                        |
     |                   =====================                   |
     |               Approximate Normal Coordinate               |
     |                Rational Function Optimizer                |
      ----------------------------------------------------------- 

          ...................................................
          :                      SETUP                      :
          :.................................................:
          :   optimization level         verytight          :
          :   max. optcycles                  1160          :
          :   ANC micro-cycles                  20          :
          :   degrees of freedom               168          :
          :.................................................:
          :   RF solver                   davidson          :
          :   write xtbopt.log                true          :
          :   linear?                        false          :
          :   energy convergence         0.1000000E-06 Eh   :
          :   grad. convergence          0.2000000E-03 Eh/α :
          :   maxmium RF displ.          1.0000000          :
          :   Hlow (freq-cutoff)         0.1000000E-01      :
          :   Hmax (freq-cutoff)         5.0000000          :
          :   S6 in model hess.         20.0000000          :
          ...................................................

generating ANC from exact Hessian ...
Using Lindh-Hessian (1995)
 Shifting diagonal of input Hessian by   1.007419704255408E-002
 Lowest  eigenvalues of input Hessian
    0.010000    0.000000    0.000000    0.000000    0.000000    0.000000
    0.000000    0.010231    0.010285    0.010433    0.011090    0.011277
    0.011394    0.011585    0.011667    0.011699    0.012075    0.012837
 Highest eigenvalues
    2.072622    2.116209    2.155000    2.177233    2.610909    2.650089
 

........................................................................
.............................. CYCLE    1 ..............................
........................................................................

 iter      E             dE          RMSdq      gap      omega  full diag
   1    -94.0711467 -0.940711E+02  0.154E-04    0.75       0.0  T
   2    -94.0711467 -0.209468E-09  0.115E-04    0.75     113.9  T
   3    -94.0711467 -0.358796E-09  0.729E-05    0.75     180.0  T
     SCC iter.                  ...        0 min,  0.018 sec
     gradient                   ...        0 min,  0.007 sec
 * total energy  :   -92.2446693 Eh     change       -0.2360736E-08 Eh
   gradient norm :     0.0080584 Eh/α   predicted     0.0000000E+00 (-100.00%)
   displ. norm   :     0.0305401 α      lambda       -0.1726730E-04
   maximum displ.:     0.0124233 α      in ANC's #19, #33, #34, ...

........................................................................
.............................. CYCLE    2 ..............................
........................................................................

 iter      E             dE          RMSdq      gap      omega  full diag
   1    -94.0670919 -0.940671E+02  0.167E-02    0.74       0.0  T
   2    -94.0670927 -0.741725E-06  0.955E-03    0.74       1.4  T
   3    -94.0670917  0.968103E-06  0.521E-03    0.74       2.5  T
   4    -94.0670929 -0.121622E-05  0.142E-03    0.74       9.3  T
   5    -94.0670930 -0.926673E-07  0.639E-04    0.74      20.5  T
   6    -94.0670930 -0.119080E-07  0.187E-04    0.74      70.3  T
     SCC iter.                  ...        0 min,  0.035 sec
     gradient                   ...        0 min,  0.007 sec
 * total energy  :   -92.2447081 Eh     change       -0.3878680E-04 Eh
   gradient norm :     0.0025254 Eh/α   predicted    -0.3041757E-04 ( -21.58%)
   displ. norm   :     0.0537468 α      lambda       -0.4297943E-04
   maximum displ.:     0.0265877 α      in ANC's #1, #19, #4, ...

........................................................................
.............................. CYCLE    3 ..............................
........................................................................

 iter      E             dE          RMSdq      gap      omega  full diag
   1    -94.0639325 -0.940639E+02  0.482E-02    0.74       0.0  T
   2    -94.0639352 -0.271791E-05  0.267E-02    0.74       1.0  T
   3    -94.0639345  0.681627E-06  0.597E-03    0.74       2.2  T
   4    -94.0639362 -0.164217E-05  0.144E-03    0.74       9.1  T
   5    -94.0639362 -0.460283E-07  0.887E-04    0.74      14.8  T
   6    -94.0639362 -0.230215E-07  0.319E-04    0.74      41.2  T
     SCC iter.                  ...        0 min,  0.035 sec
     gradient                   ...        0 min,  0.007 sec
 * total energy  :   -92.2446844 Eh     change        0.2365571E-04 Eh
   gradient norm :     0.0048292 Eh/α   predicted    -0.2157465E-04 (-191.20%)
   displ. norm   :     0.0328269 α      lambda       -0.8078057E-04
   maximum displ.:     0.0152198 α      in ANC's #1, #4, #3, ...

........................................................................
.............................. CYCLE    4 ..............................
........................................................................

 iter      E             dE          RMSdq      gap      omega  full diag
   1    -94.0654387 -0.940654E+02  0.385E-02    0.74       0.0  T
   2    -94.0654400 -0.133708E-05  0.213E-02    0.74       1.0  T
   3    -94.0654400  0.333533E-07  0.320E-03    0.74       4.1  T
   4    -94.0654405 -0.587397E-06  0.791E-04    0.74      16.6  T
   5    -94.0654406 -0.512247E-08  0.244E-04    0.74      53.9  T
     SCC iter.                  ...        0 min,  0.029 sec
     gradient                   ...        0 min,  0.007 sec
 * total energy  :   -92.2447223 Eh     change       -0.3788808E-04 Eh
   gradient norm :     0.0017140 Eh/α   predicted    -0.4043401E-04 (   6.72%)
   displ. norm   :     0.0276860 α      lambda       -0.1190858E-04
   maximum displ.:     0.0204018 α      in ANC's #26, #27, #5, ...

........................................................................
.............................. CYCLE    5 ..............................
........................................................................

 iter      E             dE          RMSdq      gap      omega  full diag
   1    -94.0668745 -0.940669E+02  0.320E-02    0.74       0.0  T
   2    -94.0668755 -0.967567E-06  0.178E-02    0.74       1.0  T
   3    -94.0668753  0.221174E-06  0.357E-03    0.74       3.7  T
   4    -94.0668759 -0.602241E-06  0.783E-04    0.74      16.8  T
   5    -94.0668759 -0.158843E-07  0.491E-04    0.74      26.8  T
     SCC iter.                  ...        0 min,  0.029 sec
     gradient                   ...        0 min,  0.007 sec
 * total energy  :   -92.2447118 Eh     change        0.1046764E-04 Eh
   gradient norm :     0.0017634 Eh/α   predicted    -0.5957790E-05 (-156.92%)
   displ. norm   :     0.0233511 α      lambda       -0.2171704E-04
   maximum displ.:     0.0165752 α      in ANC's #26, #27, #5, ...

........................................................................
.............................. CYCLE    6 ..............................
........................................................................

 iter      E             dE          RMSdq      gap      omega  full diag
   1    -94.0665113 -0.940665E+02  0.265E-02    0.74       0.0  T
   2    -94.0665118 -0.585079E-06  0.147E-02    0.74       1.0  T
   3    -94.0665120 -0.191491E-06  0.960E-04    0.74      13.7  T
   4    -94.0665121 -0.337536E-07  0.531E-04    0.74      24.7  T
     SCC iter.                  ...        0 min,  0.023 sec
     gradient                   ...        0 min,  0.007 sec
 * total energy  :   -92.2447288 Eh     change       -0.1693733E-04 Eh
   gradient norm :     0.0006953 Eh/α   predicted    -0.1086176E-04 ( -35.87%)
   displ. norm   :     0.0229102 α      lambda       -0.2558200E-05
   maximum displ.:     0.0097467 α      in ANC's #3, #1, #11, ...

........................................................................
.............................. CYCLE    7 ..............................
........................................................................

 iter      E             dE          RMSdq      gap      omega  full diag
   1    -94.0659232 -0.940659E+02  0.996E-03    0.74       0.0  T
   2    -94.0659233 -0.105545E-06  0.563E-03    0.74       2.3  T
   3    -94.0659233  0.642560E-07  0.135E-03    0.74       9.8  T
   4    -94.0659234 -0.102213E-06  0.338E-04    0.74      38.8  T
   5    -94.0659234 -0.270046E-08  0.180E-04    0.74      72.9  T
     SCC iter.                  ...        0 min,  0.029 sec
     gradient                   ...        0 min,  0.007 sec
 * total energy  :   -92.2447308 Eh     change       -0.2042634E-05 Eh
   gradient norm :     0.0008097 Eh/α   predicted    -0.1281554E-05 ( -37.26%)
   displ. norm   :     0.0271345 α      lambda       -0.2076255E-05
   maximum displ.:     0.0142138 α      in ANC's #3, #1, #2, ...

........................................................................
.............................. CYCLE    8 ..............................
........................................................................

 iter      E             dE          RMSdq      gap      omega  full diag
   1    -94.0660682 -0.940661E+02  0.961E-03    0.74       0.0  T
   2    -94.0660683 -0.663062E-07  0.543E-03    0.74       2.4  T
   3    -94.0660682  0.122157E-06  0.171E-03    0.74       7.7  T
   4    -94.0660683 -0.158316E-06  0.294E-04    0.74      44.6  T
   5    -94.0660683 -0.113575E-08  0.204E-04    0.74      64.3  T
     SCC iter.                  ...        0 min,  0.029 sec
     gradient                   ...        0 min,  0.007 sec
 * total energy  :   -92.2447333 Eh     change       -0.2471473E-05 Eh
   gradient norm :     0.0003771 Eh/α   predicted    -0.1041914E-05 ( -57.84%)
   displ. norm   :     0.0549538 α      lambda       -0.2736264E-05
   maximum displ.:     0.0306055 α      in ANC's #3, #1, #2, ...

........................................................................
.............................. CYCLE    9 ..............................
........................................................................

 iter      E             dE          RMSdq      gap      omega  full diag
   1    -94.0662705 -0.940663E+02  0.163E-02    0.74       0.0  T
   2    -94.0662707 -0.170065E-06  0.926E-03    0.74       1.4  T
   3    -94.0662705  0.219480E-06  0.241E-03    0.74       5.4  T
   4    -94.0662708 -0.303002E-06  0.456E-04    0.74      28.8  T
   5    -94.0662708 -0.110441E-08  0.316E-04    0.74      41.5  T
     SCC iter.                  ...        0 min,  0.029 sec
     gradient                   ...        0 min,  0.007 sec
 * total energy  :   -92.2447360 Eh     change       -0.2707116E-05 Eh
   gradient norm :     0.0004006 Eh/α   predicted    -0.1374392E-05 ( -49.23%)
   displ. norm   :     0.0477458 α      lambda       -0.1536813E-05
   maximum displ.:     0.0289153 α      in ANC's #3, #1, #2, ...

........................................................................
.............................. CYCLE   10 ..............................
........................................................................

 iter      E             dE          RMSdq      gap      omega  full diag
   1    -94.0664187 -0.940664E+02  0.110E-02    0.74       0.0  T
   2    -94.0664188 -0.529169E-07  0.632E-03    0.74       2.1  T
   3    -94.0664187  0.288800E-07  0.106E-03    0.74      12.4  T
   4    -94.0664188 -0.505858E-07  0.255E-04    0.74      51.4  T
   5    -94.0664188 -0.202007E-09  0.135E-04    0.74      97.5  T
     SCC iter.                  ...        0 min,  0.029 sec
     gradient                   ...        0 min,  0.007 sec
 * total energy  :   -92.2447380 Eh     change       -0.1961321E-05 Eh
   gradient norm :     0.0006418 Eh/α   predicted    -0.7719028E-06 ( -60.64%)
   displ. norm   :     0.1366848 α      lambda       -0.4515416E-05
   maximum displ.:     0.0854056 α      in ANC's #3, #1, #2, ...

........................................................................
.............................. CYCLE   11 ..............................
........................................................................

 iter      E             dE          RMSdq      gap      omega  full diag
   1    -94.0665446 -0.940665E+02  0.300E-02    0.75       0.0  T
   2    -94.0665450 -0.385124E-06  0.173E-02    0.75       1.0  T
   3    -94.0665450  0.238631E-07  0.210E-03    0.75       6.3  T
   4    -94.0665451 -0.166773E-06  0.694E-04    0.75      18.9  T
   5    -94.0665451  0.994959E-09  0.422E-04    0.75      31.1  T
     SCC iter.                  ...        0 min,  0.029 sec
     gradient                   ...        0 min,  0.007 sec
 * total energy  :   -92.2447434 Eh     change       -0.5396547E-05 Eh
   gradient norm :     0.0009475 Eh/α   predicted    -0.2297266E-05 ( -57.43%)
   displ. norm   :     0.1402321 α      lambda       -0.4934038E-05
   maximum displ.:     0.0892744 α      in ANC's #3, #1, #2, ...

........................................................................
.............................. CYCLE   12 ..............................
........................................................................

 iter      E             dE          RMSdq      gap      omega  full diag
   1    -94.0665907 -0.940666E+02  0.301E-02    0.75       0.0  T
   2    -94.0665911 -0.388368E-06  0.173E-02    0.75       1.0  T
   3    -94.0665911  0.825870E-07  0.235E-03    0.75       5.6  T
   4    -94.0665913 -0.228793E-06  0.745E-04    0.75      17.6  T
   5    -94.0665913 -0.103145E-08  0.488E-04    0.75      26.9  T
     SCC iter.                  ...        0 min,  0.029 sec
     gradient                   ...        0 min,  0.007 sec
 * total energy  :   -92.2447493 Eh     change       -0.5939724E-05 Eh
   gradient norm :     0.0009078 Eh/α   predicted    -0.2489395E-05 ( -58.09%)
   displ. norm   :     0.1131772 α      lambda       -0.4751138E-05
   maximum displ.:     0.0739407 α      in ANC's #3, #1, #2, ...

........................................................................
.............................. CYCLE   13 ..............................
........................................................................

 iter      E             dE          RMSdq      gap      omega  full diag
   1    -94.0665370 -0.940665E+02  0.249E-02    0.75       0.0  T
   2    -94.0665373 -0.299722E-06  0.142E-02    0.75       1.0  T
   3    -94.0665371  0.186697E-06  0.255E-03    0.75       5.2  T
   4    -94.0665374 -0.315860E-06  0.635E-04    0.75      20.7  T
   5    -94.0665374 -0.594810E-09  0.423E-04    0.75      31.1  T
     SCC iter.                  ...        0 min,  0.029 sec
     gradient                   ...        0 min,  0.007 sec
 * total energy  :   -92.2447550 Eh     change       -0.5658565E-05 Eh
   gradient norm :     0.0005880 Eh/α   predicted    -0.2389827E-05 ( -57.77%)
   displ. norm   :     0.1118143 α      lambda       -0.4039773E-05
   maximum displ.:     0.0744156 α      in ANC's #3, #1, #2, ...

........................................................................
.............................. CYCLE   14 ..............................
........................................................................

 iter      E             dE          RMSdq      gap      omega  full diag
   1    -94.0663109 -0.940663E+02  0.245E-02    0.75       0.0  T
   2    -94.0663112 -0.289624E-06  0.140E-02    0.75       1.0  T
   3    -94.0663110  0.163094E-06  0.239E-03    0.75       5.5  T
   4    -94.0663113 -0.289444E-06  0.611E-04    0.75      21.5  T
   5    -94.0663113  0.145079E-09  0.381E-04    0.75      34.5  T
     SCC iter.                  ...        0 min,  0.029 sec
     gradient                   ...        0 min,  0.007 sec
 * total energy  :   -92.2447592 Eh     change       -0.4286126E-05 Eh
   gradient norm :     0.0004377 Eh/α   predicted    -0.2035303E-05 ( -52.51%)
   displ. norm   :     0.0662215 α      lambda       -0.1993844E-05
   maximum displ.:     0.0451603 α      in ANC's #3, #1, #2, ...

........................................................................
.............................. CYCLE   15 ..............................
........................................................................

 iter      E             dE          RMSdq      gap      omega  full diag
   1    -94.0663065 -0.940663E+02  0.134E-02    0.75       0.0  T
   2    -94.0663065 -0.590204E-07  0.773E-03    0.75       1.7  T
   3    -94.0663065  0.309508E-07  0.105E-03    0.75      12.5  T
   4    -94.0663066 -0.561615E-07  0.299E-04    0.75      43.9  T
   5    -94.0663066 -0.314643E-09  0.169E-04    0.75      77.6  T
     SCC iter.                  ...        0 min,  0.030 sec
     gradient                   ...        0 min,  0.007 sec
 * total energy  :   -92.2447615 Eh     change       -0.2278288E-05 Eh
   gradient norm :     0.0004055 Eh/α   predicted    -0.1000784E-05 ( -56.07%)
   displ. norm   :     0.0675969 α      lambda       -0.2191974E-05
   maximum displ.:     0.0444280 α      in ANC's #3, #1, #2, ...

........................................................................
.............................. CYCLE   16 ..............................
........................................................................

 iter      E             dE          RMSdq      gap      omega  full diag
   1    -94.0661677 -0.940662E+02  0.148E-02    0.75       0.0  T
   2    -94.0661678 -0.570614E-07  0.861E-03    0.75       1.5  T
   3    -94.0661678  0.782066E-08  0.767E-04    0.75      17.1  T
   4    -94.0661678 -0.295807E-07  0.301E-04    0.75      43.6  T
     SCC iter.                  ...        0 min,  0.024 sec
     gradient                   ...        0 min,  0.007 sec
 * total energy  :   -92.2447641 Eh     change       -0.2566355E-05 Eh
   gradient norm :     0.0005155 Eh/α   predicted    -0.1102265E-05 ( -57.05%)
   displ. norm   :     0.0893636 α      lambda       -0.2719121E-05
   maximum displ.:     0.0575524 α      in ANC's #3, #2, #1, ...

........................................................................
.............................. CYCLE   17 ..............................
........................................................................

 iter      E             dE          RMSdq      gap      omega  full diag
   1    -94.0661301 -0.940661E+02  0.203E-02    0.75       0.0  T
   2    -94.0661302 -0.710141E-07  0.119E-02    0.75       1.1  T
   3    -94.0661301  0.114778E-06  0.158E-03    0.75       8.3  T
   4    -94.0661302 -0.149096E-06  0.351E-04    0.75      37.4  T
   5    -94.0661302 -0.180512E-08  0.204E-04    0.75      64.5  T
     SCC iter.                  ...        0 min,  0.030 sec
     gradient                   ...        0 min,  0.007 sec
 * total energy  :   -92.2447670 Eh     change       -0.2944671E-05 Eh
   gradient norm :     0.0005923 Eh/α   predicted    -0.1368151E-05 ( -53.54%)
   displ. norm   :     0.0757355 α      lambda       -0.1761742E-05
   maximum displ.:     0.0483987 α      in ANC's #3, #2, #1, ...

........................................................................
.............................. CYCLE   18 ..............................
........................................................................

 iter      E             dE          RMSdq      gap      omega  full diag
   1    -94.0660807 -0.940661E+02  0.177E-02    0.75       0.0  T
   2    -94.0660808 -0.636086E-07  0.103E-02    0.75       1.3  T
   3    -94.0660808  0.200156E-07  0.976E-04    0.75      13.5  T
   4    -94.0660808 -0.464752E-07  0.310E-04    0.75      42.3  T
     SCC iter.                  ...        0 min,  0.024 sec
     gradient                   ...        0 min,  0.007 sec
 * total energy  :   -92.2447687 Eh     change       -0.1622186E-05 Eh
   gradient norm :     0.0004541 Eh/α   predicted    -0.8844620E-06 ( -45.48%)
   displ. norm   :     0.0212172 α      lambda       -0.6297162E-06
   maximum displ.:     0.0130212 α      in ANC's #3, #2, #4, ...

........................................................................
.............................. CYCLE   19 ..............................
........................................................................

 iter      E             dE          RMSdq      gap      omega  full diag
   1    -94.0662677 -0.940663E+02  0.541E-03    0.74       0.0  T
   2    -94.0662677 -0.852499E-08  0.315E-03    0.74       4.2  T
   3    -94.0662677  0.404223E-07  0.927E-04    0.74      14.2  T
   4    -94.0662677 -0.467688E-07  0.124E-04    0.74     105.5  T
     SCC iter.                  ...        0 min,  0.024 sec
     gradient                   ...        0 min,  0.007 sec
 * total energy  :   -92.2447692 Eh     change       -0.5812995E-06 Eh
   gradient norm :     0.0003411 Eh/α   predicted    -0.3165953E-06 ( -45.54%)
   displ. norm   :     0.0241473 α      lambda        0.2223056E-06
   maximum displ.:     0.0147015 α      in ANC's #3, #2, #4, ...

........................................................................
.............................. CYCLE   20 ..............................
........................................................................

 iter      E             dE          RMSdq      gap      omega  full diag
   1    -94.0664496 -0.940664E+02  0.606E-03    0.74       0.0  T
   2    -94.0664496 -0.976910E-08  0.352E-03    0.74       3.7  T
   3    -94.0664496  0.207383E-07  0.712E-04    0.74      18.4  T
   4    -94.0664496 -0.260789E-07  0.123E-04    0.74     106.9  T
     SCC iter.                  ...        0 min,  0.024 sec
     gradient                   ...        0 min,  0.007 sec
 * total energy  :   -92.2447691 Eh     change        0.1573798E-06 Eh
   gradient norm :     0.0007153 Eh/α   predicted     0.1066294E-06 ( -32.25%)
   displ. norm   :     0.0306658 α      lambda        0.8307450E-06
   maximum displ.:     0.0178886 α      in ANC's #3, #2, #1, ...
 * RMSD in coord.:     0.1229573 α      energy gain  -0.9979014E-04 Eh

generating ANC from exact Hessian ...
Using Lindh-Hessian (1995)
 Shifting diagonal of input Hessian by   1.006568191834605E-002
 Lowest  eigenvalues of input Hessian
    0.010000    0.000000    0.000000    0.000000    0.000000    0.000000
    0.000000    0.010223    0.010275    0.010423    0.011091    0.011254
    0.011385    0.011573    0.011663    0.011683    0.012057    0.012818
 Highest eigenvalues
    2.070291    2.113742    2.151268    2.174412    2.610084    2.645600
 

........................................................................
.............................. CYCLE   21 ..............................
........................................................................

 iter      E             dE          RMSdq      gap      omega  full diag
   1    -94.0664624 -0.940665E+02  0.786E-03    0.74       0.0  T
   2    -94.0664624 -0.189064E-07  0.454E-03    0.74       2.9  T
   3    -94.0664624  0.557375E-08  0.501E-04    0.74      26.2  T
   4    -94.0664624 -0.133953E-07  0.167E-04    0.74      78.6  T
     SCC iter.                  ...        0 min,  0.024 sec
     gradient                   ...        0 min,  0.007 sec
 * total energy  :   -92.2447684 Eh     change        0.6563244E-06 Eh
   gradient norm :     0.0005166 Eh/α   predicted     0.0000000E+00 (-100.00%)
   displ. norm   :     0.0111070 α      lambda       -0.1120849E-05
   maximum displ.:     0.0047782 α      in ANC's #11, #12, #15, ...

........................................................................
.............................. CYCLE   22 ..............................
........................................................................

 iter      E             dE          RMSdq      gap      omega  full diag
   1    -94.0663359 -0.940663E+02  0.113E-02    0.74       0.0  T
   2    -94.0663360 -0.105179E-06  0.626E-03    0.74       2.1  T
   3    -94.0663360 -0.245798E-07  0.636E-04    0.74      20.7  T
   4    -94.0663361 -0.169336E-07  0.246E-04    0.74      53.4  T
     SCC iter.                  ...        0 min,  0.025 sec
     gradient                   ...        0 min,  0.007 sec
 * total energy  :   -92.2447659 Eh     change        0.2487041E-05 Eh
   gradient norm :     0.0009629 Eh/α   predicted    -0.6069191E-06 (-124.40%)
   displ. norm   :     0.0102310 α      lambda       -0.4288576E-05
   maximum displ.:     0.0057079 α      in ANC's #1, #4, #3, ...

........................................................................
.............................. CYCLE   23 ..............................
........................................................................

 iter      E             dE          RMSdq      gap      omega  full diag
   1    -94.0662826 -0.940663E+02  0.116E-02    0.74       0.0  T
   2    -94.0662827 -0.123248E-06  0.644E-03    0.74       2.0  T
   3    -94.0662827 -0.352618E-07  0.544E-04    0.74      24.2  T
   4    -94.0662827 -0.122765E-07  0.250E-04    0.74      52.6  T
     SCC iter.                  ...        0 min,  0.024 sec
     gradient                   ...        0 min,  0.007 sec
 * total energy  :   -92.2447691 Eh     change       -0.3202004E-05 Eh
   gradient norm :     0.0004485 Eh/α   predicted    -0.2148147E-05 ( -32.91%)
   displ. norm   :     0.0050984 α      lambda       -0.4618609E-06
   maximum displ.:     0.0023711 α      in ANC's #11, #46, #26, ...

........................................................................
.............................. CYCLE   24 ..............................
........................................................................

 iter      E             dE          RMSdq      gap      omega  full diag
   1    -94.0662653 -0.940663E+02  0.369E-03    0.74       0.0  T
   2    -94.0662653 -0.899126E-08  0.210E-03    0.74       6.2  T
   3    -94.0662653  0.493725E-08  0.409E-04    0.74      32.1  T
   4    -94.0662653 -0.879170E-08  0.962E-05    0.74     136.5  T
     SCC iter.                  ...        0 min,  0.024 sec
     gradient                   ...        0 min,  0.007 sec
 * total energy  :   -92.2447692 Eh     change       -0.6502145E-07 Eh
   gradient norm :     0.0003544 Eh/α   predicted    -0.2318742E-06 ( 256.61%)
   displ. norm   :     0.0060601 α      lambda       -0.4383010E-06
   maximum displ.:     0.0027861 α      in ANC's #11, #26, #7, ...

........................................................................
.............................. CYCLE   25 ..............................
........................................................................

 iter      E             dE          RMSdq      gap      omega  full diag
   1    -94.0662805 -0.940663E+02  0.501E-03    0.74       0.0  T
   2    -94.0662805 -0.193565E-07  0.279E-03    0.74       4.7  T
   3    -94.0662805 -0.443448E-08  0.249E-04    0.74      52.8  T
   4    -94.0662805 -0.322149E-08  0.989E-05    0.74     132.8  T
     SCC iter.                  ...        0 min,  0.024 sec
     gradient                   ...        0 min,  0.007 sec
 * total energy  :   -92.2447694 Eh     change       -0.1773671E-06 Eh
   gradient norm :     0.0003991 Eh/α   predicted    -0.2211065E-06 (  24.66%)
   displ. norm   :     0.0054553 α      lambda       -0.3922037E-06
   maximum displ.:     0.0026643 α      in ANC's #11, #7, #46, ...

........................................................................
.............................. CYCLE   26 ..............................
........................................................................

 iter      E             dE          RMSdq      gap      omega  full diag
   1    -94.0663185 -0.940663E+02  0.294E-03    0.74       0.0  T
   2    -94.0663185 -0.455323E-08  0.170E-03    0.74       7.7  T
   3    -94.0663185  0.348878E-08  0.359E-04    0.74      36.6  T
   4    -94.0663185 -0.533797E-08  0.794E-05    0.74     165.3  T
     SCC iter.                  ...        0 min,  0.024 sec
     gradient                   ...        0 min,  0.007 sec
 * total energy  :   -92.2447696 Eh     change       -0.1796447E-06 Eh
   gradient norm :     0.0002967 Eh/α   predicted    -0.2007682E-06 (  11.76%)
   displ. norm   :     0.0030886 α      lambda       -0.1310586E-06
   maximum displ.:     0.0015804 α      in ANC's #11, #7, #12, ...

........................................................................
.............................. CYCLE   27 ..............................
........................................................................

 iter      E             dE          RMSdq      gap      omega  full diag
   1    -94.0662975 -0.940663E+02  0.128E-03    0.74       0.0  T
   2    -94.0662975 -0.453269E-09  0.748E-04    0.74      17.6  T
   3    -94.0662975  0.916671E-09  0.145E-04    0.74      90.7  T
     SCC iter.                  ...        0 min,  0.018 sec
     gradient                   ...        0 min,  0.007 sec
 * total energy  :   -92.2447697 Eh     change       -0.1332011E-06 Eh
   gradient norm :     0.0000859 Eh/α   predicted    -0.6829767E-07 ( -48.73%)
   displ. norm   :     0.0030886 α      lambda        0.0000000E+00
   maximum displ.:     0.0015804 α      in ANC's #11, #7, #12, ...

........................................................................
.............................. CYCLE   28 ..............................
........................................................................

 iter      E             dE          RMSdq      gap      omega  full diag
   1    -94.0662761 -0.940663E+02  0.129E-03    0.74       0.0  T
   2    -94.0662761 -0.405052E-09  0.757E-04    0.74      17.3  T
   3    -94.0662761  0.145572E-08  0.179E-04    0.74      73.5  T
     SCC iter.                  ...        0 min,  0.018 sec
     gradient                   ...        0 min,  0.007 sec
 * total energy  :   -92.2447697 Eh     change        0.7307634E-08 Eh
   gradient norm :     0.0001685 Eh/α   predicted     0.4350824E-08 ( -40.46%)
   displ. norm   :     0.0024756 α      lambda       -0.6789683E-07
   maximum displ.:     0.0012405 α      in ANC's #7, #11, #12, ...

........................................................................
.............................. CYCLE   29 ..............................
........................................................................

 iter      E             dE          RMSdq      gap      omega  full diag
   1    -94.0662996 -0.940663E+02  0.102E-03    0.74       0.0  T
   2    -94.0662996 -0.324533E-09  0.593E-04    0.74      22.1  T
   3    -94.0662996  0.227274E-09  0.862E-05    0.74     152.3  T
     SCC iter.                  ...        0 min,  0.018 sec
     gradient                   ...        0 min,  0.007 sec
 * total energy  :   -92.2447698 Eh     change       -0.7877105E-07 Eh
   gradient norm :     0.0000472 Eh/α   predicted    -0.3835841E-07 ( -51.30%)
   displ. norm   :     0.0050275 α      lambda       -0.4391736E-07
   maximum displ.:     0.0026579 α      in ANC's #7, #11, #3, ...

   *** GEOMETRY OPTIMIZATION CONVERGED AFTER 29 ITERATIONS ***

------------------------------------------------------------------------
 total energy gain   :        -0.0001005 Eh       -0.0630 kcal/mol
 total RMSD          :         0.1224728 a0        0.0648 Å
 total power (kW/mol):        -0.0090965 (step)   -0.2320 (real)
------------------------------------------------------------------------

 ANCopt (total)                0 d,  0 h,  0 min,  1.137 sec
 optimizer setup                ...        0 min,  0.000 sec (  0.019%)
 model hessian                  ...        0 min,  0.046 sec (  4.028%)
 ANC generation                 ...        0 min,  0.007 sec (  0.597%)
 coordinate transformation      ...        0 min,  0.003 sec (  0.257%)
 single point calculation       ...        0 min,  1.067 sec ( 93.835%)
 optimization log               ...        0 min,  0.006 sec (  0.512%)
 hessian update                 ...        0 min,  0.003 sec (  0.257%)
 rational function              ...        0 min,  0.003 sec (  0.257%)

================
 final structure:
================
58
 xtb: 6.7.1 (edcfbbe)
N            5.88021575805199       -3.95465997235419        0.32819716057476
C            6.02528232681370       -2.81738230684470        0.24340508805011
C            6.29807994326606       -1.43902217383813        0.14145504698514
C            7.68712994898630       -1.20656440405710        0.14821716820678
N            8.83161541807961       -1.09785953621862        0.16116945708883
C            5.34115479717652       -0.46076148845609        0.05193459503867
C            5.57425170224130        0.97827359627239       -0.05370134880312
C            6.74755828665359        1.71149381657865       -0.10696455137826
C            6.66369814280703        3.09546296130459       -0.20979319463987
C            5.43612198022914        3.73497484463056       -0.25798401025118
C            4.25056283891250        3.00846056677379       -0.20482037405600
C            4.32407619673750        1.63533560547540       -0.10410968647205
C            3.27753782451233        0.62158884263838       -0.03117769990175
C            1.90918940741728        0.74213268704245       -0.03683120952448
C            1.11652661735976       -0.41448860971405        0.02946608225610
C           -0.34132035085833       -0.30927440343166        0.02037293570452
C           -1.12878154358318       -1.24599036448871       -0.65439272159348
C           -2.50128026112345       -1.14249592637758       -0.67313393681381
C           -3.14781356031184       -0.10392249056090        0.00532714379657
N           -4.53320985005985       -0.00291462642094       -0.00197744779019
C           -5.33183552988607       -1.15572071375803       -0.06856793636797
C           -4.98734074188939       -2.30052220799740        0.64919116685585
C           -5.78140934069857       -3.42935871695652        0.57918392648543
C           -6.92948834553209       -3.43273837323438       -0.19678318865218
C           -7.27997099033708       -2.29454850208270       -0.90515869407637
C           -6.48797614027352       -1.16357116619618       -0.84782345165914
C           -5.15727430216707        1.25307876362350        0.05993938886181
C           -6.30864403199283        1.42737196208673        0.82681116917961
C           -6.92789004743021        2.66162831823043        0.88035173967638
C           -6.40831859317224        3.73823489492959        0.17947796758512
C           -5.26446968011805        3.56952431695587       -0.58428697280450
C           -4.64258392517560        2.33714752048292       -0.65026169165542
C           -2.36453710861108        0.83032590747562        0.69107628816970
C           -0.99146408634327        0.73289353255010        0.68694964752527
C            1.74127976776821       -1.66274403392950        0.10217971408425
C            3.11928811318503       -1.79096696161569        0.11965085759887
C            3.90178051958395       -0.64634186831373        0.05354026614158
H            7.71238684504347        1.23067874437542       -0.07056715533009
H            7.57302805111588        3.67585626020605       -0.25242211507801
H            5.39890052446509        4.81127427683029       -0.33806729825009
H            3.29669655854363        3.51177526610803       -0.24325473536666
H            1.44315715379277        1.71185906068359       -0.11844736793595
H           -0.65360501280593       -2.04289577161473       -1.20684450848312
H           -3.08805869623851       -1.86227640231467       -1.22442773671375
H           -4.09882534706920       -2.29661407742796        1.26370102488889
H           -5.50558593292297       -4.30960518667084        1.14137799732749
H           -7.54834435616589       -4.31596984239241       -0.24687695122040
H           -8.17217769770115       -2.28928667907936       -1.51412829047916
H           -6.75806532909246       -0.27963654014600       -1.40706623464324
H           -6.71052833829634        0.59092238385419        1.37987926015400
H           -7.81778795386308        2.78477528392840        1.48019137347492
H           -6.89291749109427        4.70186410278065        0.22675405902840
H           -4.85773497686831        4.40126960500750       -1.14081752210528
H           -3.75779050719614        2.20455212116123       -1.25576748233657
H           -2.84647033173813        1.62746343422511        1.23757780283533
H           -0.41239627954103        1.45194136831621        1.24698780980688
H            1.13414532697581       -2.55240623421137        0.17235705021591
H            3.56659048133218       -2.77032290042665        0.18764377168511
 
 Bond Distances (Angstroems)
 ---------------------------
N1-C2=1.1496         C2-N1=1.1496         C2-C3=1.4088         C3-C2=1.4088         C3-C4=1.4084         C3-C6=1.3714         
C4-C3=1.4084         C4-N5=1.1497         N5-C4=1.1497         C6-C3=1.3714         C6-C7=1.4616         C6-C37=1.4513        
C7-C6=1.4616         C7-C8=1.3846         C7-C12=1.4132        C8-C7=1.3846         C8-C9=1.3903         C8-H38=1.0786        
C9-C8=1.3903         C9-C10=1.3850        C9-H39=1.0796        C10-C9=1.3850        C10-C11=1.3915       C10-H40=1.0799       
C11-C10=1.3915       C11-C12=1.3788       C11-H41=1.0792       C12-C7=1.4132        C12-C11=1.3788       C12-C13=1.4589       
C13-C12=1.4589       C13-C14=1.3737       C13-C37=1.4158       C14-C13=1.3737       C14-C15=1.4037       C14-H42=1.0790       
C15-C14=1.4037       C15-C16=1.4617       C15-C35=1.3978       C16-C15=1.4617       C16-C17=1.3974       C16-C34=1.3975       
C17-C16=1.3974       C17-C18=1.3765       C17-H43=1.0798       C18-C17=1.3765       C18-C19=1.3989       C18-H44=1.0800       
C19-C18=1.3989       C19-N20=1.3891       C19-C33=1.3988       N20-C19=1.3891       N20-C21=1.4040       N20-C27=1.4039       
C21-N20=1.4040       C21-C22=1.3944       C21-C26=1.3943       C22-C21=1.3944       C22-C23=1.3819       C22-H45=1.0803       
C23-C22=1.3819       C23-C24=1.3857       C23-H46=1.0803       C24-C23=1.3857       C24-C25=1.3857       C24-H47=1.0796       
C25-C24=1.3857       C25-C26=1.3819       C25-H48=1.0802       C26-C21=1.3943       C26-C25=1.3819       C26-H49=1.0803       
C27-N20=1.4039       C27-C28=1.3943       C27-C32=1.3945       C28-C27=1.3943       C28-C29=1.3819       C28-H50=1.0803       
C29-C28=1.3819       C29-C30=1.3857       C29-H51=1.0802       C30-C29=1.3857       C30-C31=1.3857       C30-H52=1.0797       
C31-C30=1.3857       C31-C32=1.3820       C31-H53=1.0803       C32-C27=1.3945       C32-C31=1.3820       C32-H54=1.0803       
C33-C19=1.3988       C33-C34=1.3765       C33-H55=1.0800       C34-C16=1.3975       C34-C33=1.3765       C34-H56=1.0798       
C35-C15=1.3978       C35-C36=1.3841       C35-H57=1.0794       C36-C35=1.3841       C36-C37=1.3881       C36-H58=1.0788       
C37-C6=1.4513        C37-C13=1.4158       C37-C36=1.3881       H38-C8=1.0786        H39-C9=1.0796        H40-C10=1.0799       
H41-C11=1.0792       H42-C14=1.0790       H43-C17=1.0798       H44-C18=1.0800       H45-C22=1.0803       H46-C23=1.0803       
H47-C24=1.0796       H48-C25=1.0802       H49-C26=1.0803       H50-C28=1.0803       H51-C29=1.0802       H52-C30=1.0797       
H53-C31=1.0803       H54-C32=1.0803       H55-C33=1.0800       H56-C34=1.0798       H57-C35=1.0794       H58-C36=1.0788       
 C  H  Rav=1.0798 sigma=0.0005  Rmin=1.0786  Rmax=1.0803    21
 C  C  Rav=1.3979 sigma=0.0235  Rmin=1.3714  Rmax=1.4617    37
 N  C  Rav=1.2993 sigma=0.1223  Rmin=1.1496  Rmax=1.4040     5
 
 selected bond angles (degree)
 --------------------
C3-C2-N1=176.08                C4-C3-C2=110.62                C6-C3-C2=124.58                C6-C3-C4=124.80                
N5-C4-C3=175.91                C7-C6-C3=126.57                C37-C6-C3=126.92               C37-C6-C7=106.51               
C8-C7-C6=131.25                C12-C7-C6=108.62               C12-C7-C8=120.14               C9-C8-C7=118.61                
H38-C8-C7=121.38               H38-C8-C9=120.01               C10-C9-C8=121.04               H39-C9-C8=119.16               
H39-C9-C10=119.80              C11-C10-C9=120.85              H40-C10-C9=119.56              H40-C10-C11=119.59             
 
 selected dihedral angles (degree)
 ---------------------------------
C4-C3-C2-N1=359.45            C6-C3-C2-N1=179.62            N5-C4-C3-C2=359.33            N5-C4-C3-C6=179.16            
C7-C6-C3-C2=179.92            C7-C6-C3-C4=  0.12            C37-C6-C3-C2=  0.43           C37-C6-C3-C4=180.63           
C8-C7-C6-C3=  0.89            C8-C7-C6-C37=180.46           C12-C7-C6-C3=180.83           C12-C7-C6-C37=  0.40          
C9-C8-C7-C6=179.95            C9-C8-C7-C12=  0.00           H38-C8-C7-C6=359.97           H38-C8-C7-C12=180.03          
C10-C9-C8-C7=  0.02           C10-C9-C8-H38=180.01          H39-C9-C8-C7=180.03           H39-C9-C8-H38=  0.00          
C11-C10-C9-C8=  0.00          C11-C10-C9-H39=179.99         H40-C10-C9-C8=180.01          H40-C10-C9-H39=  0.00         
           -------------------------------------------------
          |                Final Singlepoint                |
           -------------------------------------------------

          ...................................................
          :                      SETUP                      :
          :.................................................:
          :  # basis functions                 169          :
          :  # atomic orbitals                 169          :
          :  # shells                           95          :
          :  # electrons                       172          :
          :  max. iterations                   250          :
          :  Hamiltonian                  GFN2-xTB          :
          :  restarted?                      false          :
          :  GBSA solvation                   true          :
          :  PC potential                    false          :
          :  electronic temp.          300.0000000     K    :
          :  accuracy                    1.0000000          :
          :  -> integral cutoff          0.2500000E+02      :
          :  -> integral neglect         0.1000000E-07      :
          :  -> SCF convergence          0.1000000E-05 Eh   :
          :  -> wf. convergence          0.1000000E-03 e    :
          :  Broyden damping             0.4000000          :
          :  net charge                          0          :
          :  unpaired electrons                  0          :
          ...................................................

 iter      E             dE          RMSdq      gap      omega  full diag
   1    -94.0662996 -0.940663E+02  0.267E-05    0.74       0.0  T
   2    -94.0662996  0.113687E-11  0.203E-05    0.74     647.3  T
   3    -94.0662996 -0.152909E-10  0.108E-05    0.74    1218.8  T

   *** convergence criteria satisfied after 3 iterations ***

         #    Occupation            Energy/Eh            Energy/eV
      -------------------------------------------------------------
         1        2.0000           -0.6811594             -18.5353
       ...           ...                  ...                  ...
        80        2.0000           -0.4130050             -11.2384
        81        2.0000           -0.4121444             -11.2150
        82        2.0000           -0.4092959             -11.1375
        83        2.0000           -0.4088471             -11.1253
        84        2.0000           -0.4026120             -10.9556
        85        2.0000           -0.3944417             -10.7333
        86        2.0000           -0.3553343              -9.6691 (HOMO)
        87        0.0000           -0.3279852              -8.9249 (LUMO)
        88                         -0.2602660              -7.0822
        89                         -0.2533681              -6.8945
        90                         -0.2459223              -6.6919
        91                         -0.2348851              -6.3916
       ...                                ...                  ...
       169                          1.1532153              31.3806
      -------------------------------------------------------------
                  HL-Gap            0.0273492 Eh            0.7442 eV
             Fermi-level           -0.3416597 Eh           -9.2970 eV

 SCC (total)                   0 d,  0 h,  0 min,  0.029 sec
 SCC setup                      ...        0 min,  0.000 sec (  1.647%)
 Dispersion                     ...        0 min,  0.001 sec (  2.067%)
 classical contributions        ...        0 min,  0.000 sec (  0.132%)
 integral evaluation            ...        0 min,  0.002 sec (  7.865%)
 iterations                     ...        0 min,  0.018 sec ( 62.977%)
 molecular gradient             ...        0 min,  0.007 sec ( 23.802%)
 printout                       ...        0 min,  0.000 sec (  1.227%)

         :::::::::::::::::::::::::::::::::::::::::::::::::::::
         ::                     SUMMARY                     ::
         :::::::::::::::::::::::::::::::::::::::::::::::::::::
         :: total energy             -92.244769766475 Eh    ::
         :: total w/o Gsasa/hb       -92.205414988040 Eh    ::
         :: gradient norm              0.000050363157 Eh/a0 ::
         :: HOMO-LUMO gap              0.744208412411 eV    ::
         ::.................................................::
         :: SCC energy               -94.066803399037 Eh    ::
         :: -> isotropic ES            0.028547070254 Eh    ::
         :: -> anisotropic ES          0.006976461080 Eh    ::
         :: -> anisotropic XC          0.079592086334 Eh    ::
         :: -> dispersion             -0.078005639502 Eh    ::
         :: -> Gsolv                  -0.045986411306 Eh    ::
         ::    -> Gelec               -0.006631632871 Eh    ::
         ::    -> Gsasa               -0.043878658307 Eh    ::
         ::    -> Ghb                  0.000000000000 Eh    ::
         ::    -> Gshift               0.004523879872 Eh    ::
         :: repulsion energy           1.822033632562 Eh    ::
         :: add. restraining           0.000000000000 Eh    ::
         :: total charge               0.000000000000 e     ::
         :::::::::::::::::::::::::::::::::::::::::::::::::::::

           ------------------------------------------------- 
          |                Numerical Hessian                |
           ------------------------------------------------- 
step length          :   0.00500
SCC accuracy         :   0.30000
Hessian scale factor :   1.00000
frozen atoms in %    :   0.00000    0
RMS gradient         :   0.00005
estimated CPU  time     15.16 min
estimated wall time      0.39 min

writing file <hessian>.

 projected vibrational frequencies (cm⁻¹)
eigval :       -0.00    -0.00    -0.00     0.00     0.00     0.00
eigval :       15.59    20.43    23.62    40.35    46.71    52.22
eigval :       57.85    68.15    70.68    75.83   104.32   107.91
eigval :      114.53   128.21   133.08   159.78   167.69   193.15
eigval :      217.97   221.72   227.68   236.95   270.42   303.77
eigval :      309.36   331.30   352.65   375.63   378.60   380.84
eigval :      389.92   395.92   396.17   407.68   423.72   433.02
eigval :      443.88   450.08   457.36   488.01   494.09   512.67
eigval :      540.82   560.13   582.93   583.36   587.45   591.38
eigval :      592.80   595.21   606.54   613.10   633.03   643.40
eigval :      661.36   667.56   685.19   692.94   708.66   718.87
eigval :      729.16   757.57   761.99   780.54   810.47   817.47
eigval :      835.92   865.25   873.52   876.08   876.51   877.19
eigval :      893.30   896.07   899.22   909.17   913.84   914.37
eigval :      919.30   921.77   926.29   928.10   929.11   929.53
eigval :      930.30   932.19   933.29   982.39  1004.04  1007.73
eigval :     1028.30  1072.74  1078.34  1080.60  1082.26  1114.21
eigval :     1119.73  1121.87  1142.38  1149.94  1176.39  1177.99
eigval :     1179.39  1183.81  1192.28  1194.98  1197.55  1201.17
eigval :     1214.22  1218.84  1235.08  1247.29  1269.82  1273.38
eigval :     1275.93  1279.18  1297.23  1302.62  1313.85  1317.68
eigval :     1322.84  1326.21  1328.22  1367.56  1404.14  1416.63
eigval :     1427.93  1434.01  1439.52  1449.84  1460.36  1466.98
eigval :     1470.05  1494.40  1529.22  1543.39  1559.51  1575.91
eigval :     1577.13  1580.34  1581.71  1589.82  1592.48  1598.06
eigval :     1608.92  2315.33  2346.42  3073.71  3073.85  3074.51
eigval :     3075.16  3079.50  3081.14  3082.05  3083.35  3083.99
eigval :     3085.73  3086.65  3090.50  3090.99  3092.45  3093.61
eigval :     3095.15  3095.58  3095.98  3098.69  3112.20  3114.81
           -------------------------------------------------
          |                Property Printout                |
           -------------------------------------------------

    * Orbital Energies and Occupations

         #    Occupation            Energy/Eh            Energy/eV
      -------------------------------------------------------------
         1        2.0000           -0.6811594             -18.5353
       ...           ...                  ...                  ...
        74        2.0000           -0.4293950             -11.6844
        75        2.0000           -0.4286395             -11.6639
        76        2.0000           -0.4267509             -11.6125
        77        2.0000           -0.4248490             -11.5607
        78        2.0000           -0.4203407             -11.4381
        79        2.0000           -0.4139625             -11.2645
        80        2.0000           -0.4130050             -11.2384
        81        2.0000           -0.4121444             -11.2150
        82        2.0000           -0.4092959             -11.1375
        83        2.0000           -0.4088471             -11.1253
        84        2.0000           -0.4026120             -10.9556
        85        2.0000           -0.3944417             -10.7333
        86        2.0000           -0.3553343              -9.6691 (HOMO)
        87        0.0000           -0.3279851              -8.9249 (LUMO)
        88                         -0.2602660              -7.0822
        89                         -0.2533682              -6.8945
        90                         -0.2459222              -6.6919
        91                         -0.2348852              -6.3916
        92                         -0.2320555              -6.3146
        93                         -0.2291918              -6.2366
        94                         -0.2268460              -6.1728
        95                         -0.2259368              -6.1481
        96                         -0.2213159              -6.0223
        97                         -0.2101541              -5.7186
       ...                                ...                  ...
       169                          1.1532154              31.3806
      -------------------------------------------------------------
                  HL-Gap            0.0273492 Eh            0.7442 eV
             Fermi-level           -0.3416597 Eh           -9.2970 eV

     #   Z          covCN         q      C6AA      α(0)
     1   7 N        0.911    -0.275    27.097     7.529
     2   6 C        1.943     0.129    27.919     8.533
     3   6 C        2.946    -0.000    28.031     8.684
     4   6 C        1.943     0.129    27.923     8.534
     5   7 N        0.911    -0.275    27.114     7.531
     6   6 C        3.029     0.037    27.143     8.546
     7   6 C        3.052    -0.003    28.054     8.687
     8   6 C        2.913    -0.025    28.616     8.772
     9   6 C        2.920    -0.027    28.684     8.783
    10   6 C        2.921    -0.021    28.534     8.760
    11   6 C        2.912    -0.028    28.699     8.784
    12   6 C        3.052     0.008    27.800     8.647
    13   6 C        3.050     0.007    27.815     8.650
    14   6 C        2.917    -0.034    28.849     8.808
    15   6 C        2.976     0.023    27.495     8.601
    16   6 C        2.976     0.001    27.993     8.679
    17   6 C        2.923    -0.032    28.790     8.799
    18   6 C        2.920    -0.048    29.204     8.862
    19   6 C        2.922     0.068    26.484     8.439
    20   7 N        2.752    -0.068    22.559     7.054
    21   6 C        2.925     0.064    26.562     8.452
    22   6 C        2.922    -0.046    29.140     8.852
    23   6 C        2.919    -0.029    28.727     8.789
    24   6 C        2.919    -0.036    28.908     8.817
    25   6 C        2.919    -0.029    28.723     8.789
    26   6 C        2.922    -0.046    29.133     8.851
    27   6 C        2.925     0.064    26.562     8.452
    28   6 C        2.922    -0.046    29.133     8.851
    29   6 C        2.919    -0.029    28.722     8.789
    30   6 C        2.919    -0.037    28.911     8.817
    31   6 C        2.919    -0.029    28.729     8.790
    32   6 C        2.922    -0.046    29.143     8.853
    33   6 C        2.920    -0.049    29.213     8.863
    34   6 C        2.923    -0.032    28.793     8.800
    35   6 C        2.924    -0.035    28.882     8.813
    36   6 C        2.910    -0.025    28.623     8.773
    37   6 C        3.051    -0.009    28.188     8.707
    38   1 H        0.926     0.039     2.466     2.456
    39   1 H        0.926     0.045     2.377     2.411
    40   1 H        0.926     0.050     2.324     2.384
    41   1 H        0.926     0.050     2.322     2.383
    42   1 H        0.926     0.051     2.305     2.374
    43   1 H        0.926     0.040     2.448     2.447
    44   1 H        0.926     0.037     2.485     2.465
    45   1 H        0.926     0.035     2.513     2.479
    46   1 H        0.926     0.036     2.501     2.473
    47   1 H        0.926     0.035     2.522     2.483
    48   1 H        0.926     0.036     2.502     2.474
    49   1 H        0.926     0.034     2.525     2.485
    50   1 H        0.926     0.034     2.530     2.488
    51   1 H        0.926     0.036     2.505     2.475
    52   1 H        0.926     0.035     2.521     2.483
    53   1 H        0.926     0.036     2.497     2.471
    54   1 H        0.926     0.036     2.507     2.476
    55   1 H        0.926     0.038     2.475     2.460
    56   1 H        0.926     0.042     2.428     2.437
    57   1 H        0.926     0.046     2.370     2.407
    58   1 H        0.926     0.038     2.477     2.461

 Mol. C6AA /au·bohr⁶  :      52442.391511
 Mol. C8AA /au·bohr⁸  :    1342740.692747
 Mol. α(0) /au        :        370.209571


MOs/occ written to file <molden.input>


molecular dipole:
                 x           y           z       tot (Debye)
 q only:       -3.746       2.170      -0.192
   full:       -3.968       2.406      -0.217      11.808
molecular quadrupole (traceless):
                xx          xy          yy          xz          yz          zz
 q only:      -39.040      39.291      18.733      -3.663       1.018      20.308
  q+dip:      -40.150      44.376      24.996      -4.196       0.583      15.154
   full:      -45.143      43.940      19.469      -4.263       1.397      25.674

           -------------------------------------------------
          |                Geometry Summary                 |
           -------------------------------------------------

      molecular mass/u    :      471.5518860
   center of mass at/Å    :        0.0007324       0.0000998       0.0100322
  moments of inertia/u·Å² :        0.2230643E+04   0.1281956E+05   0.1484411E+05
rotational constants/cm⁻¹ :        0.7557296E-02   0.1314993E-02   0.1135645E-02

 * 57 selected distances

     #   Z          #   Z                                           value/Å
     1   7 N        2   6 C                                       1.1496237
     4   6 C        5   7 N                                       1.1497094
     3   6 C        6   6 C                                       1.3713913
     7   6 C        8   6 C                                       1.3845929
     8   6 C        9   6 C                                       1.3903155
     9   6 C       10   6 C                                       1.3850059
    10   6 C       11   6 C                                       1.3914741
     7   6 C       12   6 C                                       1.4132270
    11   6 C       12   6 C                                       1.3787746
    13   6 C       14   6 C                                       1.3736595
    14   6 C       15   6 C                                       1.4037389
    16   6 C       17   6 C                                       1.3974409
    17   6 C       18   6 C                                       1.3765229
    18   6 C       19   6 C                                       1.3989103
    19   6 C       20   7 N                                       1.3890929
    20   7 N       21   6 C                                       1.4039941
    21   6 C       22   6 C                                       1.3944266
    22   6 C       23   6 C                                       1.3819255
    23   6 C       24   6 C                                       1.3857208
    24   6 C       25   6 C                                       1.3856805
    21   6 C       26   6 C                                       1.3942605
    25   6 C       26   6 C                                       1.3819020
    20   7 N       27   6 C                                       1.4038554
    27   6 C       28   6 C                                       1.3943181
    28   6 C       29   6 C                                       1.3819267
    29   6 C       30   6 C                                       1.3857347
    30   6 C       31   6 C                                       1.3857095
    27   6 C       32   6 C                                       1.3944523
    31   6 C       32   6 C                                       1.3819723
    19   6 C       33   6 C                                       1.3987832
    16   6 C       34   6 C                                       1.3975428
    33   6 C       34   6 C                                       1.3765319
    15   6 C       35   6 C                                       1.3977646
    35   6 C       36   6 C                                       1.3840714
    13   6 C       37   6 C                                       1.4158053 (max)
    36   6 C       37   6 C                                       1.3881037
     8   6 C       38   1 H                                       1.0786113 (min)
     9   6 C       39   1 H                                       1.0796086
    10   6 C       40   1 H                                       1.0799164
    11   6 C       41   1 H                                       1.0791960
    14   6 C       42   1 H                                       1.0789887
    17   6 C       43   1 H                                       1.0798399
    18   6 C       44   1 H                                       1.0799620
    22   6 C       45   1 H                                       1.0803229
    23   6 C       46   1 H                                       1.0802661
    24   6 C       47   1 H                                       1.0796250
    25   6 C       48   1 H                                       1.0802336
    26   6 C       49   1 H                                       1.0802969
    28   6 C       50   1 H                                       1.0802978
    29   6 C       51   1 H                                       1.0802274
    30   6 C       52   1 H                                       1.0796539
    31   6 C       53   1 H                                       1.0802591
    32   6 C       54   1 H                                       1.0803140
    33   6 C       55   1 H                                       1.0799778
    34   6 C       56   1 H                                       1.0798112
    35   6 C       57   1 H                                       1.0793684
    36   6 C       58   1 H                                       1.0788145

 * 3 distinct bonds (by element types)

   Z      Z             #   av. dist./Å        max./Å        min./Å
   1 H    6 C          21     1.0797901     1.0803229     1.0786113
   6 C    6 C          31     1.3894092     1.4158053     1.3713913
   6 C    7 N           5     1.2992551     1.4039941     1.1496237

           -------------------------------------------------
          |               Frequency Printout                |
           -------------------------------------------------
 projected vibrational frequencies (cm⁻¹)
eigval :       -0.00    -0.00    -0.00     0.00     0.00     0.00
eigval :       15.59    20.43    23.62    40.35    46.71    52.22
eigval :       57.85    68.15    70.68    75.83   104.32   107.91
eigval :      114.53   128.21   133.08   159.78   167.69   193.15
eigval :      217.97   221.72   227.68   236.95   270.42   303.77
eigval :      309.36   331.30   352.65   375.63   378.60   380.84
eigval :      389.92   395.92   396.17   407.68   423.72   433.02
eigval :      443.88   450.08   457.36   488.01   494.09   512.67
eigval :      540.82   560.13   582.93   583.36   587.45   591.38
eigval :      592.80   595.21   606.54   613.10   633.03   643.40
eigval :      661.36   667.56   685.19   692.94   708.66   718.87
eigval :      729.16   757.57   761.99   780.54   810.47   817.47
eigval :      835.92   865.25   873.52   876.08   876.51   877.19
eigval :      893.30   896.07   899.22   909.17   913.84   914.37
eigval :      919.30   921.77   926.29   928.10   929.11   929.53
eigval :      930.30   932.19   933.29   982.39  1004.04  1007.73
eigval :     1028.30  1072.74  1078.34  1080.60  1082.26  1114.21
eigval :     1119.73  1121.87  1142.38  1149.94  1176.39  1177.99
eigval :     1179.39  1183.81  1192.28  1194.98  1197.55  1201.17
eigval :     1214.22  1218.84  1235.08  1247.29  1269.82  1273.38
eigval :     1275.93  1279.18  1297.23  1302.62  1313.85  1317.68
eigval :     1322.84  1326.21  1328.22  1367.56  1404.14  1416.63
eigval :     1427.93  1434.01  1439.52  1449.84  1460.36  1466.98
eigval :     1470.05  1494.40  1529.22  1543.39  1559.51  1575.91
eigval :     1577.13  1580.34  1581.71  1589.82  1592.48  1598.06
eigval :     1608.92  2315.33  2346.42  3073.71  3073.85  3074.51
eigval :     3075.16  3079.50  3081.14  3082.05  3083.35  3083.99
eigval :     3085.73  3086.65  3090.50  3090.99  3092.45  3093.61
eigval :     3095.15  3095.58  3095.98  3098.69  3112.20  3114.81
 reduced masses (amu)
   1: 11.61   2: 11.46   3: 11.72   4: 11.47   5: 11.54   6: 11.97   7: 11.59   8: 11.47
   9: 11.34  10: 12.18  11: 11.15  12: 10.58  13: 11.24  14: 10.60  15: 10.86  16: 10.28
  17: 10.39  18: 11.20  19: 11.91  20: 10.73  21: 13.08  22: 11.67  23: 11.36  24: 11.57
  25: 10.73  26: 11.42  27: 11.31  28: 10.67  29: 10.44  30: 10.90  31: 10.78  32: 10.80
  33: 10.92  34:  9.40  35:  9.07  36:  9.17  37:  9.52  38: 10.57  39: 10.60  40: 11.61
  41: 11.54  42: 11.98  43: 11.18  44: 10.58  45: 10.84  46: 10.12  47: 10.43  48:  9.91
  49: 10.66  50: 11.11  51: 11.24  52: 11.23  53: 12.11  54: 11.51  55: 11.26  56: 10.93
  57: 11.35  58: 11.42  59: 10.56  60: 11.39  61: 10.08  62:  9.82  63: 11.14  64: 11.22
  65: 10.87  66: 11.59  67: 11.07  68:  4.17  69:  4.40  70:  4.40  71:  6.21  72:  9.40
  73:  5.09  74:  3.37  75:  3.31  76:  3.45  77:  3.29  78:  3.39  79:  4.90  80:  5.20
  81:  9.31  82: 11.34  83:  4.25  84:  3.80  85:  6.62  86:  7.77  87:  4.28  88:  5.67
  89:  3.48  90:  3.62  91:  5.52  92:  6.24  93:  3.70  94: 10.86  95: 10.58  96: 10.32
  97:  8.80  98:  6.62  99:  6.49 100:  6.70 101:  6.58 102:  8.25 103:  4.01 104:  3.96
 105:  3.96 106:  4.69 107:  2.73 108:  1.35 109:  1.33 110:  4.88 111:  1.94 112:  3.27
 113:  5.64 114: 10.16 115:  6.00 116:  4.67 117:  8.72 118:  5.24 119:  4.50 120:  5.04
 121:  4.16 122:  4.07 123:  8.70 124: 10.25 125: 11.23 126: 11.72 127: 11.93 128: 11.46
 129: 10.88 130: 10.89 131:  9.15 132: 10.08 133:  9.80 134:  9.17 135:  9.12 136: 10.03
 137: 10.60 138:  9.04 139:  9.20 140: 10.18 141: 11.86 142: 11.57 143: 11.62 144: 11.49
 145: 11.60 146: 11.54 147: 11.57 148: 11.46 149: 11.56 150: 11.55 151: 11.71 152: 12.80
 153: 12.79 154:  1.75 155:  1.76 156:  1.78 157:  1.78 158:  1.78 159:  1.78 160:  1.77
 161:  1.83 162:  1.83 163:  1.88 164:  1.88 165:  1.86 166:  1.84 167:  1.84 168:  1.85
 169:  1.92 170:  1.91 171:  1.85 172:  1.87 173:  1.85 174:  1.85
 IR intensities (km·mol⁻¹)
   1:  0.09   2:  0.14   3:  0.25   4:  0.14   5:  0.16   6:  0.68   7:  0.87   8:  1.30
   9:  0.14  10:  0.72  11:  3.18  12:  6.81  13:  1.13  14:  0.75  15:  1.67  16:  5.46
  17:  2.27  18:  4.19  19:  0.38  20:  8.72  21:  5.78  22: 19.07  23:  3.16  24: 12.30
  25:  1.90  26: 10.51  27:  6.07  28:  3.42  29:  6.18  30:  2.35  31:  2.84  32:  3.02
  33:  0.75  34:  7.58  35:  3.45  36:  0.47  37:  0.45  38:  2.28  39:  1.43  40:  4.27
  41:  5.40  42:  0.38  43:  1.19  44:  1.94  45:  4.35  46: 17.22  47:  9.81  48:  7.91
  49: 12.77  50:  3.42  51:  0.94  52:  1.98  53:  0.69  54:  3.36  55:  1.08  56:  1.95
  57:  0.24  58:  3.51  59: 13.12  60:  9.43  61:  3.91  62: 15.21  63:  4.98  64: 17.85
  65: 10.08  66:  1.12  67:  4.60  68: 37.98  69: 11.69  70: 17.47  71: 23.23  72: 13.33
  73:  1.59  74: 86.39  75:  2.64  76: 25.06  77: 20.42  78:  1.40  79:  0.81  80:  1.85
  81:  6.97  82:  3.98  83:  0.16  84:  0.67  85: 14.14  86: 10.75  87: 20.71  88:  5.40
  89:  0.08  90:  1.17  91:  1.12  92:  3.19  93:  0.36  94:  8.13  95:  6.01  96:  0.61
  97: 19.09  98:  7.18  99:  1.64 100:  3.07 101:  1.20 102: 12.30 103:  1.32 104:  0.17
 105: 98.08 106:106.58 107:  7.52 108:  0.80 109:  0.18 110: 65.76 111: 33.09 112:101.08
 113:130.78 114: 77.76 115: 98.24 116: 19.38 117:  9.64 118:104.87 119: 64.77 120:116.51
 121: 35.96 122: 38.01 123:114.67 124:369.19 125: 33.90 126:782.09 127:101.72 128: 51.97
 129:****** 130:178.97 131: 32.20 132: 43.29 133: 47.63 134: 14.20 135: 65.16 136:248.70
 137:300.36 138:253.40 139:200.59 140: 17.47 141:****** 142: 35.29 143:100.44 144: 17.28
 145:459.56 146: 32.66 147: 33.80 148:134.62 149: 38.15 150:  8.82 151: 50.86 152:439.25
 153:****** 154: 27.34 155: 13.18 156:  2.64 157: 11.51 158:  0.34 159: 53.49 160:  4.60
 161: 91.08 162: 36.86 163:154.78 164:111.04 165: 48.81 166: 77.11 167: 27.13 168: 32.66
 169: 93.18 170: 95.15 171: 43.15 172: 92.46 173: 44.83 174: 62.31
 Raman intensities (Ä⁴*amu⁻¹)
   1:  0.00   2:  0.00   3:  0.00   4:  0.00   5:  0.00   6:  0.00   7:  0.00   8:  0.00
   9:  0.00  10:  0.00  11:  0.00  12:  0.00  13:  0.00  14:  0.00  15:  0.00  16:  0.00
  17:  0.00  18:  0.00  19:  0.00  20:  0.00  21:  0.00  22:  0.00  23:  0.00  24:  0.00
  25:  0.00  26:  0.00  27:  0.00  28:  0.00  29:  0.00  30:  0.00  31:  0.00  32:  0.00
  33:  0.00  34:  0.00  35:  0.00  36:  0.00  37:  0.00  38:  0.00  39:  0.00  40:  0.00
  41:  0.00  42:  0.00  43:  0.00  44:  0.00  45:  0.00  46:  0.00  47:  0.00  48:  0.00
  49:  0.00  50:  0.00  51:  0.00  52:  0.00  53:  0.00  54:  0.00  55:  0.00  56:  0.00
  57:  0.00  58:  0.00  59:  0.00  60:  0.00  61:  0.00  62:  0.00  63:  0.00  64:  0.00
  65:  0.00  66:  0.00  67:  0.00  68:  0.00  69:  0.00  70:  0.00  71:  0.00  72:  0.00
  73:  0.00  74:  0.00  75:  0.00  76:  0.00  77:  0.00  78:  0.00  79:  0.00  80:  0.00
  81:  0.00  82:  0.00  83:  0.00  84:  0.00  85:  0.00  86:  0.00  87:  0.00  88:  0.00
  89:  0.00  90:  0.00  91:  0.00  92:  0.00  93:  0.00  94:  0.00  95:  0.00  96:  0.00
  97:  0.00  98:  0.00  99:  0.00 100:  0.00 101:  0.00 102:  0.00 103:  0.00 104:  0.00
 105:  0.00 106:  0.00 107:  0.00 108:  0.00 109:  0.00 110:  0.00 111:  0.00 112:  0.00
 113:  0.00 114:  0.00 115:  0.00 116:  0.00 117:  0.00 118:  0.00 119:  0.00 120:  0.00
 121:  0.00 122:  0.00 123:  0.00 124:  0.00 125:  0.00 126:  0.00 127:  0.00 128:  0.00
 129:  0.00 130:  0.00 131:  0.00 132:  0.00 133:  0.00 134:  0.00 135:  0.00 136:  0.00
 137:  0.00 138:  0.00 139:  0.00 140:  0.00 141:  0.00 142:  0.00 143:  0.00 144:  0.00
 145:  0.00 146:  0.00 147:  0.00 148:  0.00 149:  0.00 150:  0.00 151:  0.00 152:  0.00
 153:  0.00 154:  0.00 155:  0.00 156:  0.00 157:  0.00 158:  0.00 159:  0.00 160:  0.00
 161:  0.00 162:  0.00 163:  0.00 164:  0.00 165:  0.00 166:  0.00 167:  0.00 168:  0.00
 169:  0.00 170:  0.00 171:  0.00 172:  0.00 173:  0.00 174:  0.00
 output can be read by thermo (or use thermo option).
 writing <g98.out> molden fake output.
 recommended (thermochemical) frequency scaling factor: 1.0
           -------------------------------------------------
          |             Thermodynamic Functions             |
           -------------------------------------------------

Molecule has no symmetry elements
It seems to be the C1 point group
c1  symmetry found (for desy threshold:  0.10E+00) used in thermo

          ...................................................
          :                      SETUP                      :
          :.................................................:
          :  # frequencies                         168      :
          :  # imaginary freq.                       0      :
          :  linear?                             false      :
          :  only rotor calc.                    false      :
          :  symmetry                               c1      :
          :  rotational number                       1      :
          :  scaling factor                  1.0000000      :
          :  rotor cutoff                   50.0000000 cm⁻¹ :
          :  imag. cutoff                  -20.0000000 cm⁻¹ :
          :.................................................:

    mode    ω/cm⁻¹     T·S(HO)/kcal·mol⁻¹    T·S(FR)/kcal·mol⁻¹   T·S(vib)
   ------------------------------------------------------------------------
       1     15.59    -2.12554 (  0.94%)    -1.40178 ( 99.06%)    -1.40856
       2     20.43    -1.96527 (  2.71%)    -1.32161 ( 97.29%)    -1.33907
       3     23.62    -1.87955 (  4.74%)    -1.27871 ( 95.26%)    -1.30721
       4     40.35    -1.56290 ( 29.77%)    -1.12009 ( 70.23%)    -1.25193
       5     46.71    -1.47640 ( 43.24%)    -1.07668 ( 56.76%)    -1.24953
       6     52.22    -1.41073 ( 54.33%)    -1.04369 ( 45.67%)    -1.24309
       7     57.85    -1.35035 ( 64.19%)    -1.01333 ( 35.81%)    -1.22966
       8     68.15    -1.25405 ( 77.53%)    -0.96480 ( 22.47%)    -1.18907
       9     70.68    -1.23266 ( 79.97%)    -0.95401 ( 20.03%)    -1.17685
      10     75.83    -1.19143 ( 84.10%)    -0.93318 ( 15.90%)    -1.15037
      11    104.32    -1.00535 ( 94.99%)    -0.83868 (  5.01%)    -0.99700
      12    107.91    -0.98573 ( 95.59%)    -0.82865 (  4.41%)    -0.97881
      13    114.53    -0.95127 ( 96.50%)    -0.81100 (  3.50%)    -0.94635
      14    128.21    -0.88630 ( 97.74%)    -0.77759 (  2.26%)    -0.88385
      15    133.08    -0.86494 ( 98.05%)    -0.76655 (  1.95%)    -0.86302
      16    159.78    -0.76098 ( 99.05%)    -0.71238 (  0.95%)    -0.76052
      17    167.69    -0.73380 ( 99.22%)    -0.69806 (  0.78%)    -0.73352
      18    193.15    -0.65514 ( 99.55%)    -0.65619 (  0.45%)    -0.65514
      19    217.97    -0.58911 ( 99.72%)    -0.62038 (  0.28%)    -0.58920
      20    221.72    -0.57991 ( 99.74%)    -0.61533 (  0.26%)    -0.58000
      21    227.68    -0.56565 ( 99.77%)    -0.60747 (  0.23%)    -0.56574
      22    236.95    -0.54433 ( 99.80%)    -0.59565 (  0.20%)    -0.54443
      23    270.42    -0.47510 ( 99.88%)    -0.55650 (  0.12%)    -0.47519
   ------------------------------------------------------------------------

   temp. (K)  partition function   enthalpy   heat capacity  entropy
                                   cal/mol     cal/K/mol   cal/K/mol   J/K/mol
 298.15  VIB  0.684E+13            17083.981    107.821    106.211
         ROT  0.498E+08              888.752      2.981     38.201
         INT  0.340E+21            17972.733    110.802    144.412
         TR   0.991E+28             1481.254      4.968     44.321
         TOT                       19453.9870   115.7697   188.7324   789.6564

       T/K    H(0)-H(T)+PV         H(T)/Eh          T*S/Eh         G(T)/Eh
   ------------------------------------------------------------------------
    298.15    0.310019E-01    0.465634E+00    0.896729E-01    0.375961E+00
   ------------------------------------------------------------------------

         :::::::::::::::::::::::::::::::::::::::::::::::::::::
         ::                  THERMODYNAMIC                  ::
         :::::::::::::::::::::::::::::::::::::::::::::::::::::
         :: total free energy         -91.868808386515 Eh   ::
         ::.................................................::
         :: total energy              -92.244769764893 Eh   ::
         :: zero point energy           0.434632335553 Eh   ::
         :: G(RRHO) w/o ZPVE           -0.058670957175 Eh   ::
         :: G(RRHO) contrib.            0.375961378378 Eh   ::
         :::::::::::::::::::::::::::::::::::::::::::::::::::::

optimized geometry written to: xtbopt.xyz


           -------------------------------------------------
          | TOTAL ENERGY              -92.244769764893 Eh   |
          | TOTAL ENTHALPY            -91.779135527671 Eh   |
          | TOTAL FREE ENERGY         -91.868808386515 Eh   |
          | GRADIENT NORM               0.000050347264 Eh/α |
          | HOMO-LUMO GAP               0.744209341493 eV   |
           -------------------------------------------------

------------------------------------------------------------------------
 * finished run on 2025/07/20 at 08:06:28.536     
------------------------------------------------------------------------
 total:
 * wall-time:     0 d,  0 h,  0 min,  3.027 sec
 *  cpu-time:     0 d,  0 h,  1 min, 52.886 sec
 * ratio c/w:    37.295 speedup
 SCF:
 * wall-time:     0 d,  0 h,  0 min,  0.097 sec
 *  cpu-time:     0 d,  0 h,  0 min,  3.850 sec
 * ratio c/w:    39.669 speedup
 ANC optimizer:
 * wall-time:     0 d,  0 h,  0 min,  1.167 sec
 *  cpu-time:     0 d,  0 h,  0 min, 46.680 sec
 * ratio c/w:    39.997 speedup
 analytical hessian:
 * wall-time:     0 d,  0 h,  0 min,  1.649 sec
 *  cpu-time:     0 d,  0 h,  0 min, 58.270 sec
 * ratio c/w:    35.342 speedup

