58
 energy: -92.244485243650 gnorm: 0.000029491531 xtb: 6.7.1 (edcfbbe)
N            6.37333153930970        0.32752120904057       -4.37249808156579
C            6.55733059549744        0.23226247078743       -3.24177159744037
C            6.87763553966091        0.11517480259079       -1.87469726665599
C            8.27415238831518        0.08760394010027       -1.69295469639953
N            9.42175138408237        0.07284725260427       -1.62615185160143
C            5.95534775100767        0.03857537153088       -0.86310803574263
C            6.23793477910239       -0.08516913939433        0.56559682680664
C            7.43558240728695       -0.16240466394060        1.25623040447303
C            7.39918147697233       -0.27759148312304        2.64133136302493
C            6.19444103521859       -0.31498219109621        3.32359103052182
C            4.98483679899320       -0.23802005702144        2.64008368196321
C            5.01129932300354       -0.12447257965336        1.26628099896592
C            3.93051359498959       -0.02475522052703        0.29154395455613
C            2.56730167092542       -0.01517640596714        0.46131906711025
C            1.73476967509478        0.07528390240179       -0.66496770262057
C            0.28035390555499        0.07078300669192       -0.50652489185225
C           -0.32816342558093        0.72573555634132        0.56701503499187
C           -1.69652671364229        0.72182206912270        0.72152876220972
C           -2.51337787692229        0.04425972623982       -0.18873378614605
N           -3.89516541673250        0.02556133215822       -0.02837792253426
C           -4.63618360912527       -1.10771660079600       -0.39668225956716
C           -4.14028499230814       -2.38761128604350       -0.14979923019974
C           -4.87717527550362       -3.49999430914518       -0.50891161564980
C           -6.11815121340593       -3.35594403037627       -1.10840019810913
C           -6.61715922766739       -2.08620295016817       -1.35107069898286
C           -5.88401682943324       -0.96765964283592       -1.00300384327093
C           -4.56254746123707        1.13722269949107        0.50784704344509
C           -4.17426461417374        2.43085216980619        0.16044780658043
C           -4.83911698885339        3.52128915173326        0.68811813532013
C           -5.90188449755414        3.34139764764111        1.55903172133469
C           -6.29450252186119        2.05772702704577        1.90284340518824
C           -5.63033873611901        0.96107596524063        1.38714717321566
C           -1.90918874896695       -0.61637999752205       -1.26285906577836
C           -0.54127887973115       -0.59461690270037       -1.41966579716521
C            2.31505659294351        0.16126958532898       -1.93327537668870
C            3.68798521671005        0.16376456837854       -2.11100168511317
C            4.50994360121827        0.06832088337171       -0.99668996561160
H            8.38328977723493       -0.13498166136130        0.74193703379360
H            8.32772052665767       -0.33876682209200        3.18867731813904
H            6.19384525431222       -0.40518213451154        4.39974995473117
H            4.04886566923473       -0.26798717342988        3.17643573430178
H            2.13577206195767       -0.10550277502694        1.44608152973238
H            0.27932780451661        1.26503173016274        1.27845605182778
H           -2.14662236742351        1.23781914356498        1.55677023546845
H           -3.17818013755267       -2.50249875067869        0.32798427805150
H           -4.48313244350544       -4.48609134374692       -0.31029762703219
H           -6.69274686684258       -4.22734214520582       -1.38429500081870
H           -7.58171047849776       -1.96489466817193       -1.82210994180974
H           -6.27188221580132        0.02133204194720       -1.19946028473734
H           -3.35420122315427        2.57329567443802       -0.52828825412361
H           -4.53082544918742        4.51835051061148        0.40911902476127
H           -6.42138702229733        4.19583247579194        1.96599576535389
H           -7.11888674358158        1.90822528335927        2.58470071636953
H           -5.93271239804210       -0.03876062768206        1.66263219371716
H           -2.52543765588469       -1.14186176743681       -1.97741953093028
H           -0.09825744873030       -1.12216950778362       -2.25118318529184
H            1.67747562950694        0.25246285769019       -2.79944599999374
H            4.10026448003089        0.24204078223994       -3.10485385251853
