$hessian                                                                        
        0.5303862597   0.0006395549  -0.0003287035  -0.0610098871   0.0002562162
       -0.0007709098   0.0013851438   0.0003917718  -0.0017665785  -0.0030263002
       -0.0126631320   0.0200676123  -0.0015798496  -0.0002375929   0.0008231518
        0.0008281317   0.0001201635  -0.0009180076  -0.0001328166   0.0000756961
       -0.0000138892   0.0001357763   0.0000116756   0.0002266302   0.0000173203
       -0.0000730633  -0.0000697541   0.0000064198  -0.0000084417  -0.0000104470
       -0.0000038868  -0.0000842522  -0.0000525867   0.0000737595   0.0001140993
        0.0000838209  -0.0001354050  -0.0000277528  -0.0000588361  -0.0000493747
        0.0001142829   0.0000702949  -0.0000594683  -0.0001036824  -0.0000916085
        0.0000560608   0.0000549313   0.0000587788   0.0000094286  -0.0000016430
        0.0000099905   0.0001082960   0.0000634961   0.0000481614   0.0000368342
       -0.0002024429  -0.0001443747  -0.0001107511  -0.0005070983  -0.0000304642
       -0.0003447459  -0.0008920075  -0.0006123410  -0.0030833926  -0.0004068066
        0.0007568535   0.0007070549  -0.0000011957  -0.0000381793   0.0000098262
        0.0000151912  -0.0000380712   0.0000233920  -0.0000078549   0.0000097141
       -0.0000025967   0.0000051969  -0.0000009512   0.0000064210  -0.0000074857
       -0.0000031509   0.0000133283   0.0000247390   0.0000128071   0.0000225130
       -0.0000269740  -0.0000170083  -0.0000644156  -0.0000042991  -0.0000251369
        0.0000318633   0.0000043281   0.0000022335   0.0000203757  -0.0000087483
        0.0000135513   0.0000140379  -0.0000040642   0.0000139719  -0.0000064605
        0.0000030673   0.0000057377   0.0000020212  -0.0000048984   0.0000068396
       -0.0000008129   0.0000022778  -0.0000052551  -0.0000042128   0.0000023030
        0.0000011877   0.0000034233   0.0000036118  -0.0000123456  -0.0000330306
       -0.0000131049   0.0000038537   0.0000073528   0.0000027952  -0.0000000495
        0.0000203451   0.0000061283   0.0000003262  -0.0027660867   0.0007160075
       -0.0004615360  -0.0003509906   0.0007610333   0.0006585476   0.0001558787
        0.0007061028  -0.0002193465   0.0008204919  -0.0005056404   0.0006340012
        0.0000974652   0.0001353403  -0.0000827253  -0.0000325913   0.0000066349
       -0.0000099360   0.0003463066  -0.0000010423  -0.0000167046  -0.0000010465
        0.0000100488  -0.0000358862   0.0000789476  -0.0000314068   0.0000886549
       -0.0000402378   0.0000442887  -0.0000847492   0.0000049495  -0.0000486654
        0.0000690631  -0.0001224434  -0.0000040718  -0.0000887163   0.0000648053
       -0.0000386469   0.0000970720   0.0000139343   0.0000400680  -0.0000511575
       -0.0000297177   0.0000256294   0.0000114997   0.0000128108   0.0000152164
       -0.0000341380   0.0001748940  -0.0000653918   0.0000716651  -0.0017692015
        0.0005702326  -0.0006077993  -0.0032238616   0.0128703423  -0.0186884249
       -0.0447732976  -0.0052107463  -0.0049471889  -0.2091009295  -0.1128765341
        0.0253148249  -0.2024701176   0.1162383391  -0.0189986463   0.0002383936
       -0.0002023244   0.0005362756   0.0001875215   0.0003495819  -0.0004569472
        0.0005151457  -0.0002346776  -0.0002805555  -0.0007774084  -0.0006565076
        0.0011720632  -0.0000040861   0.0000125909   0.0000123124  -0.0000044895
       -0.0000005000  -0.0000012627  -0.0000103510  -0.0000009541   0.0000006821
       -0.0000074343   0.0000043265  -0.0000072553  -0.0000073782   0.0000043991
        0.0000014969  -0.0000081669   0.0000088680  -0.0000014519  -0.0000054914
        0.0000091282   0.0000042542  -0.0000208364  -0.0000295852  -0.0000145145
        0.0000155313  -0.0000419922   0.0001876721  -0.0002040839  -0.0001242841
        0.0000306335  -0.0000120237  -0.0000026136   0.0000084570   0.0000001721
        0.0000003156   0.0000011875  -0.0000130755   0.0000091305   0.0000107795
       -0.0000000540  -0.0000005877  -0.0000015974   0.0000016524  -0.0000008508
       -0.0000006052   0.0000012542  -0.0000006285   0.0000003099   0.0000011497
       -0.0000008155   0.0000005231  -0.0001365226   0.0001295525   0.0000548339
        0.0000060640   0.0000433629  -0.0000762115  -0.0001850544   0.0000390099
        0.0000225531  -0.0000225961  -0.0000064447   0.0000111763  -0.0000366797
       -0.0000164706   0.0000065100  -0.0000211115  -0.0000028869  -0.0000000272
       -0.0000160599   0.0000047498   0.0000008179  -0.0000055213  -0.0000060328
       -0.0000117605  -0.0000066069   0.0000031397  -0.0000058937   0.0000137842
       -0.0000160900  -0.0000010499  -0.0008435774   0.0007439670  -0.0010286478
        0.0006395549   0.5100821453   0.0324415541   0.0006722297  -0.0737534538
        0.0474400615  -0.0002970963   0.0048215915  -0.0169294749  -0.0084755880
       -0.0112778744   0.0156722833   0.0011535323  -0.0006491670   0.0010009856
       -0.0000439638  -0.0007015668  -0.0005708266  -0.0001115440   0.0001488942
        0.0000550624   0.0000311460   0.0000192332   0.0000421846  -0.0000084051
       -0.0000238403  -0.0000308672   0.0000422931   0.0000071648   0.0000072006
       -0.0000143873   0.0000338947   0.0000166882  -0.0000393037  -0.0000306743
       -0.0000419102   0.0000284866   0.0000240169   0.0000366440  -0.0000091903
       -0.0000272119  -0.0000305652   0.0000224870   0.0000497086   0.0000471361
       -0.0000546912  -0.0000059318  -0.0000325945   0.0000085184  -0.0000314514
       -0.0000097166  -0.0000290637   0.0000183753   0.0000410711   0.0000291648
       -0.0000619627  -0.0000612904  -0.0000566074   0.0001426494  -0.0000486820
       -0.0001679388  -0.0006579764  -0.0004386572  -0.0021766403   0.0003078303
        0.0003389524   0.0001061202  -0.0001654204   0.0001154518   0.0000360613
        0.0001956791   0.0000983139  -0.0000011722  -0.0000145013  -0.0000772180
        0.0000186162   0.0000229375   0.0000140870  -0.0000302790  -0.0000300157
       -0.0000809221   0.0000053146  -0.0000254769   0.0000578542  -0.0000040956
        0.0000761426   0.0000015336   0.0000605646  -0.0000091572   0.0000348779
       -0.0000296498  -0.0000293877  -0.0000202439  -0.0000113452  -0.0000128892
       -0.0000235384  -0.0000506393   0.0000442967  -0.0000981550   0.0000292483
       -0.0000039571   0.0000062112  -0.0000296248   0.0000362921  -0.0000722206
        0.0000001360  -0.0000188405   0.0000775457   0.0000224860   0.0000047738
       -0.0000151236  -0.0000313621  -0.0000210622   0.0001185222   0.0000604271
        0.0000573805  -0.0000641727   0.0000176959  -0.0000284458   0.0000439621
       -0.0000510733  -0.0000460630   0.0000040104   0.0022530062  -0.0002041892
        0.0002732619   0.0002072583  -0.0006665492  -0.0005445089  -0.0000819821
       -0.0000843922   0.0000365999   0.0003941048  -0.0004414517  -0.0007696413
       -0.0002015203  -0.0000844611  -0.0000005567  -0.0000324821  -0.0000361313
        0.0000900082  -0.0000676077  -0.0001549066  -0.0000798784   0.0000627251
        0.0000199165   0.0000261564  -0.0000243396   0.0000346656  -0.0000383359
        0.0000253116  -0.0000506012   0.0000773639   0.0000250665   0.0000730727
       -0.0000563738   0.0000735061  -0.0000232381   0.0000723052  -0.0000240823
        0.0000380206  -0.0000735002  -0.0000117977  -0.0000413832   0.0000505835
        0.0000306392  -0.0000031012   0.0000035337  -0.0000338018  -0.0000240135
        0.0000196801  -0.0000608294   0.0000511961  -0.0000168354  -0.0012493622
       -0.0005424536   0.0011187401   0.0093211168  -0.0134584951   0.0170668775
       -0.0052013371  -0.1668434360  -0.1208376047  -0.1128363133  -0.1185835093
        0.0158450877   0.1164321452  -0.1270453800   0.0125996433  -0.0002090200
        0.0008710701  -0.0004347266   0.0002337001   0.0006888267  -0.0003422589
       -0.0002918750  -0.0019638063  -0.0038173452   0.0004143396   0.0000139992
        0.0000919316  -0.0000125029   0.0000205162   0.0000249728  -0.0000079537
        0.0000064503   0.0000001953  -0.0000052346   0.0000039335   0.0000053091
       -0.0000012061   0.0000054805  -0.0000029845   0.0000036454   0.0000091990
        0.0000041562   0.0000031467   0.0000034971   0.0000005785  -0.0000057624
        0.0000100665   0.0000068928  -0.0000311891  -0.0000185722  -0.0000238584
       -0.0000003483   0.0000179799   0.0000771329  -0.0001355797  -0.0000717115
        0.0000359652  -0.0000078905   0.0000028064  -0.0000185809   0.0000001887
       -0.0000147501   0.0000035661  -0.0000045365  -0.0000266732   0.0000093773
        0.0000022008  -0.0000006924  -0.0000034879   0.0000024450  -0.0000034236
        0.0000000459   0.0000004678  -0.0000025235   0.0000001845   0.0000005757
       -0.0000012233   0.0000037522   0.0001157979  -0.0001067495  -0.0000102796
        0.0000242152   0.0000266917   0.0000948251  -0.0001100954   0.0001048781
        0.0001270239   0.0000034814   0.0000041070  -0.0000118669   0.0000098733
        0.0000045759  -0.0000084142   0.0000011538   0.0000053883  -0.0000066718
        0.0000065124   0.0000024773  -0.0000015736   0.0000053294   0.0000070036
        0.0000008841   0.0000029299   0.0000028132  -0.0000007537  -0.0000037446
        0.0000159651  -0.0000130509  -0.0002629101  -0.0000134576   0.0002804389
       -0.0003287035   0.0324415541   0.4443194400  -0.0012576733   0.0380398505
       -0.1483005783  -0.0005585973   0.0050448270  -0.0290388300   0.0087130787
        0.0089038706  -0.0080724842  -0.0015975673   0.0003316777  -0.0000350750
        0.0005297342   0.0006471309   0.0000955536  -0.0000823604   0.0000136851
       -0.0000293702  -0.0000390614   0.0000150559  -0.0000372471  -0.0000307148
        0.0000767119   0.0000224765   0.0000484551   0.0000223525   0.0000505974
        0.0000151441   0.0000863026   0.0000610410  -0.0000494034  -0.0001199739
       -0.0000935791   0.0001344467   0.0000281301   0.0000737897   0.0000139256
       -0.0001200166  -0.0000616406   0.0000947472   0.0000943172   0.0001031026
       -0.0000772801  -0.0000590563  -0.0000710295  -0.0000064316  -0.0000526093
       -0.0000246409  -0.0001595657   0.0000175895  -0.0000553033   0.0000046278
       -0.0000451313   0.0000167179   0.0000073791   0.0000595164   0.0001093485
        0.0003951933   0.0002693998   0.0002576433   0.0003008977  -0.0013017692
       -0.0008269793   0.0000072323   0.0003141575  -0.0002406530  -0.0000031156
       -0.0000558029   0.0002021507  -0.0000230086  -0.0000705278   0.0000290941
       -0.0000064638  -0.0000166255  -0.0000064117   0.0000090505  -0.0000260073
        0.0000770161   0.0000019943   0.0000429856  -0.0000986731   0.0000272539
        0.0000312659  -0.0000294038   0.0000452251   0.0000178255   0.0000723736
       -0.0000312469  -0.0000131932   0.0000124919   0.0000018467   0.0000166522
        0.0000031372  -0.0000271765   0.0000346031  -0.0000227956   0.0000007437
        0.0000021414   0.0000106940  -0.0000088683   0.0000170388  -0.0000308886
       -0.0000009901  -0.0000060964   0.0000267101   0.0000191027  -0.0000039527
       -0.0000119966  -0.0000208399  -0.0000141567   0.0000247426   0.0000440387
        0.0001147304  -0.0001242966   0.0000348985  -0.0000140975   0.0000879920
       -0.0000589400  -0.0000208126   0.0000119107  -0.0004426563  -0.0012799829
       -0.0007770324  -0.0002328913   0.0002821810   0.0002453365  -0.0000159287
       -0.0000582458   0.0000636301  -0.0003753520   0.0007363461   0.0002455296
        0.0000566863  -0.0001163997   0.0000276705   0.0001049553   0.0001093054
       -0.0001496119  -0.0001088587  -0.0000611545   0.0000144335  -0.0000151534
       -0.0000445166   0.0000279921  -0.0000060295  -0.0000253569   0.0000352872
       -0.0000299745   0.0000518280  -0.0000744113  -0.0000496496  -0.0000826475
        0.0000911460  -0.0000482420   0.0000300572  -0.0000536307  -0.0000079755
       -0.0000754627   0.0000998023  -0.0000101560   0.0000500111  -0.0000626979
       -0.0000188013   0.0000079576  -0.0000326568   0.0000539291   0.0000781648
       -0.0000588475  -0.0000283254  -0.0000291855   0.0000072116   0.0015903592
        0.0001160676  -0.0000733791  -0.0079915415   0.0090407227  -0.0064291008
       -0.0048580709  -0.1210212770  -0.1598033860   0.0256056268   0.0157655602
       -0.0450632449  -0.0191665973   0.0123933876  -0.0437499066  -0.0002272257
        0.0011754015   0.0008793910   0.0003319912   0.0009009752   0.0007874954
       -0.0003629481  -0.0029666831  -0.0041269376  -0.0000946920   0.0001600156
       -0.0002448253  -0.0000006576  -0.0000124018  -0.0000109845  -0.0000059168
       -0.0000111624  -0.0000111503  -0.0000126423   0.0000007025  -0.0000067003
       -0.0000148752   0.0000090634   0.0000046282  -0.0000083926   0.0000067202
        0.0000013769   0.0000051053   0.0000110544   0.0000101060   0.0000094574
        0.0000241346   0.0000238104   0.0000378117  -0.0000060149  -0.0000007630
       -0.0000029625   0.0000015859  -0.0000408393   0.0000277263  -0.0000139074
       -0.0000324285   0.0000095724  -0.0000010722   0.0000311842   0.0000042520
        0.0000027200   0.0000050971  -0.0000089893  -0.0000284422  -0.0000026867
        0.0000008561  -0.0000007717  -0.0000003726   0.0000042739  -0.0000032623
       -0.0000032623   0.0000037209  -0.0000044927   0.0000015028   0.0000007308
       -0.0000052247   0.0000002905  -0.0000324762   0.0000010774  -0.0000044805
       -0.0000063506  -0.0000006706  -0.0000635205   0.0000886236   0.0000985625
       -0.0000592061  -0.0000114084  -0.0000121211   0.0000274457   0.0000293996
        0.0000181762  -0.0000022933   0.0000315997  -0.0000006205   0.0000126877
        0.0000111889   0.0000014618  -0.0000016767   0.0000078162  -0.0000060711
        0.0000128705   0.0000065897  -0.0000146614   0.0000186567  -0.0000109092
       -0.0000235979   0.0000216934   0.0001033704   0.0000886236  -0.0002123893
       -0.0610098871   0.0006722297  -0.0012576733   0.4961600329  -0.0033969706
       -0.0052106024  -0.0614762698  -0.0045250392  -0.0049143268  -0.1533839078
       -0.0545300561   0.0144647004  -0.0335009262  -0.0080982460   0.0035639924
       -0.0012515220   0.0035994716  -0.0001828493  -0.0011899096  -0.0005295237
       -0.0000707095  -0.0001993350   0.0000714676   0.0000884948   0.0000109468
       -0.0000005428  -0.0000160492   0.0000365675  -0.0000076056   0.0000097504
       -0.0000120732   0.0000531805   0.0000261378  -0.0000627850  -0.0000343439
       -0.0000625328   0.0000118309   0.0000383811  -0.0000074825   0.0000175154
       -0.0000762118  -0.0000482605   0.0000295969   0.0000862723   0.0000641652
       -0.0000591560  -0.0000326259  -0.0000448606   0.0000334990  -0.0000456186
        0.0000206851  -0.0000655910  -0.0000173775  -0.0000732510   0.0000241697
        0.0000444205   0.0000345769  -0.0003562166  -0.0003790232   0.0001787638
        0.0010581292   0.0010454794   0.0003264401  -0.0005992537  -0.0100627179
        0.0013748722  -0.0016489702   0.0002584659  -0.0001735623  -0.0000925106
        0.0000217276   0.0002887724  -0.0000867190  -0.0000060008  -0.0000582635
        0.0000203029  -0.0000216012   0.0000053820  -0.0000108636   0.0000281646
       -0.0000529189   0.0000335984   0.0000148060   0.0000767877  -0.0000623428
        0.0000524755  -0.0000224863  -0.0000338345  -0.0000238839  -0.0000458158
        0.0000472241   0.0000186241   0.0000035856   0.0000097165  -0.0000097798
        0.0000166043  -0.0000063922   0.0000067766  -0.0000214469   0.0000054248
        0.0000013654  -0.0000037521  -0.0000037794   0.0000043317  -0.0000170508
        0.0000041651  -0.0000066045   0.0000150672   0.0000059090  -0.0000000599
        0.0000026404  -0.0000015322  -0.0000040367   0.0000230811  -0.0000322426
       -0.0000227773   0.0000312883   0.0000080912   0.0000009641  -0.0000140271
        0.0000327075   0.0000079050  -0.0000035215   0.0022929647   0.0077048226
       -0.0018439374   0.0008516566  -0.0013526493   0.0007051753  -0.0003457966
        0.0002657596   0.0000456011  -0.0020211125  -0.0031077394   0.0010240818
       -0.0012378415   0.0006009402  -0.0002757290   0.0000266920  -0.0000073456
        0.0000022258  -0.0000455569  -0.0000008956  -0.0000648190   0.0000370088
        0.0000342330   0.0000128500  -0.0000314560   0.0000141483  -0.0000273516
        0.0000114211  -0.0000352328   0.0000461727   0.0000064125   0.0000232775
       -0.0000398128  -0.0000354420  -0.0000360384  -0.0000219014  -0.0000422755
       -0.0000072905  -0.0000301997  -0.0000148484  -0.0000190391   0.0000161565
        0.0000291333   0.0000082634  -0.0000028957   0.0000116089   0.0000186088
       -0.0000276322  -0.0001810825  -0.0000394994   0.0001519196  -0.0325399507
        0.0126780646   0.0001225152  -0.1429379077   0.0608569896  -0.0054916509
       -0.0000449092   0.0003097691  -0.0009475191  -0.0017462621  -0.0109499913
        0.0217428570  -0.0020948091   0.0106802882  -0.0210073660  -0.0002307300
        0.0161533346   0.0154087923  -0.0037840228  -0.0182729160  -0.0175252496
       -0.0000038242   0.0005169632   0.0002673414   0.0006340476  -0.0008881935
        0.0000573610  -0.0000230266   0.0000187659   0.0000114419  -0.0000093683
        0.0000032891  -0.0000000051   0.0000001998   0.0000023688   0.0000006784
       -0.0000065723  -0.0000027137  -0.0000011563   0.0000032183   0.0000033083
        0.0000031201   0.0000082848   0.0000000927  -0.0000006868   0.0000113724
        0.0000038976   0.0000006522  -0.0000436790   0.0000852107   0.0000351577
        0.0001079470   0.0000322076  -0.0001194250   0.0000963336   0.0002012975
       -0.0001830305   0.0000191906   0.0000095519   0.0000000204   0.0000070780
       -0.0000024426  -0.0000008543   0.0000133932  -0.0000118949  -0.0000016799
        0.0000014633  -0.0000003326  -0.0000003174  -0.0000011409  -0.0000000104
        0.0000014314  -0.0000017069   0.0000010067  -0.0000004680  -0.0000001764
        0.0000006406  -0.0000008453   0.0001587070  -0.0003196979  -0.0000996712
        0.0000914158  -0.0000732111  -0.0001137584  -0.0000476202  -0.0000631636
        0.0000635005   0.0000118831  -0.0000065957  -0.0000021270   0.0000083047
        0.0000004267  -0.0000037496   0.0000040377  -0.0000003357   0.0000038603
       -0.0000053579   0.0000040133  -0.0000000059   0.0000007691  -0.0000014055
        0.0000033479  -0.0000069293  -0.0000019229   0.0000043083  -0.0000227559
       -0.0000123547   0.0000194740   0.0006582093   0.0007855100  -0.0002305426
        0.0002562162  -0.0737534538   0.0380398505  -0.0033969706   0.4465387074
       -0.0047414552  -0.0040784978  -0.1088665348  -0.0519124045  -0.0479892321
       -0.0920297793   0.0096951407   0.0031720435   0.0085898956  -0.0023322848
        0.0041024158   0.0011132544   0.0001391605   0.0012839779   0.0000383047
        0.0003408326  -0.0002294027  -0.0002675434  -0.0003158751   0.0000064661
        0.0001909930   0.0001079119   0.0000466909   0.0000440033   0.0000782483
        0.0000170151   0.0002540769   0.0001542687  -0.0001841581  -0.0003094673
       -0.0002810966   0.0004322088   0.0000526226   0.0002423829   0.0001542770
       -0.0003720406  -0.0001560842   0.0001811979   0.0003485672   0.0002853206
       -0.0002392502  -0.0001238874  -0.0002023775  -0.0000268458  -0.0001249640
       -0.0000207708  -0.0002000473  -0.0000119947  -0.0001564941  -0.0000339196
        0.0004652747   0.0002745219  -0.0000466226  -0.0013597884   0.0002609572
        0.0007446039  -0.0043532028   0.0016844062  -0.0219781445  -0.0200377821
        0.0054535078   0.0000466587   0.0044248884  -0.0013396464  -0.0000307424
       -0.0002711015  -0.0002025040  -0.0000172927   0.0003011355   0.0000293391
        0.0000008473  -0.0000083033  -0.0000337068   0.0000005070   0.0000086162
       -0.0000750178   0.0000041409   0.0003555783   0.0001211452   0.0000593806
        0.0000182898  -0.0000051002  -0.0005324775  -0.0001238519  -0.0004882497
        0.0003158508   0.0001093499  -0.0000137022   0.0000041438  -0.0000739289
        0.0002170487   0.0004381448  -0.0003327229   0.0003784914  -0.0001845909
        0.0000732675   0.0000079413   0.0001482841  -0.0002459761   0.0004053575
       -0.0000333121   0.0001367732  -0.0004602588  -0.0001813786   0.0000465927
        0.0001127415   0.0000935654   0.0001920122  -0.0005083734  -0.0002301086
       -0.0003855083   0.0004318900  -0.0000365461   0.0000912953  -0.0002324354
        0.0002378196   0.0001038208  -0.0000268346   0.0203286989  -0.0232341191
        0.0033733492  -0.0014464545  -0.0042448397   0.0014652496   0.0001703066
       -0.0011212759  -0.0000186572  -0.0040291173   0.0017656071   0.0018173635
       -0.0008361055   0.0001194023  -0.0003237264   0.0000615520   0.0003326252
       -0.0003890997   0.0002279152   0.0000347738   0.0001118915  -0.0000176480
       -0.0001690484   0.0000693126   0.0002754945  -0.0000964729   0.0002647289
       -0.0001830144   0.0002893137  -0.0004608115  -0.0001861679  -0.0003461865
        0.0003278509  -0.0004585607   0.0000382423  -0.0003174057   0.0001853218
       -0.0002511802   0.0004328378   0.0000225544   0.0002322341  -0.0002719598
       -0.0001016898   0.0000258796  -0.0000950090   0.0000594719   0.0001559376
       -0.0001351881   0.0002084336  -0.0001967102   0.0003208962   0.0015934836
        0.0078332703  -0.0008249056   0.0539092822  -0.1046956891   0.0053113404
       -0.0000400502   0.0075841310  -0.0159689195  -0.0020850872  -0.0089511056
        0.0158834796   0.0024787438  -0.0096192931   0.0165999834   0.0014046993
       -0.0173667139  -0.0146439722  -0.0038697655  -0.0139072251  -0.0115295031
        0.0004628445   0.0067477647   0.0052478673   0.0005014495  -0.0001959831
       -0.0003617603  -0.0000171053  -0.0000154270  -0.0000215053  -0.0000200708
       -0.0000069421  -0.0000151357  -0.0000106817   0.0000108113  -0.0000127380
       -0.0000074044   0.0000136285   0.0000004976  -0.0000038562   0.0000208772
        0.0000014579   0.0000042064   0.0000286472  -0.0000105444   0.0000036875
        0.0000406942   0.0000242417   0.0000080438   0.0000324232  -0.0000310814
        0.0000950156   0.0000170652  -0.0001744400  -0.0009893605  -0.0005513627
        0.0001019075   0.0000224703  -0.0000509072   0.0000201891   0.0000014543
        0.0000530833  -0.0000394346  -0.0000044928  -0.0000684862   0.0000124685
        0.0000013182   0.0000066448  -0.0000005148  -0.0000089824   0.0000195743
        0.0000242036  -0.0000129847   0.0000277980   0.0000018928  -0.0000055128
        0.0000162452   0.0000058569   0.0009321739  -0.0006455456   0.0001328557
       -0.0001368525   0.0000103978  -0.0002179861   0.0000238276   0.0000525352
        0.0000040880  -0.0000008802   0.0000265679  -0.0000336005  -0.0000010688
        0.0000258884   0.0000011586   0.0000065381   0.0000254384  -0.0000147792
        0.0000068044   0.0000108915  -0.0000081348   0.0000093482   0.0000098635
        0.0000068852   0.0000194090  -0.0000035317   0.0000214627   0.0000121297
       -0.0000123080   0.0000163499  -0.0006606804  -0.0003033917  -0.0006366460
       -0.0007709098   0.0474400615  -0.1483005783  -0.0052106024  -0.0047414552
        0.4150156801  -0.0054146154  -0.0611830035  -0.1131250199   0.0124870637
        0.0103177977  -0.0547919822   0.0018574765  -0.0013101729  -0.0001479670
       -0.0011790421   0.0019442806   0.0070453726   0.0007528274  -0.0005287693
        0.0001294919  -0.0000417721   0.0000530173  -0.0002102119   0.0001297639
       -0.0000589336   0.0000361568  -0.0001675727  -0.0000281444  -0.0000419268
        0.0000407517  -0.0001917370  -0.0001088390   0.0000841484   0.0001878103
        0.0001836054  -0.0001543096  -0.0001428006  -0.0001901700   0.0000014359
        0.0002399984   0.0001322684  -0.0000965258  -0.0002026200  -0.0001865927
        0.0001468028   0.0000623633   0.0001054087  -0.0000671466   0.0001634068
        0.0000127219   0.0000847762  -0.0001229604  -0.0000590724   0.0000035313
        0.0000369896   0.0000779976   0.0004893845  -0.0006395729  -0.0003651490
       -0.0004678368   0.0017675498   0.0047671894   0.0049687289   0.0037592492
        0.0029231680  -0.0012147594  -0.0011952169  -0.0030294040  -0.0000756340
       -0.0001103568  -0.0008303354   0.0000310873   0.0001415601   0.0000039525
       -0.0000611154   0.0000417631  -0.0000960004  -0.0000153376   0.0000167069
       -0.0001002370  -0.0000363078  -0.0001405143  -0.0000295746   0.0000124401
       -0.0002240991   0.0001347563   0.0001237625  -0.0000148436   0.0001543351
       -0.0000743564  -0.0000268537  -0.0000180739  -0.0000210780   0.0000277625
       -0.0000444446  -0.0001245797   0.0001025587  -0.0001626729   0.0000575562
       -0.0000168633  -0.0000025624  -0.0000365913   0.0000664728  -0.0001341656
        0.0000139410  -0.0000435339   0.0001385951   0.0000659319  -0.0000176010
       -0.0000280675  -0.0000446868  -0.0000663186   0.0001890396   0.0001110559
        0.0001005185  -0.0001057989   0.0000088765  -0.0000286211   0.0000547182
       -0.0000746679  -0.0000247226   0.0000093072  -0.0022657320   0.0047691822
        0.0032672910   0.0000075079   0.0014234276   0.0048666899   0.0004962269
        0.0008582583  -0.0005604055   0.0002459393   0.0000006696   0.0070654464
        0.0011431303   0.0004287193   0.0000602727  -0.0000287276  -0.0001199091
        0.0002341200   0.0000095364   0.0000757374  -0.0001406863  -0.0000830124
       -0.0000876019   0.0000301780   0.0000494329  -0.0000069586   0.0000230178
       -0.0000265054   0.0000348663  -0.0000760803   0.0000570390  -0.0000621636
        0.0000917457   0.0000281521   0.0000819583  -0.0001244995   0.0000071167
       -0.0000301151   0.0000745830   0.0000539778   0.0000599756  -0.0000610949
       -0.0001339905   0.0000134846  -0.0000060019   0.0001214078  -0.0000235260
        0.0000667728  -0.0001354440  -0.0000438825  -0.0003127596   0.0020008005
       -0.0018741364  -0.0002684832  -0.0051737573   0.0048094903  -0.0528287575
       -0.0003024862   0.0075282495  -0.0240147036   0.0018724889   0.0052135633
       -0.0075607997  -0.0017995740   0.0049251122  -0.0062689366   0.0008692895
       -0.0021338951  -0.0006723019  -0.0011057255  -0.0017265872  -0.0002024639
       -0.0016058069  -0.0183792221  -0.0233025405  -0.0003523418  -0.0004061680
       -0.0030632049  -0.0000134414   0.0000187699  -0.0000279298   0.0000136852
        0.0000078809   0.0000094553   0.0000087629   0.0000144641  -0.0000051179
        0.0000019875  -0.0000104479   0.0000155335   0.0000121361  -0.0000115470
        0.0000045822   0.0000065853  -0.0000142420   0.0000059046   0.0000058090
        0.0000050542   0.0000072557   0.0000572523  -0.0000335062  -0.0000087740
       -0.0001146384  -0.0001735609  -0.0011904545   0.0002209584   0.0001230345
        0.0000461060   0.0000157111   0.0000485296  -0.0000305643  -0.0000042297
        0.0000189226   0.0000146242   0.0000095040  -0.0000316622  -0.0000263116
        0.0000025550  -0.0000038225   0.0000020626   0.0000032697  -0.0000064141
       -0.0000005992   0.0000009116  -0.0000041380  -0.0000006245   0.0000016299
       -0.0000027099  -0.0000035684  -0.0000993086   0.0001073648   0.0000393087
       -0.0000820546  -0.0002345577  -0.0011700111   0.0000582895   0.0000081171
       -0.0000249097   0.0000062813  -0.0000034308   0.0000258200   0.0000075261
        0.0000063013   0.0000122948   0.0000087094   0.0000055937   0.0000054965
       -0.0000015380   0.0000080532   0.0000081156   0.0000021622  -0.0000175708
       -0.0000051884   0.0000037534  -0.0000024695   0.0000022683  -0.0000197105
       -0.0000205333  -0.0000284017  -0.0001833960  -0.0005401541  -0.0029976895
        0.0013851438  -0.0002970963  -0.0005585973  -0.0614762698  -0.0040784978
       -0.0054146154   0.5301908410  -0.0042865296  -0.0035852069  -0.0058710239
       -0.0198334415  -0.0144991951  -0.0016756452  -0.0006372524  -0.0004586242
        0.0007941900   0.0005113896   0.0005494514   0.0001034209  -0.0001718481
       -0.0000261095   0.0001817832   0.0000746696   0.0000488540   0.0000150831
       -0.0000330185  -0.0000300890  -0.0000356212  -0.0000173447   0.0000150857
        0.0000104792  -0.0000632586  -0.0000400888   0.0000713381   0.0000701742
        0.0000855247  -0.0001290385  -0.0000203173  -0.0000949603   0.0000119785
        0.0000784385   0.0000540359  -0.0000480634  -0.0000723161  -0.0000734358
        0.0000851743   0.0000554329   0.0000766450  -0.0000107412  -0.0000190875
       -0.0000344303   0.0003402841  -0.0000449911   0.0000051691  -0.0000297580
       -0.0000049541  -0.0000160111   0.0000736971  -0.0006952674   0.0000159462
       -0.0004297209  -0.0005461067   0.0009283115  -0.0030262245  -0.0005136158
       -0.0002726596   0.0006747066  -0.0000786686  -0.0000258314   0.0000093362
       -0.0000100780  -0.0000408651   0.0000386989   0.0000032054  -0.0000201256
       -0.0000055775  -0.0000074075   0.0000070578   0.0000065423   0.0000051098
       -0.0000110974   0.0000081572  -0.0000014390  -0.0000011637   0.0000099669
       -0.0000252012  -0.0000006977  -0.0000323330   0.0000058387   0.0000194227
        0.0000081607  -0.0000102538  -0.0000064395   0.0000119939  -0.0000022627
       -0.0000085423  -0.0000117056   0.0000152244  -0.0000341380   0.0000108325
       -0.0000024674   0.0000039787  -0.0000057126   0.0000086848  -0.0000228655
        0.0000029440  -0.0000069231   0.0000260388   0.0000097561   0.0000010846
       -0.0000033043  -0.0000068708  -0.0000079290   0.0000424769  -0.0000166522
        0.0000041258  -0.0000248648   0.0000148726  -0.0000047608   0.0000155934
        0.0000059996  -0.0000035230   0.0000040567  -0.0028093438   0.0010022324
        0.0004430887  -0.0002604335   0.0005891032  -0.0007871008  -0.0000390079
        0.0005335562  -0.0001988567   0.0008016163  -0.0005760064  -0.0007254932