$hessian                                                                        
        0.2954615427  -0.0107636122  -0.2750819892  -0.2786941248   0.0085167965
        0.2485992506  -0.0069474302   0.0002032776   0.0125731558   0.0001253939
        0.0019261036   0.0020506446   0.0002068231   0.0006386991   0.0000492492
        0.0002837290   0.0003231705  -0.0002147230  -0.0003428020   0.0001578751
        0.0007903407  -0.0013793773  -0.0044569177  -0.0006196864   0.0046076432
        0.0015921586  -0.0003487636  -0.0004855052   0.0012993979   0.0007019585
        0.0010002195  -0.0002836728  -0.0000602224   0.0003172642  -0.0003200491
       -0.0004084726  -0.0006116256  -0.0000367347  -0.0004518176   0.0009264405
       -0.0005927322   0.0010616257  -0.0146442920   0.0008961653   0.0163117886
       -0.0018953168  -0.0013342202  -0.0005776595   0.0012256906  -0.0005472239
       -0.0000534747   0.0000157625  -0.0004943565   0.0004141529   0.0001718303
        0.0004680886  -0.0002276374  -0.0007267627  -0.0003451277   0.0005383543
        0.0002664190   0.0000283674   0.0000192322  -0.0000989539   0.0000019049
        0.0001837406   0.0001273101  -0.0002583419  -0.0002386337   0.0009111548
        0.0004748826   0.0000158926  -0.0003936118  -0.0001043504  -0.0001108584
       -0.0001284565   0.0000572628   0.0000827131  -0.0000646011  -0.0001027402
       -0.0000495670  -0.0000402278   0.0000314175  -0.0000123255  -0.0000059722
        0.0000078040  -0.0000195053   0.0000056065   0.0000472030   0.0000164999
        0.0000544470  -0.0001187858   0.0000225675  -0.0000592918  -0.0000968038
       -0.0002079468  -0.0001016956   0.0000033679   0.0002105715  -0.0000286928
        0.0000124601  -0.0000900165  -0.0000286538  -0.0000015526   0.0000482466
       -0.0000005625   0.0000239296  -0.0000623905   0.0000007926   0.0000016417
        0.0001191993  -0.0001921242   0.0001791249  -0.0001076937  -0.0002713202
        0.0006885263  -0.0000302320  -0.0009152873  -0.0011728785  -0.0020271907
       -0.0003900809   0.0047047005  -0.0014486159  -0.0001469483  -0.0003835271
       -0.0005882488  -0.0000197871  -0.0002114025  -0.0001220467  -0.0000810016
       -0.0001554828  -0.0000217701  -0.0003348501  -0.0004129814   0.0001623566
        0.0002782200  -0.0000113425  -0.0005074975   0.0014103567  -0.0011042060
       -0.0010419979   0.0002590137   0.0000549703   0.0002743713   0.0000615013
       -0.0000768233  -0.0000020695   0.0000794984   0.0000603413   0.0001061717
        0.0003436963  -0.0003387091  -0.0006233366   0.0003039909   0.0005480442
        0.0000962868  -0.0000546458   0.0003361718   0.0000397555  -0.0000488661
       -0.0001381828   0.0000337828  -0.0000536265   0.0000291514  -0.0002190920
       -0.0000485626   0.0000658296   0.0000645214   0.0000268993   0.0000197038
        0.0000183284   0.0000481208   0.0000100368   0.0000287856   0.0000109222
       -0.0000042494   0.0000166442   0.0000016545  -0.0000142574  -0.0000123977
       -0.0000198051   0.0000376879   0.0000015951   0.0000014844   0.0000051317
       -0.0000290382  -0.0000162595  -0.0000066062   0.0000175895   0.0000087569
       -0.0000021171   0.0000134556   0.0000457084   0.0000016313  -0.0000042958
        0.0000298117   0.0000057570  -0.0000454605   0.0001367002  -0.0000157471
        0.0001668547   0.0005167162   0.0004469515   0.0008169900
       -0.0107636122   0.0424491728   0.0131640731   0.0111355464  -0.0531459470
       -0.0121189378  -0.0123181494   0.0048051002   0.0126186924  -0.0004186604
        0.0018516950   0.0010892904   0.0002203854   0.0009471862   0.0011054221
        0.0000355081   0.0003721160   0.0002853781  -0.0002334310  -0.0011909369
        0.0007398038  -0.0010573284  -0.0034539074  -0.0011593722   0.0041381608
        0.0046013049  -0.0056439496   0.0008179502  -0.0000022719  -0.0004154431
       -0.0001399722  -0.0005880600   0.0004519700   0.0002248030  -0.0000312350
        0.0000159187  -0.0005850540  -0.0008474390  -0.0001243035  -0.0009616945
        0.0007694720  -0.0006045480   0.0084180063   0.0045079598  -0.0113106602
       -0.0002040522  -0.0002388874  -0.0002933796  -0.0008203563   0.0015683802
       -0.0003547219   0.0001615345  -0.0002380865   0.0000639504  -0.0001679212
       -0.0000617945   0.0000688992   0.0002026064   0.0005058150  -0.0004022492
        0.0002966654   0.0001452094  -0.0000672446  -0.0002707251   0.0000015457
       -0.0000887387   0.0001262993  -0.0000372122   0.0002595524  -0.0004529499
       -0.0003347410  -0.0000037251   0.0002259986   0.0000785206   0.0000589356
        0.0000657513  -0.0000426143  -0.0000574186  -0.0000098880   0.0000795394
        0.0000056367  -0.0000181843  -0.0000367700   0.0000381556  -0.0000267881
        0.0000057231  -0.0000016167  -0.0000229220   0.0000127351  -0.0000006372
       -0.0000317953   0.0000714902  -0.0000202925   0.0000280077   0.0000772966
        0.0001316239   0.0000465241  -0.0000014934  -0.0001261766   0.0000196869
       -0.0000070302   0.0000542107   0.0000097540   0.0000014393  -0.0000359886
       -0.0000145576  -0.0000066489   0.0000412986  -0.0000171277   0.0000327992
       -0.0000753613  -0.0004229230  -0.0003330630   0.0001318665   0.0012326569
       -0.0003391904  -0.0002214680  -0.0004661893   0.0015826109   0.0006730064
        0.0022335360  -0.0026626169   0.0013392472  -0.0009874725  -0.0005497211
        0.0012957106   0.0000317169   0.0000552750  -0.0000714795  -0.0001869170
       -0.0001115164   0.0000449901  -0.0002362363  -0.0003958831   0.0002252209
       -0.0003687247  -0.0000695807   0.0000866074  -0.0002785870   0.0000822033
        0.0000192102  -0.0000588795   0.0000093558  -0.0000632286   0.0000260166
        0.0001666950  -0.0000951703  -0.0000438326  -0.0001301189  -0.0000900424
        0.0001256129   0.0002935792  -0.0000463215   0.0014622737  -0.0000334668
       -0.0001516762  -0.0000791914   0.0000601671  -0.0000537307  -0.0000100742
        0.0001349478  -0.0000398569   0.0000046623   0.0000161132   0.0001303531
        0.0000167927  -0.0000414865  -0.0000447210   0.0000322399  -0.0000482690
        0.0000010396   0.0000249070   0.0000100994  -0.0000117800   0.0000215191
        0.0000143107   0.0000176760   0.0000084077   0.0000028443   0.0000177565
        0.0000072771  -0.0000243384  -0.0000028522   0.0000061555  -0.0000048905
        0.0000146880   0.0000138143   0.0000004082  -0.0000090596   0.0000004796
        0.0000012902  -0.0000086937  -0.0000149706  -0.0000092491  -0.0000060467
        0.0000041969  -0.0000230838   0.0000303503   0.0000015090  -0.0000463372
       -0.0001106093   0.0002622052  -0.0002265138  -0.0002890327
       -0.2750819892   0.0131640731   0.3359808126   0.2440351882  -0.0096357038
       -0.3136950955   0.0085419912   0.0004410274  -0.0050345428   0.0002832350
       -0.0013622957  -0.0018457733  -0.0006357720   0.0000746192   0.0001102001
       -0.0002840474  -0.0003804247   0.0002385414  -0.0002550331   0.0002320210
       -0.0007043479   0.0015982038   0.0029511040   0.0015122583   0.0173295118
       -0.0018647847  -0.0168547429   0.0038017050  -0.0009027808   0.0013140216
        0.0007939235  -0.0005533751   0.0007679599   0.0004103729   0.0001015249
        0.0005695677   0.0000022483  -0.0013171035  -0.0007852091  -0.0041464694
        0.0000896951  -0.0044904197   0.0043590194  -0.0000915052   0.0040947096
        0.0008750583   0.0011419095   0.0002933526  -0.0000864622  -0.0002486111
        0.0004636770  -0.0006600866   0.0005430557  -0.0001965225   0.0001885356
       -0.0004336000   0.0001878929   0.0003047794   0.0002106150   0.0000479712
       -0.0000282673   0.0001143705  -0.0000739946   0.0000037467  -0.0001535006
        0.0001074450  -0.0002413662   0.0002279008  -0.0002539845  -0.0006091032
       -0.0003492750  -0.0000231388   0.0002617326   0.0000684716   0.0000870980
        0.0000832623  -0.0000121326  -0.0000435888   0.0000444566   0.0000419501
        0.0000213768   0.0000095641   0.0000006160   0.0000105457   0.0000005153
       -0.0000073397   0.0000266787  -0.0000166889  -0.0000306392   0.0000011578
       -0.0000304208   0.0000651269   0.0000011599   0.0000507827   0.0000743879
        0.0001077061   0.0000513393  -0.0000045678  -0.0001111596   0.0000234621
       -0.0000054881   0.0000743433   0.0000259590   0.0000003817  -0.0000154186
        0.0000029313  -0.0000195285   0.0000412934   0.0000169481   0.0000006603
       -0.0000417616   0.0002255187  -0.0001667964   0.0000976450   0.0000201940
        0.0000051240   0.0007126887   0.0002748179   0.0001089241  -0.0007961280
        0.0009106107  -0.0025836579  -0.0013718589  -0.0006128528   0.0003061442
        0.0012235362   0.0000936310   0.0002774935   0.0001236425   0.0001118192
        0.0000666591   0.0001148641   0.0001379948   0.0003544386  -0.0001771306
       -0.0001669743  -0.0002161186   0.0007365815  -0.0001584546   0.0001822806
       -0.0010662694  -0.0002139034   0.0001245141  -0.0000722560  -0.0000710691
        0.0000792412  -0.0002737559  -0.0001117199  -0.0002995570  -0.0006751267
       -0.0002768889   0.0005459708  -0.0000751794  -0.0007097281  -0.0004502977
       -0.0003782674   0.0000568030  -0.0002530226   0.0000443577   0.0000370243
        0.0000756726  -0.0001284429   0.0000260823  -0.0001040329  -0.0001132468
        0.0000433884  -0.0000229085   0.0000446714  -0.0000258173  -0.0000053974
       -0.0000193552  -0.0000331345  -0.0000121606  -0.0000330370  -0.0000094976
        0.0000134818  -0.0000146547   0.0000037050   0.0000142953   0.0000153475
        0.0000158651  -0.0000243007   0.0000005699   0.0000086240   0.0000005288
        0.0000192357   0.0000106552   0.0000046094  -0.0000083215  -0.0000081402
        0.0000004266  -0.0000033721  -0.0000414327  -0.0000012584   0.0000059283
       -0.0000255520  -0.0000044720  -0.0000066900  -0.0000512640   0.0000743154
        0.0000818511  -0.0004830705  -0.0002609940   0.0001021035
       -0.2786941248   0.0111355464   0.2440351882   0.5228983577  -0.0072350589
       -0.1889110928  -0.0588761509  -0.0469707709   0.0049891628   0.0008215296
       -0.0067848917  -0.0072638789   0.0045177600  -0.0005748928   0.0018556664
       -0.0007924987  -0.0007669989   0.0005896107   0.0026247249  -0.0011825604
        0.0041599219  -0.0091909117  -0.0089664933   0.0071755626  -0.0557682440
       -0.0156547064  -0.0354279547  -0.0144655447  -0.0045898863  -0.0200083668
       -0.0046056699   0.0031073586  -0.0006745872  -0.0020648107   0.0006574333
       -0.0000464142   0.0026357509   0.0026015797   0.0032296808   0.0066095093
        0.0009631471   0.0026599471  -0.0893080759   0.0602377786  -0.0188484050
        0.0089476908   0.0073884080  -0.0009121175  -0.0018290709  -0.0017130927
        0.0003780493   0.0001946674   0.0022867573  -0.0010253009   0.0005275149
       -0.0012047837   0.0004429963   0.0009000023  -0.0002070552  -0.0000328830
       -0.0014507553  -0.0009480946   0.0003034362   0.0013681013   0.0001544806
       -0.0003777048  -0.0010341574   0.0012698864   0.0000680349  -0.0016594851
       -0.0008361960  -0.0000311802   0.0007526007   0.0001795666   0.0002381758
        0.0001855085  -0.0000842090  -0.0001199908   0.0000895451   0.0001787498
        0.0000609728   0.0000494253  -0.0000791383  -0.0000205046  -0.0000106827
        0.0000139776   0.0000249823  -0.0000084292  -0.0001044065  -0.0000428452
       -0.0000896432   0.0002120253  -0.0000449624   0.0000994222   0.0001351615
        0.0003856808   0.0002268580  -0.0000015861  -0.0003946128   0.0000550737
       -0.0000073347   0.0001991811   0.0000201519   0.0000002665  -0.0001192107
       -0.0000333189  -0.0000486893   0.0001641145  -0.0000782881   0.0000082476
       -0.0002621755   0.0025689920   0.0013430751  -0.0004688830  -0.0029888685
       -0.0011601966  -0.0001137504  -0.0015337623  -0.0027567281   0.0017953041
       -0.0233248883   0.0092407223  -0.0012247253  -0.0013895208   0.0019231041
        0.0006690919   0.0001756734   0.0006915451   0.0002623256  -0.0007685584
        0.0007328136  -0.0004521218   0.0001229333  -0.0001633971  -0.0001094399
       -0.0010856530   0.0009944996  -0.0003527954  -0.0022091002   0.0003069082
        0.0009347346  -0.0006202422  -0.0002650179  -0.0011445828  -0.0000943970
       -0.0002647877   0.0003471641  -0.0001316333   0.0001959365   0.0008142082
       -0.0011920508   0.0002245583   0.0017471181  -0.0014132310  -0.0015819269
        0.0005812758   0.0004089503  -0.0011483900   0.0001905830   0.0001294205
        0.0002491425  -0.0000609976   0.0000527257  -0.0000885631   0.0002457187
        0.0000699684  -0.0001385306  -0.0000966576  -0.0000347192  -0.0000234685
       -0.0000057490  -0.0000781131  -0.0000211139  -0.0000079538  -0.0000245344
       -0.0000049209  -0.0000151048   0.0000016147   0.0000247725   0.0000323065
        0.0000435392  -0.0000630959   0.0000092305  -0.0000002494  -0.0000041992
        0.0000538307   0.0000287549   0.0000227060  -0.0000309910  -0.0000008060
        0.0000162792  -0.0000190312  -0.0000734999   0.0000066660   0.0000025787
       -0.0000209565  -0.0000015571   0.0000863988  -0.0002066397   0.0000432325
       -0.0001277998   0.0000245189  -0.0008995933   0.0000625379
        0.0085167965  -0.0531459470  -0.0096357038  -0.0072350589   0.3633406846
        0.0074696207  -0.0403379734  -0.1282403917   0.0086342976  -0.0066296614
       -0.0281816638  -0.0091259188   0.0004404071  -0.0001670586  -0.0057495687
       -0.0007993315  -0.0023369617  -0.0006168304  -0.0008429797   0.0061068505
        0.0011752707  -0.0103846796  -0.0054722416   0.0125129030  -0.0145211634
       -0.0436264388  -0.0249316097  -0.0034015447   0.0017389216   0.0028674634
        0.0023173337   0.0048771652  -0.0006112868   0.0001702436  -0.0002773600
       -0.0005132971   0.0030833324   0.0041339765  -0.0026047214  -0.0013320409
       -0.0043906527  -0.0087836324   0.0577793488  -0.0925335224   0.0223060997
        0.0089989711  -0.0170558126   0.0064855237   0.0011308192  -0.0060347335
        0.0007196569   0.0005682903  -0.0000171888  -0.0003586408  -0.0006420813
        0.0012529569  -0.0002147522  -0.0002349115  -0.0016799213   0.0001479272
       -0.0004311465   0.0001749287   0.0000545273   0.0004768777  -0.0007359496
        0.0002383064  -0.0006284034   0.0003375501  -0.0001854772   0.0012457084
        0.0009752456   0.0000622291  -0.0006239812  -0.0002072240  -0.0001883095
       -0.0001813325   0.0001113358   0.0001438983   0.0000230386  -0.0002003567
       -0.0000254169   0.0001024488   0.0000967650  -0.0000790697   0.0000929291
       -0.0000603693  -0.0000137434   0.0000580684  -0.0000292803  -0.0000092756
        0.0000938581  -0.0002017068   0.0000398580  -0.0000654881  -0.0002257705
       -0.0004231623  -0.0001867351   0.0000103774   0.0003712520  -0.0000606094
        0.0000092867  -0.0001822702  -0.0000235916  -0.0000069616   0.0001158700
        0.0000837495   0.0000303385  -0.0001643005   0.0000531071  -0.0000860687
        0.0002577526   0.0007664171   0.0004067829  -0.0000764251  -0.0022861608
        0.0011307641  -0.0002475541   0.0005886014  -0.0019180312   0.0022107585
        0.0044038328   0.0068194290  -0.0022277769   0.0012800160  -0.0000359419
        0.0000388338  -0.0003336935  -0.0002700392   0.0003673487   0.0007320487
        0.0002668186   0.0001835463   0.0004855352   0.0003131359  -0.0005601813
        0.0016909750   0.0004947905  -0.0008374968   0.0002128337  -0.0017846680
        0.0005255780   0.0004432231   0.0000387188   0.0003832804  -0.0002635604
       -0.0011549942   0.0006378214  -0.0001140861   0.0000437970  -0.0002149930
       -0.0004857016  -0.0014331534   0.0006314694  -0.0021256387  -0.0003556131
        0.0008190937   0.0004603784  -0.0006997239  -0.0002787981  -0.0000316478
       -0.0003894398   0.0002308459   0.0000046476   0.0001043134   0.0000704552
       -0.0000779555   0.0000865014  -0.0000095251  -0.0000798327   0.0001176527
        0.0000182562  -0.0000524758  -0.0000396847   0.0000350456  -0.0000536414
       -0.0000212437  -0.0000549826  -0.0000264741  -0.0000093241  -0.0000494909
       -0.0000359859   0.0000755410   0.0000068347   0.0000016488   0.0000096761
       -0.0000463797  -0.0000279040  -0.0000093388   0.0000284120  -0.0000008288
       -0.0000120079   0.0000126591   0.0000552885   0.0000155071   0.0000286285
       -0.0000097880   0.0000684263  -0.0000690701  -0.0000267986  -0.0000770323
       -0.0000637446  -0.0017658869  -0.0000644199  -0.0006779183
        0.2485992506  -0.0121189378  -0.3136950955  -0.1889110928   0.0074696207
        0.5402340007   0.0099949259   0.0157468558  -0.0356307903  -0.0062268182
       -0.0088535146   0.0048439417   0.0017487105  -0.0041400992  -0.0008467835
        0.0006772624  -0.0001553760  -0.0013621546   0.0040547776   0.0006803033
       -0.0013631704   0.0059626110   0.0130700493  -0.0038086581  -0.0456784394
       -0.0256536878  -0.1185596428  -0.0201433838   0.0029918674  -0.0113739934
       -0.0018702041  -0.0001787297   0.0035034882  -0.0011304076  -0.0003318877
       -0.0019754398   0.0043592390  -0.0031212181   0.0012036532   0.0015867865
       -0.0085390181  -0.0214196203  -0.0145257559   0.0130582099  -0.0462732604
       -0.0036430727   0.0063043394  -0.0008199744   0.0001604810   0.0015793153
        0.0002146566   0.0014735952   0.0001932574  -0.0006075094  -0.0003790003
        0.0001681190  -0.0001389420   0.0004884507  -0.0009618633  -0.0011267689
       -0.0003771058  -0.0000587320   0.0001483127   0.0000701964  -0.0004940443
       -0.0003375880  -0.0006127610   0.0007680718   0.0009333315   0.0004876046
        0.0004607033   0.0000513389  -0.0002340718  -0.0000844277  -0.0000900731
       -0.0000624572  -0.0000509636   0.0000187289  -0.0000342690   0.0000029517
        0.0000045388   0.0000105870  -0.0000141834  -0.0000213539  -0.0000033691
        0.0000213478  -0.0000156911   0.0000308584   0.0000054705   0.0000006721
        0.0000251879  -0.0000404131   0.0000087749  -0.0000549048  -0.0001128242
       -0.0000647361  -0.0000281906   0.0000078640   0.0000736805  -0.0000254441
        0.0000139945  -0.0000633600  -0.0000194851   0.0000006298  -0.0000008228
        0.0000039394   0.0000254749  -0.0000212273   0.0000221873   0.0000074348
       -0.0000052222   0.0008533862   0.0002884467  -0.0000756214  -0.0007455424
       -0.0007652721  -0.0022779862   0.0015177295   0.0008155763   0.0090225602
       -0.0012958167   0.0019820219   0.0062542563  -0.0000296467  -0.0011928795
       -0.0025138719  -0.0004625536  -0.0011343505  -0.0001698763  -0.0004472037
        0.0000668088  -0.0003784073   0.0004819457   0.0005788439  -0.0001279712
       -0.0001670069  -0.0001824616  -0.0013376903   0.0019499997  -0.0001030822
        0.0005738335   0.0005548011  -0.0003486905   0.0001383815   0.0004668687
        0.0005535236   0.0002670306  -0.0004606068   0.0000796786   0.0000435233
        0.0005667429   0.0007455665   0.0011951990   0.0009879516   0.0009595359
        0.0004440022  -0.0002745160   0.0003659999  -0.0003316942  -0.0000374930
       -0.0000537638   0.0002306668   0.0000068155   0.0002627951   0.0007523172
       -0.0000382036  -0.0000599753  -0.0002551406   0.0000235280   0.0000054592
        0.0000043695   0.0000187937   0.0000178094   0.0000240757   0.0000073152
       -0.0000240123   0.0000130276  -0.0000094313  -0.0000169060  -0.0000193414
       -0.0000179045   0.0000189092  -0.0000037381  -0.0000182117  -0.0000058503
       -0.0000143900  -0.0000161718  -0.0000052032   0.0000043628   0.0000044552
        0.0000011654   0.0000004311   0.0000293745  -0.0000010897  -0.0000235276
        0.0000177230   0.0000028323   0.0000498722  -0.0000052338  -0.0001694331
       -0.0006447874   0.0007416940  -0.0003479623  -0.0024611061
       -0.0069474302  -0.0123181494   0.0085419912  -0.0588761509  -0.0403379734
        0.0099949259   0.2627376018   0.1022934237  -0.1985852357  -0.0632199754
       -0.0067321787   0.0267930909   0.0157295665   0.0044919142  -0.0172522173
       -0.0120144926   0.0108022287   0.0177942957  -0.0193868066  -0.0430375992
        0.0081695542  -0.1244685560  -0.0217449331   0.1286468223  -0.0002423817
       -0.0064333515  -0.0015946974   0.0013255146  -0.0006730923  -0.0002005874
        0.0002873778   0.0005321484  -0.0003801910   0.0003997441  -0.0000637135
        0.0002754908  -0.0001974906   0.0004491709  -0.0007334973  -0.0019441006
       -0.0005186022   0.0001057213   0.0062632796   0.0062670045  -0.0007273242
       -0.0027436900   0.0013418387  -0.0012498224   0.0005383107   0.0008541216
        0.0002686702   0.0000166778  -0.0003056922   0.0002047831   0.0001956506
        0.0002522473  -0.0001821823  -0.0005858473  -0.0001310660   0.0001711519
        0.0002998584  -0.0000231338   0.0000179655  -0.0001476499   0.0000769336
        0.0000950585   0.0003072435  -0.0003290804  -0.0000635690   0.0005286859
        0.0003207102  -0.0000107382  -0.0002586204  -0.0000681284  -0.0000766522
       -0.0000751877   0.0000328081   0.0000434638  -0.0000153258  -0.0000501919
       -0.0000411629   0.0000069703   0.0000113145   0.0000171144  -0.0000006745
       -0.0000008160  -0.0000092466   0.0000057815   0.0000176746   0.0000001348
        0.0000281460  -0.0000603079   0.0000229593  -0.0000299197  -0.0000639344
       -0.0001132486  -0.0000427858   0.0000033628   0.0001120599  -0.0000137194
        0.0000065670  -0.0000466609   0.0000003680   0.0000030758   0.0000299225
        0.0000120470   0.0000099968  -0.0000422000   0.0000156505  -0.0000151557
        0.0000729308  -0.0004394542  -0.0000467998   0.0000166004   0.0003700705
        0.0002565799   0.0000308572   0.0000465960  -0.0000263753  -0.0003313841
        0.0004323449   0.0004925824  -0.0002215700  -0.0023061472   0.0110705655
        0.0122178937   0.0042473700  -0.0048510746   0.0027090033  -0.0003856682
        0.0006838494  -0.0000988880   0.0042216056  -0.0048950079   0.0030025966
       -0.0026132695   0.0008989824   0.0034769505   0.0000037473  -0.0002387170
        0.0002465493  -0.0000841506   0.0000363597  -0.0000373909  -0.0000848762
       -0.0001651806   0.0000181574   0.0000100990  -0.0000049513  -0.0002322934
        0.0000476895  -0.0001809659   0.0000380577   0.0001101652  -0.0000529667
       -0.0002954319  -0.0001888706   0.0003926576   0.0000738857  -0.0000136705
       -0.0001048075  -0.0000108165  -0.0000161565   0.0000105373  -0.0001261855
       -0.0000200878   0.0000382204   0.0000240823  -0.0000104802   0.0000096518
       -0.0000007016   0.0000409871  -0.0000195176   0.0000056792   0.0000054272
       -0.0000071140   0.0000089620  -0.0000000177  -0.0000090337  -0.0000135636
       -0.0000062519   0.0000173557  -0.0000031134  -0.0000043380   0.0000016627
       -0.0000165245  -0.0000157645  -0.0000038406   0.0000048801  -0.0000043181
       -0.0000033389   0.0000067018   0.0000031508   0.0000017269   0.0000050131
       -0.0000200325   0.0000108942  -0.0000374569  -0.0000068691  -0.0000094861
        0.0000577651  -0.0008064994   0.0018381103  -0.0005871885
        0.0002032776   0.0048051002   0.0004410274  -0.0469707709  -0.1282403917
        0.0157468558   0.1022934237   0.4696715968   0.0956382901   0.0171708734
       -0.1898188289  -0.1428837572  -0.0217249169  -0.0550337197  -0.0072843421
        0.0112096737  -0.0014089492  -0.0152308742  -0.0164881987  -0.0016035465
        0.0251497372  -0.0442582502  -0.0864518953   0.0455438139  -0.0017465841
       -0.0027374655  -0.0006979899   0.0002012505  -0.0004582235  -0.0003466966
        0.0000361032   0.0004244042  -0.0000476035  -0.0000051164  -0.0000606387
       -0.0000158567   0.0002239318   0.0002900397  -0.0000230316  -0.0006091766
       -0.0000478195  -0.0000504934  -0.0043832436  -0.0082165308  -0.0000496757
        0.0033170175  -0.0020133443  -0.0003512424  -0.0010305449   0.0001754968
        0.0009847971   0.0001440630   0.0001925663   0.0000801556   0.0003055699
       -0.0001161251  -0.0000706510  -0.0006630860   0.0000444155   0.0001216705
        0.0010346083   0.0003601900  -0.0001275152  -0.0007945690  -0.0008064439
        0.0003432828  -0.0001875653   0.0002010022  -0.0000802320   0.0006141572
        0.0004903408  -0.0000416694  -0.0002935832  -0.0000950229  -0.0000504536
       -0.0000764901   0.0000064768   0.0000459209  -0.0000240156  -0.0000495739
       -0.0000483860  -0.0000272197   0.0000148618  -0.0000034261  -0.0000224498
        0.0000027766  -0.0000118961   0.0000023856   0.0000065324   0.0000027902
        0.0000187925  -0.0000593521   0.0000317857  -0.0000414607  -0.0001048874
       -0.0001181163  -0.0000037509   0.0000098107   0.0001246429  -0.0000119971
        0.0000102364  -0.0000391656   0.0000052514   0.0000037460   0.0000394783
       -0.0000022509   0.0000088097  -0.0000365044   0.0000110752  -0.0000110765
        0.0000862520  -0.0005077545  -0.0005676177   0.0001845778   0.0013122334
        0.0004208108  -0.0004133587  -0.0017359539   0.0006560757  -0.0001941490
       -0.0001521544  -0.0016414832   0.0001933426   0.0011141892   0.0045716715
        0.0011585651  -0.0048062829  -0.0037597103  -0.0007882459   0.0006178239
        0.0006318682  -0.0002163018  -0.0050888285  -0.0033924131  -0.0001714945
        0.0111318198   0.0039322690  -0.0164614304  -0.0001335079  -0.0001150359
        0.0002281961  -0.0000194806   0.0000411489   0.0000018907  -0.0000143538
       -0.0000721265   0.0000290110   0.0000146125  -0.0000088272   0.0000024870
        0.0002293615  -0.0000599461   0.0001175253   0.0000690979   0.0001491105
       -0.0008099629   0.0001791702  -0.0000995954   0.0003666847  -0.0000223384
       -0.0000783522   0.0000055061  -0.0000171473   0.0000049438  -0.0000977366
       -0.0000183406   0.0000077243   0.0000176975  -0.0000134045   0.0000104495
       -0.0000074290   0.0000285047  -0.0000288446   0.0000179492   0.0000086958
       -0.0000212454   0.0000129250   0.0000053456  -0.0000106810  -0.0000036241
        0.0000111861   0.0000117969   0.0000061910  -0.0000113839   0.0000012147
       -0.0000026907  -0.0000223036   0.0000002911   0.0000084532  -0.0000032340
       -0.0000032046   0.0000208446  -0.0000159308   0.0000079986   0.0000093663
       -0.0000308706   0.0000084178  -0.0000569553  -0.0000332135  -0.0000082393
       -0.0000162926   0.0004982295   0.0000269635   0.0000875371
        0.0125731558   0.0126186924  -0.0050345428   0.0049891628   0.0086342976
       -0.0356307903  -0.1985852357   0.0956382901   0.5227422428   0.0454179034
       -0.1019576900  -0.1994429142  -0.0370637982  -0.0532780001   0.0284561947
        0.0174145341  -0.0159187192  -0.0500910622   0.0291270264   0.0725466456
        0.0096242817   0.1079616785   0.0027482358  -0.2362515725  -0.0046213536
       -0.0108595883   0.0009026459   0.0010414840  -0.0009829087  -0.0004412518
        0.0002506256   0.0007582851  -0.0007597990   0.0003702227  -0.0000126064
        0.0003604490  -0.0003226140   0.0010274980  -0.0010216848  -0.0010140664
        0.0007594238   0.0004360684   0.0016691784   0.0035702898   0.0025759338
       -0.0018046277   0.0009026237   0.0001749176   0.0007203177   0.0000876425
       -0.0000912448  -0.0003259452  -0.0002857167   0.0001581349  -0.0000686624
        0.0001128770  -0.0000145051   0.0002563700  -0.0001654130   0.0000921384
       -0.0007667692  -0.0003671744   0.0001300435   0.0005740046   0.0006756817
       -0.0002014312   0.0001565672  -0.0001670275  -0.0000409780  -0.0002147638
       -0.0001895810  -0.0000101550   0.0001034345   0.0000252367   0.0000253275
        0.0000195776  -0.0000029723  -0.0000161458   0.0000055336   0.0000101648
        0.0000208511  -0.0000151869   0.0000196606  -0.0000135487   0.0000124759
       -0.0000289350  -0.0000004543  -0.0000052970   0.0000086526   0.0000068185
       -0.0000024257   0.0000201475  -0.0000083521   0.0000124934   0.0000417874
        0.0000465320  -0.0000032168  -0.0000050527  -0.0000428810   0.0000017366
        0.0000005655   0.0000163441  -0.0000007112  -0.0000012841  -0.0000113652
       -0.0000046135  -0.0000015237   0.0000084166   0.0000028714   0.0000082638
       -0.0000302407   0.0004820637   0.0005332649  -0.0002004133  -0.0012101337
       -0.0002346585   0.0003892839   0.0013495191  -0.0006227721  -0.0003375482
       -0.0005339637   0.0005572683  -0.0008826737   0.0046310494  -0.0156551438
       -0.0203000022   0.0026164559  -0.0006037479   0.0026080866  -0.0001032636
       -0.0001842114  -0.0006943700   0.0029805653  -0.0004524753   0.0026881956
        0.0119749929   0.0020669494  -0.0202674440  -0.0001297827  -0.0003073360
        0.0000578433  -0.0001229107   0.0000240311  -0.0001146851  -0.0001112442
       -0.0002664831   0.0000660949   0.0000051252  -0.0000279294  -0.0001266788
       -0.0002152137  -0.0004685575   0.0000673577   0.0001307820  -0.0001512973
        0.0000997152  -0.0000800561   0.0001203754  -0.0001611512   0.0000052516
        0.0000500315  -0.0000351513  -0.0000069695  -0.0000128990  -0.0000383624
        0.0000089843   0.0000107405   0.0000100979   0.0000104189  -0.0000028092
        0.0000041667  -0.0000230192   0.0000046897  -0.0000163683   0.0000074681
        0.0000110729   0.0000015966   0.0000059168  -0.0000009487   0.0000116334
       -0.0000052063  -0.0000037080  -0.0000014118   0.0000076236   0.0000011266
       -0.0000010176   0.0000082695   0.0000010635  -0.0000040794  -0.0000020935
        0.0000032413  -0.0000069348   0.0000020226  -0.0000018332   0.0000007108
        0.0000039079  -0.0000089209   0.0000156949   0.0000439401   0.0000153887
        0.0000797489   0.0004084332  -0.0003842814   0.0004656447
        0.0001253939  -0.0004186604   0.0002832350   0.0008215296  -0.0066296614
       -0.0062268182  -0.0632199754   0.0171708734   0.0454179034   0.3078800084