 Entering Gaussian System
 *********************************************
 Gaussian 98:
 frequency output generated by the xtb code
 *********************************************
                         Standard orientation:
 --------------------------------------------------------------------
  Center     Atomic     Atomic              Coordinates (Angstroms)
  Number     Number      Type              X           Y           Z
 --------------------------------------------------------------------
    1          6             0       -7.335328   -1.246554    1.848505
    2          6             0       -6.846785   -0.842473    0.444004
    3          6             0       -7.997447   -0.961027   -0.573763
    4          6             0       -5.735042   -1.781556    0.028774
    5          6             0       -5.984777   -3.142938   -0.074820
    6          6             0       -5.005033   -4.038800   -0.461736
    7          6             0       -3.734138   -3.574266   -0.765985
    8          6             0       -3.456014   -2.230243   -0.671476
    9          6             0       -4.442753   -1.319185   -0.266061
   10          7             0       -4.129984    0.019389   -0.174573
   11          6             0       -2.796898    0.435155   -0.457111
   12          6             0       -2.468644    0.969242   -1.705134
   13          6             0       -1.180395    1.358105   -1.967334
   14          6             0       -0.163422    1.205069   -0.998829
   15          6             0        1.166319    1.664352   -1.335890
   16          8             0        1.328406    2.477357   -2.291371
   17          6             0        2.320484    1.205573   -0.572834
   18          6             0        3.456312    2.034213   -0.509756
   19          6             0        4.572377    1.635098    0.187618
   20          6             0        4.584807    0.397594    0.814020
   21         16             0        6.065673   -0.145323    1.649835
   22          8             0        6.676329    0.974006    2.320154
   23          8             0        5.759807   -1.320718    2.425769
   24          6             0        7.119116   -0.624156    0.272196
   25          6             0        8.077973    0.254852   -0.190864
   26          6             0        8.847130   -0.099769   -1.286846
   27          6             0        8.643546   -1.323185   -1.905583
   28          6             0        7.677783   -2.197892   -1.431393
   29          6             0        6.906990   -1.845864   -0.336427
   30          6             0        3.497961   -0.456988    0.718396
   31          6             0        2.372014   -0.062117    0.030360
   32          6             0       -0.523546    0.714918    0.269896
   33          6             0       -1.816519    0.327975    0.530381
   34          6             0       -5.061988    0.964771    0.193664
   35          6             0       -4.679351    2.311675    0.281004
   36          6             0       -5.588797    3.280180    0.638361
   37          6             0       -6.899464    2.925478    0.921098
   38          6             0       -7.278167    1.597429    0.848693
   39          6             0       -6.384163    0.597814    0.491221
   40          1             0       -7.689581   -2.273226    1.853535
   41          1             0       -8.147841   -0.603890    2.174592
   42          1             0       -6.520127   -1.160274    2.564253
   43          1             0       -7.648116   -0.675531   -1.564083
   44          1             0       -8.368256   -1.980674   -0.621221
   45          1             0       -8.823662   -0.311347   -0.300473
   46          1             0       -6.969703   -3.521534    0.150887
   47          1             0       -5.232648   -5.091187   -0.530096
   48          1             0       -2.962208   -4.260585   -1.077895
   49          1             0       -2.470312   -1.866183   -0.913570
   50          1             0       -3.238506    1.067744   -2.456532
   51          1             0       -0.908159    1.775813   -2.924248
   52          1             0        3.423535    2.993149   -1.003025
   53          1             0        5.437127    2.274510    0.272205
   54          1             0        8.216552    1.192225    0.324721
   55          1             0        9.604166    0.575210   -1.656960
   56          1             0        9.243741   -1.599054   -2.760061
   57          1             0        7.527600   -3.151896   -1.914226
   58          1             0        6.155805   -2.507601    0.065256
   59          1             0        3.554833   -1.423237    1.195208
   60          1             0        1.545764   -0.747977   -0.078549
   61          1             0        0.207448    0.677247    1.062168
   62          1             0       -2.089871   -0.047047    1.506292
   63          1             0       -3.658420    2.585345    0.067924
   64          1             0       -5.276787    4.311201    0.699204
   65          1             0       -7.620406    3.677543    1.201575
   66          1             0       -8.299907    1.339082    1.080416
 --------------------------------------------------------------------
     1 basis functions        1 primitive gaussians
     1 alpha electrons        1 beta electrons
 
 Harmonic frequencies (cm**-1), IR intensities (km*mol⁻¹),
 Raman scattering activities (A**4/amu), Raman depolarization ratios,
 reduced masses (AMU), force constants (mDyne/A) and normal coordinates:
                      1                      2                      3
                        a                      a                      a 
 Frequencies --     5.4076                 6.7584                15.1800
 Red. masses --    11.8163                12.1368                12.0370
 Frc consts  --     0.0000                 0.0000                 0.0000
 IR Inten    --     0.9571                 0.3517                 0.4966
 Raman Activ --     0.0000                 0.0000                 0.0000
 Depolar     --     0.0000                 0.0000                 0.0000
 Atom AN      X      Y      Z        X      Y      Z        X      Y      Z
   1   6    -0.04   0.10   0.04     0.04  -0.04   0.05    -0.23   0.07  -0.17
   2   6    -0.04   0.06   0.03    -0.01   0.03   0.05    -0.09   0.06  -0.13
   3   6    -0.04   0.06   0.04    -0.06   0.13   0.09    -0.01   0.14  -0.22
   4   6    -0.06   0.03   0.05    -0.06   0.02  -0.06    -0.10   0.02  -0.05
   5   6    -0.08   0.03   0.09    -0.11   0.03  -0.13    -0.16   0.03  -0.07
   6   6    -0.10   0.01   0.10    -0.15   0.03  -0.22    -0.17  -0.02  -0.01
   7   6    -0.09  -0.02   0.09    -0.14   0.00  -0.23    -0.13  -0.07   0.08
   8   6    -0.07  -0.03   0.05    -0.10  -0.01  -0.16    -0.07  -0.08   0.10
   9   6    -0.05  -0.00   0.04    -0.05  -0.01  -0.08    -0.06  -0.04   0.03
  10   7    -0.03  -0.00   0.00    -0.01  -0.02  -0.02    -0.01  -0.06   0.06
  11   6    -0.02  -0.03  -0.01    -0.01  -0.05  -0.04     0.01  -0.10   0.07
  12   6    -0.01  -0.05  -0.02    -0.01  -0.10  -0.07     0.02  -0.10   0.07
  13   6    -0.01  -0.08  -0.03    -0.01  -0.12  -0.09     0.03  -0.11   0.08
  14   6    -0.01  -0.08  -0.03    -0.00  -0.09  -0.09     0.02  -0.11   0.09
  15   6    -0.00  -0.10  -0.04    -0.01  -0.11  -0.12     0.01  -0.09   0.10
  16   8     0.01  -0.14  -0.06    -0.00  -0.18  -0.18    -0.00  -0.11   0.10
  17   6    -0.01  -0.10  -0.04    -0.00  -0.06  -0.09     0.02  -0.05   0.10
  18   6    -0.00  -0.11  -0.04    -0.01  -0.04  -0.12    -0.00  -0.01   0.08
  19   6    -0.01  -0.10  -0.03    -0.02   0.01  -0.09     0.02   0.02   0.06
  20   6    -0.01  -0.10  -0.02    -0.01   0.04  -0.03     0.07   0.02   0.07
  21  16    -0.03  -0.14  -0.01    -0.02   0.16   0.04     0.19   0.09   0.01
  22   8    -0.12  -0.12   0.13    -0.05   0.17  -0.03     0.15   0.09  -0.05
  23   8     0.01  -0.19  -0.12    -0.01   0.16   0.09     0.20   0.07   0.05
  24   6     0.06   0.08   0.00     0.02   0.05   0.07     0.04   0.06  -0.05
  25   6     0.11   0.12   0.18     0.01   0.04   0.04    -0.05   0.10  -0.17
  26   6     0.18   0.24   0.19     0.04  -0.00   0.07    -0.13   0.11  -0.22
  27   6     0.20   0.32   0.02     0.07  -0.04   0.13    -0.10   0.07  -0.15
  28   6     0.15   0.28  -0.16     0.08  -0.03   0.16    -0.00   0.02  -0.03
  29   6     0.08   0.16  -0.17     0.05   0.01   0.13     0.07   0.02   0.02
  30   6    -0.02  -0.10  -0.02     0.01   0.02  -0.00     0.09  -0.00   0.10
  31   6    -0.01  -0.10  -0.02     0.01  -0.03  -0.03     0.06  -0.04   0.12
  32   6    -0.01  -0.06  -0.03     0.00  -0.04  -0.07     0.01  -0.11   0.08
  33   6    -0.01  -0.04  -0.01     0.00  -0.02  -0.05     0.00  -0.11   0.07
  34   6    -0.01   0.02  -0.02     0.04  -0.01   0.08     0.01  -0.02   0.02
  35   6     0.02   0.02  -0.05     0.08  -0.03   0.12     0.07  -0.04   0.06
  36   6     0.04   0.04  -0.07     0.13  -0.02   0.22     0.10  -0.00   0.03
  37   6     0.03   0.07  -0.06     0.14   0.00   0.27     0.06   0.06  -0.06
  38   6     0.01   0.08  -0.02     0.09   0.02   0.22     0.01   0.08  -0.11
  39   6    -0.01   0.05  -0.00     0.04   0.01   0.12    -0.02   0.04  -0.07
  40   1    -0.02   0.03   0.02     0.00  -0.01  -0.00    -0.08   0.02  -0.06
  41   1    -0.01   0.04   0.01     0.02  -0.01   0.04    -0.06   0.03  -0.07
  42   1    -0.01   0.03   0.01     0.02  -0.03   0.00    -0.08   0.00  -0.03
  43   1    -0.01   0.01   0.01    -0.03   0.05   0.03     0.03   0.04  -0.06
  44   1    -0.02   0.02   0.02    -0.03   0.04   0.01    -0.02   0.05  -0.08
  45   1    -0.01   0.02   0.01    -0.01   0.04   0.05     0.00   0.05  -0.08
  46   1    -0.02   0.02   0.03    -0.03   0.02  -0.04    -0.05   0.02  -0.04
  47   1    -0.03   0.00   0.04    -0.05   0.01  -0.08    -0.06  -0.00  -0.01
  48   1    -0.03  -0.01   0.03    -0.05  -0.00  -0.08    -0.04  -0.03   0.04
  49   1    -0.02  -0.01   0.01    -0.03  -0.01  -0.05    -0.01  -0.04   0.05
  50   1    -0.00  -0.01  -0.00    -0.00  -0.03  -0.02     0.01  -0.03   0.02
  51   1    -0.00  -0.03  -0.01    -0.00  -0.05  -0.03     0.01  -0.03   0.02
  52   1     0.00  -0.03  -0.01    -0.01  -0.02  -0.05    -0.01  -0.01   0.02
  53   1    -0.00  -0.03  -0.01    -0.01   0.01  -0.03     0.00   0.01   0.01
  54   1     0.03   0.01   0.09    -0.00   0.02  -0.00    -0.02   0.04  -0.06
  55   1     0.06   0.08   0.09     0.01  -0.00   0.01    -0.06   0.04  -0.09
  56   1     0.07   0.12   0.01     0.03  -0.02   0.05    -0.05   0.02  -0.06
  57   1     0.05   0.10  -0.08     0.03  -0.02   0.06     0.00  -0.00   0.01
  58   1     0.01   0.04  -0.09     0.02   0.01   0.04     0.04  -0.00   0.03
  59   1    -0.01  -0.03  -0.00     0.00   0.01   0.01     0.03   0.00   0.03
  60   1    -0.00  -0.03  -0.01     0.01  -0.01  -0.00     0.02  -0.02   0.04
  61   1    -0.00  -0.02  -0.01     0.00  -0.01  -0.02    -0.00  -0.03   0.03
  62   1    -0.00  -0.01  -0.00     0.00   0.00  -0.01    -0.00  -0.03   0.02
  63   1     0.01  -0.00  -0.02     0.02  -0.01   0.02     0.03  -0.02   0.04
  64   1     0.02   0.01  -0.03     0.05  -0.01   0.07     0.04  -0.00   0.02
  65   1     0.01   0.03  -0.02     0.05   0.00   0.10     0.02   0.03  -0.03
  66   1     0.00   0.03  -0.00     0.03   0.01   0.07    -0.01   0.04  -0.05
                      4                      5                      6
                        a                      a                      a 
 Frequencies --    19.3473                21.7413                28.4609
 Red. masses --    10.3560                11.2941                11.9593
 Frc consts  --     0.0000                 0.0000                 0.0000
 IR Inten    --     0.8792                 3.1305                 1.9011
 Raman Activ --     0.0000                 0.0000                 0.0000
 Depolar     --     0.0000                 0.0000                 0.0000
 Atom AN      X      Y      Z        X      Y      Z        X      Y      Z
   1   6     0.07   0.05   0.08    -0.24  -0.05  -0.18    -0.07  -0.07  -0.11
   2   6     0.01   0.02   0.05    -0.06  -0.01  -0.10     0.04  -0.01  -0.05
   3   6    -0.03  -0.02   0.10     0.06   0.04  -0.25     0.11   0.02  -0.15
   4   6    -0.00   0.01   0.04    -0.02  -0.00  -0.00     0.08   0.02  -0.01
   5   6    -0.01   0.00   0.07    -0.01  -0.00  -0.03     0.11   0.01  -0.03
   6   6    -0.03  -0.00   0.05     0.02   0.00   0.04     0.15   0.04   0.01
   7   6    -0.04  -0.01  -0.01     0.05   0.01   0.14     0.16   0.07   0.08
   8   6    -0.03  -0.01  -0.04     0.03   0.01   0.16     0.12   0.07   0.10
   9   6    -0.01  -0.00  -0.01    -0.00   0.01   0.09     0.08   0.05   0.04
  10   7    -0.00  -0.00  -0.04    -0.02   0.01   0.12     0.04   0.06   0.06
  11   6    -0.00  -0.01  -0.04    -0.03   0.03   0.10     0.02   0.09   0.03
  12   6    -0.02   0.09   0.00    -0.07   0.08   0.10     0.02  -0.05  -0.02
  13   6    -0.02   0.10   0.01    -0.08   0.08   0.07     0.02  -0.07  -0.07
  14   6    -0.00   0.00  -0.02    -0.04   0.05   0.02     0.02   0.02  -0.06
  15   6    -0.01   0.04   0.00    -0.05   0.04  -0.02     0.04  -0.07  -0.11
  16   8    -0.02   0.13   0.08    -0.10   0.07  -0.01     0.10  -0.22  -0.24
  17   6    -0.00   0.00  -0.02    -0.02   0.02  -0.08     0.01  -0.06  -0.06
  18   6    -0.04   0.04   0.09    -0.02   0.01  -0.11     0.05  -0.11  -0.13
  19   6    -0.05   0.02   0.09    -0.00  -0.00  -0.14     0.03  -0.11  -0.08
  20   6    -0.01  -0.04  -0.03     0.01  -0.01  -0.14    -0.05  -0.05   0.03
  21  16    -0.05  -0.09  -0.01    -0.02   0.02  -0.16    -0.10  -0.11   0.08
  22   8    -0.08  -0.07   0.04    -0.06   0.04  -0.11    -0.09  -0.10   0.11
  23   8    -0.05  -0.09  -0.05    -0.04   0.04  -0.09    -0.08  -0.11   0.01
  24   6     0.01  -0.01   0.02     0.08  -0.02  -0.02    -0.06  -0.00   0.03
  25   6    -0.23   0.16  -0.16     0.11  -0.04   0.02    -0.21   0.11  -0.06
  26   6    -0.20   0.20  -0.15     0.21  -0.09   0.11    -0.24   0.18  -0.11
  27   6     0.08   0.05   0.04     0.28  -0.12   0.16    -0.13   0.14  -0.06
  28   6     0.33  -0.12   0.22     0.25  -0.11   0.12     0.02   0.02   0.03
  29   6     0.29  -0.15   0.21     0.14  -0.06   0.03     0.05  -0.05   0.08
  30   6     0.03  -0.08  -0.16     0.00  -0.00  -0.13    -0.09  -0.00   0.10
  31   6     0.03  -0.06  -0.15    -0.01   0.01  -0.10    -0.06  -0.00   0.06
  32   6     0.02  -0.12  -0.06     0.00   0.01   0.02     0.02   0.19   0.01
  33   6     0.02  -0.12  -0.07     0.01   0.01   0.06     0.02   0.22   0.05
  34   6     0.01   0.01  -0.03    -0.04  -0.00   0.09     0.01   0.03   0.06
  35   6     0.01   0.01  -0.06    -0.04  -0.01   0.18    -0.01   0.03   0.11
  36   6     0.02   0.02  -0.07    -0.06  -0.02   0.16    -0.03   0.00   0.13
  37   6     0.02   0.03  -0.04    -0.08  -0.02   0.04    -0.03  -0.03   0.10
  38   6     0.02   0.03  -0.01    -0.08  -0.02  -0.04    -0.01  -0.03   0.04
  39   6     0.01   0.02  -0.00    -0.06  -0.01  -0.01     0.02  -0.01   0.03
  40   1     0.02   0.02   0.04    -0.07  -0.01  -0.07    -0.02  -0.02  -0.05
  41   1     0.02   0.02   0.03    -0.08  -0.01  -0.07    -0.03  -0.03  -0.04
  42   1     0.03   0.02   0.01    -0.09  -0.02  -0.02    -0.03  -0.03  -0.01
  43   1    -0.02  -0.01   0.02     0.05   0.02  -0.06     0.05   0.02  -0.03
  44   1    -0.01  -0.01   0.04     0.02   0.01  -0.09     0.04   0.00  -0.06
  45   1    -0.01  -0.00   0.03     0.01   0.01  -0.10     0.03   0.00  -0.05
  46   1    -0.00   0.00   0.03    -0.01  -0.00  -0.03     0.03  -0.00  -0.03
  47   1    -0.01  -0.00   0.02     0.01   0.00   0.01     0.05   0.01  -0.00
  48   1    -0.02  -0.00  -0.01     0.02   0.00   0.06     0.06   0.02   0.04
  49   1    -0.01  -0.00  -0.03     0.01   0.00   0.07     0.04   0.03   0.04
  50   1    -0.01   0.05   0.01    -0.03   0.03   0.04     0.01  -0.04  -0.01
  51   1    -0.01   0.05   0.01    -0.03   0.03   0.02     0.01  -0.05  -0.03
  52   1    -0.02   0.03   0.06    -0.01   0.00  -0.03     0.03  -0.05  -0.06
  53   1    -0.02   0.02   0.06     0.00  -0.00  -0.04     0.02  -0.04  -0.04
  54   1    -0.12   0.08  -0.09     0.02  -0.00  -0.00    -0.08   0.04  -0.03
  55   1    -0.11   0.10  -0.08     0.07  -0.03   0.04    -0.10   0.08  -0.05
  56   1     0.03   0.02   0.02     0.11  -0.05   0.07    -0.05   0.06  -0.03
  57   1     0.16  -0.07   0.11     0.09  -0.04   0.04     0.03  -0.00   0.02
  58   1     0.14  -0.08   0.10     0.03  -0.01  -0.00     0.05  -0.04   0.04
  59   1     0.02  -0.04  -0.07     0.00  -0.00  -0.04    -0.04   0.01   0.05
  60   1     0.02  -0.02  -0.07    -0.01   0.00  -0.02    -0.03   0.01   0.03
  61   1     0.01  -0.06  -0.02     0.01  -0.00  -0.00     0.01   0.08   0.00
  62   1     0.01  -0.06  -0.03     0.01  -0.01   0.02     0.00   0.10   0.03
  63   1     0.00   0.00  -0.02    -0.01  -0.00   0.08    -0.00   0.02   0.03
  64   1     0.01   0.01  -0.03    -0.02  -0.01   0.06    -0.01   0.00   0.05
  65   1     0.01   0.01  -0.01    -0.03  -0.01   0.01    -0.01  -0.01   0.03
  66   1     0.01   0.01   0.01    -0.03  -0.01  -0.04    -0.00  -0.02   0.00
                      7                      8                      9
                        a                      a                      a 
 Frequencies --    32.5163                47.1018                62.2252
 Red. masses --    11.6975                11.6784                11.0148
 Frc consts  --     0.0000                 0.0000                 0.0000
 IR Inten    --     6.2336                 4.7800                 0.8118
 Raman Activ --     0.0000                 0.0000                 0.0000
 Depolar     --     0.0000                 0.0000                 0.0000
 Atom AN      X      Y      Z        X      Y      Z        X      Y      Z
   1   6     0.10  -0.03   0.08    -0.00   0.00   0.00     0.20   0.04   0.08
   2   6    -0.04  -0.03   0.03     0.00   0.00   0.00     0.02   0.00   0.00
   3   6    -0.12  -0.09   0.14    -0.01   0.06   0.01    -0.10  -0.05   0.15
   4   6    -0.03   0.02  -0.04    -0.03  -0.03  -0.01    -0.01  -0.00  -0.06
   5   6    -0.00   0.02  -0.09    -0.07  -0.02  -0.01    -0.07   0.02  -0.24
   6   6     0.01   0.06  -0.14    -0.09  -0.06   0.01    -0.08   0.02  -0.27
   7   6    -0.00   0.10  -0.15    -0.07  -0.10   0.04    -0.02  -0.01  -0.07
   8   6    -0.03   0.10  -0.10    -0.03  -0.11   0.03     0.05  -0.04   0.13
   9   6    -0.05   0.06  -0.05    -0.02  -0.07  -0.01     0.05  -0.04   0.12
  10   7    -0.08   0.07  -0.00     0.02  -0.09  -0.05     0.10  -0.06   0.29
  11   6    -0.07   0.08   0.05     0.02  -0.10  -0.05     0.08  -0.05   0.22
  12   6    -0.01   0.01   0.03     0.07  -0.31  -0.12    -0.00  -0.07   0.19
  13   6     0.00  -0.03   0.06     0.05  -0.21  -0.09    -0.03  -0.04   0.10
  14   6    -0.03  -0.00   0.10    -0.02   0.09   0.03     0.02   0.01   0.05
  15   6    -0.01  -0.07   0.10    -0.03   0.19   0.09    -0.00   0.03  -0.04
  16   8     0.02  -0.16   0.05    -0.07   0.27   0.14    -0.07   0.03  -0.06
  17   6    -0.01  -0.06   0.10    -0.04   0.17   0.08     0.02   0.02  -0.10
  18   6     0.04  -0.12  -0.07     0.03   0.09  -0.02     0.03   0.01  -0.10
  19   6     0.08  -0.10  -0.12     0.04   0.02  -0.07     0.02   0.00  -0.08
  20   6     0.06  -0.04   0.01    -0.02   0.05  -0.02    -0.01   0.01  -0.07
  21  16     0.17  -0.01  -0.06    -0.07  -0.08  -0.09    -0.09  -0.00   0.01
  22   8     0.11   0.02  -0.08    -0.01  -0.13   0.02    -0.08  -0.01   0.03
  23   8     0.17  -0.01  -0.02    -0.11  -0.09  -0.14    -0.12   0.01  -0.01
  24   6     0.10   0.00  -0.04    -0.02  -0.03  -0.05    -0.03  -0.01   0.03
  25   6     0.05   0.03  -0.09    -0.04   0.00  -0.03    -0.03   0.00   0.03
  26   6     0.08   0.02  -0.07     0.02   0.00   0.01    -0.05   0.02   0.02
  27   6     0.15  -0.02  -0.00     0.10  -0.02   0.04    -0.06   0.03   0.00
  28   6     0.20  -0.06   0.04     0.12  -0.05   0.02    -0.05   0.02   0.00
  29   6     0.18  -0.04   0.02     0.06  -0.05  -0.02    -0.03   0.00   0.02
  30   6    -0.00   0.02   0.20    -0.10   0.14   0.09    -0.00   0.00  -0.10
  31   6    -0.04   0.01   0.25    -0.11   0.20   0.14     0.01   0.01  -0.11
  32   6    -0.09   0.09   0.12    -0.06   0.26   0.08     0.11   0.04   0.09
  33   6    -0.11   0.13   0.09    -0.05   0.18   0.05     0.14   0.01   0.18
  34   6    -0.11   0.04  -0.03     0.05  -0.05  -0.03     0.07  -0.03   0.11
  35   6    -0.17   0.06  -0.08     0.09  -0.06  -0.08     0.08  -0.03   0.11
  36   6    -0.21   0.03  -0.11     0.13  -0.03  -0.04     0.04   0.00  -0.09
  37   6    -0.19  -0.01  -0.08     0.14   0.00   0.03    -0.01   0.04  -0.28
  38   6    -0.13  -0.03  -0.03     0.10   0.02   0.05    -0.02   0.04  -0.24
  39   6    -0.10  -0.01  -0.02     0.05  -0.01   0.01     0.02   0.01  -0.06
  40   1     0.04  -0.01   0.04    -0.01   0.00  -0.00     0.06   0.01   0.04
  41   1     0.03  -0.02   0.04     0.01   0.01   0.00     0.07   0.02   0.04
  42   1     0.05   0.00   0.00     0.00  -0.01  -0.00     0.08   0.02  -0.01
  43   1    -0.07  -0.02   0.03    -0.00   0.02   0.00    -0.07  -0.02   0.03
  44   1    -0.02  -0.03   0.05    -0.01   0.02  -0.00    -0.03  -0.01   0.07
  45   1    -0.04  -0.04   0.06     0.01   0.03   0.01    -0.02  -0.02   0.07
  46   1     0.00  -0.01  -0.02    -0.03   0.00  -0.01    -0.03   0.01  -0.10
  47   1     0.01   0.02  -0.05    -0.04  -0.01   0.00    -0.04   0.01  -0.13
  48   1     0.00   0.04  -0.06    -0.02  -0.04   0.02    -0.01  -0.01  -0.02
  49   1    -0.01   0.04  -0.03    -0.00  -0.04   0.02     0.03  -0.02   0.09
  50   1     0.01  -0.00  -0.00     0.03  -0.15  -0.06    -0.01  -0.03   0.07
  51   1     0.01  -0.03   0.01     0.02  -0.10  -0.04    -0.03  -0.02   0.02
  52   1     0.02  -0.05  -0.05     0.02   0.02  -0.02     0.01   0.00  -0.03
  53   1     0.04  -0.04  -0.08     0.03  -0.01  -0.04     0.01  -0.00  -0.02
  54   1    -0.00   0.02  -0.04    -0.03   0.01  -0.02    -0.01  -0.00   0.01
  55   1     0.01   0.01  -0.03     0.00   0.01   0.00    -0.02   0.01   0.00
  56   1     0.05  -0.01   0.00     0.04  -0.01   0.02    -0.02   0.01  -0.00
  57   1     0.08  -0.03   0.03     0.05  -0.02   0.01    -0.02   0.01  -0.00
  58   1     0.06  -0.02   0.02     0.02  -0.02  -0.01    -0.01  -0.00   0.01
  59   1    -0.00   0.02   0.09    -0.04   0.04   0.04    -0.00   0.00  -0.03
  60   1    -0.02   0.01   0.11    -0.05   0.07   0.07     0.00   0.00  -0.04
  61   1    -0.04   0.03   0.04    -0.03   0.14   0.04     0.05   0.03   0.01
  62   1    -0.05   0.05   0.03    -0.03   0.10   0.03     0.06   0.01   0.06
  63   1    -0.05   0.03  -0.03     0.02  -0.02  -0.04     0.03  -0.02   0.08
  64   1    -0.07   0.01  -0.04     0.05  -0.01  -0.02     0.01   0.00  -0.03
  65   1    -0.06  -0.01  -0.03     0.05   0.01   0.02    -0.01   0.02  -0.13
  66   1    -0.03  -0.02  -0.00     0.03   0.01   0.02    -0.01   0.02  -0.10
                     10                     11                     12
                        a                      a                      a 
 Frequencies --    74.7635                92.5786                99.7971
 Red. masses --    11.2890                10.2684                10.1699
 Frc consts  --     0.0000                 0.0000                 0.0000
 IR Inten    --     2.1033                 3.7038                 1.3250
 Raman Activ --     0.0000                 0.0000                 0.0000
 Depolar     --     0.0000                 0.0000                 0.0000
 Atom AN      X      Y      Z        X      Y      Z        X      Y      Z
   1   6     0.03  -0.03   0.00     0.01  -0.18  -0.04    -0.26  -0.02   0.01
   2   6    -0.00   0.00   0.00    -0.00   0.00   0.01     0.03  -0.01   0.13
   3   6    -0.02   0.01   0.02    -0.02   0.17   0.01     0.23   0.03  -0.11
   4   6     0.00   0.02  -0.02    -0.02   0.02  -0.08     0.06  -0.01   0.20
   5   6     0.01   0.03  -0.09    -0.06   0.04  -0.25     0.08  -0.01   0.21
   6   6     0.02   0.04  -0.07    -0.02   0.03  -0.13     0.02   0.03  -0.06
   7   6     0.05   0.05   0.03     0.07  -0.00   0.20    -0.06   0.09  -0.35
   8   6     0.04   0.04   0.09     0.09  -0.01   0.29    -0.06   0.08  -0.25
   9   6     0.01   0.03   0.04     0.02   0.01   0.09     0.01   0.02   0.04
  10   7     0.00   0.04   0.07    -0.01   0.03   0.01     0.03   0.01   0.14
  11   6    -0.00   0.04   0.04    -0.00   0.02   0.01     0.03  -0.01   0.11
  12   6     0.00  -0.14  -0.04     0.02  -0.04  -0.01     0.03  -0.18   0.04
  13   6     0.00  -0.19  -0.09     0.02  -0.05  -0.01     0.03  -0.20  -0.00
  14   6     0.00  -0.06  -0.06     0.01  -0.04   0.00     0.02  -0.06   0.03
  15   6    -0.01  -0.07  -0.07     0.01   0.01   0.03    -0.00   0.01   0.02
  16   8     0.08  -0.26  -0.21    -0.04   0.14   0.14    -0.07   0.10   0.09
  17   6    -0.04   0.05   0.09     0.02  -0.05  -0.04     0.02  -0.02  -0.03
  18   6    -0.18   0.20   0.36     0.02  -0.05  -0.01     0.00  -0.00   0.01
  19   6    -0.18   0.21   0.38     0.01  -0.07  -0.02    -0.01  -0.02   0.01
  20   6    -0.05   0.08   0.10     0.02  -0.09  -0.06     0.01  -0.05  -0.06
  21  16     0.01  -0.01  -0.08     0.02   0.01   0.03    -0.01   0.01   0.00
  22   8     0.09  -0.07  -0.03    -0.07   0.09  -0.05    -0.07   0.06  -0.04
  23   8     0.04  -0.06  -0.12     0.05   0.05   0.10     0.00   0.04   0.06
  24   6    -0.04   0.02  -0.10     0.04  -0.02   0.05     0.02  -0.02   0.03
  25   6     0.00  -0.01  -0.06     0.03  -0.01   0.04     0.01  -0.01   0.03
  26   6     0.08  -0.05   0.01    -0.02   0.01  -0.00    -0.01   0.01   0.00
  27   6     0.13  -0.08   0.04    -0.05   0.03  -0.03    -0.04   0.02  -0.02
  28   6     0.07  -0.04  -0.01    -0.03   0.02  -0.01    -0.02   0.01  -0.01
  29   6    -0.01   0.00  -0.08     0.01  -0.00   0.03     0.01  -0.01   0.02
  30   6     0.04  -0.02  -0.09     0.04  -0.11  -0.12     0.04  -0.08  -0.13
  31   6     0.03  -0.02  -0.08     0.04  -0.09  -0.11     0.03  -0.06  -0.11
  32   6     0.00   0.08  -0.01     0.01  -0.03   0.00     0.03   0.04   0.07
  33   6    -0.00   0.14   0.05    -0.00   0.02   0.01     0.03   0.08   0.12
  34   6    -0.02   0.02   0.03    -0.04   0.03  -0.08     0.01   0.01   0.10
  35   6    -0.05   0.03   0.00    -0.12   0.07  -0.34    -0.04   0.04  -0.06
  36   6    -0.06   0.02  -0.02    -0.11   0.05  -0.25    -0.08   0.05  -0.19
  37   6    -0.06   0.00  -0.01    -0.01  -0.02   0.14    -0.06   0.02  -0.12
  38   6    -0.04  -0.00   0.01     0.05  -0.04   0.30    -0.00  -0.00   0.06
  39   6    -0.02   0.01   0.02     0.02  -0.01   0.12     0.03  -0.01   0.15
  40   1     0.01  -0.01  -0.00     0.00  -0.05  -0.05    -0.08  -0.00  -0.02
  41   1     0.01  -0.01   0.01     0.01  -0.06   0.02    -0.09  -0.00  -0.04
  42   1     0.01  -0.01  -0.00     0.01  -0.08  -0.01    -0.12  -0.01   0.05
  43   1    -0.01   0.01   0.01    -0.01   0.08   0.01     0.13   0.01  -0.01
  44   1    -0.00   0.00   0.00    -0.02   0.06  -0.03     0.07   0.01  -0.06
  45   1    -0.01  -0.00   0.02     0.00   0.05   0.03     0.05   0.01  -0.08
  46   1    -0.00   0.01  -0.04    -0.03   0.02  -0.13     0.04  -0.01   0.11
  47   1     0.01   0.01  -0.04    -0.02   0.01  -0.08     0.01   0.01  -0.02
  48   1     0.02   0.02   0.02     0.03  -0.01   0.11    -0.04   0.04  -0.18
  49   1     0.02   0.01   0.05     0.04  -0.01   0.14    -0.03   0.03  -0.12
  50   1     0.00  -0.07  -0.02     0.01  -0.02  -0.01     0.01  -0.08   0.01
  51   1     0.00  -0.09  -0.04     0.01  -0.02  -0.00     0.01  -0.09  -0.02
  52   1    -0.07   0.08   0.16     0.00  -0.01   0.01    -0.00   0.01   0.02
  53   1    -0.08   0.09   0.17     0.00  -0.02   0.01    -0.01  -0.00   0.02
  54   1    -0.01   0.00  -0.02     0.01  -0.01   0.01     0.01  -0.00   0.01
  55   1     0.04  -0.02   0.01    -0.01   0.01  -0.00    -0.01   0.00  -0.00
  56   1     0.06  -0.03   0.03    -0.03   0.02  -0.02    -0.02   0.01  -0.01
  57   1     0.03  -0.02   0.00    -0.02   0.01  -0.01    -0.01   0.01  -0.01
  58   1    -0.01   0.00  -0.03     0.01  -0.00   0.01     0.00  -0.00   0.01
  59   1     0.03  -0.03  -0.07     0.01  -0.04  -0.05     0.01  -0.03  -0.05
  60   1     0.02  -0.02  -0.06     0.01  -0.02  -0.04     0.01  -0.02  -0.04
  61   1     0.01   0.04  -0.01     0.00  -0.01  -0.00     0.01   0.02   0.02
  62   1    -0.00   0.07   0.03    -0.00   0.01   0.01     0.01   0.05   0.04
  63   1    -0.01   0.01  -0.00    -0.05   0.03  -0.17    -0.01   0.01  -0.03
  64   1    -0.02   0.01  -0.01    -0.05   0.02  -0.13    -0.04   0.02  -0.10
  65   1    -0.02  -0.00  -0.00     0.01  -0.01   0.08    -0.03   0.01  -0.06
  66   1    -0.01  -0.00   0.00     0.03  -0.02   0.15     0.00  -0.00   0.03
                     13                     14                     15
                        a                      a                      a 
 Frequencies --   101.6277               112.9640               128.8898
 Red. masses --    11.9872                12.5060                 2.6511
 Frc consts  --     0.0000                 0.0000                 0.0000
 IR Inten    --     3.7418                 1.4138                 5.8225
 Raman Activ --     0.0000                 0.0000                 0.0000
 Depolar     --     0.0000                 0.0000                 0.0000
 Atom AN      X      Y      Z        X      Y      Z        X      Y      Z
   1   6    -0.14  -0.09   0.00     0.01  -0.01  -0.00    -0.05   0.18   0.04
   2   6     0.01  -0.02   0.08     0.07   0.00   0.03    -0.00  -0.00   0.00
   3   6     0.09   0.09  -0.04     0.11   0.06  -0.03     0.05  -0.18  -0.03
   4   6    -0.00  -0.03   0.07     0.05  -0.03   0.03     0.01  -0.01   0.06
   5   6    -0.05  -0.02   0.00     0.02  -0.02  -0.01    -0.02   0.01  -0.06
   6   6    -0.09  -0.03  -0.08    -0.00  -0.03  -0.06    -0.05   0.01  -0.12
   7   6    -0.08  -0.04  -0.08     0.01  -0.05  -0.06    -0.02  -0.00  -0.03
   8   6    -0.03  -0.06   0.01     0.04  -0.06  -0.01     0.01  -0.02   0.07
   9   6     0.00  -0.05   0.06     0.06  -0.05   0.02     0.02  -0.01   0.06
  10   7     0.02  -0.05   0.06     0.07  -0.07   0.03     0.00  -0.00  -0.00
  11   6     0.02  -0.04   0.05     0.04  -0.03   0.02     0.00   0.00  -0.00
  12   6    -0.04   0.17   0.12    -0.04   0.14   0.07     0.00   0.00  -0.00
  13   6    -0.05   0.20   0.12    -0.07   0.23   0.08     0.00   0.01  -0.00
  14   6     0.01   0.05   0.04    -0.06   0.15   0.05     0.00   0.01  -0.00
  15   6     0.01  -0.02  -0.05    -0.04   0.02   0.01     0.00   0.01  -0.00
  16   8     0.03  -0.23  -0.24     0.09  -0.09  -0.06     0.01  -0.01  -0.01
  17   6     0.03   0.09  -0.00    -0.11  -0.05   0.08     0.00   0.01   0.00
  18   6     0.03   0.09  -0.08    -0.09  -0.09   0.09     0.00   0.00   0.01
  19   6     0.05   0.14  -0.06    -0.13  -0.15   0.10     0.00  -0.00   0.00
  20   6     0.04   0.20   0.04    -0.19  -0.15   0.09     0.01  -0.01  -0.00
  21  16    -0.00  -0.01   0.00    -0.11   0.01  -0.09     0.01  -0.00   0.00
  22   8     0.15  -0.21   0.20    -0.14   0.18  -0.29     0.00   0.00  -0.01
  23   8    -0.19  -0.09  -0.20     0.23   0.05   0.12    -0.00   0.01   0.01
  24   6    -0.02   0.02  -0.03    -0.13   0.03  -0.11     0.01  -0.01   0.01
  25   6    -0.02   0.01  -0.03    -0.10   0.03  -0.06     0.00  -0.01   0.01
  26   6     0.00  -0.02  -0.00     0.02   0.01   0.03    -0.00   0.00   0.00
  27   6     0.02  -0.04   0.02     0.11  -0.02   0.07    -0.00   0.01  -0.01
  28   6     0.01  -0.02   0.02     0.06  -0.01  -0.02     0.00   0.00  -0.01
  29   6    -0.02   0.01  -0.00    -0.06   0.02  -0.11     0.01  -0.01   0.00
  30   6     0.03   0.21   0.13    -0.22  -0.11   0.12     0.00  -0.00  -0.01
  31   6     0.03   0.14   0.10    -0.19  -0.05   0.10     0.00   0.00  -0.01
  32   6     0.04  -0.07   0.01    -0.01   0.11   0.05     0.00   0.02   0.00
  33   6     0.06  -0.14  -0.00     0.03  -0.00   0.03     0.00   0.01  -0.00
  34   6     0.01  -0.03  -0.00     0.09  -0.03  -0.00    -0.02   0.01  -0.06
  35   6    -0.03  -0.01  -0.20     0.11  -0.03  -0.08    -0.02   0.01  -0.07
  36   6    -0.03   0.01  -0.24     0.13  -0.00  -0.13     0.00  -0.01   0.03
  37   6     0.02  -0.01  -0.02     0.14   0.02  -0.07     0.03  -0.02   0.13
  38   6     0.06  -0.03   0.16     0.12   0.02   0.02     0.01  -0.01   0.06
  39   6     0.04  -0.03   0.12     0.09  -0.01   0.04    -0.02   0.01  -0.06
  40   1    -0.05  -0.02  -0.03    -0.01   0.00  -0.01     0.30  -0.06   0.13
  41   1    -0.04  -0.03  -0.01     0.01   0.00  -0.00    -0.24  -0.15  -0.16
  42   1    -0.06  -0.05   0.02    -0.00  -0.01   0.01    -0.11   0.40   0.08
  43   1     0.06   0.04   0.00     0.05   0.02  -0.00     0.11  -0.42  -0.08
  44   1     0.01   0.03  -0.04     0.02   0.02  -0.02    -0.20   0.01   0.28
  45   1     0.03   0.04  -0.02     0.04   0.03  -0.02     0.14   0.21  -0.24
  46   1    -0.02   0.00  -0.00     0.00  -0.00  -0.00    -0.01   0.01  -0.04
  47   1    -0.04  -0.00  -0.04    -0.01  -0.01  -0.03    -0.02   0.01  -0.07
  48   1    -0.03  -0.01  -0.04    -0.00  -0.02  -0.03    -0.01  -0.00  -0.01
  49   1    -0.01  -0.02  -0.00     0.01  -0.02  -0.00     0.01  -0.01   0.03
  50   1    -0.02   0.08   0.05    -0.02   0.05   0.03     0.00  -0.00  -0.00
  51   1    -0.03   0.10   0.05    -0.03   0.10   0.03    -0.00   0.00  -0.00
  52   1     0.01   0.01  -0.05    -0.01  -0.03   0.02     0.00   0.00   0.00
  53   1     0.02   0.04  -0.04    -0.03  -0.06   0.04     0.00  -0.00   0.00
  54   1    -0.00   0.01  -0.01    -0.05   0.01  -0.02     0.00  -0.00   0.00
  55   1     0.00  -0.01  -0.00     0.01   0.00   0.03    -0.00   0.00   0.00
  56   1     0.01  -0.02   0.01     0.06  -0.02   0.04    -0.00   0.00  -0.00
  57   1     0.00  -0.01   0.01     0.04  -0.01   0.00     0.00   0.00  -0.00
  58   1    -0.01   0.01   0.00    -0.03   0.00  -0.05     0.00  -0.00   0.00
  59   1     0.01   0.07   0.06    -0.08  -0.03   0.03     0.00  -0.00  -0.00
  60   1     0.01   0.03   0.04    -0.07  -0.00   0.03     0.00   0.00  -0.00
  61   1     0.01  -0.04  -0.00    -0.00   0.04   0.01    -0.00   0.01   0.00
  62   1     0.03  -0.08  -0.01     0.01  -0.02   0.00     0.00   0.00   0.00
  63   1    -0.02   0.00  -0.09     0.03  -0.01  -0.03    -0.01   0.00  -0.03
  64   1    -0.02   0.01  -0.12     0.04   0.00  -0.06     0.00  -0.00   0.02
  65   1     0.01  -0.00  -0.00     0.04   0.01  -0.03     0.02  -0.01   0.07
  66   1     0.03  -0.01   0.08     0.04   0.01   0.02     0.01  -0.01   0.04
                     16                     17                     18
                        a                      a                      a 
 Frequencies --   133.6641               140.5778               152.4381
 Red. masses --    12.4843                12.3921                12.5291
 Frc consts  --     0.0000                 0.0000                 0.0000
 IR Inten    --     4.1032                 6.6728                 0.9845
 Raman Activ --     0.0000                 0.0000                 0.0000
 Depolar     --     0.0000                 0.0000                 0.0000
 Atom AN      X      Y      Z        X      Y      Z        X      Y      Z
   1   6     0.05   0.02  -0.01    -0.04  -0.01   0.00     0.14   0.05  -0.06
   2   6     0.05   0.02  -0.00    -0.03  -0.02   0.00     0.05   0.03  -0.09
   3   6     0.06   0.01  -0.02    -0.04  -0.02   0.01     0.02   0.02  -0.04
   4   6     0.05   0.02  -0.00    -0.04  -0.03   0.00     0.03   0.00  -0.10
   5   6     0.08   0.02  -0.04    -0.07  -0.02   0.04     0.10  -0.02  -0.00
   6   6     0.10   0.05  -0.04    -0.09  -0.05   0.04     0.16   0.00   0.09
   7   6     0.10   0.07  -0.01    -0.09  -0.07   0.00     0.13   0.04   0.01
   8   6     0.08   0.07   0.02    -0.06  -0.07  -0.02     0.06   0.06  -0.12
   9   6     0.04   0.04   0.02    -0.03  -0.04  -0.02     0.02   0.01  -0.12
  10   7     0.01   0.05   0.03    -0.00  -0.05  -0.03    -0.02   0.00  -0.07
  11   6     0.00  -0.00   0.01    -0.00   0.01  -0.01    -0.01  -0.02   0.08
  12   6    -0.01  -0.05  -0.00     0.00   0.04   0.00     0.01  -0.03   0.09
  13   6     0.01  -0.14  -0.03    -0.02   0.15   0.03     0.00  -0.03   0.17
  14   6    -0.00  -0.18  -0.03    -0.01   0.20   0.03    -0.07  -0.07   0.24
  15   6    -0.02  -0.07   0.02     0.02   0.07  -0.00    -0.11  -0.09   0.14
  16   8    -0.14   0.15   0.19     0.15  -0.08  -0.12    -0.20  -0.28   0.00
  17   6    -0.03  -0.10  -0.04     0.01   0.03   0.02    -0.08  -0.01   0.10
  18   6    -0.03  -0.09  -0.09     0.02   0.00   0.07    -0.13   0.05   0.04
  19   6    -0.05  -0.03  -0.03     0.03  -0.06   0.03    -0.05   0.06  -0.09
  20   6    -0.09   0.03   0.10     0.05  -0.12  -0.10     0.03   0.02  -0.18
  21  16    -0.06   0.09  -0.03     0.08   0.02   0.03    -0.09   0.04  -0.11
  22   8    -0.14  -0.04   0.23    -0.30   0.07   0.25    -0.16   0.04  -0.00
  23   8     0.14  -0.18  -0.31     0.20  -0.16  -0.18    -0.26   0.06  -0.10
  24   6    -0.09   0.27  -0.12     0.20   0.17   0.08     0.07  -0.03   0.06
  25   6    -0.01   0.15  -0.19     0.23   0.06  -0.06     0.06  -0.03   0.04
  26   6     0.06  -0.09  -0.07     0.07  -0.09  -0.14    -0.00  -0.00  -0.02
  27   6     0.05  -0.18   0.12    -0.13  -0.10  -0.06    -0.06   0.02  -0.05
  28   6    -0.08  -0.02   0.14    -0.13   0.00   0.11    -0.02   0.00  -0.01
  29   6    -0.15   0.21   0.01     0.04   0.15   0.18     0.05  -0.02   0.05
  30   6    -0.07   0.01   0.13     0.04  -0.11  -0.16     0.07  -0.03  -0.11
  31   6    -0.04  -0.07   0.05     0.01  -0.02  -0.08    -0.02  -0.04   0.04
  32   6     0.02  -0.20  -0.04    -0.03   0.25   0.05    -0.09  -0.06   0.24
  33   6     0.01  -0.12  -0.01    -0.02   0.16   0.03    -0.11  -0.04   0.17
  34   6     0.02   0.05   0.01    -0.01  -0.05  -0.02     0.02   0.03  -0.12
  35   6     0.02   0.05   0.00    -0.00  -0.05  -0.01     0.08   0.02  -0.14
  36   6     0.01   0.04  -0.00     0.01  -0.04  -0.00     0.14   0.03  -0.01
  37   6     0.02   0.03  -0.00     0.00  -0.03   0.00     0.16   0.04   0.10
  38   6     0.02   0.03   0.00    -0.00  -0.03  -0.00     0.09   0.06   0.02
  39   6     0.02   0.03   0.01    -0.01  -0.03  -0.01     0.03   0.05  -0.09
  40   1     0.04  -0.00   0.00    -0.03   0.00   0.00     0.05   0.01  -0.00
  41   1    -0.00  -0.01  -0.01    -0.00   0.01   0.00     0.04   0.01  -0.01
  42   1     0.01   0.03   0.00    -0.01  -0.02  -0.00     0.05   0.03  -0.03
  43   1     0.02  -0.01  -0.01    -0.02  -0.00   0.00    -0.00  -0.00  -0.02
  44   1     0.01   0.01   0.01    -0.01  -0.00   0.00     0.00   0.01   0.00
  45   1     0.02   0.01  -0.02    -0.01  -0.00   0.01     0.01   0.01  -0.01
  46   1     0.02  -0.00  -0.02    -0.02   0.00   0.02     0.04  -0.02   0.01
  47   1     0.03   0.01  -0.02    -0.03  -0.01   0.02     0.06  -0.00   0.06
  48   1     0.03   0.03  -0.00    -0.03  -0.03  -0.00     0.05   0.01   0.01
  49   1     0.02   0.03   0.01    -0.02  -0.03  -0.01     0.01   0.03  -0.05
  50   1    -0.01  -0.00   0.01     0.01  -0.00  -0.01     0.01  -0.01   0.02
  51   1     0.01  -0.04  -0.01    -0.01   0.04   0.01     0.03  -0.01   0.06
  52   1    -0.01  -0.04  -0.05     0.01   0.01   0.04    -0.07   0.02   0.02
  53   1    -0.01  -0.01  -0.02     0.01  -0.02   0.03    -0.02   0.03  -0.03
  54   1     0.01   0.06  -0.09     0.11   0.03  -0.05     0.02  -0.01   0.01
  55   1     0.04  -0.06  -0.03     0.03  -0.05  -0.08    -0.01   0.00  -0.01
  56   1     0.04  -0.11   0.07    -0.08  -0.05  -0.04    -0.04   0.02  -0.03
  57   1    -0.03  -0.03   0.08    -0.08  -0.00   0.05    -0.02   0.01  -0.01
  58   1    -0.06   0.10   0.02     0.01   0.07   0.10     0.02  -0.01   0.02
  59   1    -0.02   0.01   0.06     0.01  -0.04  -0.07     0.05  -0.01  -0.04
  60   1    -0.00  -0.03   0.01    -0.01   0.01  -0.02    -0.01  -0.01   0.03
  61   1     0.01  -0.07  -0.01    -0.01   0.09   0.02    -0.03  -0.02   0.07
  62   1    -0.00  -0.04  -0.01    -0.00   0.06   0.01    -0.06  -0.01   0.04
  63   1     0.01   0.01   0.00    -0.00  -0.01  -0.00     0.02  -0.00  -0.06
  64   1     0.00   0.01  -0.00     0.00  -0.01   0.00     0.05   0.01   0.00
  65   1     0.00   0.01  -0.00     0.00  -0.01   0.00     0.06   0.01   0.07
  66   1     0.01   0.01   0.00    -0.00  -0.01  -0.00     0.03   0.03   0.02
                     19                     20                     21
                        a                      a                      a 
 Frequencies --   174.7793               192.6446               203.3924
 Red. masses --    10.8907                 1.2778                12.2553
 Frc consts  --     0.0000                 0.0000                 0.0000
 IR Inten    --     2.4461                 0.4308                 5.2376
 Raman Activ --     0.0000                 0.0000                 0.0000
 Depolar     --     0.0000                 0.0000                 0.0000
 Atom AN      X      Y      Z        X      Y      Z        X      Y      Z
   1   6    -0.02  -0.03   0.06     0.02  -0.08  -0.01    -0.04  -0.02   0.03
   2   6     0.06  -0.00   0.10     0.00  -0.00   0.00     0.02  -0.02   0.05
   3   6     0.12   0.03   0.02     0.02  -0.07  -0.01     0.04  -0.00   0.02
   4   6     0.06  -0.01   0.10     0.00   0.00   0.00     0.01  -0.04   0.04
   5   6     0.05  -0.00  -0.06    -0.01   0.01   0.00     0.01  -0.04  -0.02
   6   6     0.04   0.04  -0.18    -0.00   0.01   0.00     0.01  -0.02  -0.08
   7   6     0.08   0.04  -0.01    -0.00   0.01   0.00     0.03  -0.03  -0.01
   8   6     0.09   0.02   0.15     0.00   0.01   0.00     0.03  -0.03   0.05
   9   6     0.05  -0.01   0.12    -0.00   0.01   0.00     0.01  -0.05   0.02
  10   7    -0.02   0.01   0.02    -0.01   0.01  -0.00    -0.04  -0.04  -0.07
  11   6    -0.07   0.01  -0.13    -0.01   0.02  -0.00    -0.08   0.06  -0.08
  12   6    -0.11   0.04  -0.13    -0.01   0.02  -0.01    -0.10   0.08  -0.07
  13   6    -0.10  -0.00  -0.15    -0.01   0.00  -0.01    -0.11   0.15  -0.02
  14   6    -0.10  -0.05  -0.15    -0.01  -0.00  -0.01    -0.13   0.08  -0.00
  15   6    -0.08  -0.02   0.01    -0.01  -0.01   0.00    -0.06  -0.11   0.02
  16   8     0.00   0.01   0.06    -0.01   0.01   0.02    -0.02   0.04   0.18
  17   6    -0.15   0.01   0.14    -0.00  -0.02  -0.01    -0.05  -0.25  -0.07
  18   6    -0.16   0.03   0.11    -0.01  -0.01  -0.01    -0.12  -0.15  -0.10
  19   6    -0.07   0.01  -0.03    -0.01   0.01  -0.00    -0.09   0.06  -0.03
  20   6     0.02  -0.01  -0.08     0.00   0.01   0.00     0.06   0.08   0.02
  21  16     0.04  -0.01  -0.05     0.01   0.01   0.01     0.10   0.07   0.07
  22   8    -0.11   0.03   0.03     0.03  -0.01   0.01     0.35  -0.14   0.12
  23   8    -0.09   0.02  -0.04    -0.01   0.01  -0.00    -0.11   0.05  -0.01
  24   6     0.22  -0.07   0.12    -0.00   0.00  -0.00    -0.06   0.03  -0.02
  25   6     0.22  -0.09   0.08    -0.00   0.00  -0.00    -0.07   0.04  -0.02
  26   6     0.04  -0.03  -0.07    -0.00   0.00   0.00    -0.02   0.02   0.02
  27   6    -0.11   0.05  -0.17     0.00  -0.00   0.00     0.03  -0.01   0.07
  28   6     0.00  -0.00  -0.03    -0.00   0.00   0.00    -0.01   0.01   0.02
  29   6     0.19  -0.07   0.12    -0.00   0.00  -0.00    -0.07   0.04  -0.03
  30   6    -0.04   0.05   0.11     0.02  -0.01  -0.00     0.19  -0.08  -0.09
  31   6    -0.11   0.04   0.21     0.01  -0.02  -0.01     0.11  -0.25  -0.08
  32   6    -0.07  -0.09  -0.16    -0.01   0.01  -0.00    -0.16   0.22   0.04
  33   6    -0.06  -0.10  -0.16    -0.02   0.03   0.00    -0.17   0.26   0.02
  34   6     0.04   0.01   0.12    -0.00   0.01   0.01     0.01  -0.04   0.02
  35   6     0.08  -0.01   0.14     0.00   0.01   0.01     0.10  -0.07   0.04
  36   6     0.05   0.03  -0.03     0.01   0.02  -0.00     0.13  -0.02  -0.03
  37   6     0.01   0.06  -0.17     0.01   0.02  -0.01     0.10   0.04  -0.10
  38   6     0.02   0.04  -0.03     0.01   0.02  -0.00     0.05   0.04  -0.02
  39   6     0.04   0.01   0.11    -0.00   0.00   0.01     0.02  -0.02   0.05
  40   1    -0.00  -0.01   0.01    -0.36   0.10  -0.12     0.02  -0.02   0.01
  41   1    -0.02  -0.01   0.00     0.27   0.22   0.18    -0.04  -0.03  -0.02
  42   1    -0.02  -0.01   0.03     0.11  -0.42  -0.08    -0.03   0.03   0.03
  43   1     0.06   0.01   0.01     0.11  -0.40  -0.08     0.01   0.03   0.02
  44   1     0.03   0.01  -0.01    -0.24   0.06   0.29     0.03  -0.01  -0.02
  45   1     0.03   0.01  -0.01     0.15   0.26  -0.23    -0.00  -0.02   0.02
  46   1     0.01  -0.01  -0.04    -0.00   0.01   0.00     0.00  -0.02  -0.01
  47   1     0.00   0.02  -0.10     0.00   0.00  -0.00    -0.00  -0.00  -0.05
  48   1     0.03   0.02  -0.01    -0.00   0.00   0.00     0.01  -0.01  -0.00
  49   1     0.03   0.01   0.07     0.00   0.00   0.00     0.01  -0.00   0.03
  50   1    -0.04   0.03  -0.03    -0.00   0.00  -0.00    -0.03   0.01  -0.03
  51   1    -0.03   0.01  -0.04    -0.00   0.00  -0.00    -0.02   0.05  -0.00
  52   1    -0.06   0.01   0.04    -0.01  -0.00  -0.00    -0.07  -0.05  -0.04
  53   1    -0.02   0.01  -0.04    -0.01   0.01  -0.00    -0.06   0.06  -0.01
  54   1     0.09  -0.03   0.03    -0.00   0.00  -0.00    -0.03   0.01  -0.01
  55   1    -0.00  -0.00  -0.04    -0.00   0.00   0.00    -0.00   0.00   0.01
  56   1    -0.09   0.04  -0.10     0.00  -0.00   0.00     0.03  -0.01   0.04
  57   1    -0.02   0.01  -0.02     0.00   0.00   0.00     0.00   0.00   0.01
  58   1     0.07  -0.02   0.06    -0.00   0.00  -0.00    -0.02   0.01  -0.01
  59   1    -0.01   0.02   0.04     0.01  -0.00  -0.00     0.09  -0.02  -0.03
  60   1    -0.03   0.01   0.09     0.00  -0.01   0.00     0.04  -0.09   0.00
  61   1    -0.02  -0.02  -0.05    -0.00   0.00  -0.00    -0.04   0.07   0.01
  62   1    -0.02  -0.04  -0.05    -0.01   0.01   0.00    -0.07   0.11   0.01
  63   1     0.03  -0.01   0.07     0.00  -0.00   0.01     0.03  -0.03   0.02
  64   1     0.02   0.01  -0.02     0.00   0.00  -0.00     0.05  -0.01  -0.01
  65   1    -0.01   0.03  -0.10     0.00   0.01  -0.01     0.03   0.02  -0.05
  66   1     0.00   0.02  -0.02    -0.00   0.01   0.00     0.01   0.03  -0.01
                     22                     23                     24
                        a                      a                      a 
 Frequencies --   213.9550               216.1549               227.6104
 Red. masses --    13.4138                 8.7663                11.9658
 Frc consts  --     0.0000                 0.0000                 0.0000
 IR Inten    --     4.1490                 9.7501                 1.3552
 Raman Activ --     0.0000                 0.0000                 0.0000
 Depolar     --     0.0000                 0.0000                 0.0000
 Atom AN      X      Y      Z        X      Y      Z        X      Y      Z
   1   6     0.01  -0.04  -0.06    -0.02   0.27   0.04     0.17   0.04  -0.06
   2   6    -0.04   0.00  -0.07     0.02   0.01  -0.02     0.03   0.03  -0.11
   3   6    -0.11   0.03   0.01     0.08  -0.23  -0.07     0.01   0.05  -0.09
   4   6    -0.05  -0.01  -0.11     0.06  -0.02   0.17     0.00   0.03  -0.10
   5   6     0.05  -0.04  -0.03     0.03  -0.02   0.11    -0.05   0.03   0.04
   6   6     0.14  -0.01   0.13    -0.07   0.02  -0.22    -0.07  -0.04   0.17
   7   6     0.09   0.04   0.00    -0.04   0.01  -0.16    -0.11  -0.06  -0.01
   8   6    -0.01   0.06  -0.15     0.07  -0.04   0.21    -0.06  -0.05  -0.14
   9   6    -0.04  -0.00  -0.07     0.06  -0.03   0.20     0.02  -0.00  -0.05
  10   7    -0.02  -0.04   0.12     0.01  -0.01   0.03     0.10  -0.02   0.18
  11   6    -0.03  -0.03   0.12    -0.00  -0.00   0.03     0.09  -0.00   0.16
  12   6    -0.15  -0.02   0.10    -0.04   0.00   0.03    -0.04   0.00   0.13
  13   6    -0.18  -0.01  -0.01    -0.05   0.00  -0.00    -0.08   0.01  -0.06
  14   6    -0.10  -0.00  -0.09    -0.03  -0.01  -0.03     0.01   0.00  -0.16
  15   6    -0.11   0.04  -0.16    -0.03  -0.01  -0.04     0.04  -0.08  -0.08
  16   8    -0.37   0.13  -0.16    -0.11   0.04  -0.03     0.28   0.17   0.17
  17   6    -0.06   0.05  -0.18    -0.02  -0.01  -0.05    -0.08  -0.21   0.01
  18   6    -0.02  -0.01  -0.05    -0.02  -0.01  -0.01    -0.17  -0.10   0.02
  19   6    -0.09  -0.01   0.10    -0.04   0.00   0.03    -0.13   0.04   0.02
  20   6    -0.06   0.01   0.16    -0.02   0.01   0.04    -0.05   0.06   0.03
  21  16     0.15  -0.07   0.14     0.03  -0.01   0.03    -0.05   0.09  -0.08
  22   8     0.19  -0.08   0.08     0.05  -0.02   0.02     0.03  -0.00   0.00
  23   8     0.30  -0.09   0.11     0.06  -0.02   0.02    -0.24   0.08  -0.10
  24   6     0.09  -0.04   0.05     0.03  -0.01   0.01     0.07  -0.01   0.02
  25   6     0.12  -0.06   0.06     0.04  -0.02   0.02     0.10  -0.04   0.01
  26   6     0.03  -0.02  -0.02     0.01  -0.01  -0.01     0.04  -0.02  -0.04
  27   6    -0.05   0.03  -0.09    -0.02   0.01  -0.03    -0.03   0.02  -0.09
  28   6     0.02  -0.01  -0.01     0.01  -0.00  -0.00     0.03  -0.00  -0.02
  29   6     0.11  -0.05   0.07     0.04  -0.01   0.02     0.09  -0.02   0.04
  30   6    -0.12   0.07   0.05    -0.03   0.02   0.02    -0.01  -0.01   0.15
  31   6    -0.05   0.08  -0.10    -0.02   0.01  -0.01    -0.05  -0.16   0.11
  32   6    -0.01   0.04  -0.05    -0.00   0.01  -0.01     0.13   0.08  -0.10
  33   6     0.02   0.01   0.07     0.01   0.01   0.02     0.18   0.07   0.08
  34   6    -0.01  -0.01   0.02    -0.05   0.03  -0.22     0.03   0.01  -0.01
  35   6     0.04  -0.02  -0.06    -0.06   0.04  -0.26    -0.06   0.05  -0.08
  36   6     0.09   0.02  -0.08     0.04  -0.02   0.15    -0.11  -0.01  -0.02
  37   6     0.11   0.04   0.02     0.07  -0.04   0.28    -0.06  -0.07   0.12
  38   6     0.04   0.05   0.04    -0.02   0.01  -0.10    -0.01  -0.07   0.03
  39   6    -0.03   0.01  -0.02    -0.04   0.03  -0.21     0.02   0.01  -0.08
  40   1     0.04  -0.03  -0.01    -0.17   0.13   0.02     0.07   0.00   0.01
  41   1    -0.02  -0.04  -0.02     0.11   0.20   0.05     0.05  -0.00   0.00
  42   1    -0.00   0.02  -0.02     0.03  -0.05  -0.02     0.07   0.03  -0.05
  43   1    -0.04  -0.02  -0.01    -0.01   0.06   0.00     0.01   0.01  -0.03
  44   1    -0.06   0.02   0.04     0.15  -0.11  -0.11    -0.01   0.02  -0.02
  45   1    -0.01   0.04   0.00    -0.06  -0.19   0.03     0.01   0.02  -0.03
  46   1     0.02  -0.03  -0.01     0.02  -0.01   0.06    -0.02   0.03   0.02
  47   1     0.06  -0.01   0.09    -0.04   0.02  -0.14    -0.02  -0.02   0.10
  48   1     0.04   0.02   0.01    -0.03   0.01  -0.10    -0.04  -0.03  -0.01
  49   1    -0.02   0.04  -0.07     0.03  -0.02   0.09    -0.02  -0.03  -0.07
  50   1    -0.06  -0.01   0.05    -0.02  -0.00   0.01    -0.04  -0.00   0.07
  51   1    -0.08  -0.00  -0.01    -0.02   0.00  -0.00    -0.06   0.00  -0.03
  52   1     0.03  -0.00  -0.02    -0.00  -0.00  -0.00    -0.08  -0.03  -0.00
  53   1    -0.03   0.01   0.04    -0.01   0.01   0.01    -0.05   0.03  -0.00
  54   1     0.05  -0.02   0.02     0.02  -0.01   0.01     0.04  -0.01   0.00
  55   1     0.01  -0.00  -0.01     0.00  -0.00  -0.00     0.01  -0.01  -0.02
  56   1    -0.05   0.03  -0.05    -0.01   0.01  -0.02    -0.03   0.02  -0.05
  57   1    -0.00   0.00  -0.00    -0.00   0.00  -0.00    -0.00  -0.00  -0.00
  58   1     0.04  -0.02   0.03     0.01  -0.01   0.01     0.03  -0.01   0.02
  59   1    -0.07   0.02   0.01    -0.01   0.01   0.01     0.02   0.01   0.07
  60   1    -0.01   0.01  -0.04    -0.00  -0.00  -0.00    -0.00  -0.06   0.05
  61   1     0.01   0.02  -0.03     0.00   0.01  -0.01     0.06   0.05  -0.05
  62   1     0.03   0.01   0.03     0.01   0.01   0.01     0.09   0.04   0.04
  63   1     0.01  -0.02  -0.03    -0.03   0.02  -0.12    -0.03   0.04  -0.04
  64   1     0.03   0.00  -0.04     0.02  -0.01   0.10    -0.05   0.00  -0.01
  65   1     0.04   0.02   0.02     0.04  -0.02   0.17    -0.02  -0.03   0.07
  66   1     0.01   0.03   0.03    -0.01   0.00  -0.05     0.00  -0.04   0.01
                     25                     26                     27
                        a                      a                      a 
 Frequencies --   235.8802               268.3603               285.4563
 Red. masses --    10.4748                11.9258                14.7329
 Frc consts  --     0.0000                 0.0000                 0.0000
 IR Inten    --     2.5523                 2.0545                 6.4424
 Raman Activ --     0.0000                 0.0000                 0.0000
 Depolar     --     0.0000                 0.0000                 0.0000
 Atom AN      X      Y      Z        X      Y      Z        X      Y      Z
   1   6     0.38   0.05   0.06     0.15   0.08  -0.00    -0.04  -0.02  -0.01
   2   6     0.17   0.04   0.00     0.01   0.03  -0.06    -0.00  -0.00   0.01
   3   6     0.35   0.16  -0.19     0.05   0.07  -0.09    -0.02  -0.02   0.03
   4   6     0.09   0.01  -0.01    -0.02  -0.02  -0.03     0.01   0.01   0.00
   5   6    -0.09   0.05   0.02     0.02  -0.04  -0.01    -0.01   0.02   0.00
   6   6    -0.19  -0.04   0.02     0.07  -0.01   0.04    -0.02   0.01  -0.00
   7   6    -0.16  -0.12   0.05     0.04   0.03  -0.03    -0.02  -0.01   0.01
   8   6    -0.01  -0.13   0.00     0.00   0.03  -0.04     0.00  -0.01   0.00
   9   6     0.07  -0.02  -0.05    -0.02  -0.02   0.04     0.01   0.01  -0.01
  10   7     0.01   0.02  -0.09    -0.03  -0.04   0.18     0.02   0.01  -0.03
  11   6    -0.01   0.03  -0.07    -0.04  -0.10   0.06     0.02   0.02  -0.01
  12   6     0.00   0.03  -0.05    -0.15  -0.15   0.01     0.04   0.03   0.00
  13   6     0.01   0.00   0.02    -0.20  -0.04  -0.09     0.05   0.00   0.01
  14   6    -0.04  -0.03   0.07    -0.15   0.13  -0.10     0.03  -0.03   0.02
  15   6    -0.07  -0.01   0.01    -0.10   0.12   0.07     0.02  -0.03  -0.00
  16   8    -0.31  -0.05  -0.06     0.21  -0.06  -0.03     0.02   0.00   0.03
  17   6    -0.01   0.03  -0.06    -0.14   0.12   0.21     0.00  -0.03  -0.01
  18   6     0.00   0.01  -0.03    -0.07   0.03   0.09    -0.03   0.01  -0.03
  19   6    -0.03   0.00   0.02     0.09  -0.09  -0.22    -0.03   0.05  -0.02
  20   6    -0.02  -0.00   0.03     0.16  -0.09  -0.22    -0.02   0.05  -0.02
  21  16     0.04  -0.03   0.05     0.15  -0.07   0.04     0.03  -0.00  -0.29
  22   8     0.06  -0.03   0.02     0.15  -0.08   0.03     0.18  -0.00  -0.34
  23   8     0.12  -0.04   0.04     0.13  -0.03   0.07     0.26  -0.19  -0.40
  24   6     0.01  -0.01   0.01    -0.05   0.02   0.02    -0.06  -0.02   0.06
  25   6     0.01  -0.01   0.02    -0.14   0.09   0.00    -0.02   0.02   0.28
  26   6     0.00  -0.00   0.01    -0.08   0.06   0.07    -0.09   0.08   0.25
  27   6    -0.01   0.01  -0.00     0.01  -0.02   0.18    -0.27   0.15   0.16
  28   6     0.00  -0.00   0.00    -0.09   0.03   0.06    -0.12  -0.00   0.20
  29   6     0.01  -0.01   0.01    -0.16   0.06  -0.01    -0.05  -0.09   0.25
  30   6    -0.02   0.01  -0.03     0.12  -0.04  -0.18     0.01   0.02   0.01
  31   6    -0.01   0.03  -0.05    -0.01   0.06   0.07    -0.00  -0.02   0.01
  32   6    -0.07   0.01   0.07    -0.04   0.00  -0.12     0.02  -0.01   0.02
  33   6    -0.09   0.03   0.00     0.04  -0.17  -0.04     0.01   0.03   0.01
  34   6     0.06   0.05   0.02    -0.01   0.02   0.04     0.01  -0.00  -0.01
  35   6    -0.05   0.08   0.10    -0.03   0.03  -0.04     0.00  -0.00   0.00
  36   6    -0.18  -0.00   0.05    -0.03   0.03  -0.02     0.00  -0.00   0.00
  37   6    -0.18  -0.06  -0.04    -0.01   0.02   0.07    -0.00  -0.01  -0.01
  38   6    -0.04  -0.09  -0.00    -0.02   0.02   0.02     0.01  -0.01  -0.00
  39   6     0.09   0.03   0.03    -0.02   0.04  -0.03     0.01  -0.01   0.00
  40   1     0.14   0.01   0.05     0.04   0.02   0.03    -0.01  -0.01  -0.01
  41   1     0.11  -0.00   0.05     0.06   0.03   0.02    -0.01  -0.01  -0.01
  42   1     0.15   0.05  -0.03     0.07   0.03  -0.03    -0.02  -0.01   0.01
  43   1     0.18   0.05  -0.03     0.03   0.02  -0.02    -0.01  -0.01   0.00
  44   1     0.08   0.06  -0.10     0.01   0.02  -0.04    -0.00  -0.01   0.01
  45   1     0.10   0.06  -0.11     0.02   0.03  -0.04    -0.01  -0.01   0.01
  46   1    -0.04   0.05   0.01     0.01  -0.02  -0.01    -0.00   0.01   0.00
  47   1    -0.08  -0.01   0.01     0.03  -0.01   0.03    -0.01   0.00  -0.00
  48   1    -0.06  -0.06   0.02     0.01   0.02  -0.02    -0.01  -0.00   0.00
  49   1     0.01  -0.07  -0.00    -0.01   0.02  -0.02     0.00  -0.01   0.00
  50   1     0.01   0.01  -0.02    -0.06  -0.07   0.02     0.01   0.01  -0.00
  51   1     0.03   0.00   0.01    -0.09  -0.02  -0.04     0.02   0.00   0.01
  52   1     0.01   0.00  -0.01    -0.02   0.02   0.04    -0.02  -0.00  -0.01
  53   1    -0.01   0.00   0.01     0.04  -0.03  -0.11    -0.01   0.02  -0.00
  54   1     0.00  -0.00   0.01    -0.06   0.03  -0.00    -0.02  -0.02   0.12
  55   1    -0.00   0.00   0.00    -0.02   0.01   0.01    -0.02   0.01   0.07
  56   1    -0.01   0.01  -0.01     0.04  -0.03   0.09    -0.12   0.07   0.01
  57   1     0.00   0.00   0.00    -0.02   0.01   0.01    -0.01   0.00   0.04
  58   1     0.01  -0.00   0.01    -0.06   0.03  -0.01     0.00  -0.02   0.11
  59   1    -0.02  -0.00  -0.02     0.04  -0.03  -0.08     0.01   0.01   0.01
  60   1    -0.00   0.01  -0.02    -0.00   0.01   0.04     0.00  -0.01   0.01
  61   1    -0.03  -0.00   0.03     0.00   0.01  -0.05     0.00  -0.00   0.01
  62   1    -0.05   0.01  -0.01     0.04  -0.08  -0.01    -0.00   0.01   0.00
  63   1    -0.02   0.06   0.05    -0.01   0.01  -0.02     0.00   0.00   0.00
  64   1    -0.07   0.01   0.02    -0.01   0.01  -0.02    -0.00  -0.00   0.00
  65   1    -0.07  -0.03  -0.04     0.00   0.00   0.04    -0.00  -0.00  -0.01
  66   1    -0.00  -0.06  -0.01    -0.01   0.00   0.00     0.00  -0.00  -0.00
                     28                     29                     30
                        a                      a                      a 
 Frequencies --   295.2402               305.6911               314.3239
 Red. masses --    11.0817                11.0179                11.6560
 Frc consts  --     0.0000                 0.0000                 0.0000
 IR Inten    --     1.4246                 1.1000                 5.7795
 Raman Activ --     0.0000                 0.0000                 0.0000
 Depolar     --     0.0000                 0.0000                 0.0000
 Atom AN      X      Y      Z        X      Y      Z        X      Y      Z
   1   6     0.11  -0.26  -0.07     0.06  -0.34  -0.08     0.17  -0.12   0.05
   2   6    -0.00  -0.03  -0.04     0.00  -0.00  -0.00    -0.03  -0.00   0.02
   3   6     0.05  -0.25  -0.08     0.06  -0.32  -0.04     0.15  -0.12  -0.15
   4   6     0.03   0.04  -0.02     0.04   0.10   0.00    -0.05  -0.03   0.02
   5   6    -0.06   0.05   0.05    -0.06   0.12   0.05    -0.02  -0.03  -0.01
   6   6    -0.13  -0.01   0.06    -0.14   0.07   0.04     0.02   0.01  -0.02
   7   6    -0.13  -0.03  -0.01    -0.12   0.03   0.03     0.02   0.05   0.02
   8   6    -0.03  -0.05  -0.00    -0.03   0.01   0.02    -0.04   0.06   0.02
   9   6     0.04   0.02   0.02     0.03   0.07   0.01    -0.09   0.00   0.01
  10   7    -0.01   0.03   0.08     0.00   0.08  -0.00    -0.15  -0.00   0.01
  11   6    -0.06   0.16   0.06     0.02   0.03   0.00    -0.10  -0.10   0.02
  12   6    -0.10   0.22   0.07     0.05  -0.04  -0.02    -0.02  -0.23  -0.02
  13   6    -0.04  -0.05  -0.07     0.05  -0.03   0.01    -0.07   0.02   0.08
  14   6     0.02  -0.22  -0.15     0.01   0.06   0.05    -0.05   0.19   0.10
  15   6     0.03  -0.13  -0.04    -0.02   0.10   0.02    -0.01   0.09   0.07
  16   8    -0.08   0.03   0.08    -0.02  -0.02  -0.08     0.37  -0.02   0.03
  17   6     0.04   0.03   0.05    -0.05   0.05   0.03     0.05  -0.03  -0.07
  18   6     0.01   0.09   0.07     0.00  -0.03   0.05     0.07  -0.05  -0.19
  19   6     0.09   0.08  -0.05    -0.02  -0.17   0.00    -0.03   0.12   0.06
  20   6     0.15   0.04  -0.11    -0.09  -0.15   0.01    -0.09   0.17   0.18
  21  16     0.02  -0.06   0.01     0.01  -0.00  -0.02    -0.08   0.09   0.02
  22   8    -0.29   0.10   0.04     0.33  -0.14  -0.09    -0.14   0.08   0.07
  23   8     0.16  -0.07   0.02    -0.24   0.10   0.04     0.14  -0.05  -0.08
  24   6    -0.05  -0.10   0.00     0.08   0.14   0.01    -0.07  -0.07  -0.03
  25   6    -0.12  -0.03  -0.00     0.11   0.10  -0.03     0.00  -0.11   0.04
  26   6    -0.06   0.01   0.04     0.05   0.01  -0.06     0.02  -0.04   0.03
  27   6     0.05  -0.01   0.05    -0.03  -0.01   0.01    -0.02   0.04  -0.11
  28   6    -0.00  -0.02  -0.05    -0.04   0.04   0.09     0.07  -0.04  -0.06
  29   6    -0.06  -0.06  -0.08     0.01   0.14   0.08     0.07  -0.12  -0.02
  30   6     0.13   0.08   0.02    -0.14  -0.10  -0.04     0.01   0.06   0.01
  31   6     0.08   0.07   0.11    -0.10   0.01  -0.05     0.07  -0.05  -0.14
  32   6     0.00  -0.01  -0.08     0.02  -0.04   0.02    -0.08  -0.05   0.02
  33   6    -0.04   0.21   0.04     0.03  -0.08  -0.02    -0.08  -0.12  -0.01
  34   6    -0.05  -0.00   0.02    -0.03   0.05   0.00    -0.10   0.03   0.03
  35   6     0.05  -0.03  -0.03     0.02   0.04  -0.01    -0.01   0.00  -0.00
  36   6     0.13   0.05  -0.05     0.07   0.09   0.00     0.06   0.07   0.00
  37   6     0.13   0.09   0.00     0.07   0.11  -0.00     0.05   0.14   0.00
  38   6     0.02   0.10   0.02     0.00   0.11  -0.00    -0.05   0.14   0.02
  39   6    -0.07   0.02  -0.00    -0.05   0.05   0.01    -0.11   0.06   0.04
  40   1     0.09  -0.09  -0.05     0.08  -0.12  -0.08     0.09  -0.05   0.02
  41   1     0.00  -0.13   0.01    -0.03  -0.17   0.01     0.04  -0.06   0.06
  42   1     0.04  -0.05  -0.03     0.01  -0.09  -0.01     0.08  -0.02  -0.02
  43   1     0.01  -0.06  -0.02     0.01  -0.09  -0.01     0.09  -0.02  -0.02
  44   1     0.07  -0.09  -0.02     0.09  -0.12   0.00     0.08  -0.05  -0.07
  45   1    -0.02  -0.12  -0.03    -0.03  -0.15  -0.03     0.00  -0.06  -0.09
  46   1    -0.02   0.03   0.02    -0.02   0.05   0.02    -0.00  -0.03  -0.01
  47   1    -0.05  -0.00   0.03    -0.05   0.02   0.01     0.02   0.00  -0.01
  48   1    -0.05  -0.02  -0.01    -0.05  -0.00   0.01     0.01   0.02   0.01
  49   1    -0.00  -0.03  -0.01     0.00  -0.02   0.00    -0.01   0.03   0.01
  50   1    -0.05   0.11   0.04     0.02  -0.02  -0.01     0.01  -0.12  -0.03
  51   1    -0.02  -0.02  -0.02     0.02  -0.02  -0.00    -0.03   0.00   0.02
  52   1    -0.01   0.03   0.04     0.02  -0.00   0.02     0.03  -0.04  -0.10
  53   1     0.02   0.03  -0.03     0.01  -0.07  -0.00    -0.01   0.04   0.02
  54   1    -0.06  -0.01   0.00     0.05   0.03  -0.02     0.00  -0.04   0.03
  55   1    -0.02   0.01   0.02     0.02  -0.01  -0.04     0.01  -0.00   0.03
  56   1     0.04  -0.00   0.03    -0.02  -0.02   0.00    -0.02   0.04  -0.05
  57   1     0.01   0.00  -0.03    -0.02   0.01   0.04     0.03  -0.01  -0.02
  58   1    -0.02  -0.03  -0.04    -0.01   0.06   0.04     0.04  -0.06  -0.01
  59   1     0.05   0.03   0.02    -0.07  -0.04  -0.02     0.02   0.02  -0.00
  60   1     0.02   0.02   0.06    -0.04   0.01  -0.04     0.03  -0.02  -0.06
  61   1     0.01   0.01  -0.03     0.00  -0.02   0.01    -0.02  -0.05   0.00
  62   1    -0.01   0.10   0.03     0.01  -0.05  -0.01    -0.01  -0.06  -0.01
  63   1     0.02  -0.03  -0.01     0.01  -0.01  -0.01     0.00  -0.02  -0.01
  64   1     0.05   0.01  -0.03     0.03   0.02   0.00     0.04   0.02  -0.00
  65   1     0.05   0.04   0.01     0.02   0.04  -0.00     0.03   0.05  -0.00
  66   1     0.00   0.05   0.01    -0.00   0.04  -0.00    -0.02   0.06   0.01
                     31                     32                     33
                        a                      a                      a 
 Frequencies --   325.6616               327.9897               339.5009
 Red. masses --     9.1345                11.0505                 9.8233
 Frc consts  --     0.0000                 0.0000                 0.0000
 IR Inten    --     0.4413                 0.5599                 0.8879
 Raman Activ --     0.0000                 0.0000                 0.0000
 Depolar     --     0.0000                 0.0000                 0.0000
 Atom AN      X      Y      Z        X      Y      Z        X      Y      Z
   1   6    -0.05   0.38   0.10    -0.17  -0.01  -0.08    -0.14  -0.09   0.22
   2   6    -0.02  -0.01  -0.00     0.06   0.03   0.01     0.07  -0.04   0.29
   3   6     0.12  -0.34  -0.12    -0.02  -0.25   0.12     0.26   0.04   0.10
   4   6    -0.05  -0.02  -0.09     0.08   0.13  -0.03     0.00  -0.02   0.06
   5   6    -0.08  -0.00  -0.28    -0.05   0.17  -0.08    -0.09   0.02  -0.31
   6   6     0.01  -0.02  -0.02    -0.10   0.09   0.04     0.00  -0.01   0.00
   7   6     0.06  -0.03   0.17    -0.06   0.01   0.10     0.07  -0.03   0.24
   8   6    -0.05   0.01  -0.14     0.01   0.01  -0.07    -0.08   0.03  -0.23
   9   6    -0.07   0.00  -0.16     0.08   0.09  -0.08    -0.06   0.01  -0.14
  10   7    -0.04  -0.02   0.01     0.15   0.07  -0.03    -0.03  -0.00  -0.05
  11   6    -0.04   0.03   0.02     0.16  -0.06  -0.05     0.01  -0.01   0.09
  12   6    -0.03   0.05   0.03     0.10  -0.12  -0.09    -0.02   0.01   0.10
  13   6    -0.00  -0.02   0.00     0.03   0.06  -0.03    -0.03  -0.03   0.00
  14   6     0.02  -0.06  -0.03    -0.07   0.17   0.08     0.01  -0.04  -0.05
  15   6     0.03  -0.02  -0.01    -0.09   0.05   0.03     0.01  -0.02  -0.05
  16   8     0.02   0.01   0.01    -0.11  -0.03  -0.04     0.03   0.04  -0.01
  17   6     0.05   0.03  -0.01    -0.16  -0.09   0.03    -0.01   0.00  -0.00
  18   6     0.06   0.02   0.03    -0.20  -0.05  -0.07    -0.03   0.02   0.04
  19   6     0.04  -0.03   0.03    -0.13   0.08  -0.10     0.00  -0.01  -0.02
  20   6    -0.01  -0.04   0.01     0.03   0.09  -0.06     0.02  -0.02  -0.04
  21  16    -0.01  -0.02  -0.03     0.05   0.06   0.08     0.02  -0.02   0.00
  22   8     0.03  -0.01  -0.07    -0.07   0.02   0.21     0.00  -0.01  -0.00
  23   8    -0.08   0.01  -0.00     0.23  -0.03   0.02     0.00  -0.00   0.02
  24   6     0.02   0.04   0.00    -0.06  -0.11  -0.01     0.01  -0.00   0.01
  25   6     0.03   0.03  -0.01    -0.08  -0.08   0.02    -0.01   0.01  -0.01
  26   6     0.01   0.01  -0.01    -0.03  -0.01   0.03    -0.01   0.01  -0.00
  27   6    -0.01  -0.00   0.01     0.03   0.01  -0.02     0.01  -0.01   0.02
  28   6    -0.01   0.01   0.02     0.03  -0.03  -0.07    -0.01   0.00   0.00
  29   6    -0.00   0.04   0.02    -0.00  -0.10  -0.06    -0.01   0.01  -0.00
  30   6    -0.03  -0.01   0.02     0.08   0.02  -0.06    -0.01   0.01   0.01
  31   6     0.01   0.02  -0.02    -0.04  -0.07   0.07    -0.01   0.01   0.01
  32   6    -0.01  -0.02  -0.02     0.06   0.06   0.06     0.03   0.01  -0.02
  33   6    -0.03   0.06   0.01     0.12  -0.15  -0.03     0.04   0.02   0.07
  34   6     0.01  -0.04   0.17     0.13   0.06   0.02    -0.05   0.02  -0.14
  35   6     0.04  -0.05   0.15     0.02   0.09   0.04    -0.06   0.03  -0.23
  36   6    -0.02   0.02  -0.20    -0.09   0.03  -0.01     0.07  -0.03   0.23
  37   6     0.03   0.01   0.01    -0.06  -0.05   0.01     0.01   0.01   0.00
  38   6     0.06  -0.02   0.30     0.06  -0.08   0.04    -0.08   0.05  -0.31
  39   6    -0.01  -0.01   0.10     0.12  -0.00   0.01     0.01  -0.01   0.06
  40   1    -0.12   0.15   0.10    -0.08   0.01  -0.07    -0.05  -0.02   0.03
  41   1     0.06   0.22   0.01    -0.05   0.01  -0.06    -0.05  -0.02   0.03
  42   1     0.01   0.07   0.00    -0.09  -0.04   0.03    -0.08  -0.04   0.11
  43   1     0.04  -0.04  -0.02    -0.07  -0.07   0.01     0.15   0.03   0.06
  44   1     0.15  -0.14  -0.07     0.06  -0.10   0.07     0.06   0.02  -0.02
  45   1    -0.05  -0.19  -0.05    -0.04  -0.13   0.06     0.06   0.01  -0.02
  46   1    -0.02  -0.00  -0.09    -0.02   0.07  -0.03    -0.04   0.01  -0.14
  47   1     0.02  -0.01   0.02    -0.04   0.03   0.03     0.01  -0.00   0.02
  48   1     0.04  -0.02   0.13    -0.02  -0.02   0.06     0.05  -0.02   0.16
  49   1    -0.02   0.01  -0.05     0.01  -0.02  -0.03    -0.04   0.02  -0.12
  50   1    -0.01   0.03   0.01     0.02  -0.07  -0.03    -0.02   0.01   0.04
  51   1    -0.01  -0.01   0.00     0.03   0.01  -0.00    -0.03  -0.01  -0.01
  52   1     0.02   0.01   0.01    -0.09  -0.02  -0.03    -0.01   0.01   0.02
  53   1     0.02  -0.02   0.01    -0.06   0.06  -0.05     0.00  -0.00  -0.01
  54   1     0.01   0.01  -0.00    -0.04  -0.03   0.01    -0.00   0.01  -0.00
  55   1     0.00  -0.00  -0.01    -0.01   0.01   0.03    -0.00   0.00  -0.00
  56   1    -0.00  -0.01   0.00     0.02   0.02  -0.00     0.01  -0.01   0.01
  57   1    -0.01   0.00   0.01     0.02  -0.00  -0.03    -0.00   0.00  -0.00
  58   1    -0.00   0.02   0.01     0.01  -0.05  -0.03    -0.01   0.01  -0.00
  59   1    -0.02  -0.00   0.01     0.05   0.01  -0.02    -0.01   0.01   0.01
  60   1    -0.00   0.01  -0.01     0.00  -0.04   0.05    -0.00   0.00   0.01
  61   1    -0.01  -0.01  -0.00     0.03   0.03   0.01     0.02   0.02  -0.01
  62   1    -0.01   0.03   0.01     0.03  -0.08  -0.02     0.03   0.01   0.03
  63   1     0.02  -0.02   0.05    -0.00   0.05   0.01    -0.03   0.01  -0.12
  64   1    -0.02   0.01  -0.15    -0.05   0.02  -0.02     0.05  -0.02   0.16
  65   1     0.01   0.01  -0.03    -0.04  -0.03  -0.00     0.01   0.00   0.02
  66   1     0.02   0.00   0.10     0.02  -0.05   0.00    -0.04   0.02  -0.14
                     34                     35                     36
                        a                      a                      a 
 Frequencies --   362.6675               367.4987               374.1378
 Red. masses --     8.8693                10.1290                11.1362
 Frc consts  --     0.0000                 0.0000                 0.0000
 IR Inten    --     0.4586                 0.8520                11.8059
 Raman Activ --     0.0000                 0.0000                 0.0000
 Depolar     --     0.0000                 0.0000                 0.0000
 Atom AN      X      Y      Z        X      Y      Z        X      Y      Z
   1   6    -0.01   0.01  -0.00     0.03  -0.03   0.02    -0.08   0.04  -0.08
   2   6     0.00  -0.00  -0.00    -0.03   0.00   0.00     0.10   0.01  -0.01
   3   6    -0.00   0.00   0.01     0.01  -0.02  -0.04    -0.01   0.02   0.12
   4   6     0.01   0.00  -0.00    -0.04  -0.01   0.02     0.10  -0.04  -0.03
   5   6     0.00   0.00   0.01    -0.02  -0.02  -0.05     0.06  -0.04  -0.02
   6   6    -0.01  -0.00  -0.00     0.03   0.01   0.03    -0.01  -0.13  -0.02
   7   6    -0.00  -0.01  -0.00     0.02   0.05   0.01     0.00  -0.18  -0.02
   8   6     0.01  -0.01   0.00    -0.04   0.05  -0.02     0.06  -0.16  -0.04
   9   6     0.01   0.00  -0.01    -0.04   0.00   0.08     0.11  -0.06  -0.05
  10   7    -0.00   0.00  -0.02     0.00  -0.02   0.09    -0.01   0.00  -0.01
  11   6    -0.00   0.02   0.01     0.01  -0.10  -0.06    -0.05   0.14   0.07
  12   6     0.01  -0.01  -0.00    -0.03   0.07  -0.00    -0.11   0.29   0.12
  13   6    -0.00   0.01   0.01     0.01  -0.07  -0.06     0.02  -0.30  -0.10
  14   6     0.00  -0.01   0.00    -0.00   0.09  -0.01    -0.03  -0.12  -0.03
  15   6    -0.01   0.00   0.00     0.07  -0.03  -0.03    -0.04   0.05   0.11
  16   8     0.03  -0.01   0.01    -0.19   0.03  -0.03     0.21  -0.07   0.08
  17   6    -0.01   0.01   0.01     0.08  -0.07  -0.05    -0.05   0.15   0.13
  18   6    -0.04   0.03   0.04     0.18  -0.16  -0.18     0.08  -0.01  -0.17
  19   6     0.01  -0.02  -0.06    -0.05   0.12   0.34    -0.03  -0.01   0.00
  20   6    -0.02   0.01  -0.00     0.09  -0.04   0.02    -0.14   0.03   0.09
  21  16    -0.00   0.03   0.00     0.04  -0.05  -0.05    -0.09   0.14   0.05
  22   8     0.00  -0.00   0.04    -0.08   0.06  -0.11     0.11  -0.04   0.12
  23   8     0.04   0.00  -0.01    -0.13  -0.01  -0.06     0.09   0.03  -0.01
  24   6    -0.02  -0.01  -0.01     0.05  -0.01   0.03    -0.10   0.03  -0.06
  25   6     0.28  -0.19   0.26     0.04   0.00   0.04     0.02  -0.06   0.02
  26   6    -0.28   0.17  -0.24    -0.07   0.05  -0.05     0.04  -0.04   0.02
  27   6    -0.01   0.01  -0.01     0.01  -0.02   0.05    -0.04   0.03  -0.10
  28   6     0.29  -0.18   0.25     0.02  -0.02   0.05     0.07  -0.02  -0.00
  29   6    -0.27   0.15  -0.25    -0.08   0.06  -0.05     0.05  -0.04   0.00
  30   6    -0.03   0.02   0.03     0.18  -0.13  -0.14    -0.04  -0.08  -0.23
  31   6     0.01  -0.02  -0.07    -0.02   0.08   0.32    -0.09   0.08  -0.03
  32   6     0.01  -0.04  -0.00    -0.04   0.26   0.03    -0.07   0.07   0.04
  33   6    -0.01   0.04   0.02     0.07  -0.24  -0.14    -0.03  -0.08   0.01
  34   6     0.00  -0.00  -0.00    -0.00   0.01   0.03     0.00   0.04  -0.02
  35   6     0.00  -0.00   0.00    -0.02   0.02  -0.02    -0.03   0.07   0.02
  36   6     0.00  -0.01  -0.00    -0.01   0.03   0.00    -0.03   0.07   0.02
  37   6     0.00  -0.01  -0.01     0.00   0.03   0.03    -0.03   0.07   0.01
  38   6     0.00  -0.01   0.00    -0.01   0.03  -0.02     0.01   0.06   0.01
  39   6     0.00  -0.00  -0.00    -0.02   0.01   0.00     0.02   0.05  -0.00
  40   1    -0.00   0.00  -0.00     0.02  -0.01   0.00    -0.05   0.02  -0.04
  41   1    -0.00   0.00  -0.00     0.01  -0.02   0.02    -0.03   0.02  -0.06
  42   1    -0.00   0.00   0.00     0.02  -0.01  -0.01    -0.06  -0.01   0.02
  43   1    -0.00   0.00   0.00     0.02  -0.00  -0.01    -0.05  -0.00   0.02
  44   1    -0.00   0.00   0.00     0.01  -0.01  -0.02    -0.01   0.01   0.06
  45   1     0.00   0.00   0.00    -0.01  -0.01  -0.03     0.01   0.01   0.07
  46   1     0.00   0.00   0.01    -0.01  -0.01  -0.04     0.01   0.01  -0.00
  47   1    -0.00   0.00  -0.00     0.02  -0.00   0.01    -0.03  -0.03   0.00
  48   1    -0.00  -0.00   0.00     0.01   0.02  -0.00    -0.00  -0.06  -0.00
  49   1     0.00  -0.00   0.00    -0.02   0.03  -0.03     0.03  -0.07  -0.02
  50   1     0.00  -0.01  -0.00    -0.01   0.06   0.01    -0.05   0.15   0.07
  51   1    -0.00   0.01   0.01     0.01  -0.06  -0.03     0.02  -0.16  -0.06
  52   1    -0.02   0.02   0.02     0.08  -0.08  -0.11     0.06  -0.04  -0.12
  53   1     0.01  -0.02  -0.04    -0.06   0.08   0.20     0.01  -0.02  -0.00
  54   1     0.18  -0.12   0.17     0.02  -0.01   0.02     0.03  -0.03   0.02
  55   1    -0.18   0.11  -0.16    -0.04   0.03  -0.04     0.02  -0.02   0.03
  56   1    -0.01   0.01  -0.01     0.01  -0.01   0.02    -0.03   0.03  -0.05
  57   1     0.18  -0.11   0.16     0.02  -0.01   0.02     0.03  -0.02   0.01
  58   1    -0.18   0.10  -0.17    -0.05   0.04  -0.03     0.04  -0.03   0.01
  59   1    -0.02   0.01   0.02     0.08  -0.06  -0.09     0.00  -0.06  -0.14
  60   1     0.01  -0.01  -0.04    -0.05   0.06   0.19    -0.04   0.04  -0.03
  61   1     0.01  -0.02  -0.00    -0.03   0.15   0.03    -0.03   0.06   0.02
  62   1    -0.01   0.02   0.01     0.04  -0.13  -0.06    -0.00  -0.06  -0.01
  63   1     0.00  -0.00   0.00    -0.00   0.00  -0.01    -0.01   0.03   0.02
  64   1    -0.00  -0.00  -0.00    -0.00   0.01   0.00    -0.01   0.02   0.01
  65   1    -0.00  -0.00  -0.00     0.00   0.01   0.02    -0.01   0.01   0.00
  66   1     0.00  -0.00   0.00    -0.01   0.01  -0.01     0.00   0.01   0.01
                     37                     38                     39
                        a                      a                      a 
 Frequencies --   378.4523               383.9150               390.5291
 Red. masses --    11.0021                11.3284                11.8430
 Frc consts  --     0.0000                 0.0000                 0.0000
 IR Inten    --    29.5553                24.9277                 8.7906
 Raman Activ --     0.0000                 0.0000                 0.0000
 Depolar     --     0.0000                 0.0000                 0.0000
 Atom AN      X      Y      Z        X      Y      Z        X      Y      Z
   1   6    -0.08  -0.00  -0.15    -0.01  -0.02   0.00     0.02  -0.01   0.00
   2   6     0.15   0.05  -0.04     0.01   0.01   0.02    -0.02  -0.00  -0.01
   3   6    -0.00  -0.05   0.16     0.03  -0.01   0.01    -0.01  -0.01  -0.02
   4   6     0.09  -0.10  -0.04    -0.02  -0.08  -0.02    -0.03  -0.05   0.02
   5   6     0.07  -0.12  -0.09     0.09  -0.14   0.12    -0.01  -0.06  -0.07
   6   6     0.03  -0.22   0.01     0.02  -0.11  -0.16     0.04  -0.06   0.03
   7   6     0.02  -0.23  -0.04     0.05  -0.10  -0.01     0.01  -0.01  -0.01
   8   6     0.02  -0.20  -0.08     0.01  -0.09   0.12    -0.05   0.00  -0.03
   9   6     0.10  -0.10   0.01    -0.08  -0.03  -0.19    -0.02  -0.02   0.10
  10   7     0.01  -0.02   0.14    -0.14   0.02  -0.34     0.01  -0.02   0.11
  11   6    -0.04  -0.06  -0.05     0.03  -0.08   0.13    -0.00  -0.04  -0.08
  12   6    -0.04  -0.18  -0.10     0.06   0.02   0.19    -0.03   0.14  -0.02
  13   6    -0.11   0.17   0.04     0.05  -0.10   0.04     0.05  -0.13  -0.07
  14   6    -0.06   0.05  -0.00     0.06   0.03   0.01    -0.00   0.10   0.03
  15   6    -0.01  -0.03   0.03     0.04  -0.02  -0.17     0.04  -0.01   0.02
  16   8    -0.05  -0.03   0.02     0.06   0.14  -0.07    -0.19  -0.02  -0.03
  17   6     0.09  -0.02  -0.04    -0.03  -0.11  -0.14     0.09  -0.05  -0.02
  18   6     0.09  -0.00   0.02    -0.15   0.03   0.06    -0.00   0.05   0.27
  19   6     0.07   0.02   0.07    -0.07   0.06  -0.04     0.15  -0.19  -0.11
  20   6     0.05   0.02   0.06     0.07  -0.01  -0.15     0.02  -0.08   0.05
  21  16    -0.01  -0.12  -0.03     0.07  -0.10  -0.01     0.08   0.22  -0.02
  22   8    -0.08   0.04  -0.16    -0.02  -0.03  -0.01    -0.00   0.11   0.13
  23   8    -0.10  -0.04   0.01     0.04  -0.01   0.08    -0.07   0.06  -0.22
  24   6     0.05   0.02   0.02     0.08  -0.03   0.05    -0.07  -0.07  -0.03
  25   6     0.02   0.04  -0.01    -0.02   0.04  -0.01    -0.07  -0.07   0.02
  26   6    -0.00   0.02  -0.02    -0.03   0.03  -0.02    -0.01  -0.01   0.05
  27   6     0.01  -0.02   0.03     0.03  -0.03   0.07    -0.01   0.03  -0.02
  28   6    -0.03   0.01   0.02    -0.05   0.02  -0.01     0.03  -0.02  -0.04
  29   6    -0.01   0.05   0.01    -0.03   0.03  -0.01    -0.00  -0.10  -0.02
  30   6     0.05   0.04   0.10    -0.02   0.08   0.07    -0.06  -0.02   0.23
  31   6     0.11  -0.01  -0.02    -0.04  -0.03   0.02     0.15  -0.16  -0.21
  32   6    -0.05  -0.09  -0.06     0.04   0.14   0.06    -0.05   0.31   0.08
  33   6    -0.08   0.09  -0.02     0.10  -0.15   0.08     0.05  -0.20  -0.15
  34   6     0.08   0.15   0.10    -0.09   0.08  -0.18     0.01   0.02   0.05
  35   6    -0.08   0.24   0.00    -0.04   0.06   0.15    -0.03   0.04  -0.02
  36   6    -0.11   0.24   0.06    -0.04   0.13   0.04    -0.01   0.06   0.00
  37   6    -0.09   0.19   0.10    -0.08   0.18  -0.10    -0.00   0.05   0.05
  38   6     0.01   0.15  -0.05     0.01   0.13   0.18    -0.01   0.05  -0.03
  39   6     0.06   0.14   0.02    -0.06   0.09   0.00    -0.01   0.02   0.00
  40   1    -0.04   0.00  -0.09    -0.00  -0.01  -0.01     0.01  -0.01   0.00
  41   1    -0.04   0.00  -0.09    -0.01  -0.01   0.00     0.01  -0.01   0.01
  42   1    -0.07  -0.03   0.02    -0.01  -0.01   0.01     0.01  -0.00  -0.01
  43   1    -0.08  -0.03   0.02     0.01  -0.00   0.00     0.00  -0.00  -0.00
  44   1     0.01  -0.02   0.10     0.02  -0.01   0.00     0.00  -0.00  -0.01
  45   1     0.00  -0.03   0.09     0.00  -0.01  -0.00    -0.01  -0.01  -0.01
  46   1     0.01  -0.02  -0.04     0.04  -0.06   0.09    -0.01  -0.02  -0.05
  47   1    -0.00  -0.06   0.03    -0.00  -0.03  -0.08     0.02  -0.02   0.02
  48   1     0.01  -0.06  -0.02     0.03  -0.02   0.01     0.01   0.01  -0.02
  49   1     0.01  -0.07  -0.04     0.02  -0.03   0.09    -0.03   0.01  -0.04
  50   1    -0.00  -0.10  -0.05     0.00   0.02   0.07    -0.01   0.08  -0.00
  51   1    -0.04   0.09   0.03    -0.01  -0.06  -0.01     0.03  -0.10  -0.04
  52   1     0.03   0.00   0.02    -0.08   0.03   0.07    -0.02   0.06   0.16
[...]
  34   6     0.00   0.00  -0.00    -0.00   0.00   0.00     0.00  -0.00  -0.00
  35   6     0.05   0.01  -0.01     0.00   0.00  -0.00    -0.00  -0.00   0.00
  36   6    -0.06  -0.19  -0.01    -0.00  -0.00  -0.00    -0.00  -0.00  -0.00
  37   6    -0.05   0.05   0.02     0.00  -0.00  -0.00     0.00  -0.00  -0.00
  38   6    -0.15  -0.04   0.03    -0.00  -0.00   0.00     0.00   0.00  -0.00
  39   6    -0.00  -0.00   0.00     0.00  -0.00  -0.00    -0.00   0.00   0.00
  40   1     0.00   0.00   0.00     0.00   0.00   0.00    -0.00   0.00  -0.00
  41   1     0.03  -0.02  -0.01     0.00  -0.00  -0.00     0.00  -0.00  -0.00
  42   1    -0.00   0.00  -0.00    -0.00  -0.00  -0.00     0.00   0.00   0.00
  43   1    -0.00   0.00   0.00    -0.00  -0.00   0.00    -0.00  -0.00   0.00
  44   1     0.00   0.01   0.00     0.00   0.00   0.00    -0.00  -0.00  -0.00
  45   1     0.03  -0.03  -0.01     0.00  -0.00  -0.00     0.00   0.00  -0.00
  46   1     0.05   0.02  -0.01     0.00   0.00  -0.00    -0.01  -0.00   0.00
  47   1     0.00   0.01   0.00    -0.00  -0.00  -0.00    -0.00  -0.01  -0.00
  48   1     0.06  -0.05  -0.02     0.00  -0.00  -0.00     0.01  -0.01  -0.00
  49   1    -0.02  -0.01   0.01     0.00   0.00  -0.00    -0.00  -0.00   0.00
  50   1     0.01  -0.00   0.01    -0.00   0.00  -0.00     0.02  -0.00   0.02
  51   1    -0.00  -0.00   0.00     0.00   0.00  -0.00    -0.04  -0.07   0.15
  52   1    -0.00   0.01  -0.00     0.01  -0.44   0.23    -0.00   0.01  -0.00
  53   1    -0.01  -0.01  -0.00     0.64   0.48   0.06    -0.00  -0.00  -0.00
  54   1     0.00   0.00   0.00    -0.00  -0.02  -0.01    -0.00  -0.01  -0.00
  55   1    -0.00  -0.00   0.00    -0.08  -0.08   0.04     0.00   0.00  -0.00
  56   1    -0.00   0.00   0.00    -0.06   0.03   0.09     0.01  -0.00  -0.01
  57   1     0.00   0.00   0.00     0.01   0.06   0.03    -0.00  -0.02  -0.01
  58   1    -0.00  -0.00   0.00    -0.04  -0.03   0.02    -0.02  -0.02   0.01
  59   1    -0.00   0.00  -0.00    -0.00   0.02  -0.01    -0.01   0.23  -0.11
  60   1    -0.00  -0.00  -0.00     0.02   0.02   0.00     0.02   0.01   0.00
  61   1    -0.00   0.00  -0.00     0.00  -0.00   0.00     0.60  -0.03   0.64
  62   1     0.00   0.00  -0.01    -0.00  -0.00   0.00    -0.06  -0.09   0.22
  63   1    -0.21  -0.06   0.05    -0.00  -0.00   0.00     0.00  -0.00  -0.00
  64   1     0.21   0.68   0.04     0.00   0.01   0.00     0.00   0.01   0.00
  65   1     0.16  -0.17  -0.06    -0.00   0.00   0.00    -0.00   0.00   0.00
  66   1     0.51   0.13  -0.12     0.01   0.00  -0.00    -0.00  -0.00   0.00
                    184                    185                    186
                        a                      a                      a 
 Frequencies --  3099.7900              3101.2925              3103.5930
 Red. masses --     1.8684                 1.8571                 1.8786
 Frc consts  --     0.0000                 0.0000                 0.0000
 IR Inten    --     6.0170                22.8310                87.0549
 Raman Activ --     0.0000                 0.0000                 0.0000
 Depolar     --     0.0000                 0.0000                 0.0000
 Atom AN      X      Y      Z        X      Y      Z        X      Y      Z
   1   6     0.00  -0.00   0.00     0.00  -0.00  -0.00    -0.00   0.01   0.00
   2   6     0.00   0.00  -0.00    -0.00  -0.00  -0.00     0.00   0.00   0.00
   3   6     0.00   0.00   0.00     0.00  -0.00  -0.00    -0.00   0.01   0.00
   4   6    -0.00   0.00   0.00     0.00   0.00   0.00     0.00  -0.00  -0.00
   5   6     0.00   0.00  -0.00    -0.00  -0.00   0.00     0.10   0.04  -0.02
   6   6     0.00   0.00   0.00    -0.00  -0.00  -0.00     0.04   0.18   0.01
   7   6     0.00  -0.00  -0.00     0.00  -0.00  -0.00    -0.07   0.06   0.03
   8   6    -0.00  -0.00   0.00     0.00   0.00  -0.00     0.08   0.03  -0.02
   9   6    -0.00  -0.00   0.00    -0.00  -0.00  -0.00     0.00   0.00  -0.00
  10   7     0.00   0.00  -0.00     0.00   0.00  -0.00     0.00  -0.00  -0.00
  11   6    -0.00   0.00  -0.00    -0.00  -0.00   0.00    -0.00   0.00   0.00
  12   6     0.00  -0.00   0.00    -0.05   0.01  -0.05    -0.00   0.00  -0.00
  13   6    -0.00  -0.01   0.01     0.07   0.10  -0.23     0.00   0.00  -0.00
  14   6     0.00   0.00   0.00     0.01   0.00  -0.00     0.00   0.00  -0.00
  15   6    -0.00  -0.00   0.00    -0.00  -0.00   0.00     0.00  -0.00   0.00
  16   8     0.00   0.00  -0.00     0.00  -0.00  -0.00     0.00   0.00  -0.00
  17   6    -0.00   0.00  -0.00    -0.00   0.00  -0.00    -0.00   0.00  -0.00
  18   6     0.00  -0.00   0.00     0.00  -0.00   0.00    -0.00   0.00  -0.00
  19   6     0.00   0.00  -0.00    -0.00  -0.00  -0.00     0.00   0.00   0.00
  20   6     0.01  -0.00   0.00    -0.00   0.00  -0.00     0.00  -0.00   0.00
  21  16    -0.00  -0.00   0.00     0.00  -0.00  -0.00    -0.00   0.00  -0.00
  22   8    -0.00   0.00   0.00    -0.00   0.00   0.00     0.00   0.00   0.00
  23   8     0.00   0.00  -0.00     0.00  -0.00   0.00     0.00  -0.00   0.00
  24   6     0.00  -0.00  -0.00     0.00  -0.00  -0.00    -0.00   0.00   0.00
  25   6     0.00   0.01   0.00    -0.00  -0.00  -0.00     0.00   0.00   0.00
  26   6    -0.00  -0.00   0.00     0.00   0.00  -0.00     0.00   0.00  -0.00
  27   6    -0.01   0.00   0.01     0.00  -0.00  -0.00     0.00  -0.00  -0.00
  28   6     0.00   0.02   0.01     0.00   0.00   0.00    -0.00  -0.00  -0.00
  29   6     0.03   0.03  -0.02     0.00   0.00  -0.00    -0.00  -0.00   0.00
  30   6     0.01  -0.22   0.11    -0.00   0.00  -0.00     0.00  -0.00   0.00
  31   6    -0.08  -0.07  -0.01    -0.00  -0.00  -0.00    -0.00  -0.00  -0.00
  32   6     0.05  -0.00   0.05     0.03  -0.00   0.04     0.00  -0.00   0.00
  33   6    -0.00  -0.01   0.02    -0.00  -0.01   0.01    -0.00  -0.00   0.00
  34   6     0.00   0.00   0.00    -0.00   0.00  -0.00    -0.00   0.00   0.00
  35   6    -0.00  -0.00   0.00     0.00   0.00  -0.00    -0.04  -0.01   0.01
  36   6     0.00   0.00   0.00     0.00   0.00   0.00     0.02   0.06   0.00
  37   6     0.00  -0.00  -0.00    -0.00   0.00   0.00    -0.06   0.07   0.02
  38   6     0.00   0.00  -0.00    -0.00  -0.00   0.00    -0.05  -0.01   0.01
  39   6    -0.00  -0.00   0.00     0.00  -0.00  -0.00     0.00  -0.00  -0.00
  40   1    -0.00  -0.00  -0.00     0.00   0.00   0.00    -0.01  -0.02  -0.00
  41   1    -0.00   0.00   0.00    -0.00   0.00   0.00     0.01  -0.01  -0.00
  42   1    -0.00  -0.00  -0.00    -0.00  -0.00   0.00     0.00   0.00   0.00
  43   1     0.00   0.00  -0.00    -0.00  -0.00   0.00     0.00   0.00  -0.00
  44   1    -0.00  -0.00   0.00     0.00   0.00  -0.00    -0.01  -0.02  -0.00
  45   1    -0.00   0.00   0.00    -0.00   0.00   0.00     0.01  -0.01  -0.00
  46   1    -0.00  -0.00   0.00     0.01   0.00  -0.00    -0.34  -0.13   0.08
  47   1    -0.00  -0.00  -0.00     0.00   0.01   0.00    -0.13  -0.60  -0.04
  48   1    -0.00   0.00   0.00    -0.01   0.01   0.00     0.23  -0.20  -0.09
  49   1     0.01   0.00  -0.00    -0.00  -0.00   0.00    -0.29  -0.11   0.07
  50   1    -0.01   0.00  -0.01     0.17  -0.02   0.17     0.00  -0.00   0.00
  51   1     0.01   0.02  -0.04    -0.22  -0.35   0.81    -0.00  -0.00   0.01
  52   1    -0.00   0.02  -0.01    -0.00   0.01  -0.01     0.00  -0.01   0.00
  53   1    -0.02  -0.01  -0.00     0.01   0.01   0.00    -0.00  -0.00  -0.00
  54   1    -0.00  -0.02  -0.01     0.00   0.00   0.00    -0.00  -0.00  -0.00
  55   1     0.01   0.01  -0.00    -0.00  -0.00   0.00    -0.00  -0.00   0.00
  56   1     0.02  -0.01  -0.03    -0.00   0.00   0.00    -0.00   0.00   0.00
  57   1    -0.01  -0.06  -0.03    -0.00  -0.00  -0.00     0.00   0.00   0.00
  58   1    -0.10  -0.09   0.05    -0.00  -0.00   0.00     0.01   0.01  -0.01
  59   1    -0.04   0.76  -0.37     0.00  -0.00   0.00    -0.00   0.00  -0.00
  60   1     0.27   0.22   0.03     0.01   0.01   0.00     0.00   0.00   0.00
  61   1    -0.16   0.01  -0.17    -0.12   0.01  -0.13    -0.01   0.00  -0.01
  62   1     0.01   0.02  -0.06     0.01   0.02  -0.04     0.00   0.00  -0.01
  63   1     0.00   0.00  -0.00    -0.00  -0.00   0.00     0.15   0.04  -0.03
  64   1    -0.00  -0.00  -0.00    -0.00  -0.01  -0.00    -0.06  -0.20  -0.01
  65   1    -0.00   0.00   0.00     0.00  -0.00  -0.00     0.21  -0.22  -0.08
  66   1    -0.00  -0.00   0.00     0.00   0.00  -0.00     0.17   0.04  -0.04
                    187                    188                    189
                        a                      a                      a 
 Frequencies --  3103.9150              3104.4370              3104.8556
 Red. masses --     1.8786                 1.8616                 1.8791
 Frc consts  --     0.0000                 0.0000                 0.0000
 IR Inten    --   151.0481                21.1800                20.7984
 Raman Activ --     0.0000                 0.0000                 0.0000
 Depolar     --     0.0000                 0.0000                 0.0000
 Atom AN      X      Y      Z        X      Y      Z        X      Y      Z
   1   6    -0.00   0.00   0.00    -0.00  -0.00   0.00     0.00   0.00  -0.00
   2   6    -0.00  -0.00   0.00    -0.00  -0.00   0.00    -0.00   0.00   0.00
   3   6    -0.00   0.00   0.00    -0.00  -0.00   0.00     0.00   0.00  -0.00
   4   6    -0.00   0.00   0.00    -0.00   0.00   0.00     0.00  -0.00  -0.00
   5   6    -0.05  -0.02   0.01    -0.01  -0.00   0.00     0.00   0.00  -0.00
   6   6    -0.02  -0.09  -0.01    -0.00  -0.01  -0.00     0.00   0.00   0.00
   7   6     0.03  -0.03  -0.01     0.00  -0.00  -0.00    -0.00   0.00   0.00
   8   6    -0.04  -0.01   0.01    -0.01  -0.00   0.00     0.00   0.00  -0.00
   9   6    -0.00  -0.00  -0.00    -0.00  -0.00  -0.00    -0.00  -0.00  -0.00
  10   7    -0.00  -0.00   0.00    -0.00   0.00   0.00     0.00   0.00  -0.00
  11   6     0.00   0.00  -0.00     0.00   0.00  -0.00     0.00  -0.00   0.00
  12   6     0.00  -0.00   0.00    -0.00   0.00  -0.00    -0.00   0.00  -0.00
  13   6    -0.00  -0.00   0.00     0.00   0.00  -0.00     0.00   0.00  -0.00
  14   6    -0.00  -0.00   0.00     0.00   0.00  -0.00     0.00   0.00  -0.00
  15   6    -0.00   0.00  -0.00     0.00   0.00  -0.00     0.00   0.00  -0.00
  16   8    -0.00  -0.00   0.00    -0.00  -0.00   0.00    -0.00  -0.00   0.00
  17   6     0.00  -0.00   0.00    -0.00   0.00  -0.00    -0.00   0.00  -0.00
  18   6     0.00  -0.01   0.01    -0.00   0.06  -0.03    -0.00   0.08  -0.04
  19   6    -0.01  -0.00  -0.00     0.02   0.02   0.00     0.03   0.02   0.00
  20   6    -0.00   0.00  -0.00     0.00  -0.00   0.00    -0.00  -0.00   0.00
  21  16     0.00  -0.00   0.00    -0.00  -0.00   0.00     0.00   0.00  -0.00
  22   8    -0.00  -0.00  -0.00     0.00   0.00  -0.00     0.00   0.00  -0.00
  23   8    -0.00   0.00  -0.00     0.00   0.00  -0.00    -0.00  -0.00  -0.00
  24   6     0.00  -0.00  -0.00    -0.00   0.00   0.00     0.01  -0.00  -0.01
  25   6     0.00   0.00   0.00    -0.02  -0.12  -0.07    -0.02  -0.17  -0.09
  26   6     0.00   0.00  -0.00    -0.03  -0.02   0.01    -0.05  -0.05   0.03
  27   6    -0.00   0.00   0.00     0.01   0.00  -0.01    -0.03   0.01   0.04
  28   6     0.00   0.00   0.00    -0.01  -0.06  -0.03     0.01   0.05   0.03
  29   6     0.01   0.01  -0.01    -0.15  -0.13   0.08     0.10   0.09  -0.05
  30   6     0.00   0.00  -0.00     0.00  -0.04   0.02    -0.00   0.02  -0.01
  31   6     0.00   0.00  -0.00    -0.01  -0.01  -0.00     0.01   0.00   0.00
  32   6    -0.00   0.00  -0.00     0.00  -0.00   0.00    -0.00  -0.00  -0.00
  33   6     0.00   0.00  -0.00     0.00   0.00  -0.00     0.00   0.00  -0.00
  34   6    -0.00   0.00   0.00    -0.00   0.00   0.00    -0.00   0.00   0.00
  35   6    -0.08  -0.02   0.02    -0.01  -0.00   0.00     0.00   0.00  -0.00
  36   6     0.03   0.11   0.01     0.00   0.01   0.00    -0.00  -0.00  -0.00
  37   6    -0.12   0.13   0.05    -0.01   0.01   0.00     0.00  -0.00  -0.00
  38   6    -0.10  -0.03   0.02    -0.01  -0.00   0.00     0.00   0.00  -0.00
  39   6     0.00  -0.00  -0.00     0.00  -0.00  -0.00     0.00   0.00  -0.00
  40   1     0.00   0.01   0.00     0.00   0.00   0.00    -0.00  -0.00  -0.00
  41   1     0.01  -0.01  -0.01     0.00  -0.00  -0.00    -0.00   0.00   0.00
  42   1    -0.00   0.00   0.00    -0.00  -0.00  -0.00     0.00   0.00   0.00
  43   1    -0.00  -0.00   0.00    -0.00  -0.00   0.00     0.00   0.00   0.00
  44   1     0.00   0.01   0.00     0.00   0.00   0.00    -0.00  -0.00  -0.00
  45   1     0.02  -0.01  -0.01     0.00  -0.00  -0.00    -0.00   0.00   0.00
  46   1     0.18   0.07  -0.04     0.02   0.01  -0.00    -0.01  -0.00   0.00
  47   1     0.07   0.31   0.02     0.01   0.03   0.00    -0.00  -0.01  -0.00
  48   1    -0.11   0.10   0.05    -0.01   0.01   0.00     0.01  -0.00  -0.00
  49   1     0.15   0.06  -0.04     0.02   0.01  -0.01    -0.01  -0.00   0.00
  50   1    -0.01   0.00  -0.01     0.00  -0.00   0.00     0.00  -0.00   0.00
  51   1     0.00   0.00  -0.01    -0.00  -0.00   0.01    -0.00  -0.00   0.01
  52   1    -0.00   0.04  -0.02     0.01  -0.22   0.11     0.01  -0.27   0.14
  53   1     0.02   0.01   0.00    -0.08  -0.06  -0.01    -0.10  -0.08  -0.01
  54   1    -0.00  -0.00  -0.00     0.06   0.42   0.23     0.09   0.57   0.31
  55   1    -0.00  -0.00   0.00     0.09   0.08  -0.04     0.16   0.14  -0.08
  56   1     0.00  -0.00  -0.00    -0.02   0.01   0.03     0.08  -0.04  -0.12
  57   1    -0.00  -0.01  -0.01     0.03   0.19   0.10    -0.03  -0.17  -0.08
  58   1    -0.04  -0.04   0.02     0.51   0.45  -0.27    -0.36  -0.32   0.19
  59   1     0.00  -0.01   0.00    -0.01   0.13  -0.06     0.00  -0.07   0.03
  60   1    -0.00  -0.00  -0.00     0.03   0.03   0.00    -0.02  -0.01  -0.00
  61   1     0.01  -0.00   0.01    -0.00   0.00  -0.00     0.00  -0.00   0.01
  62   1    -0.00  -0.01   0.01    -0.00  -0.00   0.00    -0.00  -0.00   0.00
  63   1     0.28   0.08  -0.06     0.02   0.01  -0.00    -0.00  -0.00   0.00
  64   1    -0.11  -0.36  -0.02    -0.01  -0.02  -0.00     0.00   0.01   0.00
  65   1     0.40  -0.42  -0.16     0.02  -0.03  -0.01    -0.01   0.01   0.00
  66   1     0.33   0.09  -0.07     0.02   0.01  -0.00    -0.00  -0.00   0.00
                    190                    191                    192
                        a                      a                      a 
 Frequencies --  3105.9534              3112.3095              3113.8652
 Red. masses --     1.8788                 1.8738                 1.8707
 Frc consts  --     0.0000                 0.0000                 0.0000
 IR Inten    --     6.7425                48.4376                42.2492
 Raman Activ --     0.0000                 0.0000                 0.0000
 Depolar     --     0.0000                 0.0000                 0.0000
 Atom AN      X      Y      Z        X      Y      Z        X      Y      Z
   1   6     0.00   0.00  -0.00     0.00   0.00   0.00     0.00   0.00   0.00
   2   6     0.00   0.00  -0.00     0.00  -0.00  -0.00     0.00   0.00   0.00
   3   6     0.00  -0.00  -0.00     0.00   0.00  -0.00     0.00   0.00  -0.00
   4   6     0.00  -0.00  -0.00     0.00   0.00  -0.00    -0.00   0.00   0.00
   5   6     0.00   0.00  -0.00     0.02   0.01  -0.00     0.00   0.00  -0.00
   6   6     0.00   0.00   0.00     0.02   0.06   0.00     0.00   0.01   0.00
   7   6    -0.00   0.00   0.00    -0.09   0.08   0.03    -0.01   0.01   0.00
   8   6     0.00   0.00  -0.00    -0.22  -0.08   0.05    -0.03  -0.01   0.01
   9   6     0.00   0.00   0.00    -0.00  -0.01  -0.00    -0.00  -0.00  -0.00
  10   7    -0.00   0.00  -0.00    -0.00  -0.00   0.00    -0.00  -0.00   0.00
  11   6     0.00   0.00  -0.00     0.00  -0.00  -0.00     0.00   0.00  -0.00
  12   6     0.00  -0.00   0.00     0.00  -0.00   0.00     0.00   0.00   0.00
  13   6    -0.00  -0.00   0.01     0.00   0.00  -0.00     0.00   0.00  -0.00
  14   6    -0.00  -0.00   0.00     0.00   0.00   0.00     0.00   0.00  -0.00
  15   6    -0.00  -0.00   0.00    -0.00  -0.00   0.00    -0.00  -0.00   0.00
  16   8     0.00   0.00  -0.00     0.00   0.00  -0.00     0.00   0.00  -0.00
  17   6     0.00  -0.00   0.00     0.00   0.00   0.00     0.00   0.00  -0.00
  18   6     0.01  -0.19   0.10     0.00  -0.00   0.00     0.00  -0.00   0.00
  19   6    -0.11  -0.08  -0.01    -0.00  -0.00  -0.00    -0.00  -0.00  -0.00
  20   6    -0.00   0.00  -0.00    -0.00   0.00  -0.00    -0.00   0.00  -0.00
  21  16    -0.00  -0.00   0.00    -0.00   0.00  -0.00    -0.00   0.00  -0.00
  22   8     0.00   0.00  -0.00     0.00  -0.00   0.00     0.00   0.00   0.00
  23   8     0.00   0.00  -0.00    -0.00  -0.00   0.00     0.00  -0.00   0.00
  24   6     0.00  -0.00  -0.00     0.00  -0.00   0.00     0.00  -0.00   0.00
  25   6    -0.01  -0.10  -0.05    -0.00  -0.00  -0.00    -0.00  -0.00  -0.00
  26   6    -0.03  -0.02   0.01    -0.00  -0.00   0.00    -0.00  -0.00   0.00
  27   6    -0.01   0.00   0.01    -0.00   0.00   0.00    -0.00   0.00   0.00
  28   6     0.00   0.00   0.00     0.00   0.00   0.00     0.00   0.00   0.00
  29   6    -0.01  -0.00   0.00     0.00   0.00  -0.00     0.00   0.00  -0.00
  30   6     0.00  -0.00   0.00     0.00   0.00  -0.00     0.00   0.00  -0.00
  31   6    -0.00   0.00  -0.00     0.00   0.00   0.00     0.00   0.00   0.00
  32   6     0.00   0.00  -0.00     0.00  -0.00   0.00     0.00  -0.00   0.00
  33   6    -0.00  -0.00   0.00     0.00   0.00  -0.00     0.00   0.00  -0.00
  34   6     0.00  -0.00  -0.00     0.00  -0.00  -0.00    -0.01   0.00   0.00
  35   6     0.01   0.00  -0.00     0.03   0.01  -0.01    -0.23  -0.06   0.05
  36   6    -0.00  -0.00  -0.00     0.00   0.02   0.00    -0.03  -0.11  -0.01
  37   6     0.00  -0.00  -0.00    -0.00   0.00   0.00     0.04  -0.03  -0.01
  38   6     0.00   0.00  -0.00    -0.00  -0.00   0.00     0.02   0.00  -0.00
  39   6    -0.00   0.00   0.00    -0.00  -0.00   0.00     0.00   0.00  -0.00
  40   1    -0.00  -0.00  -0.00    -0.00  -0.00  -0.00    -0.00  -0.00   0.00
  41   1    -0.00   0.00   0.00    -0.00   0.00   0.00    -0.00   0.00   0.00
  42   1     0.00   0.00   0.00    -0.00  -0.00  -0.00    -0.00  -0.00  -0.00
  43   1     0.00   0.00  -0.00    -0.00  -0.00   0.00    -0.00  -0.00   0.00
  44   1    -0.00  -0.00  -0.00    -0.00  -0.00   0.00    -0.00  -0.00  -0.00
  45   1    -0.00   0.00   0.00    -0.00   0.00   0.00    -0.00   0.00   0.00
  46   1    -0.01  -0.00   0.00    -0.06  -0.02   0.01    -0.01  -0.00   0.00
  47   1    -0.00  -0.02  -0.00    -0.04  -0.19  -0.01    -0.01  -0.03  -0.00
  48   1     0.00  -0.00  -0.00     0.27  -0.24  -0.11     0.04  -0.03  -0.01
  49   1    -0.02  -0.01   0.00     0.77   0.29  -0.19     0.10   0.04  -0.03
  50   1    -0.00   0.00  -0.00    -0.00   0.00  -0.00    -0.01   0.00  -0.01
  51   1     0.01   0.01  -0.02    -0.00  -0.00   0.01    -0.00  -0.00   0.01
  52   1    -0.02   0.64  -0.33    -0.00   0.01  -0.00    -0.00   0.01  -0.00
  53   1     0.38   0.29   0.04     0.00   0.00   0.00     0.00   0.00   0.00
  54   1     0.05   0.35   0.19     0.00   0.00   0.00     0.00   0.00   0.00
  55   1     0.08   0.07  -0.04     0.00   0.00  -0.00     0.00   0.00  -0.00
  56   1     0.02  -0.01  -0.03     0.00  -0.00  -0.00     0.00  -0.00  -0.00
  57   1    -0.00  -0.00  -0.00    -0.00  -0.00  -0.00    -0.00  -0.00  -0.00
  58   1     0.02   0.02  -0.01    -0.00  -0.00   0.00    -0.00  -0.00   0.00
  59   1    -0.00   0.01  -0.00     0.00  -0.00   0.00     0.00  -0.00   0.00
  60   1    -0.00  -0.00   0.00    -0.00  -0.00  -0.00    -0.00  -0.00  -0.00
  61   1     0.00  -0.00  -0.00    -0.01   0.00  -0.01    -0.01   0.00  -0.01
  62   1     0.00   0.00  -0.00    -0.00  -0.00   0.01    -0.00  -0.00   0.01
  63   1    -0.02  -0.00   0.00    -0.11  -0.03   0.02     0.82   0.22  -0.17
  64   1     0.00   0.01   0.00    -0.01  -0.05  -0.00     0.11   0.35   0.02
  65   1    -0.01   0.01   0.01     0.01  -0.01  -0.00    -0.11   0.11   0.04
  66   1    -0.01  -0.00   0.00     0.00   0.00  -0.00    -0.05  -0.01   0.01
