$hessian                                                                        
        0.5224043245  -0.0063239309   0.0040201709  -0.0697067524  -0.0131589872
        0.0088218805   0.0007636553   0.0020395564  -0.0014218731   0.0001520369
        0.0005749110   0.0002006712   0.0000922676   0.0001280451  -0.0000833540
       -0.0000067504   0.0000148566   0.0000258625   0.0000158552  -0.0000017707
       -0.0000169428  -0.0001779139  -0.0000716810   0.0000149459   0.0001365203
        0.0000026656   0.0001078095  -0.0000164969  -0.0000107917   0.0000116307
        0.0000028070   0.0000025689  -0.0000810193  -0.0000031703  -0.0000143665
        0.0000151148  -0.0000699868  -0.0000275709  -0.0001346633  -0.0001952566
        0.0000049142   0.0000369035   0.0000382250  -0.0000085698   0.0001237647
       -0.0000274069  -0.0000046289   0.0001519591   0.0002111167   0.0000055829
        0.0000753025  -0.0000681210  -0.0000060429  -0.0000065293   0.0002705498
        0.0000029453   0.0000011159  -0.0000912032   0.0000017809  -0.0000748784
        0.0001039632  -0.0000028034   0.0000830335  -0.0000181718   0.0000006656
       -0.0000949097  -0.0000246917   0.0000003769   0.0000262828   0.0000380646
        0.0000020074  -0.0000122008   0.0000066843  -0.0000074691  -0.0000231670
       -0.0000038531  -0.0000007295   0.0000048040  -0.0000041812  -0.0000131339
        0.0000184626   0.0000051818  -0.0000112347   0.0000006888  -0.0000020562
       -0.0000153747   0.0000054833   0.0000019563   0.0000130996   0.0000212987
        0.0000094092   0.0000142166  -0.0000007182   0.0000128080   0.0000115617
        0.0000098314  -0.0001074899  -0.0000037819   0.0000924886   0.0002013284
       -0.0000008358   0.0000961974  -0.0003128236  -0.0000007496   0.0000602973
        0.0002632217   0.0000055104  -0.0001097037  -0.0002235465  -0.0000046967
        0.0000842178   0.0000396261   0.0000023435  -0.0001280890  -0.0001246245
        0.0000006761  -0.0000960306   0.0001035015   0.0000015073  -0.0000205863
       -0.0000045945  -0.0000054289  -0.0002242195   0.0000248199   0.0001272437
        0.0000036952  -0.2453236971  -0.0014153042   0.0865526824  -0.1565153913
        0.0010291634  -0.1186008214  -0.0485373488   0.0236428557   0.0159168155
       -0.0057155303  -0.0231884667   0.0177909162   0.0017689614   0.0162998091
       -0.0131599135   0.0004775028   0.0009008105  -0.0003570460   0.0002249516
       -0.0005445612   0.0002255487  -0.0000025859  -0.0000062251   0.0000148142
       -0.0000080887  -0.0000152565  -0.0000102277  -0.0000051206   0.0000058681
       -0.0000050833   0.0000039578   0.0000183984   0.0000047459  -0.0000008742
        0.0000084706  -0.0000026216  -0.0000059938   0.0000016681   0.0000017843
        0.0000000647   0.0000012208   0.0000028802  -0.0000168953  -0.0000326118
        0.0000194088  -0.0000046904  -0.0000083799   0.0000142919   0.0000090778
       -0.0000041897   0.0000016503  -0.0000068617  -0.0000063086  -0.0000172095
        0.0000030919   0.0000030624  -0.0000350810  -0.0000095614   0.0000051375
       -0.0000252909  -0.0000135313   0.0000009998   0.0000085310   0.0000015767
        0.0000014033   0.0000245835  -0.0000099088   0.0000068552   0.0000052483
       -0.0000009172   0.0000047053   0.0000009443  -0.0000022058   0.0000011683
       -0.0000051247   0.0000067511   0.0000106558   0.0000028009  -0.0000057894
        0.0000094344  -0.0000039814  -0.0000047766   0.0000026161   0.0000056770
       -0.0000003908   0.0000039307  -0.0000046544   0.0000022782   0.0000016963
        0.0000059067  -0.0000038539   0.0000018490  -0.0000029411  -0.0000029841
        0.0000002234  -0.0000041274   0.0000039159  -0.0000130966  -0.0000009787
       -0.0000059890  -0.0000082621   0.0000022619  -0.0000026929  -0.0000000534
       -0.0000011775  -0.0000022307  -0.0000033007  -0.0000014951  -0.0000022162
       -0.0000052993   0.0000057613   0.0000015514   0.0000014875  -0.0000200192
        0.0000160620   0.0000008188   0.0000140866   0.0000019981   0.0000005587
        0.0000282480  -0.0000204467   0.0000239920   0.0000231784
       -0.0063239309   0.4833260565   0.0307349939  -0.0133392198  -0.1537943562
        0.0651501894  -0.0022272149  -0.0298877517   0.0108672199   0.0005090726
       -0.0036883125  -0.0024692636  -0.0001240858  -0.0011435775   0.0005598783
        0.0000519380  -0.0002887931  -0.0002094649   0.0000049399  -0.0001277102
        0.0000484463   0.0003670308   0.0000302409  -0.0001540443  -0.0000998308
        0.0000455262   0.0000258289   0.0000304317   0.0000025321  -0.0000534297
        0.0000256000   0.0000089216   0.0000285662   0.0000175502  -0.0000089780
       -0.0000236736   0.0000212561   0.0000261571   0.0000137334   0.0000023385
        0.0000205566  -0.0000220298  -0.0000330615  -0.0000129463  -0.0000236530
        0.0000224087   0.0000056330  -0.0000375168  -0.0000553404  -0.0000115944
       -0.0000511062   0.0000338414  -0.0000000501   0.0000146374  -0.0000554347
       -0.0000010488   0.0000017645   0.0000307590   0.0000018802   0.0000171688
       -0.0000300353  -0.0000002076  -0.0000371655  -0.0000143198   0.0000014608
        0.0000387979   0.0000033385  -0.0000012760  -0.0000065860  -0.0000295379
        0.0000005311   0.0000004834  -0.0000160300   0.0000037683   0.0000234433
        0.0000103044  -0.0000001506  -0.0000143628  -0.0000053936   0.0000041508
       -0.0000126231  -0.0000019689   0.0000015750  -0.0000098286  -0.0000007508
        0.0000045756  -0.0000021999  -0.0000072716  -0.0000055917  -0.0000134120
       -0.0000030075  -0.0000037268  -0.0000068932   0.0000056606  -0.0000046295
       -0.0000043592   0.0000263898  -0.0000051462  -0.0000356367  -0.0000532426
        0.0000001357  -0.0000211838   0.0000712693  -0.0000023204  -0.0000095919
       -0.0000625511   0.0000046902   0.0000227501   0.0000534752  -0.0000042382
       -0.0000253054  -0.0000103651   0.0000033340   0.0000441613   0.0000457724
        0.0000015182   0.0000268028  -0.0000355010   0.0000007684   0.0000085344
        0.0000948138   0.0000522477   0.0001039756  -0.0002760894   0.0000283702
       -0.0002536720  -0.0010932338  -0.0432181979  -0.0007576418   0.0009031071
       -0.0432112279  -0.0006711005   0.0236197121  -0.2023932137  -0.1127679615
       -0.0027101438  -0.0036753131   0.0037333666   0.0010119700  -0.0036185263
        0.0044499505  -0.0004206750   0.0007985065   0.0007745996   0.0000819384
        0.0007998280   0.0008814801   0.0000201379   0.0000062583   0.0000614350
       -0.0000473437   0.0000061223   0.0000593261  -0.0000330706   0.0000381419
       -0.0000545325   0.0000405312   0.0000400595  -0.0000224892   0.0000026173
       -0.0000397335  -0.0000302559  -0.0000102076   0.0000156318   0.0000053023
        0.0000055936   0.0000147515   0.0000095661   0.0000047890  -0.0000445374
        0.0000253624  -0.0000226850  -0.0000120683   0.0000110143  -0.0000080211
       -0.0000068305   0.0000028014  -0.0000160610  -0.0000116948   0.0000051639
        0.0000138972  -0.0000114335   0.0000120611   0.0000071500  -0.0000055834
        0.0000135235   0.0000041244  -0.0000010988  -0.0000031686  -0.0000023637
       -0.0000002825  -0.0000114834   0.0000027926  -0.0000030969   0.0000013239
        0.0000081502   0.0000010795  -0.0000033167  -0.0000086862   0.0000049472
        0.0000063636   0.0000058790   0.0000122750  -0.0000025725   0.0000092666
        0.0000136017  -0.0000046518  -0.0000032795  -0.0000054816   0.0000084487
        0.0000013264   0.0000095451   0.0000073941   0.0000051268   0.0000038462
        0.0000040419   0.0000086321  -0.0000047516  -0.0000015255  -0.0000077684
       -0.0000042348   0.0000064319   0.0000071952  -0.0000098439  -0.0000017140
        0.0000087847  -0.0000151223  -0.0000070750   0.0000067830  -0.0000061387
        0.0000081684   0.0000030431  -0.0000097405   0.0000084596  -0.0000044607
        0.0000077624   0.0000084326  -0.0000035750   0.0000001232   0.0000117041
       -0.0000084003   0.0000001008  -0.0000065965   0.0000045237  -0.0000004847
       -0.0000140885  -0.0000111037  -0.0000461684   0.0000100780
        0.0040201709   0.0307349939   0.5038379426   0.0088207288   0.0643290200
       -0.1110299865  -0.0013686318  -0.0096742916   0.0071302228   0.0001880115
       -0.0028064842  -0.0007515404  -0.0000608510  -0.0006494550   0.0003641492
        0.0000227253  -0.0001445274  -0.0001407240  -0.0000170483  -0.0000607431
        0.0000369717   0.0002867332  -0.0001366622  -0.0002043724  -0.0001112199
        0.0000411861   0.0000130061  -0.0000001404   0.0000114989  -0.0000248451
       -0.0000033651  -0.0000112835   0.0000439140  -0.0000398540   0.0000277006
        0.0000434036  -0.0000604111   0.0000172835   0.0000367597   0.0000000300
        0.0000293248   0.0000498885   0.0000180907   0.0000258942   0.0000681378
       -0.0000008787   0.0000001175   0.0000569468   0.0000079465   0.0000040982
        0.0000300649   0.0000314995  -0.0000053220  -0.0000020012   0.0000519742
        0.0000073853   0.0000014616  -0.0000481882  -0.0000000546  -0.0000092770
        0.0000520362   0.0000000432   0.0000341889  -0.0000198426  -0.0000003324
       -0.0000204056   0.0000629092   0.0000012602  -0.0000024504  -0.0000086133
       -0.0000010055  -0.0000116946   0.0000520410   0.0000057852  -0.0000221672
       -0.0000120754  -0.0000012986   0.0000097386   0.0000121564  -0.0000082586
        0.0000171307   0.0000055396  -0.0000037525   0.0000076181   0.0000086828
       -0.0000025058   0.0000080235   0.0000093595   0.0000072848   0.0000178926
        0.0000034525   0.0000049370   0.0000089267  -0.0000040270   0.0000050604
        0.0000072709   0.0000088187   0.0000063862   0.0000079622   0.0000024174
        0.0000009050   0.0000154549  -0.0000071825   0.0000026014  -0.0000087130
       -0.0000086179  -0.0000044373   0.0000062091  -0.0000084437   0.0000042116
        0.0000075519  -0.0000185392  -0.0000024824  -0.0000110155  -0.0000026062
       -0.0000005110  -0.0000211176  -0.0000388197  -0.0000009478   0.0000084902
        0.0001438867   0.0000551831  -0.0000053313  -0.0002521343  -0.0001023779
       -0.0002619212   0.0864777235  -0.0003630361  -0.0825320494  -0.1185253653
       -0.0001985932  -0.1713704811   0.0159225317  -0.1128719821  -0.1211797587
        0.0043575684   0.0126345762  -0.0090257287   0.0002646922   0.0207999291
       -0.0165977159  -0.0004239021  -0.0007440091   0.0005568134   0.0002783212
       -0.0010524567   0.0008507944   0.0000028347   0.0000537386   0.0000306232
       -0.0000128019   0.0000525910   0.0000153806   0.0000131201  -0.0000208196
        0.0000146979  -0.0000102079  -0.0000186672  -0.0000023368   0.0000020117
       -0.0000223425   0.0000058341  -0.0000005433   0.0000032927   0.0000058598
       -0.0000017920   0.0000042225   0.0000042149   0.0000394462   0.0000009678
       -0.0000270501  -0.0000030356   0.0000053432  -0.0000035034   0.0000091409
        0.0000026326   0.0000020011   0.0000051232   0.0000106704   0.0000075070
       -0.0000113740   0.0000108810   0.0000012702  -0.0000106052   0.0000025390
       -0.0000119802  -0.0000046175   0.0000007875   0.0000061744   0.0000020196
        0.0000008125   0.0000115037  -0.0000082220  -0.0000042851  -0.0000151247
       -0.0000151214  -0.0000040376  -0.0000037706   0.0000086242  -0.0000025656
       -0.0000068884  -0.0000125176  -0.0000109615  -0.0000009723  -0.0000053461
       -0.0000143093   0.0000059235   0.0000045651   0.0000071540  -0.0000079938
       -0.0000021552  -0.0000077555  -0.0000073419  -0.0000107218  -0.0000042231
       -0.0000116223  -0.0000149251   0.0000008005  -0.0000020733   0.0000102984
        0.0000031905  -0.0000078675  -0.0000078856   0.0000105304   0.0000001825
       -0.0000068867   0.0000132160   0.0000035773  -0.0000091746   0.0000035760
       -0.0000072052  -0.0000001937   0.0000076956  -0.0000078805   0.0000038051
       -0.0000065015  -0.0000075310   0.0000044341  -0.0000007392  -0.0000141687
        0.0000091123   0.0000003035   0.0000064949  -0.0000038819   0.0000006879
        0.0000144291  -0.0000318161   0.0000117188  -0.0000340018
       -0.0697067524  -0.0133392198   0.0088207288   0.5386007880   0.0010486299
        0.0074985778  -0.0712094687   0.0125822006   0.0080775493   0.0006762203
       -0.0019687624  -0.0015433636   0.0003450422  -0.0005606669   0.0003013361
        0.0002218629  -0.0001326846  -0.0000773569  -0.0000063534  -0.0000491962
        0.0000178314   0.0000417850  -0.0011937428   0.0001285484  -0.0000442603
        0.0000189475   0.0000341518  -0.0001812006   0.0000682970   0.0000675080
       -0.0000910920   0.0000453077  -0.0000497612  -0.0000085633   0.0000830469
        0.0000725726   0.0001267505  -0.0000037221  -0.0000912782   0.0002353856
       -0.0000392229   0.0000935458  -0.0000236880  -0.0000591756  -0.0000521713
        0.0000000194  -0.0000356160  -0.0000341622  -0.0000711047   0.0000041969
       -0.0000676480  -0.0000886339   0.0000043572   0.0000161207   0.0001012793
       -0.0000001378   0.0000003848  -0.0000156709  -0.0000013963  -0.0000221173
        0.0000310529  -0.0000010348   0.0000020796  -0.0000319811  -0.0000011494
       -0.0000020415   0.0000269051   0.0000010771  -0.0000055300  -0.0000261117
        0.0000022949  -0.0000114873   0.0000099619  -0.0000124038   0.0000138564
        0.0000075399   0.0000010543  -0.0000041166  -0.0000032727  -0.0000026760
        0.0000038204  -0.0000083187  -0.0000029394   0.0000085197  -0.0000044245
       -0.0000057691   0.0000027648  -0.0000006559   0.0000040365   0.0000051590
       -0.0000026009   0.0000052336   0.0000036770   0.0000022396   0.0000048604
        0.0000049795  -0.0000147596   0.0000005515  -0.0000025323   0.0000018817
       -0.0000008602   0.0000090167  -0.0000139388   0.0000013824  -0.0000052490
       -0.0000009153   0.0000008207  -0.0000028140  -0.0000102597  -0.0000010751
       -0.0000027119  -0.0000115295  -0.0000009643   0.0000137237   0.0000037868
       -0.0000007543  -0.0000187346  -0.0000294670   0.0000000053   0.0000032970
       -0.0000528043  -0.0000390289  -0.0000148506   0.0000587596   0.0007490687
       -0.0002679181  -0.0059120235  -0.0235628718   0.0179882497   0.0018596705
        0.0168965210  -0.0130391613   0.0006529604   0.0025528448  -0.0016920947
       -0.2373920391   0.0015494097   0.0815523154  -0.1535272300  -0.0012780580
       -0.1124947612  -0.0063720435   0.0231486308   0.0182947128   0.0017219030
       -0.0164041222  -0.0135344278  -0.0000040527   0.0000750402   0.0000627145
        0.0000488083  -0.0000929406  -0.0000500812  -0.0000037189  -0.0000059926
        0.0000173509   0.0000053249   0.0000256932  -0.0000229381   0.0000032864
       -0.0000176149  -0.0000057349  -0.0000051901  -0.0000073818   0.0000046768
       -0.0000052981   0.0000083937  -0.0000062876   0.0000423381  -0.0000733631
       -0.0000546462   0.0000065695  -0.0000518711  -0.0000013114   0.0000000387
       -0.0000335388  -0.0000086578   0.0000095451  -0.0000289628  -0.0000387351
        0.0000023551   0.0000167373   0.0000138297  -0.0000059781   0.0000237424
        0.0000046252  -0.0000071729   0.0000032410   0.0000064073   0.0000075112
        0.0000012034   0.0000097909  -0.0000046056   0.0000060394   0.0000012231
        0.0000027769   0.0000015120   0.0000070349   0.0000061845  -0.0000012936
       -0.0000068926   0.0000036123  -0.0000002587   0.0000021127   0.0000028343
        0.0000017945  -0.0000075851  -0.0000021527   0.0000002768   0.0000043023
        0.0000039020  -0.0000011625  -0.0000073922   0.0000017483  -0.0000011828
        0.0000058507   0.0000018964   0.0000012297   0.0000036013   0.0000044605
        0.0000002027  -0.0000054627   0.0000009330   0.0000000044   0.0000010864
        0.0000022576   0.0000007569  -0.0000014674  -0.0000002571   0.0000010849
       -0.0000008598   0.0000002351   0.0000010924  -0.0000042967   0.0000003509
       -0.0000045093   0.0000038492   0.0000026659   0.0000004275  -0.0000026625
        0.0000038177   0.0000003542   0.0000014366   0.0000000641   0.0000007544
        0.0000058487   0.0000102786   0.0000749669   0.0000705325
       -0.0131589872  -0.1537943562   0.0643290200   0.0010486299   0.4534713294
       -0.0038128722   0.0130790288  -0.1449271706  -0.0629646511   0.0015337670
       -0.0259834435  -0.0076159137  -0.0005028878  -0.0036641556   0.0023721987
        0.0001526044  -0.0009722770  -0.0007023963  -0.0000129417  -0.0003133927
        0.0001316556   0.0000938054  -0.0007768644  -0.0003795483   0.0003132930
       -0.0001421851   0.0000473608  -0.0000052912  -0.0000747198   0.0000025526
       -0.0000162994   0.0000046092  -0.0000326384   0.0000974612  -0.0000872917
       -0.0000991475   0.0001449362  -0.0001695540  -0.0001730485  -0.0000863034
       -0.0001542319  -0.0001675959  -0.0000462062  -0.0000659708  -0.0001275250
       -0.0000112620  -0.0000016996   0.0000223579   0.0000690952  -0.0000871026
       -0.0000383980  -0.0000432567   0.0000026151  -0.0000065199   0.0000052063
        0.0000094326   0.0000015893   0.0000442500   0.0000009794  -0.0000035501
       -0.0000507686   0.0000009434  -0.0000239366   0.0000469608   0.0000013226
       -0.0000379137  -0.0001212485  -0.0000017279   0.0000123728   0.0000468096
        0.0000008058   0.0000359046  -0.0000582570  -0.0000083177   0.0000360904
        0.0000068349   0.0000009143  -0.0000062512  -0.0000052509   0.0000002222
       -0.0000062661  -0.0000014314   0.0000005117  -0.0000078910  -0.0000043456
        0.0000007735  -0.0000022078  -0.0000044118  -0.0000013621  -0.0000064625
        0.0000009446  -0.0000010697  -0.0000077459   0.0000096726  -0.0000029915
       -0.0000029603  -0.0000409503  -0.0000073790   0.0000422723   0.0000531834
       -0.0000007503   0.0000105297  -0.0000727097  -0.0000025130   0.0000285534
        0.0000749950   0.0000079292  -0.0000320136  -0.0000542782  -0.0000056946
        0.0000139989   0.0000379296   0.0000042503  -0.0000338771  -0.0000594459
        0.0000010866  -0.0000166088   0.0001024109   0.0000017067  -0.0000250456
       -0.0003734604  -0.0001555115  -0.0001026308   0.0002002895  -0.0007128450
       -0.0004193930  -0.0034133508  -0.0030585424   0.0035888359   0.0017175242
       -0.0029912712   0.0045949277  -0.0027910108  -0.0261623937   0.0136767870
        0.0017065989  -0.0407306066  -0.0012853910  -0.0014207657  -0.0407456360
       -0.0022413291   0.0030722181  -0.0038976643  -0.0038629706  -0.0012956715
       -0.0038957716  -0.0047474801   0.0000187228   0.0000129191   0.0001015920
       -0.0000597283   0.0000111273   0.0000884855  -0.0000427260   0.0000475759
       -0.0000687368   0.0000570360   0.0000491368  -0.0000311554   0.0000119000
       -0.0000729236  -0.0000748281  -0.0000262994   0.0000215856   0.0000230287
        0.0000138595   0.0000198969   0.0000324898  -0.0000839019  -0.0000261101
       -0.0000551717  -0.0000020897   0.0000088293   0.0000064353  -0.0000084057
        0.0000163855  -0.0000025366  -0.0000087697   0.0000007637   0.0000011679
        0.0000085681   0.0000011977   0.0000049635   0.0000068427   0.0000144152
        0.0000003831   0.0000023773  -0.0000014711  -0.0000072013  -0.0000060261
       -0.0000007365  -0.0000056945   0.0000030187   0.0000001676   0.0000063949
        0.0000071893   0.0000034221  -0.0000022438  -0.0000117820   0.0000050316
        0.0000067674   0.0000064666   0.0000157614  -0.0000009717   0.0000056650
        0.0000176741  -0.0000047797  -0.0000078120  -0.0000099353   0.0000086159
       -0.0000007301   0.0000112619   0.0000086730   0.0000064024   0.0000069880
        0.0000091432   0.0000068602  -0.0000037908  -0.0000027015  -0.0000111822
       -0.0000034981   0.0000074933   0.0000064008  -0.0000147034  -0.0000028227
        0.0000060821  -0.0000182050  -0.0000042647   0.0000057241  -0.0000066972
        0.0000069509   0.0000008809  -0.0000104699   0.0000098736  -0.0000047476
        0.0000080829   0.0000087738  -0.0000036341   0.0000015175   0.0000085090
       -0.0000065447   0.0000007446  -0.0000040781   0.0000055963  -0.0000002811
       -0.0000072288   0.0000971297  -0.0000186313  -0.0000201533
        0.0088218805   0.0651501894  -0.1110299865   0.0074985778  -0.0038128722
        0.5035443413   0.0081205755  -0.0604733199  -0.1084921910  -0.0014693675
        0.0093233361   0.0076468275   0.0003363078   0.0026095783  -0.0011439364
       -0.0000763359   0.0005943186   0.0005715276   0.0000239210   0.0001971108
       -0.0001177211  -0.0003711549   0.0008403784   0.0004807759  -0.0000137635
        0.0000612809  -0.0001441251  -0.0000984486  -0.0000604694   0.0000972086
        0.0000056523  -0.0000242279  -0.0000953611  -0.0001083887  -0.0000197296
        0.0000733510  -0.0000890516   0.0001331489   0.0000238557   0.0000888487
        0.0001010127   0.0001637153   0.0000751322  -0.0000246371   0.0001089366
       -0.0000362292  -0.0000490360   0.0000054474   0.0000641473  -0.0000347206
       -0.0000097187  -0.0000763394   0.0000162064  -0.0000246833   0.0000727398
        0.0000092840   0.0000012549   0.0000243287  -0.0000040743  -0.0000317950
        0.0000155496   0.0000014125   0.0000196075   0.0000502072   0.0000004229
       -0.0000964441  -0.0001001901   0.0000003079   0.0000217779   0.0000695182
        0.0000025649   0.0000366004  -0.0000236469  -0.0000171309   0.0000263489
       -0.0000073299   0.0000016395   0.0000085968   0.0000063028  -0.0000090269
        0.0000203350  -0.0000012643  -0.0000075216   0.0000095580   0.0000053338
       -0.0000095730   0.0000074215   0.0000077264   0.0000086360   0.0000214320
        0.0000039062   0.0000076184   0.0000077408   0.0000042358   0.0000065942
        0.0000092373  -0.0000676473   0.0000009975   0.0000863059   0.0001261099
       -0.0000014330   0.0000514124  -0.0001708360   0.0000009403   0.0000379098
        0.0001445971   0.0000007499  -0.0000573801  -0.0001236056   0.0000000583
        0.0000487334   0.0000401283  -0.0000001893  -0.0000901482  -0.0001106889
       -0.0000005087  -0.0000653625   0.0001203946   0.0000007134  -0.0000284690
       -0.0000316790   0.0000230750  -0.0001577466   0.0002425164   0.0011909080
        0.0004094189   0.0050631166   0.0119023641  -0.0095678266  -0.0001534842
        0.0202515949  -0.0174016646  -0.0016449926  -0.0121582411   0.0083709613
        0.0819589430  -0.0013891269  -0.0816045857  -0.1129576930  -0.0023004632
       -0.1653050588   0.0050719589  -0.0120408684  -0.0092189725  -0.0003267015
       -0.0202688880  -0.0173062242   0.0000989533   0.0000487601   0.0000468811
       -0.0000967168   0.0000148489  -0.0000178169  -0.0000231529  -0.0000463540
        0.0000149923   0.0000172055  -0.0000424013   0.0000058833  -0.0000031946
        0.0000963942   0.0000277256  -0.0000238557  -0.0000097365   0.0000097452
        0.0000158330  -0.0000068136   0.0000141622   0.0000279979   0.0000075524
        0.0000150082   0.0000323552   0.0000272243   0.0000053666   0.0000155762
        0.0000202690   0.0000077249   0.0000195252   0.0000280463  -0.0000237225
       -0.0000082026   0.0000410625  -0.0000219207  -0.0000241662   0.0000317805
       -0.0000009810  -0.0000069109   0.0000030923  -0.0000034441   0.0000043266
        0.0000014918   0.0000155044  -0.0000131009   0.0000040604  -0.0000036210
       -0.0000098712  -0.0000014599   0.0000002598   0.0000082351  -0.0000022231
       -0.0000092378  -0.0000020127  -0.0000002763  -0.0000006767  -0.0000044538
       -0.0000019174  -0.0000026379  -0.0000007098   0.0000010986  -0.0000029140
        0.0000028660  -0.0000023564  -0.0000092001  -0.0000074818  -0.0000014428
       -0.0000015194  -0.0000100585   0.0000014737  -0.0000015623   0.0000068709
        0.0000005450  -0.0000070179  -0.0000041021   0.0000002137  -0.0000013512
       -0.0000048238   0.0000038561   0.0000025746  -0.0000069329   0.0000010519
       -0.0000045301  -0.0000002898   0.0000014980  -0.0000041954   0.0000021978
       -0.0000047445  -0.0000016195   0.0000040076   0.0000001123  -0.0000145741
        0.0000100965   0.0000010548   0.0000071631  -0.0000009164   0.0000015160
        0.0000153199  -0.0000189108   0.0000523388   0.0000229928
        0.0007636553  -0.0022272149  -0.0013686318  -0.0712094687   0.0130790288
        0.0081205755   0.5324403365  -0.0022993280   0.0102593861  -0.0625168132
       -0.0121540907   0.0055592609   0.0015258659   0.0022060572  -0.0008721935
        0.0003329749   0.0005131919   0.0003948637   0.0000927327   0.0001397218
       -0.0000562208  -0.0068378732  -0.0204311570   0.0157543842  -0.0003917629
        0.0002519245   0.0007473057   0.0002002655   0.0011266551  -0.0000454896
        0.0000726486  -0.0000512711   0.0002185950  -0.0001651210   0.0010165834
        0.0006437370  -0.0026098824   0.0002232711   0.0013848834  -0.0014146682
       -0.0003678906  -0.0018246281   0.0002484363  -0.0006508387  -0.0004312028
        0.0000132655   0.0000331609  -0.0001907610   0.0000280179  -0.0008614002
        0.0002820584   0.0000181051   0.0000112468  -0.0000731097  -0.0000603525
        0.0000255028  -0.0000103108   0.0000080026   0.0000050801   0.0000240345
       -0.0000287396   0.0000148052  -0.0000052331  -0.0000144382   0.0000006933
        0.0000646091   0.0000087719  -0.0000001975  -0.0000061528  -0.0000334504
       -0.0000030511  -0.0000056535  -0.0000454894  -0.0000288488  -0.0000376576
        0.0000108160   0.0000036665  -0.0000158125  -0.0000274594   0.0000130989
       -0.0000318484  -0.0000110656   0.0000073220  -0.0000035116  -0.0000195017
        0.0000038636  -0.0000116202  -0.0000231350  -0.0000124065  -0.0000286827
       -0.0000078985  -0.0000064965  -0.0000050302  -0.0000055352  -0.0000063721
       -0.0000083547   0.0000073076  -0.0000038331  -0.0000473489  -0.0000491210
        0.0000001625  -0.0000370567   0.0000848735  -0.0000001102  -0.0000171462
       -0.0000650844   0.0000027152   0.0000200689   0.0000546812  -0.0000029389
       -0.0000273514  -0.0000025769   0.0000008853   0.0000561825   0.0000498539
        0.0000001910   0.0000441545  -0.0000301448   0.0000006978   0.0000126105
       -0.0003405457  -0.0002385713  -0.0009146540   0.0015472178   0.0144319873
       -0.0104261411   0.0004081248  -0.0010563475  -0.0003511201   0.0001404349
        0.0006518371   0.0001616516   0.0004907608  -0.0007627919   0.0003017614
       -0.0060582864   0.0237575498   0.0177786253   0.0016502668  -0.0169160177
       -0.0131981066  -0.2361191983  -0.0002766636   0.0817466697  -0.1516362186
        0.0004691480  -0.1132392779   0.0001491636  -0.0005545080   0.0000678364
        0.0002862130   0.0009906090  -0.0002245547  -0.0000521040  -0.0000782277
       -0.0000222897  -0.0000506849   0.0000905995   0.0000081647  -0.0000139162
        0.0000461329   0.0000189410  -0.0000099354   0.0000081766  -0.0000092361
       -0.0000070950  -0.0000066359  -0.0000077082  -0.0002429584  -0.0006277576
       -0.0000125186  -0.0000304508  -0.0000983203  -0.0000121332   0.0000148343
       -0.0002112088  -0.0000136634  -0.0001494161   0.0000633106   0.0001351392
       -0.0000868918  -0.0000171688  -0.0001465619   0.0000089298   0.0001275640
        0.0000268451   0.0000104006   0.0000006060   0.0000002457  -0.0000012382
       -0.0000018829  -0.0000116835   0.0000045860   0.0000080437   0.0000289079
        0.0000228928   0.0000020182   0.0000139337  -0.0000052105   0.0000003392
        0.0000058803   0.0000154527   0.0000067321   0.0000072348   0.0000061936
        0.0000084720  -0.0000111865  -0.0000024549  -0.0000046368   0.0000093703
        0.0000016916   0.0000021323   0.0000029019   0.0000136397  -0.0000033165
        0.0000128563   0.0000216741   0.0000037249   0.0000105441  -0.0000068077
        0.0000000093   0.0000067426   0.0000110707  -0.0000075639   0.0000049140
        0.0000070911  -0.0000074703  -0.0000064684   0.0000113680   0.0000026512
        0.0000076057  -0.0000007049  -0.0000023843   0.0000042547  -0.0000014059
        0.0000024435   0.0000085522  -0.0000065408   0.0000006983   0.0000181355
       -0.0000109570   0.0000001093  -0.0000076322   0.0000027314   0.0000000267
       -0.0000173398  -0.0003827452   0.0006244722  -0.0001811394
        0.0020395564  -0.0298877517  -0.0096742916   0.0125822006  -0.1449271706
       -0.0604733199  -0.0022993280   0.4357734056   0.0103709520  -0.0097286902
       -0.1278912971   0.0470795884  -0.0018209978  -0.0311411261   0.0083547525
        0.0005825100  -0.0033013075  -0.0027587854  -0.0001124197  -0.0011426434
        0.0005453187  -0.0074547174  -0.0026030148   0.0063122019   0.0011370997
       -0.0000513482  -0.0000011246  -0.0001757466   0.0000586445   0.0003882579
       -0.0000602204   0.0000164677  -0.0001845137  -0.0000431473  -0.0000100486
        0.0001505383  -0.0003596194  -0.0009081153  -0.0011921442   0.0007699485
       -0.0008480449  -0.0009754706   0.0000055672  -0.0000632312   0.0001665870
        0.0000661484  -0.0000192225  -0.0001096990   0.0000275640   0.0001216377
        0.0003405719  -0.0001139306  -0.0000087757  -0.0000175845   0.0002038539
       -0.0000071433  -0.0000002745  -0.0001623927   0.0000049482  -0.0000275699
        0.0000942207  -0.0000118356   0.0001272642  -0.0000893606   0.0000001417
        0.0000725895   0.0001136292  -0.0000001326  -0.0000061338  -0.0000724862
        0.0000029118  -0.0000769545   0.0000536446   0.0000061677  -0.0000819866
        0.0000061391  -0.0000018970  -0.0000184306  -0.0000118166   0.0000039793
       -0.0000173401  -0.0000022152   0.0000009829  -0.0000079820  -0.0000067680
        0.0000021719  -0.0000059094  -0.0000108372  -0.0000053096  -0.0000166479
       -0.0000004418  -0.0000017937  -0.0000078980   0.0000085915  -0.0000039384
       -0.0000045616  -0.0000259331  -0.0000066971  -0.0000464001   0.0000177944