 Entering Gaussian System
 *********************************************
 Gaussian 98:
 frequency output generated by the xtb code
 *********************************************
                         Standard orientation:
 --------------------------------------------------------------------
  Center     Atomic     Atomic              Coordinates (Angstroms)
  Number     Number      Type              X           Y           Z
 --------------------------------------------------------------------
    1          8             0        1.712589   -3.822414    0.131331
    2          6             0        1.740529   -2.564996    0.103066
    3          6             0        1.886838   -1.822563   -1.131998
    4          6             0        2.227097   -2.538392   -2.294831
    5          6             0        2.487043   -1.863251   -3.463652
    6          6             0        2.392358   -0.478399   -3.510617
    7          6             0        2.013405    0.225816   -2.378592
    8          6             0        1.742064   -0.428781   -1.186697
    9          6             0        1.167874    0.329500   -0.006070
   10          6             0        1.661791    1.762365   -0.033552
   11          6             0        3.030532    1.986320    0.109359
   12          6             0        3.541833    3.268491    0.075286
   13          6             0        2.693685    4.349817   -0.107247
   14          6             0        1.335169    4.135771   -0.260324
   15          6             0        0.820603    2.850370   -0.226070
   16          6             0       -0.360778    0.251247   -0.043498
   17          6             0       -1.045875   -0.160016   -1.180440
   18          6             0       -2.427963   -0.227669   -1.194508
   19          6             0       -3.135760    0.121960   -0.059644
   20         35             0       -5.039066    0.035214   -0.071211
   21          6             0       -2.478150    0.539038    1.084871
   22          6             0       -1.098162    0.599037    1.085100
   23          6             0        1.609103   -0.365176    1.271523
   24          6             0        1.774520    0.350353    2.447423
   25          6             0        2.003212   -0.297439    3.651385
   26          6             0        2.054281   -1.684443    3.691429
   27          6             0        1.915053   -2.418052    2.537854
   28          6             0        1.730988   -1.760694    1.307040
   29          1             0        2.307113   -3.612132   -2.232213
   30          1             0        2.777583   -2.418961   -4.343044
   31          1             0        2.594108    0.053942   -4.427346
   32          1             0        1.892762    1.298248   -2.428862
   33          1             0        3.691284    1.142674    0.249060
   34          1             0        4.603861    3.426275    0.189974
   35          1             0        3.091464    5.353185   -0.133611
   36          1             0        0.668667    4.972251   -0.410004
   37          1             0       -0.240765    2.698922   -0.355075
   38          1             0       -0.506108   -0.428857   -2.075090
   39          1             0       -2.947453   -0.549659   -2.083842
   40          1             0       -3.037514    0.812203    1.966343
   41          1             0       -0.591161    0.921215    1.981448
   42          1             0        1.708061    1.428996    2.425001
   43          1             0        2.124827    0.281890    4.553767
   44          1             0        2.222448   -2.195902    4.627723
   45          1             0        1.975842   -3.494906    2.540398
 --------------------------------------------------------------------
     1 basis functions        1 primitive gaussians
     1 alpha electrons        1 beta electrons
 
 Harmonic frequencies (cm**-1), IR intensities (km*mol⁻¹),
 Raman scattering activities (A**4/amu), Raman depolarization ratios,
 reduced masses (AMU), force constants (mDyne/A) and normal coordinates:
                      1                      2                      3
                        a                      a                      a 
 Frequencies --    10.5312                24.5753                38.4867
 Red. masses --    13.4711                29.8352                16.6962
 Frc consts  --     0.0000                 0.0000                 0.0000
 IR Inten    --     0.0764                 1.0630                 0.5162
 Raman Activ --     0.0000                 0.0000                 0.0000
 Depolar     --     0.0000                 0.0000                 0.0000
 Atom AN      X      Y      Z        X      Y      Z        X      Y      Z
   1   8    -0.03  -0.01   0.09    -0.50   0.06  -0.02     0.33   0.03   0.06
   2   6    -0.01  -0.01   0.06    -0.26   0.05  -0.01     0.14   0.03   0.03
   3   6    -0.04  -0.03   0.04    -0.13   0.03  -0.01     0.02   0.02   0.01
   4   6    -0.09  -0.05   0.04    -0.18  -0.00  -0.00     0.01   0.02   0.00
   5   6    -0.09  -0.07   0.03    -0.06  -0.02   0.01    -0.12   0.01  -0.03
   6   6    -0.05  -0.07   0.02     0.11  -0.01   0.02    -0.23   0.01  -0.06
   7   6    -0.02  -0.05   0.02     0.14   0.03   0.01    -0.20   0.00  -0.05
   8   6    -0.02  -0.03   0.03     0.02   0.05  -0.01    -0.07   0.01  -0.01
   9   6     0.00  -0.02   0.03     0.04   0.08  -0.02    -0.04   0.03  -0.01
  10   6    -0.02  -0.01   0.01     0.08   0.07  -0.01     0.06  -0.01   0.00
  11   6    -0.01   0.01  -0.13     0.09   0.03  -0.03     0.10  -0.15  -0.13
  12   6    -0.04   0.02  -0.14     0.12   0.02  -0.02     0.22  -0.19  -0.09
  13   6    -0.08   0.01   0.00     0.14   0.04   0.01     0.30  -0.10   0.09
  14   6    -0.09  -0.01   0.15     0.13   0.08   0.03     0.26   0.04   0.22
  15   6    -0.07  -0.02   0.16     0.10   0.09   0.02     0.14   0.08   0.18
  16   6     0.00  -0.03   0.03     0.04   0.10  -0.03    -0.05   0.08  -0.03
  17   6     0.00   0.32  -0.10     0.04   0.15  -0.05    -0.04   0.08  -0.03
  18   6     0.00   0.34  -0.13     0.05   0.08  -0.04    -0.04   0.05  -0.03
  19   6    -0.00   0.01  -0.04     0.05  -0.03  -0.00    -0.05   0.02  -0.03
  20  35    -0.01   0.08  -0.21     0.14  -0.47   0.10    -0.12  -0.25  -0.04
  21   6    -0.01  -0.34   0.09     0.04  -0.04   0.00    -0.06   0.05  -0.04
  22   6    -0.00  -0.35   0.12     0.04   0.03  -0.01    -0.06   0.08  -0.03
  23   6     0.06   0.01   0.02    -0.00   0.06  -0.02    -0.06   0.04  -0.00
  24   6     0.11   0.03  -0.00     0.07   0.05  -0.02    -0.14   0.06  -0.00
  25   6     0.17   0.06   0.00     0.01   0.03  -0.02    -0.14   0.09   0.01
  26   6     0.18   0.06   0.02    -0.14   0.03  -0.01    -0.05   0.09   0.03
  27   6     0.12   0.03   0.05    -0.23   0.03  -0.01     0.04   0.07   0.03
  28   6     0.06   0.01   0.04    -0.16   0.05  -0.01     0.03   0.05   0.01
  29   1    -0.03  -0.02   0.01    -0.09  -0.00  -0.00     0.03   0.01   0.01
  30   1    -0.04  -0.03   0.01    -0.03  -0.01   0.01    -0.04   0.00  -0.01
  31   1    -0.02  -0.02   0.00     0.06  -0.01   0.01    -0.10  -0.00  -0.03
  32   1     0.00  -0.01   0.00     0.08   0.01   0.00    -0.08  -0.00  -0.02
  33   1     0.00   0.00  -0.07     0.02   0.00  -0.02     0.01  -0.06  -0.07
  34   1    -0.01   0.01  -0.07     0.04  -0.00  -0.01     0.07  -0.09  -0.06
  35   1    -0.03   0.01  -0.00     0.05   0.01   0.00     0.11  -0.04   0.03
  36   1    -0.04  -0.00   0.08     0.04   0.03   0.02     0.09   0.03   0.11
  37   1    -0.02  -0.01   0.08     0.03   0.03   0.01     0.03   0.06   0.08
  38   1     0.00   0.17  -0.05     0.01   0.07  -0.02    -0.01   0.03  -0.01
  39   1     0.00   0.18  -0.07     0.01   0.03  -0.01    -0.01   0.01  -0.01
  40   1    -0.00  -0.17   0.05     0.01  -0.03   0.01    -0.02   0.01  -0.01
  41   1    -0.00  -0.18   0.06     0.01   0.00  -0.00    -0.02   0.02  -0.01
  42   1     0.02   0.01  -0.01     0.05   0.02  -0.01    -0.05   0.02  -0.01
  43   1     0.06   0.02  -0.00     0.02   0.01  -0.01    -0.06   0.03   0.00
  44   1     0.07   0.02   0.01    -0.06   0.00  -0.00    -0.02   0.03   0.01
  45   1     0.03   0.01   0.02    -0.10   0.01  -0.00     0.03   0.02   0.01
                      4                      5                      6
                        a                      a                      a 
 Frequencies --    49.9784                53.0868                66.7976
 Red. masses --    14.7938                14.3390                16.1059
 Frc consts  --     0.0000                 0.0000                 0.0000
 IR Inten    --     0.0650                 0.0712                 0.3503
 Raman Activ --     0.0000                 0.0000                 0.0000
 Depolar     --     0.0000                 0.0000                 0.0000
 Atom AN      X      Y      Z        X      Y      Z        X      Y      Z
   1   8     0.19  -0.01  -0.05    -0.05  -0.01  -0.02    -0.21   0.02  -0.06
   2   6     0.08  -0.00  -0.02    -0.02  -0.01  -0.02    -0.10   0.02  -0.00
   3   6     0.09   0.02  -0.01     0.09  -0.02  -0.02    -0.02   0.06   0.03
   4   6     0.21   0.06   0.01     0.26  -0.02   0.03     0.09   0.12   0.03
   5   6     0.21   0.08   0.02     0.35  -0.03   0.05     0.18   0.17   0.08
   6   6     0.09   0.07   0.02     0.24  -0.04   0.00     0.12   0.17   0.13
   7   6    -0.01   0.04   0.01     0.07  -0.04  -0.05    -0.00   0.11   0.12
   8   6    -0.00   0.01   0.00     0.02  -0.03  -0.06    -0.05   0.06   0.08
   9   6    -0.01  -0.00   0.01    -0.01  -0.02  -0.08    -0.07   0.01   0.11
  10   6     0.01  -0.01  -0.01    -0.04  -0.01  -0.07    -0.03  -0.00   0.09
  11   6     0.01  -0.02   0.07    -0.01  -0.02  -0.32    -0.00  -0.08  -0.07
  12   6     0.03  -0.03  -0.05    -0.02  -0.01  -0.26     0.09  -0.12  -0.28
  13   6     0.06  -0.04  -0.26    -0.07   0.01   0.08     0.14  -0.09  -0.32
  14   6     0.07  -0.04  -0.32    -0.10   0.02   0.34     0.10  -0.01  -0.10
  15   6     0.04  -0.02  -0.19    -0.08   0.01   0.26     0.01   0.03   0.10
  16   6    -0.02   0.04   0.01    -0.01  -0.05  -0.05    -0.07   0.01   0.09
  17   6    -0.04   0.26  -0.06    -0.04  -0.08  -0.02    -0.04  -0.06   0.10
  18   6    -0.04   0.27  -0.05    -0.04  -0.07   0.01    -0.04  -0.07   0.06
  19   6    -0.02   0.04   0.04    -0.01  -0.02   0.02    -0.07  -0.01   0.02
  20  35    -0.04  -0.03   0.24    -0.04   0.14   0.20    -0.21  -0.05  -0.18
  21   6     0.00  -0.17   0.10     0.02   0.00  -0.01    -0.11   0.04   0.02
  22   6     0.00  -0.16   0.08     0.02  -0.02  -0.04    -0.10   0.05   0.06
  23   6    -0.04  -0.03   0.01    -0.01   0.01  -0.07    -0.04  -0.02   0.08
  24   6    -0.11  -0.05   0.03     0.01   0.03  -0.08     0.05  -0.05   0.08
  25   6    -0.23  -0.07   0.04    -0.07   0.04  -0.06     0.21  -0.08   0.03
  26   6    -0.27  -0.07   0.02    -0.18   0.04  -0.02     0.27  -0.08  -0.01
  27   6    -0.17  -0.05  -0.00    -0.17   0.02  -0.01     0.15  -0.05  -0.02
  28   6    -0.04  -0.03  -0.01    -0.07   0.00  -0.03    -0.01  -0.02   0.03
  29   1     0.09   0.02   0.00     0.10  -0.00   0.02     0.04   0.03  -0.00
  30   1     0.09   0.03   0.01     0.14  -0.01   0.03     0.08   0.06   0.03
  31   1     0.02   0.03   0.01     0.08  -0.01   0.00     0.05   0.06   0.05
  32   1    -0.02   0.01   0.00     0.00  -0.01  -0.02    -0.01   0.03   0.04
  33   1    -0.01  -0.00   0.06     0.01  -0.01  -0.16    -0.01  -0.03  -0.02
  34   1     0.01  -0.01   0.00    -0.00  -0.01  -0.13     0.03  -0.05  -0.13
  35   1     0.02  -0.02  -0.11    -0.02   0.00   0.04     0.06  -0.03  -0.15
  36   1     0.03  -0.01  -0.14    -0.04   0.01   0.17     0.04   0.01  -0.03
  37   1     0.01  -0.01  -0.07    -0.03   0.01   0.13    -0.00   0.03   0.07
  38   1    -0.01   0.12  -0.03    -0.02  -0.03  -0.01    -0.00  -0.03   0.04
  39   1    -0.02   0.13  -0.03    -0.02  -0.03   0.01    -0.00  -0.04   0.02
  40   1     0.01  -0.10   0.05     0.01   0.01  -0.00    -0.04   0.02  -0.00
  41   1     0.00  -0.09   0.04     0.01  -0.00  -0.02    -0.04   0.02   0.02
  42   1    -0.02  -0.01   0.01     0.02   0.01  -0.03     0.00  -0.02   0.03
  43   1    -0.08  -0.02   0.02    -0.02   0.02  -0.02     0.08  -0.03   0.01
  44   1    -0.11  -0.03   0.01    -0.07   0.01  -0.00     0.12  -0.03  -0.01
  45   1    -0.05  -0.01  -0.00    -0.07   0.00   0.01     0.05  -0.01  -0.01
                      7                      8                      9
                        a                      a                      a 
 Frequencies --    70.6679               113.8334               118.3391
 Red. masses --    16.9150                14.0524                13.3639
 Frc consts  --     0.0000                 0.0000                 0.0000
 IR Inten    --     0.3006                 0.4890                 0.2904
 Raman Activ --     0.0000                 0.0000                 0.0000
 Depolar     --     0.0000                 0.0000                 0.0000
 Atom AN      X      Y      Z        X      Y      Z        X      Y      Z
   1   8     0.11   0.01  -0.03    -0.20   0.09  -0.02    -0.12  -0.04   0.00
   2   6     0.06   0.01   0.01    -0.04   0.07  -0.01    -0.04  -0.04   0.02
   3   6     0.01   0.04   0.02     0.07   0.06  -0.01     0.11  -0.02   0.05
   4   6    -0.14   0.05  -0.03     0.18   0.07   0.02     0.34  -0.00   0.11
   5   6    -0.26   0.07  -0.05     0.04   0.07  -0.02     0.11  -0.02   0.05
   6   6    -0.21   0.07  -0.01    -0.19   0.05  -0.08    -0.33  -0.06  -0.07
   7   6    -0.05   0.06   0.05    -0.20   0.04  -0.08    -0.36  -0.07  -0.07
   8   6     0.05   0.04   0.06    -0.03   0.04  -0.04    -0.06  -0.04   0.01
   9   6     0.08   0.01   0.09     0.00   0.03  -0.02     0.01  -0.02   0.03
  10   6     0.02   0.03   0.07     0.02   0.01  -0.04     0.02  -0.01  -0.00
  11   6     0.03   0.08  -0.14     0.02  -0.04   0.05     0.00   0.04  -0.00
  12   6    -0.01   0.10  -0.32     0.07  -0.07   0.14    -0.05   0.06   0.03
  13   6    -0.07   0.06  -0.26     0.12  -0.03   0.09    -0.08   0.04   0.04
  14   6    -0.09   0.01   0.01     0.13   0.02  -0.05    -0.07  -0.02   0.00
  15   6    -0.04  -0.00   0.17     0.07   0.04  -0.10    -0.02  -0.04  -0.02
  16   6     0.08  -0.04   0.09     0.00  -0.11   0.05     0.01   0.08   0.03
  17   6     0.11  -0.11   0.10     0.00  -0.19   0.08     0.02   0.14   0.01
  18   6     0.11  -0.12   0.07     0.01  -0.26   0.10     0.02   0.18  -0.01
  19   6     0.09  -0.05   0.04     0.01  -0.26   0.10     0.02   0.19  -0.02
  20  35     0.25   0.06  -0.16    -0.03   0.17  -0.12     0.10  -0.16  -0.09
  21   6     0.06  -0.02   0.04     0.01  -0.34   0.13     0.01   0.24  -0.03
  22   6     0.06  -0.02   0.07     0.01  -0.26   0.10     0.01   0.18  -0.00
  23   6     0.07  -0.02   0.07     0.07   0.07  -0.03     0.03  -0.03   0.02
  24   6     0.04  -0.06   0.10     0.13   0.10  -0.06     0.20  -0.06   0.01
  25   6    -0.14  -0.11   0.10     0.08   0.12  -0.04     0.23  -0.08  -0.01
  26   6    -0.28  -0.12   0.07    -0.09   0.11   0.00     0.01  -0.09   0.01
  27   6    -0.20  -0.08   0.04    -0.15   0.09   0.02    -0.16  -0.08   0.02
  28   6    -0.01  -0.03   0.03    -0.03   0.07  -0.00    -0.08  -0.05   0.02
  29   1    -0.05   0.01  -0.02     0.10   0.03   0.01     0.18   0.01   0.05
  30   1    -0.11   0.02  -0.03     0.03   0.02  -0.00     0.07  -0.00   0.02
  31   1    -0.09   0.02  -0.01    -0.10   0.01  -0.04    -0.17  -0.02  -0.04
  32   1    -0.01   0.02   0.02    -0.10   0.01  -0.03    -0.17  -0.03  -0.03
  33   1     0.02   0.03  -0.06    -0.01  -0.02   0.02     0.01   0.02  -0.00
  34   1     0.00   0.04  -0.15     0.02  -0.03   0.07    -0.02   0.03   0.01
  35   1    -0.03   0.02  -0.12     0.04  -0.01   0.05    -0.04   0.01   0.02
  36   1    -0.04  -0.00   0.02     0.05   0.01  -0.03    -0.03  -0.01  -0.00
  37   1    -0.02  -0.01   0.10     0.02   0.02  -0.05    -0.00  -0.02  -0.01
  38   1     0.04  -0.04   0.03    -0.00  -0.05   0.02     0.00   0.03   0.01
  39   1     0.04  -0.05   0.02     0.00  -0.07   0.03     0.01   0.05  -0.00
  40   1     0.01   0.01   0.00     0.00  -0.12   0.04    -0.00   0.08  -0.01
  41   1     0.01   0.01   0.02     0.00  -0.08   0.03     0.01   0.06  -0.00
  42   1     0.04  -0.02   0.03     0.05   0.03  -0.02     0.09  -0.01   0.01
  43   1    -0.05  -0.04   0.04     0.04   0.04  -0.02     0.12  -0.03  -0.01
  44   1    -0.13  -0.05   0.02    -0.05   0.04   0.01    -0.00  -0.03   0.00
  45   1    -0.08  -0.02   0.00    -0.08   0.02   0.02    -0.09  -0.02   0.01
                     10                     11                     12
                        a                      a                      a 
 Frequencies --   133.3309               171.5104               187.3529
 Red. masses --    15.0747                18.9378                22.8896
 Frc consts  --     0.0000                 0.0000                 0.0000
 IR Inten    --     1.3611                 0.5517                 0.7194
 Raman Activ --     0.0000                 0.0000                 0.0000
 Depolar     --     0.0000                 0.0000                 0.0000
 Atom AN      X      Y      Z        X      Y      Z        X      Y      Z
   1   8    -0.47   0.03  -0.03    -0.03   0.02   0.05     0.03   0.02   0.02
   2   6    -0.08   0.02  -0.01     0.01   0.02   0.05     0.01   0.01   0.01
   3   6     0.08   0.01   0.00     0.09   0.03   0.06     0.07   0.03   0.05
   4   6     0.16   0.01   0.03     0.04   0.09   0.01     0.08  -0.07   0.12
   5   6     0.03   0.00  -0.01    -0.11   0.14   0.00    -0.02  -0.18   0.05
   6   6    -0.16  -0.02  -0.06    -0.12   0.14   0.03    -0.07  -0.19  -0.04
   7   6    -0.14  -0.02  -0.05     0.01   0.10   0.09     0.03  -0.08  -0.06
   8   6     0.03  -0.00  -0.01     0.10   0.03   0.07     0.10   0.04   0.02
   9   6     0.03  -0.02  -0.00    -0.03  -0.04   0.02     0.09   0.10   0.00
  10   6     0.02  -0.01   0.02    -0.08  -0.04   0.09     0.13   0.14   0.04
  11   6     0.01   0.01  -0.01    -0.07  -0.08   0.10     0.12   0.23   0.05
  12   6    -0.01   0.01  -0.04    -0.03  -0.11   0.01     0.08   0.26  -0.02
  13   6    -0.03  -0.00  -0.04     0.00  -0.10  -0.08     0.07   0.24  -0.06
  14   6    -0.03  -0.02   0.02    -0.01  -0.06  -0.01     0.08   0.17   0.01
  15   6    -0.01  -0.03   0.04    -0.06  -0.03   0.09     0.12   0.15   0.06
  16   6     0.04  -0.02  -0.03    -0.00  -0.11  -0.23     0.04   0.06  -0.10
  17   6     0.05   0.00  -0.04     0.03  -0.08  -0.27     0.02  -0.01  -0.07
  18   6     0.05   0.01  -0.04     0.02  -0.05  -0.31     0.00  -0.13  -0.08
  19   6     0.06  -0.01  -0.03     0.03  -0.05  -0.30    -0.06  -0.16  -0.10
  20  35     0.22   0.03   0.08     0.11   0.08   0.31    -0.40   0.07   0.11
  21   6     0.05  -0.02  -0.03     0.01  -0.05  -0.30    -0.03  -0.15  -0.11
  22   6     0.04  -0.02  -0.03    -0.01  -0.08  -0.25    -0.03  -0.04  -0.12
  23   6    -0.03  -0.01   0.02    -0.09  -0.01   0.06    -0.00   0.02   0.03
  24   6    -0.36  -0.02   0.08     0.04   0.02   0.03    -0.01  -0.10   0.10
  25   6    -0.39  -0.01   0.08     0.16   0.05   0.02     0.03  -0.20   0.05
  26   6     0.08   0.01   0.01     0.05   0.05   0.06     0.06  -0.20  -0.02
  27   6     0.38   0.02  -0.03    -0.13   0.02   0.10     0.02  -0.10  -0.07
  28   6     0.15   0.02   0.00    -0.09  -0.01   0.08    -0.01   0.01  -0.01
  29   1     0.08   0.01   0.02     0.02   0.02  -0.01     0.03  -0.02   0.07
  30   1     0.02   0.00   0.00    -0.06   0.05  -0.01    -0.02  -0.07   0.02
  31   1    -0.08  -0.01  -0.03    -0.07   0.05   0.00    -0.05  -0.07  -0.03
  32   1    -0.07  -0.01  -0.02    -0.00   0.03   0.04     0.02  -0.02  -0.04
  33   1     0.01   0.00  -0.00    -0.03  -0.03   0.04     0.05   0.08   0.02
  34   1    -0.00   0.01  -0.02    -0.01  -0.04  -0.00     0.02   0.08  -0.01
  35   1    -0.01   0.00  -0.02     0.01  -0.03  -0.06     0.01   0.07  -0.04
  36   1    -0.01  -0.01   0.01     0.01  -0.01  -0.01     0.01   0.04   0.00
  37   1    -0.00  -0.01   0.02    -0.02  -0.00   0.04     0.03   0.04   0.03
  38   1     0.01   0.00  -0.01     0.02  -0.03  -0.07     0.00   0.00  -0.03
  39   1     0.01   0.01  -0.01     0.01  -0.01  -0.09     0.02  -0.05  -0.03
  40   1     0.01  -0.01  -0.01    -0.00  -0.01  -0.09    -0.00  -0.06  -0.03
  41   1     0.01  -0.01  -0.01    -0.00  -0.03  -0.07    -0.02  -0.00  -0.03
  42   1    -0.16  -0.01   0.03     0.02   0.01   0.00    -0.00  -0.03   0.06
  43   1    -0.20  -0.01   0.04     0.09   0.02  -0.00     0.01  -0.07   0.02
  44   1     0.05   0.00   0.00     0.03   0.02   0.02     0.03  -0.08  -0.02
  45   1     0.20   0.01  -0.02    -0.06   0.00   0.04     0.01  -0.03  -0.05
                     13                     14                     15
                        a                      a                      a 
 Frequencies --   202.1219               238.1670               247.8206
 Red. masses --    28.0266                10.6493                11.3364
 Frc consts  --     0.0000                 0.0000                 0.0000
 IR Inten    --     0.0592                 0.0048                 0.2203
 Raman Activ --     0.0000                 0.0000                 0.0000
 Depolar     --     0.0000                 0.0000                 0.0000
 Atom AN      X      Y      Z        X      Y      Z        X      Y      Z
   1   8    -0.26   0.01  -0.03     0.01  -0.01   0.17     0.05  -0.22  -0.03
   2   6     0.19   0.00   0.01    -0.03  -0.01   0.06    -0.10  -0.19  -0.01
   3   6     0.22  -0.02  -0.02    -0.06  -0.02   0.05    -0.09  -0.13  -0.01
   4   6     0.06   0.03  -0.10    -0.06   0.07  -0.01    -0.01   0.02  -0.09
   5   6    -0.12   0.07  -0.12     0.00   0.16   0.05     0.05   0.16  -0.01
   6   6    -0.02   0.08  -0.04    -0.00   0.16   0.11    -0.03   0.15   0.05
   7   6     0.16   0.04   0.04    -0.07   0.07   0.12    -0.10   0.01   0.10
   8   6     0.19  -0.02   0.01    -0.04  -0.03   0.07    -0.05  -0.12   0.04
   9   6     0.13  -0.08   0.02     0.01   0.01   0.03     0.07  -0.04  -0.00
  10   6     0.10  -0.08  -0.01     0.07  -0.02  -0.26     0.29  -0.09   0.07
  11   6     0.10  -0.02  -0.02     0.09  -0.01  -0.44     0.27   0.11   0.07
  12   6     0.02   0.01  -0.00     0.03   0.02  -0.12     0.07   0.21  -0.01
  13   6    -0.05  -0.04   0.03    -0.05   0.04   0.33    -0.07   0.10  -0.06
  14   6    -0.03  -0.11   0.00     0.00  -0.01  -0.06    -0.05  -0.10   0.03
  15   6     0.05  -0.14  -0.02     0.08  -0.05  -0.42     0.18  -0.18   0.09
  16   6     0.08  -0.09   0.04     0.00   0.03  -0.00     0.04   0.12  -0.03
  17   6     0.01  -0.01   0.04     0.03   0.01  -0.02     0.02   0.06  -0.01
  18   6    -0.01   0.11   0.01     0.03  -0.04  -0.07     0.02  -0.07   0.03
  19   6    -0.07   0.14  -0.03     0.00  -0.06  -0.08     0.00  -0.11   0.03
  20  35    -0.49  -0.08   0.01    -0.01   0.03   0.05    -0.08   0.03  -0.01
  21   6    -0.01   0.12  -0.06    -0.02  -0.06  -0.06     0.02  -0.07   0.01
  22   6     0.02  -0.02  -0.01    -0.03   0.00  -0.02     0.01   0.05  -0.02
  23   6     0.25  -0.02   0.01    -0.02   0.02   0.07    -0.13  -0.14  -0.05
  24   6     0.21   0.04  -0.02    -0.01  -0.05   0.12    -0.16   0.01  -0.15
  25   6    -0.04   0.08   0.05    -0.01  -0.12   0.10    -0.00   0.19  -0.11
  26   6    -0.17   0.07   0.10     0.03  -0.13   0.05     0.09   0.20  -0.01
  27   6     0.06   0.03   0.09     0.03  -0.06   0.01    -0.06   0.04   0.09
  28   6     0.27  -0.02   0.03    -0.02   0.01   0.05    -0.16  -0.15   0.00
  29   1     0.01   0.01  -0.05    -0.02   0.02  -0.03     0.01   0.01  -0.06
  30   1    -0.09   0.03  -0.06     0.01   0.06   0.01     0.04   0.07  -0.01
  31   1    -0.03   0.03  -0.01     0.01   0.06   0.04    -0.01   0.07   0.03
  32   1     0.05   0.01   0.03    -0.04   0.02   0.05    -0.05   0.00   0.07
  33   1     0.04   0.00  -0.01     0.04  -0.01  -0.19     0.12   0.07   0.03
  34   1     0.00   0.02  -0.00     0.01   0.01  -0.03     0.01   0.11  -0.01
  35   1    -0.03  -0.00   0.02    -0.04   0.03   0.24    -0.06   0.04  -0.04
  36   1    -0.02  -0.04   0.00    -0.01  -0.00   0.00    -0.06  -0.06   0.01
  37   1     0.02  -0.06  -0.01     0.03  -0.03  -0.18     0.06  -0.09   0.03
  38   1    -0.00  -0.02   0.01     0.02   0.01  -0.00     0.00   0.03  -0.01
  39   1     0.01   0.04  -0.01     0.02  -0.01  -0.02     0.01  -0.03   0.01
  40   1     0.01   0.05  -0.01    -0.02  -0.02  -0.02     0.01  -0.03   0.01
  41   1    -0.00  -0.02   0.00    -0.02   0.01  -0.00    -0.00   0.03  -0.01
  42   1     0.07   0.01  -0.02     0.01  -0.01   0.05    -0.06   0.00  -0.09
  43   1    -0.05   0.03   0.01    -0.00  -0.05   0.04     0.02   0.08  -0.05
  44   1    -0.12   0.03   0.05     0.02  -0.05   0.01     0.07   0.09   0.00
  45   1     0.00   0.01   0.05     0.02  -0.02  -0.02    -0.01   0.01   0.08
                     16                     17                     18
                        a                      a                      a 
 Frequencies --   267.0032               285.6027               293.8319
 Red. masses --    11.2159                12.0556                14.1112
 Frc consts  --     0.0000                 0.0000                 0.0000
 IR Inten    --     0.0933                 1.8442                 1.2291
 Raman Activ --     0.0000                 0.0000                 0.0000
 Depolar     --     0.0000                 0.0000                 0.0000
 Atom AN      X      Y      Z        X      Y      Z        X      Y      Z
   1   8     0.02  -0.04   0.08    -0.10  -0.32   0.12    -0.04   0.07   0.75
   2   6    -0.03  -0.04  -0.00     0.10  -0.28   0.02    -0.01   0.04   0.01
   3   6    -0.30  -0.06  -0.06     0.12  -0.16   0.08    -0.00  -0.10  -0.08
   4   6    -0.22  -0.03  -0.05     0.10  -0.02  -0.02     0.02   0.01  -0.16
   5   6     0.23   0.05   0.09    -0.10   0.09  -0.01     0.04   0.11  -0.12
   6   6     0.09   0.03   0.07    -0.07   0.09   0.11     0.02   0.11  -0.07
   7   6    -0.35  -0.03  -0.04     0.07  -0.03   0.22    -0.02   0.01  -0.02
   8   6    -0.25  -0.05  -0.04     0.05  -0.14   0.14     0.02  -0.07  -0.06
   9   6     0.00   0.00   0.03    -0.07   0.01  -0.02     0.02  -0.01  -0.08
  10   6     0.01   0.02   0.04    -0.20   0.14  -0.05     0.03  -0.03  -0.00
  11   6     0.01   0.05   0.09    -0.19   0.11  -0.04     0.02  -0.01   0.11
  12   6     0.01   0.05   0.05    -0.02   0.04   0.01    -0.00  -0.01   0.04
  13   6     0.03   0.05  -0.06     0.14   0.16   0.00    -0.02  -0.04  -0.10
  14   6     0.03   0.04  -0.00     0.12   0.26  -0.02    -0.03  -0.05   0.04
  15   6     0.02   0.04   0.09    -0.05   0.30  -0.03    -0.01  -0.05   0.10
  16   6     0.00  -0.04   0.05    -0.06  -0.02  -0.03     0.02   0.01  -0.14
  17   6     0.06  -0.04   0.00    -0.06  -0.02  -0.02    -0.07   0.02  -0.09
  18   6     0.06  -0.04  -0.15    -0.06   0.01   0.02    -0.08   0.01   0.09
  19   6    -0.00   0.00  -0.20    -0.01   0.01   0.04     0.01  -0.02   0.15
  20  35     0.01   0.01   0.09     0.08  -0.00  -0.02    -0.04  -0.01  -0.08
  21   6    -0.06   0.01  -0.16    -0.01   0.00   0.04     0.10  -0.00   0.09
  22   6    -0.07  -0.04  -0.00    -0.01  -0.01  -0.00     0.11   0.03  -0.09
  23   6     0.25   0.01  -0.04     0.03  -0.11  -0.12    -0.01   0.10  -0.02
  24   6     0.29   0.01  -0.04     0.05  -0.06  -0.17     0.01   0.00   0.05
  25   6    -0.08  -0.00   0.02    -0.04   0.03  -0.12     0.00  -0.12  -0.01
  26   6    -0.20  -0.01   0.04    -0.07   0.04  -0.04    -0.00  -0.12  -0.09
  27   6     0.17   0.01  -0.02     0.06  -0.03  -0.01    -0.02  -0.00  -0.14
  28   6     0.25   0.01  -0.04     0.09  -0.13  -0.06    -0.01   0.14  -0.05
  29   1    -0.07  -0.01  -0.03     0.05  -0.01  -0.04     0.01   0.00  -0.08
  30   1     0.17   0.03   0.05    -0.06   0.05  -0.03     0.02   0.05  -0.04
  31   1     0.09   0.02   0.04    -0.05   0.05   0.04     0.01   0.05  -0.01
  32   1    -0.14  -0.01  -0.01     0.02  -0.01   0.10    -0.01   0.00   0.02
  33   1     0.01   0.02   0.04    -0.07   0.02  -0.01     0.01   0.00   0.05
  34   1     0.00   0.01   0.02    -0.00  -0.04   0.02    -0.00   0.01   0.02
  35   1     0.01   0.01  -0.05     0.07   0.03   0.01    -0.01  -0.01  -0.07
  36   1     0.01   0.01  -0.01     0.06   0.09  -0.01    -0.01  -0.02   0.02
  37   1     0.00   0.01   0.04    -0.02   0.14  -0.01    -0.00  -0.02   0.05
  38   1     0.03  -0.01   0.01    -0.02  -0.01  -0.01    -0.05   0.01  -0.04
  39   1     0.04  -0.02  -0.05    -0.03   0.01   0.01    -0.05   0.01   0.04
  40   1    -0.04   0.01  -0.06     0.00  -0.00   0.02     0.06   0.00   0.04
  41   1    -0.03  -0.02   0.01     0.01  -0.00  -0.01     0.06   0.02  -0.04
  42   1     0.10   0.00  -0.01     0.02  -0.02  -0.07     0.01   0.00   0.05
  43   1    -0.08  -0.00   0.01    -0.03   0.03  -0.04     0.00  -0.05   0.01
  44   1    -0.14  -0.01   0.02    -0.04   0.03   0.00     0.00  -0.06  -0.04
  45   1     0.05   0.00  -0.01     0.03  -0.01   0.02    -0.01  -0.00  -0.08
                     19                     20                     21
                        a                      a                      a 
 Frequencies --   314.6392               326.5152               347.5628
 Red. masses --    11.8858                11.9836                11.6219
 Frc consts  --     0.0000                 0.0000                 0.0000
 IR Inten    --     0.9112                 0.4481                 1.7505
 Raman Activ --     0.0000                 0.0000                 0.0000
 Depolar     --     0.0000                 0.0000                 0.0000
 Atom AN      X      Y      Z        X      Y      Z        X      Y      Z
   1   8    -0.09   0.00  -0.09    -0.03  -0.01   0.23    -0.20   0.03  -0.02
   2   6     0.16  -0.01   0.02     0.03  -0.01  -0.06     0.40   0.02   0.02
   3   6     0.06   0.03   0.04     0.09  -0.06  -0.06     0.18  -0.06  -0.09
   4   6     0.01  -0.00   0.04     0.16  -0.04  -0.07    -0.17  -0.04  -0.25
   5   6    -0.05  -0.03   0.03    -0.08  -0.04  -0.13     0.10  -0.02  -0.18
   6   6     0.02  -0.02   0.04    -0.01  -0.03  -0.04     0.20  -0.00  -0.09
   7   6     0.03  -0.00   0.03     0.15  -0.05   0.04    -0.18  -0.10  -0.14
   8   6    -0.03   0.01   0.03    -0.03  -0.04   0.00    -0.05  -0.07  -0.07
   9   6    -0.06   0.04   0.00    -0.03   0.03   0.04    -0.04  -0.05   0.00
  10   6    -0.02  -0.03   0.02     0.01  -0.01  -0.00    -0.02   0.01  -0.01
  11   6    -0.02  -0.09   0.02     0.01  -0.03   0.02    -0.03   0.07  -0.00
  12   6    -0.04  -0.09  -0.01    -0.01  -0.03   0.01    -0.00   0.07  -0.01
  13   6    -0.06  -0.11  -0.00    -0.02  -0.04  -0.01     0.04   0.10  -0.01
  14   6    -0.07  -0.08   0.01    -0.03  -0.03   0.01     0.05   0.08   0.01
  15   6    -0.06  -0.07   0.00    -0.01  -0.03   0.02     0.04   0.07  -0.01
  16   6    -0.07   0.32  -0.10    -0.04   0.12   0.34    -0.06   0.01   0.02
  17   6    -0.04   0.35  -0.12     0.16   0.11   0.24    -0.06   0.00   0.02
  18   6    -0.02  -0.16   0.03     0.18  -0.07  -0.12    -0.05   0.00  -0.02
  19   6     0.01  -0.46   0.13    -0.01  -0.08  -0.25    -0.04  -0.02  -0.01
  20  35     0.06   0.10  -0.02     0.06   0.04   0.12     0.11   0.01   0.01
  21   6    -0.04  -0.13   0.04    -0.24  -0.01  -0.14    -0.08  -0.02   0.01
  22   6    -0.06   0.36  -0.11    -0.25   0.05   0.25    -0.08   0.03   0.01
  23   6     0.02  -0.01  -0.02     0.02   0.05  -0.04    -0.07  -0.04   0.08
  24   6     0.17  -0.02  -0.03    -0.08   0.06  -0.04    -0.23  -0.07   0.14
  25   6     0.02  -0.02   0.00     0.01   0.01  -0.09     0.18   0.00   0.11
  26   6    -0.13  -0.03   0.05     0.02   0.01  -0.17     0.10  -0.00   0.17
  27   6     0.10  -0.01   0.02    -0.09   0.03  -0.15    -0.22  -0.01   0.20
  28   6     0.17  -0.01   0.01    -0.02   0.07  -0.12     0.14  -0.04   0.10
  29   1     0.00  -0.00   0.02     0.08  -0.01  -0.02    -0.11  -0.02  -0.10
  30   1    -0.03  -0.01   0.00    -0.06  -0.01  -0.05     0.03   0.00  -0.06
  31   1     0.01  -0.01   0.01    -0.02   0.00  -0.01     0.10   0.02  -0.00
  32   1     0.01  -0.00   0.00     0.08  -0.01   0.02    -0.12  -0.04  -0.05
  33   1    -0.01  -0.03   0.01     0.00  -0.01   0.01    -0.00   0.02   0.01
  34   1    -0.01  -0.02  -0.01    -0.00  -0.00   0.00     0.00   0.01  -0.00
  35   1    -0.02  -0.03  -0.00    -0.01  -0.01  -0.01     0.02   0.03  -0.00
  36   1    -0.02  -0.02   0.01    -0.01  -0.01   0.00     0.01   0.02   0.01
  37   1    -0.01  -0.02  -0.01    -0.00  -0.02   0.01     0.01   0.04  -0.00
  38   1    -0.01   0.18  -0.06     0.11   0.06   0.10    -0.01  -0.00   0.01
  39   1    -0.01  -0.06   0.01     0.12  -0.04  -0.07    -0.01   0.00  -0.01
  40   1    -0.02  -0.05   0.01    -0.14  -0.01  -0.09    -0.03  -0.01  -0.00
  41   1    -0.02   0.18  -0.06    -0.14   0.01   0.11    -0.03   0.01   0.01
  42   1     0.07  -0.00  -0.01    -0.05   0.01  -0.01    -0.13  -0.02   0.05
  43   1    -0.01  -0.00  -0.00     0.01  -0.01  -0.02     0.10   0.02   0.02
  44   1    -0.09  -0.01   0.03     0.02  -0.01  -0.06     0.05   0.00   0.05
  45   1     0.04  -0.00   0.00    -0.05   0.01  -0.05    -0.13  -0.01   0.08
                     22                     23                     24
                        a                      a                      a 
 Frequencies --   368.1020               368.5598               371.7608
 Red. masses --    12.4648                14.8583                 8.9708
 Frc consts  --     0.0000                 0.0000                 0.0000
 IR Inten    --     0.0469                 1.3230                 0.0530
 Raman Activ --     0.0000                 0.0000                 0.0000
 Depolar     --     0.0000                 0.0000                 0.0000
 Atom AN      X      Y      Z        X      Y      Z        X      Y      Z
   1   8    -0.04   0.05   0.01     0.06  -0.07  -0.01    -0.01   0.02   0.00
   2   6     0.10   0.03   0.00    -0.13  -0.05  -0.02     0.02   0.01   0.00
   3   6     0.05   0.05   0.04    -0.07  -0.07  -0.05     0.03   0.01   0.01
   4   6     0.02  -0.00   0.09    -0.02  -0.01  -0.10    -0.01  -0.00   0.01
   5   6    -0.07  -0.03   0.07     0.09   0.03  -0.07    -0.02  -0.01   0.01
   6   6     0.01  -0.02   0.07    -0.02   0.02  -0.07     0.02  -0.00   0.02
   7   6     0.03   0.03   0.04    -0.05  -0.04  -0.04     0.00   0.00   0.01
   8   6    -0.05   0.04   0.02     0.06  -0.05  -0.01     0.00   0.01   0.01
   9   6    -0.09   0.01  -0.01     0.11  -0.01   0.02    -0.01   0.00  -0.00
  10   6     0.11  -0.05   0.04    -0.15   0.06  -0.02     0.03  -0.02  -0.01
  11   6     0.10   0.04   0.22    -0.17  -0.03   0.12     0.07  -0.03  -0.36
  12   6     0.06   0.06  -0.20    -0.03  -0.11  -0.11    -0.04   0.04   0.33
  13   6    -0.02   0.03   0.00     0.02  -0.05  -0.00    -0.02  -0.00  -0.00
  14   6    -0.03  -0.04   0.20    -0.02   0.07   0.12     0.03  -0.05  -0.33
  15   6     0.12  -0.10  -0.18    -0.11   0.09  -0.13    -0.03  -0.00   0.35
  16   6    -0.14  -0.01  -0.03     0.18   0.02   0.07    -0.02   0.02   0.01
  17   6    -0.15  -0.33   0.08     0.24  -0.12   0.12    -0.00  -0.22   0.08
  18   6    -0.17   0.24  -0.10     0.22   0.23  -0.07    -0.02   0.21  -0.08
  19   6    -0.10   0.11  -0.03     0.13  -0.12  -0.01    -0.01   0.00  -0.01
  20  35     0.20  -0.01   0.00    -0.26   0.01   0.01     0.03   0.00   0.00
  21   6    -0.13  -0.23   0.10     0.16  -0.23   0.03    -0.02  -0.22   0.07
  22   6    -0.15   0.16  -0.07     0.15   0.33  -0.06    -0.04   0.23  -0.07
  23   6    -0.04   0.02  -0.04     0.06  -0.01   0.04    -0.03   0.00   0.00
  24   6     0.06   0.02  -0.06    -0.05  -0.00   0.06     0.01   0.01  -0.01
  25   6     0.02  -0.02  -0.09    -0.02   0.04   0.08    -0.00  -0.01  -0.02
  26   6    -0.08  -0.03  -0.06     0.08   0.05   0.04    -0.01  -0.01  -0.02
  27   6     0.04  -0.02  -0.07    -0.04   0.03   0.05     0.01  -0.01  -0.02
  28   6     0.08   0.04  -0.04    -0.08  -0.03   0.01    -0.01   0.01  -0.00
  29   1     0.01   0.00   0.04    -0.01  -0.00  -0.05    -0.01  -0.00   0.00
  30   1    -0.04  -0.01   0.01     0.05   0.01  -0.01    -0.01  -0.00  -0.00
  31   1     0.01  -0.01   0.02    -0.01   0.02  -0.02     0.01  -0.00   0.00
  32   1     0.02   0.01   0.00    -0.02  -0.01  -0.00    -0.01   0.00  -0.00
  33   1     0.04   0.03   0.13    -0.08  -0.03   0.08     0.04  -0.01  -0.22
  34   1     0.02   0.03  -0.13    -0.00  -0.06  -0.07    -0.03   0.03   0.21
  35   1    -0.02   0.02  -0.00     0.03  -0.02  -0.00    -0.01   0.00  -0.00
  36   1    -0.03  -0.02   0.12     0.01   0.04   0.08     0.02  -0.03  -0.21
  37   1     0.05  -0.05  -0.13    -0.03   0.05  -0.08    -0.02   0.01   0.22
  38   1    -0.04  -0.21   0.06     0.08  -0.08   0.05     0.01  -0.14   0.05
  39   1    -0.07   0.14  -0.05     0.09   0.15  -0.06    -0.01   0.13  -0.05
  40   1    -0.04  -0.16   0.06     0.05  -0.13   0.03    -0.01  -0.14   0.04
  41   1    -0.04   0.10  -0.04     0.02   0.20  -0.04    -0.02   0.14  -0.04
  42   1     0.02   0.00  -0.01    -0.01  -0.00   0.01     0.01   0.00  -0.00
  43   1     0.01  -0.01  -0.02    -0.01   0.01   0.02     0.00  -0.00  -0.00
  44   1    -0.06  -0.01  -0.01     0.05   0.01   0.01    -0.00  -0.00  -0.00
  45   1     0.02  -0.00  -0.03    -0.02   0.01   0.03     0.01  -0.00  -0.01
                     25                     26                     27
                        a                      a                      a 
 Frequencies --   382.4434               391.8542               433.3454
 Red. masses --    11.9351                11.4810                 9.8427
 Frc consts  --     0.0000                 0.0000                 0.0000
 IR Inten    --     0.5075                 0.6701                 0.8507
 Raman Activ --     0.0000                 0.0000                 0.0000
 Depolar     --     0.0000                 0.0000                 0.0000
 Atom AN      X      Y      Z        X      Y      Z        X      Y      Z
   1   8     0.09   0.01   0.01     0.03   0.00  -0.31    -0.01  -0.01   0.04
   2   6    -0.25   0.03  -0.01    -0.02   0.01  -0.02     0.02  -0.01   0.04
   3   6    -0.18  -0.08  -0.16    -0.05  -0.22  -0.14    -0.42   0.02  -0.05
   4   6     0.23   0.04  -0.16     0.09  -0.18  -0.14     0.14   0.05   0.13
   5   6    -0.02   0.00  -0.27     0.02  -0.03  -0.07    -0.04   0.02   0.07
   6   6    -0.03   0.00  -0.23    -0.08  -0.03   0.19    -0.14   0.01  -0.04
   7   6     0.24  -0.06  -0.08    -0.01  -0.16   0.28     0.22   0.09   0.02
   8   6    -0.11  -0.07  -0.12    -0.06  -0.23   0.18    -0.23   0.02  -0.11
   9   6    -0.05  -0.06   0.00    -0.01  -0.01   0.06     0.01  -0.01  -0.01
  10   6    -0.01  -0.02  -0.00     0.02  -0.01  -0.06    -0.00  -0.00   0.02
  11   6    -0.01   0.05  -0.00     0.02   0.01   0.02     0.00   0.00  -0.02
  12   6    -0.00   0.06  -0.00     0.00   0.02   0.02     0.00   0.00  -0.00
  13   6     0.03   0.09  -0.00     0.00   0.01  -0.03     0.00   0.01   0.02
  14   6     0.04   0.05   0.00     0.00  -0.01   0.01     0.01  -0.00  -0.02
  15   6     0.05   0.04   0.00     0.01  -0.01   0.03     0.00   0.00   0.01
  16   6    -0.09  -0.01   0.01    -0.01  -0.03  -0.07     0.01  -0.05  -0.02
  17   6    -0.11  -0.01   0.00    -0.05  -0.01  -0.07    -0.02  -0.01  -0.03
  18   6    -0.10  -0.00  -0.03    -0.06   0.00   0.01    -0.02   0.02  -0.01
  19   6    -0.07  -0.03  -0.01    -0.01  -0.01   0.04     0.00  -0.04   0.03
  20  35     0.13   0.01   0.00     0.02  -0.00  -0.01    -0.00   0.00  -0.01
  21   6    -0.11  -0.02   0.00     0.02   0.01   0.02     0.03   0.00  -0.01
  22   6    -0.11   0.02   0.00     0.02  -0.01  -0.07     0.03   0.03  -0.06
  23   6    -0.08  -0.06   0.11     0.06   0.25   0.17     0.28  -0.02  -0.09
  24   6     0.22  -0.07   0.11    -0.02   0.19   0.26    -0.27  -0.06   0.01
  25   6    -0.03   0.02   0.22     0.05   0.04   0.18     0.10  -0.01  -0.04
  26   6    -0.05   0.02   0.27    -0.01   0.03  -0.11     0.09  -0.02   0.03
  27   6     0.19   0.04   0.19    -0.07   0.18  -0.19    -0.22  -0.05   0.10
  28   6    -0.14  -0.07   0.14     0.06   0.23  -0.15     0.41  -0.02  -0.01
  29   1     0.16   0.02  -0.05     0.06  -0.05  -0.06     0.19   0.03   0.08
  30   1    -0.01  -0.00  -0.08     0.01   0.04  -0.05     0.04   0.00   0.04
  31   1    -0.02   0.02  -0.06    -0.04   0.04   0.08    -0.02  -0.01  -0.02
  32   1     0.16  -0.01   0.01     0.01  -0.04   0.11     0.20   0.04   0.04
  33   1     0.01   0.02  -0.00     0.01   0.01   0.01     0.00   0.00  -0.02
  34   1     0.00   0.01   0.00    -0.00   0.01   0.02     0.00   0.00  -0.00
  35   1     0.01   0.03  -0.00    -0.00   0.00  -0.02    -0.00   0.00   0.01
  36   1     0.00   0.01   0.00    -0.00  -0.00   0.01     0.00  -0.00  -0.01
  37   1     0.01   0.02   0.00     0.00  -0.00   0.02     0.00   0.00   0.01
  38   1    -0.03  -0.00   0.00    -0.03  -0.00  -0.03    -0.02   0.00  -0.02
  39   1    -0.03   0.01  -0.01    -0.03   0.01   0.01    -0.01   0.02  -0.00
  40   1    -0.04  -0.01  -0.00     0.02   0.01   0.01     0.02   0.01   0.00
  41   1    -0.03   0.02  -0.00     0.02  -0.00  -0.03     0.01   0.02  -0.02
  42   1     0.13  -0.02   0.01    -0.03   0.05   0.11    -0.22  -0.02   0.03
  43   1    -0.02   0.03   0.05     0.02  -0.04   0.08     0.00   0.01  -0.01
  44   1    -0.03   0.00   0.08    -0.01  -0.05  -0.06    -0.00   0.01   0.02
  45   1     0.12   0.01   0.07    -0.06   0.05  -0.08    -0.22  -0.02   0.05
                     28                     29                     30
                        a                      a                      a 
 Frequencies --   470.2091               472.6767               487.4161
 Red. masses --    10.8518                10.3995                10.1537
 Frc consts  --     0.0000                 0.0000                 0.0000
 IR Inten    --     1.2349                 1.8614                10.2371
 Raman Activ --     0.0000                 0.0000                 0.0000
 Depolar     --     0.0000                 0.0000                 0.0000
 Atom AN      X      Y      Z        X      Y      Z        X      Y      Z
   1   8    -0.05   0.02  -0.08     0.04   0.01  -0.07     0.11  -0.11   0.01
   2   6     0.14   0.01   0.08    -0.08   0.01   0.09    -0.46  -0.07  -0.02
   3   6    -0.05  -0.03   0.02     0.12  -0.00   0.10     0.19   0.05   0.09
   4   6     0.10   0.01   0.06     0.01   0.02   0.08     0.14   0.08   0.08
   5   6    -0.15   0.03   0.01    -0.12   0.06   0.07    -0.27   0.01  -0.07
   6   6     0.08   0.05   0.05     0.09   0.07   0.03     0.30   0.03   0.01
   7   6     0.00   0.00   0.03    -0.05   0.04  -0.02    -0.19  -0.03  -0.10
   8   6    -0.26  -0.07  -0.07    -0.01  -0.05  -0.06    -0.02   0.01  -0.03
   9   6    -0.05   0.07  -0.12     0.04  -0.05  -0.10    -0.00  -0.02  -0.00
  10   6     0.05   0.01  -0.33     0.05  -0.05  -0.41     0.00  -0.01  -0.01
  11   6     0.01  -0.04  -0.01     0.00   0.02  -0.01     0.00   0.01  -0.00
  12   6    -0.03  -0.03   0.14    -0.01   0.03   0.18    -0.00   0.01   0.01
  13   6    -0.01  -0.07  -0.20     0.05   0.00  -0.25     0.01   0.02  -0.01
  14   6    -0.06   0.02   0.14    -0.00   0.01   0.19     0.01   0.00   0.01
  15   6    -0.03   0.01  -0.02     0.02  -0.01  -0.03     0.02  -0.00   0.00
  16   6     0.03   0.33  -0.09    -0.02  -0.18   0.08     0.01  -0.10   0.03
  17   6     0.11  -0.04   0.02    -0.08   0.03   0.03     0.00   0.00  -0.00
  18   6     0.13  -0.12   0.02    -0.08   0.07  -0.04     0.00   0.04  -0.01
  19   6     0.10   0.32  -0.12    -0.07  -0.20   0.05     0.01  -0.09   0.03
  20  35    -0.10  -0.02   0.01     0.06   0.01  -0.00    -0.00   0.00  -0.00
  21   6     0.12  -0.11   0.03    -0.08   0.06  -0.04     0.01   0.04  -0.01
  22   6     0.11  -0.04   0.06    -0.07   0.04  -0.01     0.01  -0.00  -0.01
  23   6    -0.18   0.03  -0.03     0.29   0.06  -0.07     0.03   0.01   0.01
  24   6    -0.02  -0.06  -0.00     0.09   0.01  -0.01    -0.22  -0.03   0.07
  25   6     0.08  -0.06  -0.00    -0.23  -0.06   0.04     0.28   0.02   0.01
  26   6    -0.08  -0.06   0.12     0.26  -0.04   0.01    -0.23   0.01   0.04
  27   6     0.08   0.01   0.06    -0.14  -0.04   0.06     0.12   0.06  -0.05
  28   6     0.00   0.03   0.05    -0.12   0.01   0.07     0.21   0.04  -0.06
  29   1     0.09   0.01   0.02    -0.02   0.00   0.00    -0.01   0.02   0.00
  30   1    -0.07   0.01  -0.01    -0.08   0.01   0.01    -0.20  -0.03  -0.04
  31   1     0.08   0.02   0.03     0.05   0.01   0.01     0.18   0.02   0.03
  32   1     0.04   0.01   0.03    -0.05   0.01   0.00    -0.11  -0.02  -0.04
  33   1    -0.01  -0.01   0.06    -0.00   0.02   0.08     0.00   0.01   0.00
  34   1    -0.02   0.01   0.13    -0.02   0.01   0.16    -0.00   0.00   0.01
  35   1     0.01  -0.02  -0.09     0.02  -0.00  -0.12     0.00   0.01  -0.00
  36   1    -0.02   0.02   0.13    -0.02   0.01   0.17    -0.00  -0.00   0.01
  37   1    -0.01   0.00   0.05    -0.01   0.01   0.07     0.00   0.00   0.00
  38   1     0.04  -0.11   0.04    -0.03   0.06  -0.01    -0.00   0.03  -0.01
  39   1     0.05  -0.15   0.04    -0.02   0.08  -0.03    -0.00   0.05  -0.02
  40   1     0.03  -0.14   0.04    -0.03   0.08  -0.04     0.00   0.05  -0.02
  41   1     0.04  -0.11   0.05    -0.03   0.07  -0.02    -0.00   0.03  -0.01
  42   1     0.02  -0.01   0.01     0.02   0.00   0.01    -0.12  -0.01   0.03
  43   1     0.06  -0.00  -0.02    -0.15  -0.02   0.02     0.17   0.01  -0.01
  44   1    -0.05  -0.02   0.04     0.16  -0.00  -0.01    -0.19  -0.02   0.02
  45   1     0.05   0.00  -0.00    -0.06  -0.01   0.01    -0.03   0.01  -0.00
                     31                     32                     33
                        a                      a                      a 
 Frequencies --   489.7230               495.5115               533.8805
 Red. masses --    11.6861                 9.8667                11.6761
 Frc consts  --     0.0000                 0.0000                 0.0000
 IR Inten    --     1.3241                 2.9589                 5.5903
 Raman Activ --     0.0000                 0.0000                 0.0000
 Depolar     --     0.0000                 0.0000                 0.0000
 Atom AN      X      Y      Z        X      Y      Z        X      Y      Z
   1   8     0.06  -0.27   0.00     0.00   0.09  -0.01     0.11   0.37  -0.00
   2   6    -0.21  -0.21  -0.00     0.01   0.07  -0.01    -0.36   0.30  -0.03
   3   6     0.03   0.02   0.10    -0.08  -0.02  -0.04     0.13  -0.07  -0.14
   4   6    -0.16   0.11  -0.01    -0.16  -0.06  -0.03     0.02  -0.21  -0.13
   5   6     0.19   0.05   0.02     0.23   0.03   0.12     0.04  -0.03  -0.03
   6   6    -0.11   0.01  -0.18    -0.26   0.00  -0.03    -0.05  -0.02   0.18
   7   6     0.08  -0.02  -0.09     0.15   0.06   0.06    -0.06  -0.00   0.15
   8   6     0.34   0.08   0.06     0.22   0.01   0.04     0.15  -0.09   0.08
   9   6     0.08   0.12  -0.03     0.00  -0.06  -0.05     0.04  -0.10   0.00
  10   6     0.03   0.07  -0.09     0.03  -0.05  -0.28    -0.05  -0.04   0.01
  11   6     0.03  -0.05  -0.01    -0.00   0.02  -0.05    -0.07   0.02  -0.01
  12   6     0.02  -0.06   0.05    -0.02   0.04   0.13    -0.03   0.01  -0.01
  13   6    -0.04  -0.12  -0.05     0.04   0.03  -0.18     0.03   0.05   0.01
  14   6    -0.07  -0.02   0.03     0.01   0.01   0.14     0.04   0.01  -0.00
  15   6    -0.07   0.00  -0.02     0.03  -0.01  -0.04    -0.00   0.01   0.00
  16   6    -0.03   0.26  -0.08     0.00  -0.17   0.10    -0.00   0.17  -0.05
  17   6    -0.10   0.02   0.03     0.01   0.01   0.05    -0.03   0.07   0.01
  18   6    -0.10  -0.10   0.06     0.01   0.08  -0.02    -0.02  -0.09   0.04
  19   6    -0.14   0.22  -0.07     0.00  -0.17   0.05    -0.05   0.15  -0.05
  20  35     0.10  -0.00   0.01     0.00   0.01   0.00     0.03  -0.00   0.00
  21   6    -0.13  -0.11   0.03    -0.03   0.08  -0.02    -0.03  -0.10   0.02
  22   6    -0.12   0.00  -0.03    -0.03  -0.00   0.05    -0.04   0.06  -0.03
  23   6     0.19   0.06  -0.03    -0.25  -0.04   0.03     0.17  -0.09  -0.07
  24   6    -0.03  -0.05   0.11    -0.17  -0.01  -0.02    -0.05  -0.01  -0.15
  25   6     0.04   0.01   0.15     0.25  -0.01  -0.10    -0.03  -0.03  -0.19
  26   6     0.04   0.02   0.06    -0.26  -0.03   0.04     0.04  -0.03   0.04
  27   6    -0.05   0.13  -0.01     0.17  -0.03  -0.01    -0.01  -0.21   0.15
  28   6     0.12   0.02  -0.09     0.07   0.01   0.03     0.14  -0.06   0.16
  29   1    -0.12   0.02  -0.02    -0.06  -0.02  -0.01    -0.05  -0.06  -0.06
  30   1     0.09  -0.02   0.04     0.16   0.03   0.05    -0.01   0.05  -0.05
  31   1    -0.11  -0.01  -0.08    -0.17  -0.02  -0.04    -0.05   0.01   0.05
  32   1    -0.03  -0.01  -0.04     0.04   0.02   0.02    -0.07  -0.01   0.04
  33   1    -0.01  -0.03   0.01    -0.00   0.02   0.05    -0.02   0.01  -0.01
  34   1    -0.00   0.00   0.04    -0.01   0.01   0.12    -0.01  -0.02  -0.01
  35   1    -0.01  -0.04  -0.02     0.01   0.01  -0.08     0.01   0.01   0.00
  36   1    -0.01   0.01   0.03    -0.01   0.01   0.12     0.01  -0.00  -0.01
  37   1    -0.02  -0.02   0.01     0.00   0.01   0.04    -0.00   0.03  -0.01
  38   1    -0.03  -0.07   0.03     0.01   0.06   0.00    -0.01  -0.04   0.02
  39   1    -0.02  -0.12   0.04     0.01   0.09  -0.03     0.00  -0.10   0.04
  40   1    -0.03  -0.12   0.04    -0.02   0.09  -0.03    -0.01  -0.11   0.03
  41   1    -0.05  -0.07   0.02    -0.02   0.06   0.00    -0.02  -0.04   0.02
  42   1    -0.06  -0.01   0.05    -0.03  -0.00  -0.01    -0.07  -0.01  -0.04
  43   1    -0.01   0.00   0.04     0.17   0.00  -0.05    -0.04   0.01  -0.06
  44   1    -0.01  -0.03   0.00    -0.17   0.00   0.03    -0.01   0.05   0.05
  45   1    -0.08   0.03   0.01     0.07  -0.01  -0.01    -0.07  -0.06   0.06
                     34                     35                     36
                        a                      a                      a 
 Frequencies --   579.0643               587.3625               594.4736
 Red. masses --    11.4055                11.1827                11.2997
 Frc consts  --     0.0000                 0.0000                 0.0000
 IR Inten    --     4.0038                 0.4008                 2.0203
 Raman Activ --     0.0000                 0.0000                 0.0000
 Depolar     --     0.0000                 0.0000                 0.0000
 Atom AN      X      Y      Z        X      Y      Z        X      Y      Z
   1   8    -0.00   0.00   0.10     0.01   0.01  -0.01     0.01  -0.02  -0.10
   2   6     0.01  -0.01  -0.29    -0.04   0.01   0.01    -0.02  -0.00   0.18
   3   6     0.11   0.04  -0.21     0.03   0.00   0.01     0.09  -0.13   0.09
   4   6     0.04  -0.33  -0.01    -0.02   0.02  -0.02    -0.07  -0.08   0.03
   5   6    -0.06  -0.07   0.17     0.03  -0.00  -0.02     0.01   0.10   0.14
   6   6    -0.06  -0.03   0.26    -0.01  -0.01  -0.01    -0.04   0.10  -0.09
   7   6    -0.04   0.35   0.02     0.02  -0.03   0.02     0.07   0.03  -0.04
   8   6     0.00   0.10  -0.14     0.01  -0.00   0.03    -0.02  -0.14  -0.14
   9   6     0.00  -0.00  -0.04    -0.05   0.02  -0.01     0.01  -0.04  -0.20
  10   6     0.00  -0.00   0.00     0.17  -0.05   0.03    -0.02  -0.03   0.05
  11   6     0.00  -0.01  -0.01     0.17  -0.41   0.06    -0.03   0.02   0.10
  12   6    -0.01  -0.00   0.01    -0.42  -0.20  -0.04     0.00   0.00  -0.11
  13   6    -0.00   0.00  -0.01    -0.18   0.06  -0.02    -0.00   0.04   0.13
  14   6    -0.00   0.01   0.01    -0.18   0.44  -0.06     0.04  -0.03  -0.11
  15   6     0.01   0.00  -0.01     0.39   0.19   0.03     0.00  -0.01   0.11
  16   6    -0.00   0.00   0.02    -0.02  -0.01   0.00    -0.00   0.04   0.12
  17   6    -0.03   0.01   0.03     0.01  -0.03  -0.01    -0.28   0.07   0.23
  18   6    -0.03  -0.00  -0.03     0.01   0.02  -0.02    -0.26  -0.08  -0.20
  19   6     0.00  -0.01  -0.01     0.03  -0.03   0.01    -0.00  -0.03  -0.11
  20  35     0.00  -0.00  -0.00    -0.01  -0.00  -0.00     0.00  -0.01  -0.03
  21   6     0.03  -0.00  -0.02     0.02   0.03   0.00     0.27  -0.06  -0.20
  22   6     0.03   0.01   0.03     0.02  -0.02   0.03     0.26   0.09   0.24
  23   6     0.01  -0.11  -0.13     0.01   0.01  -0.03     0.04   0.13  -0.10
  24   6     0.02  -0.34   0.04     0.02  -0.02  -0.02    -0.06   0.01  -0.01
  25   6     0.03   0.04   0.26    -0.02  -0.01  -0.01     0.04  -0.09  -0.05
  26   6     0.04   0.07   0.17     0.02  -0.01   0.02    -0.03  -0.08   0.09
  27   6    -0.03   0.32  -0.03    -0.01   0.01   0.02     0.05   0.06   0.01
  28   6    -0.06  -0.05  -0.22     0.03   0.01   0.01    -0.07   0.14   0.06
  29   1     0.00  -0.09   0.03    -0.02   0.00  -0.01    -0.02  -0.03  -0.05
  30   1    -0.01   0.06   0.00     0.00  -0.00  -0.01     0.01   0.03   0.04
  31   1     0.00  -0.07   0.04    -0.02   0.01  -0.00    -0.03  -0.00  -0.04
  32   1    -0.00   0.10  -0.03    -0.01  -0.01   0.00    -0.00   0.01   0.04
  33   1     0.00  -0.00  -0.01     0.09  -0.08   0.02     0.00   0.01  -0.01
  34   1    -0.00   0.00   0.00    -0.13   0.01  -0.02     0.01  -0.01  -0.09
  35   1     0.00  -0.00  -0.01     0.09  -0.04   0.02    -0.00   0.01   0.03
  36   1    -0.00   0.00   0.00    -0.10   0.08  -0.02     0.01  -0.02  -0.10
  37   1     0.00  -0.00  -0.00     0.12  -0.02   0.02     0.00   0.00  -0.01
  38   1    -0.00   0.00   0.01     0.01   0.00  -0.00    -0.03   0.03   0.09
  39   1    -0.00   0.00  -0.01    -0.00   0.02  -0.01    -0.04  -0.03  -0.07
  40   1     0.00   0.00  -0.01     0.00   0.02  -0.01     0.04  -0.02  -0.07
  41   1     0.00   0.01   0.01     0.01   0.00   0.00     0.03   0.03   0.09
  42   1    -0.00  -0.10  -0.02    -0.01  -0.00   0.00     0.00   0.01   0.05
  43   1    -0.01   0.08   0.03    -0.02   0.00  -0.01     0.03  -0.01  -0.02
  44   1     0.01  -0.06   0.01     0.00  -0.00   0.01    -0.01  -0.02   0.03
  45   1    -0.01   0.09   0.03    -0.02   0.00   0.00     0.01   0.02  -0.05
                     37                     38                     39
                        a                      a                      a 
 Frequencies --   602.0493               608.8856               625.3042
 Red. masses --    11.2405                11.3692                11.8871
 Frc consts  --     0.0000                 0.0000                 0.0000
 IR Inten    --     3.7125                 0.6225                 2.3734
 Raman Activ --     0.0000                 0.0000                 0.0000
 Depolar     --     0.0000                 0.0000                 0.0000
 Atom AN      X      Y      Z        X      Y      Z        X      Y      Z
   1   8     0.00  -0.09   0.06     0.01  -0.04  -0.09    -0.03  -0.04   0.01
   2   6    -0.02  -0.06  -0.09    -0.01  -0.02   0.16     0.16  -0.02  -0.00
   3   6     0.02   0.07  -0.01     0.13  -0.15   0.07    -0.16  -0.08  -0.11
   4   6    -0.02  -0.01   0.07    -0.07  -0.16   0.05     0.10  -0.18   0.02
   5   6    -0.02   0.00   0.09    -0.01   0.12   0.21    -0.14   0.02   0.09
   6   6     0.00   0.01  -0.05    -0.04   0.13  -0.10     0.07   0.05   0.05
   7   6     0.04   0.14  -0.11     0.08   0.14  -0.10    -0.10   0.17  -0.10
   8   6     0.01   0.06  -0.10    -0.06  -0.15  -0.24     0.10  -0.00  -0.13
   9   6    -0.06  -0.25   0.11    -0.01  -0.11  -0.16     0.29  -0.01   0.03
  10   6    -0.10  -0.28  -0.01    -0.04  -0.12   0.01     0.03   0.12  -0.01
  11   6    -0.18   0.00  -0.08    -0.09   0.01   0.09     0.05  -0.06   0.01
  12   6    -0.22   0.05   0.03    -0.08   0.01  -0.11     0.01  -0.07   0.00
  13   6     0.10   0.27  -0.08     0.03   0.12   0.12    -0.06  -0.12   0.01
  14   6     0.15  -0.03   0.08     0.08  -0.03  -0.09    -0.10   0.13  -0.03
  15   6     0.20  -0.09  -0.03     0.06  -0.03   0.11    -0.06   0.11  -0.01
  16   6    -0.04   0.00   0.02    -0.00  -0.02  -0.05     0.23  -0.01   0.01
  17   6    -0.05   0.12  -0.02     0.25  -0.01  -0.16    -0.08   0.09   0.17
  18   6    -0.04  -0.14  -0.03     0.26   0.04   0.18    -0.10   0.01   0.15
  19   6     0.05   0.15  -0.07     0.01   0.06   0.06    -0.29   0.03  -0.02
  20  35    -0.02  -0.00  -0.01    -0.00   0.01   0.02     0.10   0.00  -0.00
  21   6     0.10  -0.12   0.02    -0.26   0.02   0.18    -0.07  -0.09  -0.14
  22   6     0.08   0.15   0.04    -0.24  -0.02  -0.15    -0.06  -0.02  -0.18
  23   6    -0.05  -0.07   0.26     0.07   0.13  -0.07     0.10  -0.02   0.16
  24   6     0.07   0.20   0.14    -0.04   0.03   0.01    -0.10   0.18   0.08
  25   6    -0.03   0.12   0.11     0.04  -0.07  -0.03     0.08   0.06  -0.03
  26   6    -0.01   0.09  -0.24    -0.03  -0.07   0.06    -0.13   0.03  -0.12
  27   6    -0.05  -0.13  -0.09     0.05   0.07  -0.01     0.10  -0.20  -0.00
  28   6     0.10  -0.09  -0.04    -0.10   0.12   0.05    -0.19  -0.10   0.08
  29   1    -0.02  -0.00   0.03    -0.01  -0.05  -0.05     0.09  -0.05  -0.00
  30   1    -0.00  -0.01   0.03     0.01   0.04   0.06    -0.01   0.04   0.01
  31   1     0.01  -0.04  -0.04    -0.01  -0.02  -0.06     0.10  -0.03   0.00
  32   1     0.02   0.04  -0.05     0.01   0.04   0.02     0.02   0.05  -0.00
  33   1     0.00   0.05  -0.00     0.00   0.02   0.00    -0.01  -0.04   0.00
  34   1    -0.05  -0.06   0.04    -0.01  -0.03  -0.08    -0.00   0.01  -0.00
  35   1     0.04   0.07  -0.02     0.01   0.03   0.03     0.01  -0.04   0.01
  36   1    -0.02  -0.06   0.05     0.00  -0.03  -0.08     0.00   0.06  -0.01
  37   1     0.04   0.04   0.00     0.02   0.02   0.01    -0.01   0.01  -0.00
  38   1     0.01   0.00   0.02     0.05  -0.01  -0.05    -0.08   0.01   0.02
  39   1    -0.01  -0.10   0.01     0.06  -0.00   0.06     0.02  -0.02   0.02
  40   1     0.01  -0.10   0.02    -0.06  -0.01   0.06     0.03  -0.03  -0.01
  41   1     0.03   0.01   0.02    -0.04  -0.02  -0.05    -0.07  -0.00  -0.02
  42   1     0.01   0.05   0.01    -0.00   0.01   0.05     0.01   0.05  -0.00
  43   1    -0.01  -0.04   0.08     0.03  -0.02  -0.01     0.09  -0.03   0.02
  44   1     0.01   0.02  -0.07    -0.01  -0.03   0.02    -0.01   0.04  -0.02
  45   1    -0.02  -0.04   0.02     0.01   0.02  -0.05     0.09  -0.05   0.02
                     40                     41                     42
                        a                      a                      a 
 Frequencies --   655.9545               662.7110               672.5295
 Red. masses --    11.4742                11.5293                 9.2165
 Frc consts  --     0.0000                 0.0000                 0.0000
 IR Inten    --     0.4322                 0.5483                 1.9035
 Raman Activ --     0.0000                 0.0000                 0.0000
 Depolar     --     0.0000                 0.0000                 0.0000
 Atom AN      X      Y      Z        X      Y      Z        X      Y      Z
   1   8    -0.03   0.09   0.02     0.02  -0.08   0.04    -0.00   0.01  -0.05
   2   6     0.14   0.05  -0.01    -0.13  -0.05  -0.03     0.02   0.01   0.09
   3   6     0.01   0.09   0.06     0.44   0.06   0.03    -0.08  -0.09   0.01
   4   6    -0.06   0.18  -0.00    -0.16  -0.09  -0.10     0.04  -0.06   0.01
   5   6     0.06  -0.04  -0.10     0.16  -0.03   0.01    -0.05   0.04   0.04
   6   6    -0.03  -0.06   0.01    -0.16  -0.03   0.00     0.04   0.05  -0.05
   7   6     0.02  -0.16   0.10     0.18   0.11   0.03    -0.04  -0.01  -0.04
   8   6    -0.13   0.01   0.11    -0.49   0.01  -0.16     0.11  -0.06  -0.03
   9   6     0.01  -0.03   0.08    -0.04   0.06   0.09     0.02  -0.01  -0.04
  10   6    -0.03  -0.07   0.06     0.03   0.12   0.10    -0.08  -0.01   0.47
  11   6    -0.04  -0.02  -0.05     0.10   0.01  -0.06    -0.02  -0.02  -0.25
  12   6    -0.08   0.01   0.04     0.11   0.00   0.09    -0.09   0.02   0.31
  13   6     0.03   0.07  -0.05    -0.03  -0.12  -0.06     0.05   0.03  -0.22
  14   6     0.04  -0.02   0.06    -0.09   0.06   0.06    -0.01   0.00   0.32
  15   6     0.07  -0.04  -0.04    -0.07   0.05  -0.08     0.06  -0.04  -0.23
  16   6     0.02  -0.23   0.07    -0.04   0.09  -0.05     0.02   0.11  -0.03
  17   6    -0.02   0.15  -0.06    -0.01  -0.08  -0.05     0.01  -0.04   0.04
  18   6    -0.02  -0.15   0.06    -0.01   0.04  -0.06     0.00   0.06   0.00
  19   6    -0.03   0.20  -0.06     0.06  -0.07   0.03    -0.02  -0.07   0.02
  20  35     0.01  -0.00  -0.00    -0.02  -0.00  -0.00     0.01   0.00   0.00
  21   6     0.02  -0.16   0.03     0.04   0.07  -0.00    -0.01   0.05  -0.03
  22   6     0.00   0.15  -0.09     0.03  -0.05   0.01    -0.01  -0.06   0.01
  23   6     0.43  -0.01  -0.15     0.18  -0.01   0.10    -0.02   0.06  -0.06
  24   6    -0.19  -0.16  -0.01    -0.06   0.15   0.08     0.01  -0.01  -0.04
  25   6     0.15  -0.00   0.00     0.05   0.06   0.01    -0.01  -0.05  -0.05
  26   6    -0.14   0.02   0.04    -0.06   0.03  -0.09     0.02  -0.04   0.05
  27   6     0.15   0.13  -0.07     0.07  -0.18   0.02    -0.01   0.08  -0.00
  28   6    -0.41  -0.02  -0.03    -0.07  -0.10   0.07    -0.01   0.09   0.01
  29   1    -0.01   0.05   0.03    -0.07  -0.03  -0.02     0.03  -0.02  -0.02
  30   1     0.02  -0.04  -0.01     0.04   0.01  -0.01    -0.01   0.01   0.01
  31   1    -0.02   0.04   0.03    -0.05  -0.02  -0.01     0.02   0.00  -0.02
  32   1     0.03  -0.04   0.02     0.09   0.04  -0.01    -0.01  -0.00   0.02
  33   1     0.01   0.01  -0.03     0.01  -0.02  -0.05     0.03  -0.02  -0.29
  34   1    -0.02  -0.02   0.01     0.03   0.04   0.01    -0.00  -0.02  -0.07
  35   1     0.01   0.02  -0.03    -0.01  -0.03  -0.05     0.04  -0.01  -0.26
  36   1    -0.01  -0.02   0.01     0.01   0.04   0.01     0.01  -0.02  -0.07
  37   1     0.02  -0.00  -0.02    -0.01  -0.01  -0.05     0.04  -0.02  -0.28
  38   1    -0.02   0.07  -0.03    -0.00  -0.04  -0.01     0.00  -0.03   0.02
  39   1    -0.01  -0.05   0.02    -0.02   0.01  -0.01     0.01   0.01  -0.00
  40   1     0.01  -0.05   0.02     0.01   0.02  -0.00    -0.00   0.00  -0.00
  41   1     0.00   0.06  -0.04     0.03  -0.04   0.00    -0.01  -0.04   0.02
  42   1    -0.06  -0.04  -0.02    -0.04   0.04   0.02     0.00  -0.00   0.02
  43   1     0.06   0.03  -0.02     0.01  -0.03   0.03    -0.01   0.00  -0.02
  44   1    -0.03  -0.02  -0.00    -0.03   0.04  -0.01     0.00  -0.01   0.01
  45   1     0.07   0.04  -0.02     0.01  -0.05   0.04    -0.01   0.02  -0.03
                     43                     44                     45
                        a                      a                      a 
 Frequencies --   679.3094               696.1948               746.5345
 Red. masses --    10.9485                11.8872                11.3188
 Frc consts  --     0.0000                 0.0000                 0.0000
 IR Inten    --     5.1037                 0.9937                 3.0441
 Raman Activ --     0.0000                 0.0000                 0.0000
 Depolar     --     0.0000                 0.0000                 0.0000
 Atom AN      X      Y      Z        X      Y      Z        X      Y      Z
   1   8    -0.01   0.05   0.02     0.01   0.08  -0.00     0.01   0.29  -0.00
   2   6     0.07   0.03  -0.03    -0.10   0.05  -0.01     0.02   0.17  -0.01
   3   6    -0.04   0.06   0.02     0.20   0.05   0.12     0.01  -0.11   0.10
   4   6    -0.01   0.10   0.02    -0.11   0.13   0.03    -0.05  -0.00   0.13
   5   6     0.01  -0.02  -0.04     0.07   0.03   0.02    -0.08   0.16   0.23
   6   6    -0.00  -0.03   0.01    -0.07  -0.01  -0.05     0.04   0.14  -0.24
   7   6    -0.00  -0.07   0.04     0.08  -0.14   0.08     0.03  -0.24  -0.02
   8   6    -0.00   0.01   0.06    -0.29  -0.09  -0.03     0.04  -0.22  -0.01
   9   6     0.05  -0.05   0.04     0.09  -0.03   0.00     0.08  -0.12   0.00
  10   6    -0.06  -0.16  -0.09    -0.02  -0.03   0.01     0.02   0.06  -0.04
  11   6    -0.16  -0.00   0.02    -0.05  -0.01  -0.01     0.06   0.02   0.03
  12   6    -0.16  -0.01  -0.08    -0.06  -0.01   0.00     0.11   0.01   0.03
  13   6     0.06   0.16   0.03     0.02   0.04  -0.00    -0.04  -0.10   0.03
  14   6     0.12  -0.10  -0.04     0.03  -0.01   0.01    -0.09   0.11  -0.00
  15   6     0.07  -0.08   0.06     0.01  -0.01  -0.00    -0.07   0.09   0.01
  16   6     0.06   0.47  -0.16     0.28  -0.07   0.03    -0.07   0.03  -0.01
  17   6     0.00  -0.17   0.13     0.02   0.10   0.22    -0.02  -0.02  -0.07
  18   6    -0.02   0.25  -0.01     0.03   0.05   0.26    -0.03  -0.01  -0.10
  19   6    -0.08  -0.31   0.10    -0.33   0.03  -0.02     0.11  -0.03   0.01
  20  35     0.02   0.01  -0.00     0.08   0.00   0.00    -0.02   0.00  -0.00
  21   6     0.00   0.21  -0.15     0.03  -0.12  -0.23    -0.05   0.06   0.09
  22   6     0.02  -0.21  -0.01     0.02  -0.06  -0.24    -0.03   0.03   0.07
  23   6     0.22  -0.04  -0.02    -0.29  -0.08   0.01     0.03  -0.22   0.04
  24   6    -0.07  -0.05   0.03     0.10  -0.14  -0.06     0.02  -0.24   0.05
  25   6     0.07   0.03   0.04    -0.08  -0.00   0.04     0.02   0.16   0.24
  26   6    -0.06   0.03  -0.03     0.07   0.02  -0.01    -0.05   0.16  -0.25
  27   6     0.06   0.02  -0.04    -0.10   0.13  -0.05    -0.03  -0.02  -0.13
  28   6    -0.17  -0.05  -0.02     0.21   0.04  -0.09     0.02  -0.13  -0.09
  29   1    -0.00   0.03   0.03    -0.02   0.04   0.02     0.04   0.00  -0.01
  30   1     0.00  -0.02   0.00     0.02  -0.03   0.03     0.00  -0.01   0.11
  31   1    -0.00   0.01   0.02     0.00   0.03   0.01     0.05   0.03  -0.06
  32   1     0.00  -0.02   0.00     0.05  -0.03   0.05     0.00  -0.06   0.09
  33   1    -0.02   0.03   0.05    -0.01   0.00  -0.01     0.00  -0.01  -0.04
  34   1    -0.04  -0.06   0.02    -0.01  -0.02  -0.01     0.03   0.03  -0.05
  35   1     0.02   0.04   0.05     0.01   0.01  -0.01     0.00  -0.03  -0.05
  36   1    -0.01  -0.06   0.02     0.00  -0.01  -0.01     0.02   0.06  -0.05
  37   1     0.01   0.03   0.06     0.00   0.01  -0.01    -0.01   0.01  -0.04
  38   1    -0.02  -0.18   0.06    -0.07   0.04   0.02     0.02  -0.04   0.00
  39   1     0.02   0.00   0.01     0.09   0.02   0.02    -0.04  -0.04   0.00
  40   1     0.03  -0.00  -0.01     0.09   0.00  -0.03    -0.04  -0.03   0.02
  41   1    -0.01  -0.18   0.05    -0.07   0.02  -0.04     0.01  -0.04   0.03
  42   1    -0.04  -0.02  -0.01     0.04  -0.04  -0.04     0.00  -0.07  -0.09
  43   1     0.01   0.01   0.01    -0.00   0.03  -0.01     0.03   0.03   0.07
  44   1    -0.02  -0.01  -0.02     0.01  -0.03  -0.02     0.00  -0.02  -0.11
  45   1     0.02   0.00   0.00    -0.02   0.04  -0.02     0.02  -0.00   0.02
                     46                     47                     48
                        a                      a                      a 
 Frequencies --   755.1353               760.3103               763.3732
 Red. masses --     4.9186                 3.3563                 3.1157
 Frc consts  --     0.0000                 0.0000                 0.0000
 IR Inten    --    12.9976                49.4103                 1.4916
 Raman Activ --     0.0000                 0.0000                 0.0000
 Depolar     --     0.0000                 0.0000                 0.0000
 Atom AN      X      Y      Z        X      Y      Z        X      Y      Z
   1   8     0.00   0.03  -0.03    -0.00   0.03   0.00     0.00   0.01   0.00
   2   6    -0.00   0.02   0.07     0.07   0.01   0.01    -0.01   0.00   0.03
   3   6     0.03  -0.08   0.02    -0.14  -0.03  -0.02    -0.10  -0.00  -0.03
   4   6    -0.01  -0.09   0.00     0.14  -0.00   0.05     0.10   0.01   0.03
   5   6    -0.04   0.05   0.06     0.12   0.03   0.07     0.12   0.01   0.03
   6   6     0.01   0.06  -0.10     0.18   0.04   0.02     0.11   0.01   0.04
   7   6    -0.00  -0.03  -0.05     0.10   0.00   0.01     0.08   0.01   0.02
   8   6     0.02  -0.05  -0.03    -0.09  -0.03  -0.04    -0.08  -0.01  -0.04
   9   6     0.00  -0.01   0.08    -0.05  -0.01  -0.01     0.01  -0.00   0.01
  10   6    -0.04   0.04   0.38     0.00   0.01   0.01    -0.01   0.01   0.06
  11   6     0.03  -0.01  -0.19     0.02   0.01  -0.00     0.00  -0.00  -0.02
  12   6     0.03  -0.01  -0.08     0.03   0.01   0.00     0.00  -0.00  -0.00
  13   6     0.02  -0.03  -0.20    -0.01  -0.02  -0.00     0.00  -0.01  -0.03
  14   6    -0.00   0.01  -0.09    -0.02   0.02  -0.00    -0.00   0.00  -0.01
  15   6     0.02  -0.01  -0.20    -0.01   0.01  -0.01     0.00   0.00  -0.03
  16   6    -0.00   0.01  -0.00     0.03  -0.01   0.00    -0.00   0.01  -0.00
  17   6    -0.01   0.00  -0.01     0.01   0.01   0.03     0.00   0.00  -0.01
  18   6    -0.01   0.01  -0.01     0.02   0.01   0.04    -0.00   0.01  -0.00
  19   6     0.01  -0.01   0.00    -0.04   0.01  -0.00    -0.00  -0.01   0.00
  20  35    -0.00   0.00  -0.00     0.01  -0.00   0.00     0.00   0.00   0.00
  21   6     0.01   0.01  -0.00     0.03  -0.02  -0.04    -0.01   0.01  -0.00
  22   6     0.01   0.01  -0.00     0.02  -0.01  -0.03    -0.00  -0.00  -0.01
  23   6    -0.01  -0.00  -0.02    -0.06  -0.02   0.03     0.10  -0.00  -0.03
  24   6     0.01  -0.04  -0.04     0.06  -0.01   0.01    -0.08  -0.02   0.01
  25   6     0.00  -0.02  -0.04     0.15   0.03   0.02    -0.16   0.00   0.04
  26   6     0.02  -0.01   0.01     0.09   0.03  -0.06    -0.16  -0.00   0.02
  27   6     0.01   0.07  -0.03     0.12  -0.02  -0.03    -0.15  -0.00   0.02
  28   6    -0.02   0.05  -0.01    -0.11  -0.03   0.00     0.14  -0.00  -0.02
  29   1     0.05  -0.02  -0.02    -0.28  -0.03  -0.08    -0.22  -0.02  -0.06
  30   1     0.03   0.01   0.03    -0.36  -0.03  -0.09    -0.28  -0.02  -0.08
  31   1     0.06   0.00  -0.02    -0.44  -0.04  -0.13    -0.33  -0.03  -0.09
  32   1     0.02  -0.00   0.02    -0.23  -0.03  -0.06    -0.16  -0.02  -0.04
  33   1    -0.03   0.02   0.27     0.00   0.00   0.00    -0.00   0.00   0.03
  34   1    -0.04   0.03   0.37     0.01   0.01   0.00    -0.00   0.00   0.04
  35   1    -0.05   0.03   0.43    -0.01  -0.00   0.01    -0.01   0.00   0.05
  36   1    -0.05   0.04   0.37     0.00   0.01   0.00    -0.00   0.01   0.04
  37   1    -0.04   0.03   0.29    -0.00   0.00   0.00    -0.00   0.00   0.03
  38   1    -0.00  -0.02   0.01    -0.01   0.01   0.00    -0.00  -0.02   0.00
  39   1    -0.01  -0.01   0.00     0.02   0.01   0.00    -0.00  -0.01   0.00
  40   1     0.00  -0.02   0.01     0.02   0.01  -0.01    -0.00  -0.01   0.00
  41   1     0.00  -0.02   0.01    -0.01   0.01  -0.01     0.01  -0.01  -0.00
  42   1    -0.02  -0.01  -0.00    -0.17  -0.01   0.02     0.20   0.01  -0.04
  43   1    -0.04   0.01  -0.01    -0.35  -0.01   0.07     0.45   0.02  -0.07
  44   1    -0.03  -0.01   0.00    -0.28  -0.01   0.03     0.39   0.01  -0.06
  45   1    -0.03   0.02  -0.02    -0.22  -0.02   0.04     0.31   0.02  -0.04
                     49                     50                     51
                        a                      a                      a 
 Frequencies --   802.8899               849.4324               849.9762
 Red. masses --     4.9428                 3.7214                 3.8967
 Frc consts  --     0.0000                 0.0000                 0.0000
 IR Inten    --    12.5539                 9.1048                 3.2685
 Raman Activ --     0.0000                 0.0000                 0.0000
 Depolar     --     0.0000                 0.0000                 0.0000
 Atom AN      X      Y      Z        X      Y      Z        X      Y      Z
   1   8    -0.00  -0.03  -0.00    -0.00   0.00   0.00    -0.01   0.00  -0.00
   2   6     0.00  -0.02   0.00    -0.00   0.00   0.03     0.06  -0.00   0.01
   3   6    -0.01   0.02   0.00     0.03  -0.00   0.00    -0.05   0.01  -0.00
   4   6    -0.00   0.04  -0.00    -0.19  -0.01  -0.05     0.18   0.03   0.04
   5   6     0.01  -0.02  -0.03    -0.15  -0.02  -0.06     0.15   0.01   0.03
   6   6    -0.00  -0.02   0.02     0.22   0.01   0.07    -0.21  -0.02  -0.03
   7   6     0.00   0.03   0.00     0.09   0.02   0.03    -0.07  -0.00  -0.02
   8   6    -0.01   0.02  -0.01    -0.02   0.03   0.00    -0.01  -0.01  -0.01
   9   6    -0.01  -0.10   0.03    -0.01   0.00  -0.02     0.09  -0.01   0.00
  10   6     0.01   0.01  -0.02    -0.00   0.00   0.01    -0.00  -0.00   0.00
  11   6     0.05   0.01   0.01     0.00  -0.00  -0.01    -0.01  -0.00  -0.00
  12   6     0.07   0.02   0.01     0.00   0.00  -0.01    -0.01  -0.01  -0.00
  13   6    -0.02  -0.04   0.01    -0.00  -0.00   0.00     0.00   0.01  -0.00
  14   6    -0.04   0.06  -0.00    -0.00  -0.00   0.01     0.00   0.00   0.00
  15   6    -0.01   0.03  -0.00     0.00   0.00   0.01    -0.00   0.00   0.00
  16   6     0.01  -0.28   0.10     0.00   0.00   0.00     0.01   0.00  -0.00
  17   6    -0.01   0.22  -0.07     0.00  -0.00  -0.00    -0.01  -0.01  -0.01
  18   6    -0.00   0.18  -0.05     0.00  -0.00   0.01    -0.02  -0.02  -0.04
  19   6     0.00  -0.18   0.06    -0.01  -0.00  -0.00     0.03  -0.00  -0.00
  20  35    -0.00   0.01  -0.00     0.00   0.00   0.00    -0.00   0.00   0.00
  21   6    -0.00   0.17  -0.07     0.00   0.00  -0.01    -0.03   0.02   0.03
  22   6    -0.00   0.21  -0.07     0.00  -0.00  -0.01    -0.02   0.01   0.01
  23   6    -0.06   0.02   0.01     0.02  -0.03   0.00    -0.01  -0.01   0.01
  24   6     0.01   0.03  -0.03    -0.05  -0.01   0.02    -0.05   0.00   0.00
  25   6    -0.01  -0.05  -0.06    -0.23   0.01   0.05    -0.25  -0.01   0.02
  26   6     0.02  -0.04   0.06     0.14   0.01  -0.05     0.16  -0.00  -0.02
  27   6    -0.01   0.07  -0.00     0.17  -0.00  -0.02     0.19   0.02  -0.02
  28   6     0.00   0.04  -0.01    -0.03   0.00  -0.00    -0.05   0.01  -0.01
  29   1     0.00   0.01   0.01     0.40   0.04   0.09    -0.37  -0.03  -0.09
  30   1     0.00  -0.01  -0.01     0.22   0.01   0.06    -0.21  -0.02  -0.06
  31   1    -0.01  -0.00   0.01    -0.34  -0.03  -0.09     0.29   0.03   0.09
  32   1    -0.01   0.01  -0.01    -0.24  -0.03  -0.07     0.20   0.03   0.06
  33   1     0.01  -0.00  -0.01    -0.00   0.00   0.03    -0.00  -0.00   0.00
  34   1     0.02   0.03  -0.02    -0.00   0.00   0.01    -0.00  -0.01   0.01
  35   1    -0.00  -0.01  -0.02    -0.00  -0.00  -0.00     0.01   0.00   0.00
  36   1     0.00   0.03  -0.02     0.00  -0.00  -0.02     0.00  -0.00  -0.00
  37   1    -0.00   0.00  -0.00     0.00  -0.00  -0.02    -0.00   0.00  -0.01
  38   1     0.01  -0.37   0.12     0.00   0.01  -0.00    -0.00   0.01  -0.01
  39   1     0.02  -0.39   0.13     0.00   0.01  -0.00    -0.01   0.00  -0.01
  40   1     0.02  -0.39   0.13     0.00  -0.01   0.00    -0.02  -0.02   0.01
  41   1     0.01  -0.36   0.12     0.01  -0.01  -0.00     0.00  -0.01   0.01
  42   1    -0.01   0.01   0.01     0.18   0.01  -0.03     0.18   0.01  -0.04
  43   1    -0.02  -0.00  -0.02     0.36   0.02  -0.05     0.37   0.02  -0.07
  44   1    -0.01  -0.01   0.02    -0.20  -0.01   0.02    -0.23  -0.01   0.04
  45   1    -0.01   0.02  -0.02    -0.36  -0.02   0.04    -0.41  -0.02   0.05
                     52                     53                     54
                        a                      a                      a 
 Frequencies --   864.0063               873.9095               876.4060
 Red. masses --     3.3272                10.1440                 4.3700
 Frc consts  --     0.0000                 0.0000                 0.0000
 IR Inten    --     1.0686                 2.6014                 0.4100
 Raman Activ --     0.0000                 0.0000                 0.0000
 Depolar     --     0.0000                 0.0000                 0.0000
 Atom AN      X      Y      Z        X      Y      Z        X      Y      Z
   1   8    -0.00   0.00   0.00    -0.00   0.00   0.04    -0.00  -0.00   0.02
   2   6    -0.00   0.00   0.01     0.03  -0.01  -0.44     0.01  -0.00  -0.17
   3   6     0.00   0.00  -0.00     0.05   0.04  -0.10     0.01   0.02  -0.04
   4   6    -0.00   0.01  -0.00    -0.02  -0.12   0.06     0.01  -0.04   0.03
   5   6    -0.00  -0.00  -0.00    -0.07   0.13   0.26    -0.03   0.05   0.10
   6   6     0.00  -0.00   0.01     0.09   0.12  -0.22     0.01   0.04  -0.09
   7   6    -0.01   0.00  -0.00     0.00  -0.24  -0.01     0.02  -0.09   0.00
   8   6     0.01  -0.00   0.00    -0.06  -0.01   0.10    -0.03  -0.00   0.04
   9   6    -0.01   0.00  -0.02     0.02   0.00   0.25     0.01   0.00   0.08
  10   6    -0.00   0.00   0.00     0.01  -0.00  -0.06     0.00  -0.00  -0.01
  11   6     0.00   0.00  -0.00    -0.01   0.01   0.08     0.02  -0.02  -0.22
  12   6     0.00   0.00  -0.00    -0.02   0.00   0.08     0.02  -0.02  -0.20
  13   6    -0.00  -0.00  -0.00    -0.01   0.00   0.05     0.01   0.00   0.00
  14   6    -0.00  -0.00   0.00     0.01  -0.00  -0.07    -0.03   0.02   0.20
  15   6     0.00   0.00   0.00     0.01  -0.01  -0.09    -0.03   0.02   0.23
  16   6    -0.00  -0.01   0.00     0.00   0.03  -0.01     0.00   0.01   0.00
  17   6     0.01  -0.20   0.07    -0.01  -0.02  -0.01    -0.00  -0.00  -0.01
  18   6     0.01  -0.23   0.08    -0.02  -0.02  -0.01    -0.01  -0.00  -0.01
  19   6    -0.00  -0.00   0.00     0.01   0.01   0.00     0.00   0.00   0.00
  20  35    -0.00  -0.00  -0.00    -0.00  -0.00  -0.00    -0.00  -0.00  -0.00
  21   6    -0.01   0.23  -0.08     0.02  -0.00   0.00     0.00   0.00   0.00
  22   6    -0.01   0.20  -0.07     0.01  -0.00  -0.02     0.00  -0.01  -0.01
  23   6    -0.00  -0.00  -0.00     0.03   0.01   0.11     0.02  -0.00   0.05
  24   6     0.01   0.00   0.00    -0.01   0.24  -0.02    -0.02   0.10  -0.00
  25   6     0.01   0.00   0.01    -0.06  -0.13  -0.23    -0.00  -0.05  -0.09
  26   6    -0.00  -0.00  -0.00     0.04  -0.12   0.28     0.02  -0.05   0.11
  27   6    -0.01  -0.01   0.00     0.02   0.13   0.06    -0.01   0.05   0.03
  28   6     0.00  -0.00  -0.00    -0.04  -0.04  -0.10    -0.01  -0.02  -0.04
  29   1     0.00   0.00   0.00     0.03  -0.03   0.02    -0.01  -0.01   0.00
  30   1     0.00   0.00  -0.00    -0.05  -0.02   0.09    -0.02  -0.01   0.04
  31   1    -0.01  -0.00   0.00    -0.06   0.00  -0.09     0.01   0.00  -0.03
  32   1     0.00   0.00   0.00     0.05  -0.06   0.05    -0.01  -0.03   0.01
  33   1     0.00   0.00   0.00     0.01  -0.01  -0.14    -0.05   0.03   0.42
  34   1     0.00   0.00   0.01     0.02  -0.01  -0.17    -0.05   0.03   0.40
  35   1    -0.00   0.00   0.00     0.01  -0.01  -0.08     0.00  -0.00  -0.00
  36   1     0.00  -0.00  -0.00    -0.01   0.01   0.12     0.05  -0.03  -0.39
  37   1     0.00   0.00  -0.01    -0.03   0.02   0.19     0.06  -0.04  -0.43
  38   1    -0.01   0.39  -0.12    -0.01   0.02  -0.01    -0.00   0.00  -0.00
  39   1    -0.02   0.44  -0.15    -0.02   0.03  -0.01    -0.01  -0.00   0.00
  40   1     0.02  -0.45   0.15     0.01   0.01  -0.00     0.00   0.00   0.00
  41   1     0.02  -0.40   0.13     0.01  -0.01  -0.01     0.00   0.00  -0.01
  42   1    -0.02  -0.00   0.00    -0.02   0.06   0.03     0.02   0.03   0.01
  43   1    -0.01  -0.00   0.01     0.03  -0.01  -0.08    -0.02  -0.01  -0.03
  44   1     0.01  -0.00  -0.00     0.03   0.02   0.10     0.01   0.01   0.04
  45   1     0.03  -0.00  -0.00    -0.05   0.03   0.02     0.02   0.01   0.00
                     55                     56                     57
                        a                      a                      a 
 Frequencies --   885.3469               896.5524               901.6741
 Red. masses --     7.8256                 4.6536                 5.1644
 Frc consts  --     0.0000                 0.0000                 0.0000
 IR Inten    --     1.4288                 1.7802                 1.5881
 Raman Activ --     0.0000                 0.0000                 0.0000
 Depolar     --     0.0000                 0.0000                 0.0000
 Atom AN      X      Y      Z        X      Y      Z        X      Y      Z
   1   8     0.00  -0.02  -0.01     0.00   0.00  -0.01     0.00   0.00   0.00
   2   6    -0.02  -0.00   0.06    -0.01   0.00   0.06    -0.01  -0.00  -0.01
   3   6     0.05   0.03   0.04     0.05  -0.01   0.01     0.04  -0.01  -0.01
[...]
   4   6     0.00  -0.03   0.00    -0.00   0.00   0.00     0.00  -0.00   0.00
   5   6    -0.06   0.11   0.17     0.00  -0.00  -0.00    -0.00   0.01   0.01
   6   6     0.02   0.05  -0.09    -0.00  -0.00   0.00     0.00   0.00  -0.00
   7   6     0.01  -0.09   0.00    -0.00   0.01  -0.00    -0.00   0.01  -0.00
   8   6     0.00  -0.00  -0.00    -0.00   0.00   0.00    -0.00   0.00   0.00
   9   6     0.00  -0.00  -0.00    -0.00  -0.00  -0.00     0.00  -0.00   0.00
  10   6     0.00   0.00  -0.00     0.00   0.00  -0.00    -0.00   0.00  -0.00
  11   6    -0.04   0.05  -0.01    -0.02   0.02  -0.00    -0.05   0.06  -0.01
  12   6     0.04   0.01   0.00     0.03   0.00   0.00    -0.01   0.00  -0.00
  13   6    -0.01  -0.02   0.00    -0.01  -0.02   0.00     0.05   0.11  -0.00
  14   6    -0.01   0.01  -0.00    -0.01   0.01  -0.00     0.12  -0.15   0.03
  15   6     0.00  -0.00  -0.00     0.00   0.00   0.00    -0.09  -0.02  -0.01
  16   6    -0.00   0.00   0.00    -0.00   0.00  -0.00     0.00  -0.00  -0.00
  17   6     0.00  -0.00  -0.00    -0.00   0.00   0.00    -0.00   0.00   0.00
  18   6     0.00   0.00   0.00     0.00   0.00   0.00    -0.00  -0.00  -0.00
  19   6     0.00   0.00   0.00     0.00   0.00   0.00    -0.00   0.00  -0.00
  20  35    -0.00  -0.00  -0.00     0.00   0.00   0.00    -0.00  -0.00  -0.00
  21   6     0.00   0.00   0.00    -0.00   0.00   0.00    -0.00   0.00   0.00
  22   6    -0.00  -0.00  -0.00    -0.00  -0.00  -0.00    -0.00  -0.00  -0.00
  23   6     0.00  -0.00   0.00     0.00  -0.00   0.00     0.00  -0.00   0.00
  24   6     0.00  -0.01   0.00     0.00  -0.08  -0.00     0.00  -0.01   0.00
  25   6     0.00   0.00   0.01    -0.01  -0.04  -0.06     0.00   0.00   0.00
  26   6    -0.00   0.00  -0.01     0.04  -0.11   0.21     0.00  -0.01   0.01
  27   6     0.00  -0.00   0.00    -0.00   0.04   0.00    -0.00   0.00   0.00
  28   6     0.00  -0.00  -0.00    -0.00   0.00  -0.00    -0.00   0.00  -0.00
  29   1    -0.01   0.12  -0.01     0.00  -0.00   0.00    -0.00   0.01  -0.00
  30   1     0.20  -0.38  -0.60    -0.00   0.00   0.00     0.01  -0.02  -0.03
  31   1    -0.08  -0.20   0.35     0.00   0.01  -0.01    -0.00  -0.00   0.00
  32   1    -0.04   0.32  -0.01     0.00  -0.03   0.00     0.00  -0.03   0.00
  33   1     0.13  -0.17   0.03     0.06  -0.08   0.01     0.16  -0.21   0.03
  34   1    -0.17  -0.02  -0.02    -0.10  -0.01  -0.01     0.05   0.01   0.01
  35   1     0.03   0.08  -0.00     0.03   0.07  -0.00    -0.16  -0.41   0.01
  36   1     0.02  -0.03   0.01     0.03  -0.04   0.01    -0.45   0.56  -0.10
  37   1    -0.00  -0.00  -0.00    -0.01  -0.00  -0.00     0.36   0.05   0.04
  38   1    -0.00   0.00   0.01     0.00  -0.00  -0.00     0.00  -0.00  -0.01
  39   1    -0.00  -0.00  -0.00    -0.00  -0.00  -0.00     0.00   0.00   0.00
  40   1     0.00  -0.00  -0.00     0.00  -0.00  -0.00     0.00  -0.00  -0.01
  41   1     0.00   0.00   0.00     0.00   0.00   0.01     0.01   0.00   0.01
  42   1    -0.00   0.03  -0.00    -0.02   0.28  -0.00    -0.00   0.04  -0.00
  43   1    -0.00  -0.01  -0.02     0.03   0.14   0.22    -0.00  -0.00  -0.00
  44   1     0.01  -0.02   0.03    -0.13   0.40  -0.74    -0.01   0.02  -0.04
  45   1    -0.00   0.00   0.00     0.01  -0.16  -0.00     0.00  -0.01  -0.00
                    118                    119                    120
                        a                      a                      a 
 Frequencies --  3081.4441              3086.7065              3092.8592
 Red. masses --     1.8104                 1.8304                 1.8640
 Frc consts  --     0.0000                 0.0000                 0.0000
 IR Inten    --    11.0878                18.7131                59.1034
 Raman Activ --     0.0000                 0.0000                 0.0000
 Depolar     --     0.0000                 0.0000                 0.0000
 Atom AN      X      Y      Z        X      Y      Z        X      Y      Z
   1   8     0.00   0.00  -0.00     0.00   0.00   0.00     0.00  -0.00   0.00
   2   6    -0.00   0.00   0.00    -0.00  -0.00  -0.00    -0.00   0.00   0.00
   3   6     0.00  -0.00  -0.00    -0.00   0.00   0.00    -0.00  -0.00  -0.00
   4   6     0.00  -0.03   0.00    -0.00   0.00  -0.00    -0.00   0.00  -0.00
   5   6    -0.04   0.07   0.11     0.00  -0.00  -0.01     0.00  -0.00  -0.00
   6   6    -0.01  -0.02   0.04     0.00   0.01  -0.01     0.00   0.00  -0.01
   7   6    -0.02   0.22  -0.01     0.00  -0.02   0.00    -0.00   0.00  -0.00
   8   6    -0.00   0.01   0.00     0.00  -0.00  -0.00    -0.00   0.00   0.00
   9   6    -0.00   0.00   0.00    -0.00   0.00  -0.00    -0.00   0.00  -0.00
  10   6     0.00  -0.00   0.00     0.00   0.01   0.00    -0.00  -0.00   0.00
  11   6     0.01  -0.01   0.00    -0.08   0.10  -0.02    -0.04   0.05  -0.01
  12   6    -0.03  -0.00  -0.00    -0.13  -0.02  -0.01    -0.14  -0.02  -0.02
  13   6     0.00   0.01  -0.00     0.05   0.13  -0.00    -0.02  -0.07   0.00
  14   6    -0.01   0.01  -0.00    -0.05   0.06  -0.01    -0.06   0.07  -0.01
  15   6     0.01   0.00   0.00     0.12   0.01   0.01    -0.19  -0.03  -0.02
  16   6     0.00   0.00  -0.00    -0.00   0.00   0.00    -0.00  -0.00  -0.00
  17   6    -0.00   0.00   0.00     0.00  -0.00  -0.00    -0.00   0.00   0.01
  18   6    -0.00  -0.00  -0.00     0.00   0.00   0.00    -0.00  -0.00  -0.01
  19   6    -0.00   0.00  -0.00     0.00  -0.00   0.00    -0.00   0.00   0.00
  20  35     0.00   0.00   0.00    -0.00   0.00   0.00     0.00  -0.00  -0.00
  21   6    -0.00   0.00   0.00     0.00  -0.00  -0.00    -0.01   0.01   0.02
  22   6     0.00   0.00   0.00     0.00   0.00   0.01    -0.02  -0.01  -0.03
  23   6     0.00   0.00  -0.00     0.00  -0.00   0.00    -0.00   0.00  -0.00
  24   6    -0.00   0.00   0.00     0.00  -0.01   0.00    -0.00   0.00  -0.00
  25   6     0.00   0.00   0.00     0.00   0.00   0.01     0.00   0.01   0.02
  26   6    -0.00   0.00  -0.00     0.00  -0.00   0.01     0.00  -0.00   0.01
  27   6     0.00  -0.00   0.00    -0.00   0.00  -0.00    -0.00   0.00  -0.00
  28   6     0.00  -0.00   0.00    -0.00   0.00  -0.00    -0.00  -0.00   0.00
  29   1    -0.01   0.11  -0.01     0.00  -0.01   0.00     0.00  -0.01   0.00
  30   1     0.13  -0.24  -0.39    -0.01   0.02   0.02    -0.00   0.01   0.01
  31   1     0.03   0.09  -0.16    -0.01  -0.02   0.03    -0.01  -0.02   0.03
  32   1     0.09  -0.79   0.04    -0.01   0.07  -0.00    -0.00  -0.00   0.00
  33   1    -0.04   0.05  -0.01     0.27  -0.34   0.06     0.13  -0.17   0.03
  34   1     0.10   0.02   0.01     0.46   0.07   0.05     0.49   0.07   0.05
  35   1    -0.02  -0.05   0.00    -0.18  -0.46   0.01     0.09   0.23  -0.01
  36   1     0.03  -0.04   0.01     0.17  -0.21   0.04     0.19  -0.24   0.04
  37   1    -0.05  -0.01  -0.01    -0.43  -0.06  -0.05     0.66   0.09   0.08
  38   1     0.01  -0.00  -0.02    -0.00   0.00   0.01     0.01  -0.01  -0.02
  39   1     0.00   0.00   0.01    -0.00  -0.00  -0.01     0.01   0.01   0.02
  40   1     0.00  -0.00  -0.00    -0.01   0.00   0.01     0.05  -0.02  -0.08
  41   1    -0.00  -0.00  -0.01    -0.01  -0.01  -0.02     0.05   0.03   0.10
  42   1     0.00  -0.00  -0.00    -0.00   0.04  -0.00    -0.00  -0.01   0.00
  43   1    -0.00  -0.00  -0.00    -0.00  -0.01  -0.02    -0.01  -0.03  -0.05
  44   1     0.00  -0.00   0.00    -0.00   0.01  -0.02    -0.00   0.01  -0.02
  45   1    -0.00   0.00  -0.00     0.00  -0.01   0.00     0.00  -0.01   0.00
                    121                    122                    123
                        a                      a                      a 
 Frequencies --  3093.4648              3095.2938              3095.5036
 Red. masses --     1.8732                 1.8705                 1.8019
 Frc consts  --     0.0000                 0.0000                 0.0000
 IR Inten    --    14.3662                10.2002                 0.3414
 Raman Activ --     0.0000                 0.0000                 0.0000
 Depolar     --     0.0000                 0.0000                 0.0000
 Atom AN      X      Y      Z        X      Y      Z        X      Y      Z
   1   8     0.00   0.00  -0.00     0.00  -0.00  -0.00     0.00   0.00   0.00
   2   6     0.00  -0.00   0.00    -0.00   0.00   0.00     0.00  -0.00  -0.00
   3   6    -0.00   0.00  -0.00     0.00   0.00  -0.00    -0.00  -0.00   0.00
   4   6    -0.00   0.00   0.00    -0.00   0.04  -0.00     0.00  -0.01   0.00
   5   6     0.00  -0.00  -0.00     0.02  -0.04  -0.06    -0.01   0.01   0.02
   6   6     0.00   0.01  -0.01     0.04   0.11  -0.19    -0.01  -0.04   0.06
   7   6    -0.00   0.01  -0.00    -0.01   0.11  -0.01     0.00  -0.04   0.00
   8   6    -0.00   0.00   0.00    -0.00   0.00   0.00     0.00  -0.00  -0.00
   9   6    -0.00  -0.00  -0.00     0.00   0.00  -0.00     0.00  -0.00   0.00
  10   6     0.00  -0.00   0.00    -0.00  -0.00   0.00    -0.00  -0.00   0.00
  11   6    -0.00   0.00  -0.00     0.00   0.00   0.00    -0.01   0.01  -0.00
  12   6    -0.00  -0.00  -0.00    -0.01  -0.00  -0.00    -0.02  -0.00  -0.00
  13   6     0.00   0.01  -0.00    -0.01  -0.02   0.00    -0.00  -0.01   0.00
  14   6    -0.01   0.01  -0.00     0.01  -0.01   0.00    -0.01   0.01  -0.00
  15   6    -0.01  -0.00  -0.00     0.00   0.00   0.00    -0.03  -0.00  -0.00
  16   6    -0.00  -0.00  -0.00     0.00   0.00   0.00     0.00   0.00   0.00
  17   6     0.00   0.00   0.00    -0.01   0.00   0.01    -0.03   0.02   0.05
  18   6     0.00   0.00   0.00    -0.01  -0.01  -0.02    -0.05  -0.03  -0.07
  19   6    -0.00   0.00   0.00     0.00  -0.00  -0.00     0.00  -0.00  -0.00
  20  35     0.00  -0.00  -0.00    -0.00   0.00   0.00    -0.00   0.00   0.00
  21   6    -0.02   0.01   0.03     0.03  -0.02  -0.05     0.09  -0.04  -0.14
  22   6    -0.02  -0.01  -0.03     0.02   0.02   0.04     0.06   0.04   0.11
  23   6     0.00   0.00   0.00     0.00  -0.00  -0.00     0.00  -0.00  -0.00
  24   6     0.00  -0.08   0.00     0.00  -0.00   0.00     0.00  -0.01   0.00
  25   6    -0.03  -0.13  -0.20    -0.00  -0.00  -0.00    -0.00  -0.02  -0.03
  26   6    -0.01   0.04  -0.08    -0.00   0.00  -0.00    -0.00   0.01  -0.01
  27   6     0.00  -0.04   0.00     0.00  -0.00   0.00     0.00  -0.01   0.00
  28   6     0.00  -0.00  -0.00     0.00  -0.00  -0.00     0.00   0.00  -0.00
  29   1     0.00  -0.01   0.00     0.01  -0.16   0.01    -0.00   0.05  -0.00
  30   1    -0.00   0.01   0.01    -0.07   0.13   0.20     0.02  -0.04  -0.07
  31   1    -0.01  -0.02   0.03    -0.15  -0.38   0.66     0.05   0.13  -0.22
  32   1     0.00  -0.02   0.00     0.04  -0.35   0.02    -0.01   0.13  -0.01
  33   1     0.01  -0.01   0.00    -0.00   0.00  -0.00     0.02  -0.03   0.00
  34   1     0.01   0.00   0.00     0.03   0.00   0.00     0.06   0.01   0.01
  35   1    -0.01  -0.03   0.00     0.02   0.06  -0.00     0.01   0.03  -0.00
  36   1     0.03  -0.03   0.01    -0.02   0.03  -0.01     0.02  -0.03   0.00
  37   1     0.04   0.01   0.00    -0.01  -0.00  -0.00     0.10   0.01   0.01
  38   1     0.00  -0.00  -0.00     0.03  -0.01  -0.05     0.12  -0.06  -0.19
  39   1    -0.00  -0.00  -0.00     0.03   0.02   0.06     0.16   0.10   0.27
  40   1     0.06  -0.03  -0.10    -0.12   0.06   0.19    -0.32   0.16   0.51
  41   1     0.06   0.04   0.11    -0.09  -0.06  -0.16    -0.23  -0.15  -0.41
  42   1    -0.02   0.25  -0.00     0.00   0.01  -0.00    -0.00   0.05  -0.00
  43   1     0.09   0.45   0.70     0.00   0.01   0.01     0.02   0.08   0.12
  44   1     0.05  -0.14   0.26     0.00  -0.00   0.00     0.01  -0.02   0.04
  45   1    -0.01   0.17  -0.00    -0.00   0.00  -0.00    -0.00   0.04  -0.00
                    124                    125                    126
                        a                      a                      a 
 Frequencies --  3096.6195              3098.3952              3105.6976
 Red. masses --     1.7901                 1.9202                 1.8750
 Frc consts  --     0.0000                 0.0000                 0.0000
 IR Inten    --     7.0698                36.7719                10.2787
 Raman Activ --     0.0000                 0.0000                 0.0000
 Depolar     --     0.0000                 0.0000                 0.0000
 Atom AN      X      Y      Z        X      Y      Z        X      Y      Z
   1   8    -0.00  -0.00   0.00    -0.00  -0.00  -0.00     0.00   0.00  -0.00
   2   6    -0.00   0.00   0.00    -0.00   0.00   0.00    -0.00  -0.00   0.00
   3   6    -0.00   0.00  -0.00     0.00   0.00  -0.00     0.00  -0.00  -0.00
   4   6    -0.00   0.00  -0.00    -0.00   0.01  -0.00    -0.00   0.01  -0.00
   5   6     0.00  -0.00  -0.00     0.00  -0.00  -0.00    -0.00   0.00   0.00
   6   6     0.00   0.01  -0.01     0.00   0.01  -0.01    -0.00  -0.00   0.00
   7   6    -0.00   0.00   0.00    -0.00   0.01  -0.00     0.00  -0.00   0.00
   8   6    -0.00  -0.00  -0.00    -0.00   0.00   0.00    -0.00  -0.00  -0.00
   9   6    -0.00   0.00  -0.00    -0.00  -0.00  -0.00     0.00  -0.00   0.00
  10   6     0.00   0.00   0.00    -0.00  -0.00   0.00    -0.00  -0.00   0.00
  11   6     0.00  -0.01   0.00     0.03  -0.04   0.01    -0.00   0.00  -0.00
  12   6     0.01   0.00   0.00     0.13   0.02   0.01     0.00   0.00   0.00
  13   6     0.00   0.01  -0.00     0.07   0.17  -0.00     0.00   0.00  -0.00
  14   6     0.00  -0.00   0.00    -0.09   0.11  -0.02    -0.00   0.00  -0.00
  15   6     0.02   0.00   0.00    -0.11  -0.02  -0.01    -0.01  -0.00  -0.00
  16   6    -0.01   0.00   0.00     0.00  -0.00   0.00     0.01   0.00  -0.00
  17   6    -0.07   0.04   0.12    -0.00  -0.00   0.00    -0.02   0.01   0.03
  18   6    -0.09  -0.06  -0.16     0.00   0.00   0.00     0.01   0.01   0.02
  19   6    -0.01  -0.00  -0.00     0.00   0.00  -0.00    -0.01  -0.00  -0.00
  20  35     0.00   0.00   0.00     0.00  -0.00   0.00     0.00   0.00   0.00
  21   6    -0.04   0.02   0.07     0.01  -0.00  -0.01    -0.09   0.04   0.14
  22   6    -0.03  -0.02  -0.06    -0.00  -0.00   0.00     0.10   0.06   0.17
  23   6    -0.00   0.00   0.00    -0.00   0.00  -0.00     0.00  -0.00  -0.00
  24   6    -0.00   0.01  -0.00    -0.00   0.01   0.00     0.00  -0.00   0.00
  25   6     0.00   0.01   0.01     0.00   0.01   0.01     0.00   0.00   0.00
  26   6     0.00  -0.00   0.00     0.00  -0.00   0.00     0.00  -0.01   0.01
  27   6    -0.00   0.01  -0.00    -0.00   0.01  -0.00     0.00  -0.05  -0.00
  28   6    -0.00   0.00   0.00    -0.00   0.00   0.00    -0.00  -0.00  -0.00
  29   1     0.00  -0.02   0.00     0.00  -0.03   0.00     0.00  -0.05   0.00
  30   1    -0.00   0.01   0.01    -0.01   0.01   0.02     0.00  -0.00  -0.01
  31   1    -0.01  -0.02   0.04    -0.01  -0.03   0.05     0.00   0.00  -0.00
  32   1     0.00  -0.00  -0.00     0.00  -0.03   0.00    -0.00   0.01  -0.00
  33   1    -0.01   0.02  -0.00    -0.09   0.12  -0.02     0.00  -0.00   0.00
  34   1    -0.05  -0.01  -0.01    -0.41  -0.06  -0.04    -0.00  -0.00  -0.00
  35   1    -0.01  -0.04   0.00    -0.22  -0.56   0.01    -0.00  -0.01   0.00
  36   1    -0.01   0.01  -0.00     0.28  -0.36   0.06     0.01  -0.01   0.00
  37   1    -0.07  -0.01  -0.01     0.36   0.05   0.04     0.04   0.01   0.00
  38   1     0.26  -0.13  -0.43     0.00  -0.00  -0.00     0.07  -0.03  -0.11
  39   1     0.33   0.21   0.58    -0.01  -0.00  -0.01    -0.04  -0.02  -0.07
  40   1     0.15  -0.08  -0.24    -0.02   0.01   0.04     0.30  -0.15  -0.48
  41   1     0.12   0.08   0.21    -0.00  -0.00  -0.00    -0.34  -0.21  -0.59
  42   1     0.00  -0.02   0.00     0.00  -0.02   0.00     0.00   0.01  -0.00
  43   1    -0.01  -0.03  -0.05    -0.00  -0.02  -0.03    -0.00  -0.00  -0.00
  44   1    -0.00   0.01  -0.02    -0.00   0.01  -0.01    -0.01   0.02  -0.03
  45   1     0.00  -0.02   0.00     0.00  -0.02   0.00    -0.01   0.19  -0.00
                    127                    128                    129
                        a                      a                      a 
 Frequencies --  3106.0893              3106.8285              3107.0558
 Red. masses --     1.8618                 1.8755                 1.8614
 Frc consts  --     0.0000                 0.0000                 0.0000
 IR Inten    --     3.6077                 9.6331                17.1709
 Raman Activ --     0.0000                 0.0000                 0.0000
 Depolar     --     0.0000                 0.0000                 0.0000
 Atom AN      X      Y      Z        X      Y      Z        X      Y      Z
   1   8    -0.00   0.00   0.00     0.00   0.00   0.00     0.00  -0.00   0.00
   2   6     0.00  -0.00  -0.00     0.00  -0.00  -0.00    -0.00   0.00  -0.00
   3   6    -0.00  -0.00   0.00     0.00   0.00  -0.00    -0.00  -0.00   0.01
   4   6     0.01  -0.10   0.01    -0.00   0.02  -0.00     0.02  -0.24   0.02
   5   6     0.01  -0.01  -0.02    -0.00   0.00   0.00     0.02  -0.03  -0.05
   6   6     0.00   0.01  -0.01    -0.00  -0.00   0.00     0.01   0.02  -0.03
   7   6    -0.00   0.00  -0.00     0.00   0.00  -0.00    -0.00   0.01  -0.00
   8   6     0.00  -0.00  -0.00     0.00  -0.00   0.00     0.00   0.00  -0.00
   9   6     0.00   0.00   0.00     0.00  -0.00  -0.00    -0.00  -0.00   0.00
  10   6    -0.00  -0.00  -0.00    -0.00  -0.00  -0.00     0.00  -0.00  -0.00
  11   6    -0.00   0.00   0.00    -0.00   0.00   0.00     0.00   0.00  -0.00
  12   6    -0.00  -0.00  -0.00     0.00   0.00   0.00     0.00   0.00   0.00
  13   6    -0.00  -0.00   0.00     0.00   0.00  -0.00     0.00   0.00  -0.00
  14   6     0.00  -0.00   0.00    -0.00   0.00  -0.00    -0.00   0.00  -0.00
  15   6    -0.00  -0.00  -0.00    -0.00  -0.00  -0.00    -0.00  -0.00  -0.00
  16   6     0.00   0.00  -0.00     0.01   0.00   0.00     0.00   0.00  -0.00
  17   6    -0.00   0.00   0.01     0.11  -0.05  -0.18     0.01  -0.01  -0.02
  18   6     0.00   0.00   0.00    -0.08  -0.05  -0.14    -0.01  -0.01  -0.01
  19   6    -0.00  -0.00  -0.00    -0.01   0.00   0.00    -0.00   0.00   0.00
  20  35     0.00   0.00   0.00     0.00   0.00  -0.00     0.00   0.00  -0.00
  21   6    -0.02   0.01   0.03    -0.02   0.01   0.03     0.00  -0.00  -0.00
  22   6     0.02   0.01   0.04     0.01   0.01   0.03    -0.00  -0.00  -0.00
  23   6    -0.00  -0.00  -0.00     0.00  -0.00  -0.00     0.00   0.00   0.00
  24   6     0.00  -0.01   0.00     0.00  -0.00   0.00    -0.00   0.00  -0.00
  25   6    -0.00  -0.02  -0.02    -0.00  -0.00  -0.00     0.00   0.01   0.01
  26   6    -0.01   0.03  -0.05    -0.00   0.00  -0.00     0.00  -0.01   0.02
  27   6    -0.01   0.24   0.00    -0.00   0.01   0.00     0.01  -0.10   0.00
  28   6     0.00   0.00   0.01     0.00   0.00   0.00    -0.00  -0.00  -0.00
  29   1    -0.03   0.36  -0.02     0.01  -0.08   0.00    -0.06   0.85  -0.04
  30   1    -0.02   0.04   0.06     0.00  -0.01  -0.01    -0.05   0.10   0.15
  31   1    -0.01  -0.02   0.03     0.00   0.00  -0.01    -0.02  -0.05   0.09
  32   1     0.00  -0.01   0.00     0.00  -0.01   0.00     0.00  -0.03   0.00
  33   1     0.00  -0.00   0.00     0.00  -0.00   0.00     0.00  -0.00   0.00
  34   1     0.00   0.00   0.00    -0.00  -0.00  -0.00    -0.01  -0.00  -0.00
  35   1     0.00   0.00  -0.00    -0.00  -0.01   0.00    -0.00  -0.01   0.00
  36   1    -0.00   0.00  -0.00     0.00  -0.00   0.00     0.01  -0.01   0.00
  37   1     0.01   0.00   0.00     0.01   0.00   0.00     0.00   0.00   0.00
  38   1     0.01  -0.01  -0.02    -0.38   0.19   0.63    -0.04   0.02   0.06
  39   1    -0.01  -0.00  -0.01     0.27   0.17   0.46     0.03   0.02   0.05
  40   1     0.06  -0.03  -0.09     0.05  -0.03  -0.09    -0.00   0.00   0.00
  41   1    -0.07  -0.05  -0.13    -0.06  -0.04  -0.10     0.01   0.00   0.01
  42   1    -0.00   0.02  -0.00     0.00   0.01  -0.00     0.00  -0.01   0.00
  43   1     0.01   0.05   0.08     0.00   0.00   0.01    -0.00  -0.02  -0.04
  44   1     0.03  -0.09   0.16     0.00  -0.00   0.01    -0.01   0.04  -0.07
  45   1     0.05  -0.84   0.01     0.00  -0.03   0.00    -0.02   0.36  -0.00
