 Entering Gaussian System
 *********************************************
 Gaussian 98:
 frequency output generated by the xtb code
 *********************************************
                         Standard orientation:
 --------------------------------------------------------------------
  Center     Atomic     Atomic              Coordinates (Angstroms)
  Number     Number      Type              X           Y           Z
 --------------------------------------------------------------------
    1          6             0        3.768701   -4.021925    3.315564
    2          6             0        5.132702   -3.749041    3.387399
    3          6             0        5.694298   -2.708846    2.673846
    4          6             0        4.862941   -1.933431    1.875520
    5          6             0        3.485869   -2.221839    1.815479
    6          6             0        2.920884   -3.263138    2.528629
    7          8             0        2.831320   -1.362544    0.986305
    8          6             0        3.778249   -0.509921    0.497676
    9          6             0        5.056852   -0.799981    1.011628
   10          6             0        6.172598   -0.031245    0.674946
   11          6             0        6.012104    1.048830   -0.161723
   12          6             0        4.748237    1.345932   -0.673942
   13          6             0        4.278218    2.420615   -1.503175
   14          6             0        4.913819    3.498894   -2.106190
   15          6             0        4.156336    4.377240   -2.854161
   16          6             0        2.784555    4.189036   -3.006623
   17          6             0        2.130787    3.123850   -2.416337
   18          6             0        2.886868    2.242497   -1.660092
   19          7             0        2.496651    1.086996   -0.995647
   20          6             0        1.229992    0.529056   -1.026447
   21          6             0        1.020300   -0.853608   -1.086874
   22          7             0       -0.191893   -1.363978   -1.075644
   23          6             0       -1.230507   -0.528353   -1.023135
   24          7             0       -2.496837   -1.086764   -0.989289
   25          6             0       -2.887536   -2.242705   -1.652877
   26          6             0       -2.132087   -3.124459   -2.409280
   27          6             0       -2.786248   -4.190151   -2.998220
   28          6             0       -4.157815   -4.378569   -2.844241
   29          6             0       -4.914716   -3.499756   -2.096244
   30          6             0       -4.278696   -2.420944   -1.494629
   31          6             0       -4.748202   -1.345709   -0.665823
   32          6             0       -6.011849   -1.048427   -0.153161
   33          6             0       -6.172123    0.032500    0.682434
   34          6             0       -5.056288    0.801657    1.017833
   35          6             0       -4.862250    1.936185    1.880274
   36          6             0       -5.693660    2.713332    2.676860
   37          6             0       -5.131947    3.754430    3.389001
   38          6             0       -3.767744    4.026395    3.317631
   39          6             0       -2.919913    3.266053    2.532209
   40          6             0       -3.485089    2.224105    1.820166
   41          8             0       -2.830686    1.363744    0.991963
   42          6             0       -3.777749    0.510902    0.504074
   43          6             0       -3.615656   -0.551763   -0.372348
   44          6             0       -1.020942    0.854380   -1.083457
   45          7             0        0.191290    1.364750   -1.075533
   46          6             0        3.615812    0.552263   -0.379218
   47          1             0        3.363661   -4.843907    3.886225
   48          1             0        5.759841   -4.365348    4.014099
   49          1             0        6.751333   -2.499186    2.730446
   50          1             0        1.864081   -3.467060    2.465872
   51          1             0        7.138376   -0.280104    1.085388
   52          1             0        6.851118    1.676301   -0.418695
   53          1             0        5.977372    3.641112   -1.989567
   54          1             0        4.629900    5.223535   -3.329125
   55          1             0        2.217985    4.892978   -3.597879
   56          1             0        1.068014    2.984769   -2.526949
   57          1             0        1.831969   -1.559099   -1.178240
   58          1             0       -1.069464   -2.985351   -2.520973
   59          1             0       -2.220092   -4.894428   -3.589449
   60          1             0       -4.631681   -5.225304   -3.318116
   61          1             0       -5.978156   -3.641961   -1.978651
   62          1             0       -6.850835   -1.676308   -0.409156
   63          1             0       -7.137748    0.281745    1.092991
   64          1             0       -6.750840    2.504421    2.733099
   65          1             0       -5.759163    4.372253    4.014129
   66          1             0       -3.362576    4.848972    3.887342
   67          1             0       -1.862966    3.469331    2.469739
   68          1             0       -1.832836    1.559938   -1.172072
 --------------------------------------------------------------------
     1 basis functions        1 primitive gaussians
     1 alpha electrons        1 beta electrons
 
 Harmonic frequencies (cm**-1), IR intensities (km*mol⁻¹),
 Raman scattering activities (A**4/amu), Raman depolarization ratios,
 reduced masses (AMU), force constants (mDyne/A) and normal coordinates:
                      1                      2                      3
                        a                      a                      a 
 Frequencies --     9.9847                12.9050                21.3806
 Red. masses --    11.2662                11.3948                11.1685
 Frc consts  --     0.0000                 0.0000                 0.0000
 IR Inten    --     0.0018                 0.0191                 0.0274
 Raman Activ --     0.0000                 0.0000                 0.0000
 Depolar     --     0.0000                 0.0000                 0.0000
 Atom AN      X      Y      Z        X      Y      Z        X      Y      Z
   1   6    -0.11   0.17   0.18     0.19   0.03   0.09     0.19  -0.04  -0.01
   2   6    -0.11   0.16   0.19     0.20   0.01   0.00     0.17   0.06   0.04
   3   6    -0.08   0.12   0.15     0.17  -0.01  -0.05     0.11   0.11   0.07
   4   6    -0.06   0.09   0.10     0.14  -0.02  -0.02     0.08   0.06   0.05
   5   6    -0.07   0.10   0.09     0.13   0.01   0.07     0.11  -0.04   0.00
   6   6    -0.09   0.14   0.13     0.15   0.03   0.12     0.16  -0.10  -0.03
   7   8    -0.05   0.08   0.05     0.11  -0.00   0.10     0.08  -0.09  -0.01
   8   6    -0.03   0.04   0.02     0.08  -0.03   0.01     0.03  -0.01   0.03
   9   6    -0.04   0.05   0.05     0.10  -0.04  -0.06     0.03   0.08   0.07
  10   6    -0.03   0.03   0.04     0.10  -0.06  -0.14    -0.01   0.16   0.12
  11   6    -0.01  -0.01  -0.01     0.07  -0.08  -0.15    -0.06   0.15   0.12
  12   6     0.00  -0.02  -0.04     0.04  -0.07  -0.08    -0.06   0.07   0.08
  13   6     0.02  -0.05  -0.09     0.01  -0.08  -0.08    -0.09   0.04   0.07
  14   6     0.03  -0.07  -0.13     0.00  -0.10  -0.14    -0.14   0.08   0.09
  15   6     0.04  -0.10  -0.17    -0.02  -0.11  -0.12    -0.16   0.04   0.07
  16   6     0.04  -0.09  -0.17    -0.04  -0.08  -0.04    -0.14  -0.05   0.01
  17   6     0.03  -0.06  -0.13    -0.02  -0.06   0.03    -0.10  -0.09  -0.01
  18   6     0.02  -0.04  -0.09     0.00  -0.06   0.01    -0.08  -0.04   0.02
  19   7     0.00  -0.01  -0.06     0.02  -0.04   0.06    -0.03  -0.08   0.00
  20   6    -0.00  -0.00  -0.04     0.01  -0.02   0.11    -0.02  -0.09   0.00
  21   6    -0.00  -0.00  -0.03    -0.01  -0.02   0.14    -0.02  -0.09   0.03
  22   7    -0.00  -0.00  -0.04    -0.02   0.00   0.14    -0.03  -0.10   0.03
  23   6    -0.00   0.00  -0.04    -0.01   0.02   0.11    -0.02  -0.09  -0.01
  24   7    -0.00   0.01  -0.06    -0.02   0.04   0.06    -0.03  -0.08  -0.00
  25   6    -0.02   0.04  -0.09    -0.00   0.06   0.01    -0.08  -0.04  -0.02
  26   6    -0.03   0.06  -0.13     0.02   0.06   0.03    -0.10  -0.09   0.01
  27   6    -0.04   0.09  -0.17     0.04   0.08  -0.04    -0.14  -0.05  -0.01
  28   6    -0.04   0.10  -0.17     0.02   0.11  -0.12    -0.16   0.03  -0.06
  29   6    -0.03   0.07  -0.13    -0.00   0.10  -0.14    -0.14   0.08  -0.09
  30   6    -0.02   0.05  -0.09    -0.01   0.08  -0.08    -0.09   0.04  -0.07
  31   6    -0.00   0.02  -0.04    -0.04   0.07  -0.08    -0.06   0.07  -0.08
  32   6     0.01   0.01  -0.01    -0.07   0.08  -0.15    -0.06   0.15  -0.12
  33   6     0.03  -0.03   0.04    -0.10   0.06  -0.14    -0.01   0.16  -0.12
  34   6     0.04  -0.05   0.05    -0.10   0.04  -0.06     0.03   0.08  -0.07
  35   6     0.06  -0.09   0.10    -0.14   0.02  -0.02     0.08   0.06  -0.05
  36   6     0.08  -0.12   0.15    -0.17   0.01  -0.05     0.11   0.11  -0.07
  37   6     0.11  -0.16   0.19    -0.20  -0.01   0.00     0.17   0.06  -0.04
  38   6     0.11  -0.17   0.18    -0.19  -0.03   0.09     0.19  -0.04   0.01
  39   6     0.09  -0.14   0.13    -0.15  -0.03   0.12     0.16  -0.10   0.03
  40   6     0.07  -0.10   0.09    -0.13  -0.01   0.07     0.11  -0.04  -0.00
  41   8     0.05  -0.08   0.05    -0.11   0.00   0.10     0.08  -0.09   0.01
  42   6     0.03  -0.04   0.02    -0.08   0.03   0.01     0.03  -0.01  -0.03
  43   6     0.01  -0.01  -0.02    -0.04   0.04   0.00    -0.02  -0.01  -0.04
  44   6     0.00   0.00  -0.03     0.01   0.02   0.14    -0.02  -0.09  -0.03
  45   7     0.00   0.00  -0.04     0.02  -0.00   0.14    -0.03  -0.10  -0.03
  46   6    -0.01   0.01  -0.02     0.04  -0.04   0.00    -0.02  -0.01   0.04
  47   1    -0.04   0.06   0.06     0.06   0.01   0.04     0.07  -0.02  -0.01
  48   1    -0.04   0.05   0.07     0.06   0.00  -0.01     0.06   0.03   0.02
  49   1    -0.02   0.03   0.05     0.05  -0.01  -0.04     0.03   0.05   0.03
  50   1    -0.03   0.04   0.04     0.04   0.01   0.05     0.05  -0.05  -0.02
  51   1    -0.01   0.01   0.02     0.03  -0.02  -0.05    -0.00   0.06   0.04
  52   1     0.00  -0.01  -0.01     0.02  -0.03  -0.06    -0.03   0.06   0.04
  53   1     0.01  -0.02  -0.04     0.00  -0.03  -0.06    -0.04   0.04   0.04
  54   1     0.02  -0.04  -0.06    -0.01  -0.04  -0.05    -0.06   0.02   0.02
  55   1     0.02  -0.03  -0.06    -0.02  -0.03  -0.01    -0.05  -0.02  -0.00
  56   1     0.01  -0.02  -0.04    -0.01  -0.01   0.03    -0.03  -0.04  -0.02
  57   1    -0.00  -0.00  -0.00    -0.01  -0.01   0.05    -0.01  -0.03   0.02
  58   1    -0.01   0.02  -0.04     0.01   0.01   0.03    -0.03  -0.04   0.02
  59   1    -0.02   0.03  -0.06     0.02   0.03  -0.01    -0.05  -0.02   0.00
  60   1    -0.02   0.04  -0.06     0.01   0.04  -0.05    -0.06   0.02  -0.02
  61   1    -0.01   0.02  -0.04    -0.00   0.04  -0.06    -0.04   0.04  -0.04
  62   1    -0.00   0.01  -0.01    -0.02   0.03  -0.06    -0.03   0.06  -0.04
  63   1     0.01  -0.01   0.02    -0.03   0.02  -0.05    -0.00   0.06  -0.04
  64   1     0.02  -0.03   0.05    -0.05   0.01  -0.04     0.03   0.05  -0.03
  65   1     0.04  -0.05   0.07    -0.06  -0.00  -0.01     0.06   0.03  -0.02
  66   1     0.04  -0.06   0.06    -0.06  -0.01   0.04     0.07  -0.02   0.01
  67   1     0.03  -0.04   0.04    -0.04  -0.01   0.05     0.05  -0.05   0.02
  68   1     0.00   0.00  -0.00     0.01   0.01   0.05    -0.01  -0.03  -0.02
                      4                      5                      6
                        a                      a                      a 
 Frequencies --    33.7157                35.5271                50.0963
 Red. masses --    10.9574                10.9389                11.8252
 Frc consts  --     0.0000                 0.0000                 0.0000
 IR Inten    --     0.0018                 0.3395                 0.2180
 Raman Activ --     0.0000                 0.0000                 0.0000
 Depolar     --     0.0000                 0.0000                 0.0000
 Atom AN      X      Y      Z        X      Y      Z        X      Y      Z
   1   6     0.12  -0.13  -0.10     0.07   0.12   0.20     0.10  -0.10  -0.06
   2   6     0.09  -0.02   0.00     0.09   0.06   0.09     0.11  -0.14  -0.16
   3   6     0.06   0.05   0.09     0.08  -0.01  -0.02     0.08  -0.10  -0.12
   4   6     0.05   0.02   0.07     0.06  -0.02  -0.01     0.03  -0.01   0.02
   5   6     0.08  -0.08  -0.04     0.04   0.03   0.10     0.02   0.03   0.11
   6   6     0.11  -0.16  -0.12     0.05   0.10   0.21     0.05  -0.01   0.08
   7   8     0.08  -0.11  -0.05     0.02   0.01   0.12    -0.03   0.10   0.23
   8   6     0.03  -0.01   0.04     0.01  -0.04   0.01    -0.03   0.08   0.16
   9   6     0.02   0.06   0.11     0.04  -0.07  -0.07    -0.01   0.03   0.06
  10   6    -0.00   0.13   0.19     0.04  -0.11  -0.16    -0.00  -0.00   0.01
  11   6    -0.01   0.11   0.17     0.02  -0.11  -0.15    -0.02   0.01   0.03
  12   6     0.00   0.04   0.09    -0.01  -0.07  -0.06    -0.04   0.03   0.08
  13   6     0.01  -0.01   0.03    -0.04  -0.03   0.01    -0.02  -0.00   0.04
  14   6     0.00  -0.02   0.01    -0.05  -0.01   0.03     0.01  -0.07  -0.06
  15   6     0.02  -0.09  -0.09    -0.08   0.05   0.14     0.02  -0.11  -0.13
  16   6     0.04  -0.16  -0.17    -0.09   0.10   0.22     0.02  -0.08  -0.09
  17   6     0.04  -0.15  -0.15    -0.08   0.08   0.20    -0.01  -0.01   0.01
  18   6     0.03  -0.08  -0.05    -0.05   0.01   0.10    -0.03   0.03   0.07
  19   7     0.03  -0.07  -0.03    -0.04  -0.01   0.08    -0.05   0.08   0.16
  20   6     0.02  -0.04  -0.01    -0.03  -0.01   0.05    -0.05   0.07   0.09
  21   6    -0.03  -0.03   0.01    -0.03  -0.02   0.06    -0.04   0.07   0.14
  22   7    -0.05   0.01   0.00    -0.03  -0.02   0.01    -0.05   0.07   0.05
  23   6    -0.02   0.04  -0.01    -0.03  -0.02  -0.05    -0.05   0.07  -0.10
  24   7    -0.04   0.07  -0.04    -0.04  -0.01  -0.08    -0.06   0.09  -0.17
  25   6    -0.03   0.08  -0.05    -0.05   0.01  -0.10    -0.03   0.03  -0.07
  26   6    -0.04   0.15  -0.16    -0.08   0.07  -0.19    -0.01  -0.01  -0.01
  27   6    -0.04   0.16  -0.18    -0.09   0.09  -0.21     0.01  -0.09   0.10
  28   6    -0.02   0.10  -0.09    -0.08   0.05  -0.13     0.02  -0.12   0.14
  29   6    -0.01   0.02   0.01    -0.05  -0.01  -0.03     0.00  -0.08   0.07
  30   6    -0.01   0.01   0.03    -0.04  -0.03  -0.02    -0.02  -0.00  -0.04
  31   6    -0.00  -0.04   0.09    -0.01  -0.07   0.05    -0.04   0.03  -0.09
  32   6     0.01  -0.12   0.18     0.02  -0.11   0.14    -0.02   0.01  -0.03
  33   6     0.00  -0.13   0.20     0.04  -0.11   0.15    -0.01  -0.00  -0.01
  34   6    -0.02  -0.06   0.11     0.04  -0.07   0.07    -0.01   0.03  -0.07
  35   6    -0.05  -0.02   0.07     0.06  -0.02   0.01     0.03  -0.01  -0.02
  36   6    -0.05  -0.05   0.09     0.08  -0.01   0.02     0.08  -0.11   0.13
  37   6    -0.09   0.03   0.00     0.09   0.06  -0.09     0.11  -0.16   0.17
  38   6    -0.12   0.13  -0.11     0.08   0.11  -0.20     0.10  -0.10   0.07
  39   6    -0.11   0.16  -0.13     0.05   0.09  -0.21     0.05  -0.01  -0.08
  40   6    -0.07   0.08  -0.04     0.04   0.03  -0.10     0.01   0.03  -0.11
  41   8    -0.07   0.11  -0.06     0.02   0.01  -0.12    -0.03   0.12  -0.25
  42   6    -0.03   0.01   0.04     0.01  -0.04  -0.01    -0.04   0.09  -0.17
  43   6    -0.02   0.01   0.04    -0.01  -0.05  -0.00    -0.05   0.08  -0.16
  44   6     0.03   0.03   0.01    -0.03  -0.02  -0.06    -0.04   0.07  -0.15
  45   7     0.05  -0.01   0.00    -0.03  -0.02  -0.01    -0.05   0.07  -0.05
  46   6     0.02  -0.01   0.04    -0.01  -0.04   0.00    -0.05   0.07   0.15
  47   1     0.04  -0.05  -0.05     0.02   0.05   0.08     0.04  -0.04  -0.03
  48   1     0.03  -0.00   0.00     0.03   0.02   0.02     0.04  -0.06  -0.08
  49   1     0.01   0.04   0.05     0.03  -0.01  -0.03     0.03  -0.04  -0.06
  50   1     0.04  -0.07  -0.06     0.01   0.04   0.09     0.01   0.01   0.05
  51   1    -0.00   0.05   0.07     0.02  -0.04  -0.06     0.00  -0.01  -0.01
  52   1    -0.01   0.05   0.06     0.01  -0.04  -0.06    -0.00  -0.01  -0.01
  53   1    -0.00   0.01   0.02    -0.01  -0.01  -0.01     0.00  -0.03  -0.03
  54   1     0.00  -0.03  -0.03    -0.03   0.02   0.05     0.01  -0.05  -0.06
  55   1     0.01  -0.06  -0.07    -0.03   0.04   0.09     0.01  -0.03  -0.04
  56   1     0.02  -0.06  -0.06    -0.03   0.03   0.08    -0.00   0.01   0.01
  57   1    -0.01  -0.02   0.01    -0.01  -0.01   0.03    -0.01   0.02   0.07
  58   1    -0.02   0.06  -0.07    -0.03   0.03  -0.07    -0.01   0.01  -0.01
  59   1    -0.02   0.06  -0.08    -0.03   0.04  -0.09     0.01  -0.04   0.05
  60   1    -0.01   0.03  -0.03    -0.03   0.02  -0.04     0.01  -0.05   0.07
  61   1     0.00  -0.01   0.02    -0.01  -0.01   0.01     0.00  -0.03   0.03
  62   1     0.01  -0.05   0.06     0.00  -0.04   0.06    -0.00  -0.01   0.01
  63   1     0.01  -0.06   0.08     0.02  -0.04   0.06     0.00  -0.01   0.02
  64   1    -0.01  -0.04   0.05     0.03  -0.01   0.03     0.03  -0.04   0.06
  65   1    -0.03   0.00   0.00     0.03   0.02  -0.02     0.04  -0.07   0.08
  66   1    -0.04   0.06  -0.05     0.02   0.05  -0.08     0.04  -0.04   0.03
  67   1    -0.04   0.07  -0.06     0.01   0.04  -0.09     0.01   0.01  -0.05
  68   1     0.01   0.02   0.01    -0.01  -0.01  -0.03    -0.01   0.02  -0.07
                      7                      8                      9
                        a                      a                      a 
 Frequencies --    50.2057                88.8907                95.0720
 Red. masses --    11.7806                11.0040                10.5013
 Frc consts  --     0.0000                 0.0000                 0.0000
 IR Inten    --     0.2340                 0.0581                 0.0265
 Raman Activ --     0.0000                 0.0000                 0.0000
 Depolar     --     0.0000                 0.0000                 0.0000
 Atom AN      X      Y      Z        X      Y      Z        X      Y      Z
   1   6     0.05   0.09   0.14    -0.07   0.05   0.02     0.05   0.08   0.11
   2   6     0.03   0.17   0.21    -0.03  -0.09  -0.13     0.09  -0.06  -0.09
   3   6     0.03   0.12   0.14     0.00  -0.13  -0.15     0.08  -0.11  -0.17
   4   6     0.05  -0.00   0.01    -0.00  -0.02  -0.05     0.03  -0.04  -0.06
   5   6     0.07  -0.07  -0.06    -0.03   0.08   0.06     0.01   0.05   0.08
   6   6     0.07  -0.03   0.00    -0.07   0.15   0.11     0.01   0.13   0.20
   7   8     0.09  -0.18  -0.18    -0.02   0.13   0.09    -0.01   0.07   0.12
   8   6     0.06  -0.12  -0.13     0.01   0.04   0.01    -0.00   0.01   0.02
   9   6     0.05  -0.05  -0.05     0.02  -0.02  -0.04     0.02  -0.03  -0.05
  10   6     0.04  -0.02  -0.01     0.02  -0.01  -0.04     0.02  -0.03  -0.03
  11   6     0.03  -0.03  -0.02     0.01   0.04   0.03    -0.00   0.04   0.07
  12   6     0.04  -0.07  -0.06     0.01   0.05   0.03    -0.01   0.04   0.09
  13   6     0.03  -0.03  -0.00    -0.01   0.05   0.03     0.01   0.05   0.09
  14   6     0.02   0.04   0.11    -0.05   0.15   0.17     0.02   0.11   0.21
  15   6     0.01   0.10   0.19    -0.05   0.12   0.14     0.07   0.07   0.12
  16   6     0.02   0.07   0.14    -0.01  -0.03  -0.06     0.11  -0.05  -0.11
  17   6     0.04   0.00   0.03     0.03  -0.11  -0.17     0.10  -0.10  -0.20
  18   6     0.04  -0.05  -0.04     0.02  -0.05  -0.10     0.04  -0.03  -0.06
  19   7     0.06  -0.11  -0.13     0.04  -0.08  -0.13     0.03  -0.04  -0.08
  20   6     0.03  -0.06  -0.10     0.05  -0.09  -0.08     0.01  -0.02  -0.10
  21   6    -0.04  -0.05  -0.09     0.05  -0.10   0.08    -0.01  -0.02  -0.08
  22   7    -0.07   0.01  -0.09     0.05  -0.11   0.18    -0.03   0.01  -0.11
  23   6    -0.03   0.05  -0.09     0.05  -0.09   0.08    -0.01   0.02  -0.10
  24   7    -0.05   0.11  -0.12     0.04  -0.08   0.13    -0.03   0.04  -0.08
  25   6    -0.04   0.05  -0.03     0.02  -0.05   0.10    -0.04   0.03  -0.06
  26   6    -0.03   0.00   0.03     0.03  -0.12   0.18    -0.10   0.10  -0.20
  27   6    -0.02  -0.07   0.13    -0.01  -0.03   0.06    -0.11   0.05  -0.11
  28   6    -0.01  -0.09   0.18    -0.05   0.12  -0.14    -0.07  -0.07   0.12
  29   6    -0.02  -0.03   0.11    -0.05   0.15  -0.17    -0.02  -0.11   0.21
  30   6    -0.03   0.03   0.00    -0.01   0.05  -0.04    -0.01  -0.05   0.09
  31   6    -0.04   0.07  -0.05     0.01   0.05  -0.03     0.01  -0.04   0.09
  32   6    -0.03   0.03  -0.02     0.01   0.04  -0.03     0.00  -0.04   0.07
  33   6    -0.04   0.02  -0.01     0.02  -0.01   0.04    -0.02   0.03  -0.03
  34   6    -0.05   0.05  -0.05     0.02  -0.02   0.04    -0.02   0.03  -0.05
  35   6    -0.05   0.00   0.01    -0.00  -0.02   0.05    -0.03   0.04  -0.06
  36   6    -0.04  -0.11   0.13     0.00  -0.13   0.15    -0.08   0.11  -0.17
  37   6    -0.04  -0.15   0.20    -0.03  -0.09   0.13    -0.09   0.06  -0.09
  38   6    -0.06  -0.08   0.14    -0.07   0.05  -0.02    -0.05  -0.08   0.11
  39   6    -0.08   0.03   0.01    -0.07   0.15  -0.11    -0.01  -0.12   0.20
  40   6    -0.07   0.07  -0.05    -0.03   0.08  -0.06    -0.01  -0.05   0.08
  41   8    -0.09   0.17  -0.16    -0.02   0.13  -0.09     0.01  -0.07   0.12
  42   6    -0.06   0.11  -0.12     0.01   0.04  -0.01     0.00  -0.01   0.02
  43   6    -0.05   0.11  -0.11     0.03   0.00   0.03     0.00  -0.01   0.01
  44   6     0.04   0.04  -0.08     0.05  -0.10  -0.08     0.01   0.02  -0.08
  45   7     0.07  -0.02  -0.09     0.05  -0.11  -0.18     0.03  -0.01  -0.11
  46   6     0.05  -0.11  -0.12     0.03   0.00  -0.03    -0.00   0.01   0.01
  47   1     0.02   0.04   0.06    -0.03   0.03   0.02     0.01   0.04   0.06
  48   1     0.01   0.08   0.09    -0.01  -0.05  -0.06     0.04  -0.03  -0.05
  49   1     0.01   0.05   0.06     0.01  -0.07  -0.07     0.03  -0.06  -0.09
  50   1     0.02  -0.03  -0.01    -0.03   0.07   0.06    -0.00   0.06   0.10
  51   1     0.01   0.01   0.01     0.01  -0.01  -0.02     0.01  -0.02  -0.02
  52   1     0.01   0.00   0.00     0.00   0.02   0.02    -0.00   0.02   0.03
  53   1     0.00   0.02   0.04    -0.02   0.07   0.09    -0.00   0.05   0.11
  54   1    -0.00   0.05   0.08    -0.02   0.06   0.07     0.02   0.03   0.06
  55   1     0.00   0.03   0.06    -0.00  -0.02  -0.03     0.04  -0.03  -0.06
  56   1     0.01  -0.00  -0.00     0.02  -0.06  -0.09     0.04  -0.05  -0.10
  57   1    -0.02  -0.03  -0.02     0.01  -0.03   0.04    -0.01  -0.01  -0.01
  58   1    -0.01   0.00  -0.00     0.02  -0.06   0.09    -0.04   0.05  -0.10
  59   1    -0.00  -0.03   0.05    -0.00  -0.02   0.03    -0.04   0.03  -0.06
  60   1    -0.00  -0.04   0.08    -0.02   0.06  -0.07    -0.02  -0.03   0.06
  61   1    -0.00  -0.01   0.04    -0.02   0.07  -0.09     0.00  -0.05   0.11
  62   1    -0.00  -0.00   0.00     0.00   0.02  -0.02     0.00  -0.02   0.03
  63   1    -0.01  -0.01   0.01     0.01  -0.01   0.02    -0.01   0.02  -0.02
  64   1    -0.01  -0.05   0.05     0.01  -0.07   0.07    -0.03   0.06  -0.09
  65   1    -0.01  -0.07   0.09    -0.01  -0.05   0.06    -0.04   0.03  -0.05
  66   1    -0.02  -0.04   0.06    -0.03   0.03  -0.02    -0.02  -0.04   0.06
  67   1    -0.03   0.02  -0.01    -0.03   0.07  -0.06     0.00  -0.06   0.10
  68   1     0.02   0.03  -0.01     0.01  -0.03  -0.04     0.01   0.01  -0.01
                     10                     11                     12
                        a                      a                      a 
 Frequencies --   104.1299               107.0347               112.2915
 Red. masses --    10.9809                11.6888                11.1161
 Frc consts  --     0.0000                 0.0000                 0.0000
 IR Inten    --     0.0027                 5.5109                 0.0119
 Raman Activ --     0.0000                 0.0000                 0.0000
 Depolar     --     0.0000                 0.0000                 0.0000
 Atom AN      X      Y      Z        X      Y      Z        X      Y      Z
   1   6    -0.14   0.04   0.04     0.10  -0.06  -0.05     0.08   0.09   0.17
   2   6    -0.13  -0.03   0.04     0.07   0.04   0.00     0.08   0.09   0.08
   3   6    -0.06  -0.09  -0.01     0.01   0.10   0.04     0.05  -0.01  -0.09
   4   6    -0.01  -0.07  -0.05    -0.03   0.04   0.03     0.01  -0.10  -0.13
   5   6    -0.02  -0.02  -0.05    -0.01  -0.03   0.01     0.01  -0.10  -0.06
   6   6    -0.09   0.04  -0.01     0.05  -0.10  -0.04     0.05  -0.02   0.09
   7   8     0.02  -0.03  -0.08    -0.05  -0.06   0.01    -0.02  -0.15  -0.09
   8   6     0.04  -0.05  -0.05    -0.08  -0.01  -0.01    -0.05  -0.08  -0.07
   9   6     0.03  -0.07  -0.05    -0.07   0.03   0.01    -0.03  -0.10  -0.12
  10   6     0.01  -0.03  -0.04    -0.06   0.00   0.01    -0.03  -0.07  -0.06
  11   6    -0.01   0.02   0.00    -0.05  -0.05  -0.05    -0.06   0.02   0.06
  12   6    -0.01   0.03  -0.00    -0.05  -0.08  -0.06    -0.07   0.04   0.11
  13   6    -0.08   0.03   0.02     0.01  -0.06  -0.06    -0.03   0.06   0.13
  14   6    -0.19   0.11   0.05     0.09  -0.06   0.03     0.03   0.05   0.16
  15   6    -0.26   0.03   0.02     0.15   0.04   0.09     0.10  -0.02   0.01
  16   6    -0.23  -0.13  -0.06     0.14   0.11   0.06     0.13  -0.08  -0.17
  17   6    -0.13  -0.19  -0.08     0.07   0.09  -0.05     0.07  -0.03  -0.14
  18   6    -0.06  -0.08  -0.02     0.01  -0.00  -0.09    -0.01   0.04   0.02
  19   7     0.02  -0.10  -0.02    -0.05  -0.00  -0.12    -0.06   0.06   0.02
  20   6     0.01  -0.06   0.09    -0.06   0.03  -0.09    -0.07   0.09   0.00
  21   6    -0.03  -0.05   0.13    -0.07   0.02   0.25    -0.07   0.10  -0.06
  22   7    -0.06   0.01   0.15    -0.07   0.02   0.37    -0.07   0.11  -0.07
  23   6    -0.01   0.06   0.09    -0.06   0.03   0.09    -0.07   0.09  -0.00
  24   7    -0.02   0.10  -0.02    -0.05  -0.00   0.12    -0.06   0.06  -0.02
  25   6     0.06   0.08  -0.02     0.01  -0.00   0.09    -0.01   0.05  -0.02
  26   6     0.13   0.19  -0.08     0.07   0.09   0.05     0.07  -0.03   0.14
  27   6     0.23   0.13  -0.07     0.14   0.11  -0.06     0.13  -0.08   0.17
  28   6     0.26  -0.03   0.02     0.15   0.04  -0.09     0.10  -0.02  -0.00
  29   6     0.19  -0.11   0.05     0.09  -0.06  -0.03     0.03   0.05  -0.16
  30   6     0.08  -0.03   0.02     0.01  -0.06   0.06    -0.03   0.06  -0.13
  31   6     0.01  -0.03   0.00    -0.05  -0.08   0.06    -0.07   0.04  -0.11
  32   6     0.01  -0.02   0.01    -0.05  -0.05   0.05    -0.06   0.02  -0.06
  33   6    -0.01   0.03  -0.05    -0.06   0.00  -0.01    -0.03  -0.07   0.06
  34   6    -0.03   0.07  -0.05    -0.07   0.03  -0.01    -0.03  -0.10   0.12
  35   6     0.01   0.07  -0.05    -0.03   0.04  -0.03     0.01  -0.10   0.13
  36   6     0.06   0.09  -0.01     0.01   0.10  -0.04     0.06  -0.01   0.09
  37   6     0.13   0.03   0.04     0.07   0.04  -0.00     0.08   0.09  -0.08
  38   6     0.14  -0.04   0.04     0.10  -0.06   0.05     0.08   0.09  -0.17
  39   6     0.09  -0.04  -0.01     0.05  -0.10   0.04     0.05  -0.02  -0.09
  40   6     0.02   0.02  -0.05    -0.01  -0.03  -0.01     0.01  -0.10   0.06
  41   8    -0.02   0.03  -0.08    -0.05  -0.06  -0.01    -0.02  -0.15   0.09
  42   6    -0.04   0.05  -0.05    -0.08  -0.01   0.01    -0.05  -0.08   0.07
  43   6    -0.03   0.04  -0.03    -0.08  -0.04   0.06    -0.07   0.01  -0.03
  44   6     0.03   0.05   0.12    -0.07   0.02  -0.25    -0.07   0.10   0.06
  45   7     0.06  -0.01   0.15    -0.07   0.02  -0.37    -0.07   0.11   0.07
  46   6     0.03  -0.04  -0.03    -0.08  -0.04  -0.06    -0.07   0.01   0.03
  47   1    -0.06   0.03   0.02     0.04  -0.03  -0.03     0.03   0.05   0.09
  48   1    -0.05  -0.01   0.02     0.03   0.02   0.00     0.03   0.05   0.04
  49   1    -0.02  -0.04   0.00    -0.00   0.05   0.02     0.02   0.00  -0.05
  50   1    -0.03   0.03  -0.01     0.02  -0.05  -0.02     0.01  -0.01   0.05
  51   1     0.01  -0.00  -0.02    -0.02   0.00   0.01    -0.01  -0.03  -0.03
  52   1    -0.00   0.01   0.01    -0.02  -0.01  -0.02    -0.02   0.02   0.03
  53   1    -0.06   0.07   0.02     0.03  -0.04   0.02     0.00   0.02   0.08
  54   1    -0.10   0.03   0.02     0.06   0.02   0.05     0.04  -0.01  -0.00
  55   1    -0.08  -0.06  -0.03     0.05   0.05   0.03     0.06  -0.04  -0.09
  56   1    -0.03  -0.09  -0.03     0.02   0.05  -0.02     0.02  -0.02  -0.08
  57   1    -0.02  -0.03   0.04    -0.02  -0.00   0.12    -0.02   0.03  -0.03
  58   1     0.03   0.09  -0.03     0.02   0.05   0.02     0.02  -0.02   0.08
  59   1     0.08   0.06  -0.03     0.05   0.05  -0.03     0.06  -0.04   0.09
  60   1     0.10  -0.03   0.02     0.06   0.02  -0.05     0.04  -0.01   0.00
  61   1     0.06  -0.07   0.03     0.03  -0.04  -0.02     0.00   0.02  -0.08
  62   1     0.00  -0.01   0.01    -0.02  -0.01   0.02    -0.02   0.02  -0.03
  63   1    -0.01   0.00  -0.02    -0.02   0.00  -0.01    -0.01  -0.03   0.03
  64   1     0.02   0.04   0.00    -0.00   0.05  -0.02     0.02   0.00   0.05
  65   1     0.05   0.01   0.02     0.03   0.02  -0.00     0.03   0.05  -0.04
  66   1     0.05  -0.03   0.02     0.04  -0.03   0.03     0.03   0.05  -0.09
  67   1     0.03  -0.03  -0.01     0.02  -0.05   0.02     0.01  -0.01  -0.05
  68   1     0.02   0.03   0.04    -0.02  -0.00  -0.12    -0.02   0.03   0.03
                     13                     14                     15
                        a                      a                      a 
 Frequencies --   124.8906               139.1473               140.7351
 Red. masses --    11.5584                11.8084                11.4432
 Frc consts  --     0.0000                 0.0000                 0.0000
 IR Inten    --     0.0040                 0.0002                 2.8897
 Raman Activ --     0.0000                 0.0000                 0.0000
 Depolar     --     0.0000                 0.0000                 0.0000
 Atom AN      X      Y      Z        X      Y      Z        X      Y      Z
   1   6     0.02   0.08   0.15    -0.11   0.08  -0.05    -0.14   0.04   0.01
   2   6     0.02   0.10   0.11    -0.11   0.04   0.02    -0.14   0.03   0.11
   3   6     0.02  -0.01  -0.05    -0.02  -0.01   0.01    -0.04  -0.06   0.05
   4   6     0.01  -0.12  -0.14     0.06   0.01  -0.06     0.06  -0.08  -0.07
   5   6     0.01  -0.13  -0.11     0.06   0.05  -0.10     0.05  -0.05  -0.11
   6   6     0.02  -0.05   0.02    -0.03   0.09  -0.13    -0.04  -0.00  -0.12
   7   8    -0.01  -0.16  -0.13     0.12   0.08  -0.12     0.10  -0.04  -0.12
   8   6    -0.04  -0.08  -0.06     0.12   0.05  -0.06     0.10  -0.02  -0.05
   9   6    -0.02  -0.10  -0.12     0.12   0.01  -0.05     0.09  -0.06  -0.06
  10   6    -0.03  -0.06  -0.06     0.11   0.03  -0.03     0.07  -0.03  -0.06
  11   6    -0.06   0.03   0.07     0.10   0.05   0.00     0.04   0.03   0.01
  12   6    -0.07   0.07   0.13     0.09   0.07   0.02     0.03   0.07   0.06
  13   6    -0.06   0.09   0.15     0.09   0.07   0.03    -0.01   0.08   0.07
  14   6    -0.01  -0.01   0.02     0.12   0.06   0.05    -0.05   0.04  -0.03
  15   6     0.04  -0.11  -0.14     0.17   0.04  -0.01    -0.07  -0.04  -0.11
  16   6     0.03  -0.07  -0.13     0.18   0.03  -0.06    -0.07  -0.06  -0.05
  17   6    -0.02   0.05   0.04     0.14   0.05  -0.05    -0.05  -0.00   0.07
  18   6    -0.06   0.11   0.14     0.08   0.05   0.01    -0.02   0.05   0.10
  19   7    -0.08   0.12   0.15     0.06   0.06   0.02     0.01   0.05   0.12
  20   6    -0.04   0.07   0.02     0.04   0.03   0.14     0.03   0.02   0.06
  21   6     0.04   0.06  -0.07     0.00   0.02   0.20     0.03   0.00   0.30
  22   7     0.08  -0.02  -0.05     0.00   0.01   0.22     0.03   0.01   0.28
  23   6     0.04  -0.07   0.02    -0.04  -0.03   0.14     0.03   0.02  -0.05
  24   7     0.08  -0.12   0.15    -0.06  -0.06   0.02     0.01   0.05  -0.12
  25   6     0.06  -0.11   0.14    -0.08  -0.06   0.01    -0.02   0.05  -0.10
  26   6     0.02  -0.05   0.04    -0.14  -0.05  -0.05    -0.05  -0.00  -0.07
  27   6    -0.03   0.07  -0.13    -0.17  -0.02  -0.06    -0.07  -0.06   0.05
  28   6    -0.04   0.11  -0.14    -0.17  -0.04  -0.01    -0.07  -0.04   0.11
  29   6     0.01   0.01   0.02    -0.12  -0.06   0.05    -0.05   0.04   0.03
  30   6     0.06  -0.09   0.15    -0.09  -0.07   0.04    -0.02   0.08  -0.07
  31   6     0.07  -0.07   0.13    -0.09  -0.07   0.02     0.02   0.07  -0.06
  32   6     0.06  -0.03   0.07    -0.10  -0.06   0.00     0.04   0.03  -0.01
  33   6     0.03   0.06  -0.06    -0.12  -0.03  -0.03     0.07  -0.03   0.06
  34   6     0.02   0.10  -0.12    -0.12  -0.01  -0.05     0.09  -0.07   0.06
  35   6    -0.01   0.12  -0.14    -0.07  -0.01  -0.06     0.05  -0.08   0.07
  36   6    -0.02   0.01  -0.05     0.02   0.01   0.01    -0.04  -0.06  -0.06
  37   6    -0.02  -0.10   0.11     0.11  -0.04   0.02    -0.14   0.03  -0.11
  38   6    -0.02  -0.08   0.15     0.12  -0.08  -0.05    -0.13   0.03  -0.02
  39   6    -0.02   0.05   0.02     0.03  -0.09  -0.13    -0.04  -0.01   0.12
  40   6    -0.01   0.13  -0.11    -0.06  -0.05  -0.11     0.05  -0.05   0.11
  41   8     0.01   0.16  -0.13    -0.12  -0.07  -0.12     0.10  -0.04   0.12
  42   6     0.04   0.08  -0.06    -0.13  -0.05  -0.06     0.09  -0.02   0.04
  43   6     0.07  -0.05   0.08    -0.09  -0.07  -0.01     0.05   0.04  -0.05
  44   6    -0.05  -0.06  -0.07    -0.00  -0.02   0.21     0.03   0.00  -0.30
  45   7    -0.08   0.02  -0.05    -0.00  -0.01   0.22     0.03   0.01  -0.28
  46   6    -0.07   0.05   0.08     0.09   0.07  -0.01     0.05   0.04   0.05
  47   1     0.01   0.05   0.08    -0.05   0.03  -0.01    -0.06   0.03   0.01
  48   1     0.01   0.06   0.06    -0.05   0.01   0.02    -0.06   0.02   0.07
  49   1     0.00   0.00  -0.02    -0.00  -0.02   0.02    -0.01  -0.03   0.04
  50   1     0.01  -0.02   0.02    -0.01   0.04  -0.05    -0.01   0.01  -0.06
  51   1    -0.01  -0.03  -0.03     0.03   0.01  -0.01     0.03  -0.01  -0.03
  52   1    -0.02   0.02   0.03     0.03   0.02   0.01     0.01   0.01   0.01
  53   1    -0.00  -0.01   0.00     0.03   0.01   0.03    -0.01   0.02  -0.02
  54   1     0.02  -0.06  -0.08     0.05   0.01  -0.00    -0.02  -0.03  -0.06
  55   1     0.02  -0.04  -0.07     0.06   0.00  -0.03    -0.03  -0.04  -0.03
  56   1    -0.01   0.02   0.01     0.04   0.02  -0.03    -0.01  -0.01   0.03
  57   1     0.02   0.03  -0.04    -0.00   0.00   0.06     0.01  -0.01   0.15
  58   1     0.01  -0.02   0.01    -0.04  -0.02  -0.03    -0.01  -0.01  -0.03
  59   1    -0.02   0.04  -0.07    -0.06   0.00  -0.03    -0.03  -0.04   0.03
  60   1    -0.02   0.06  -0.08    -0.05  -0.01  -0.00    -0.02  -0.03   0.06
  61   1     0.00   0.01   0.00    -0.03  -0.01   0.03    -0.01   0.02   0.02
  62   1     0.02  -0.02   0.03    -0.03  -0.02   0.01     0.01   0.01  -0.01
  63   1     0.01   0.03  -0.03    -0.04  -0.01  -0.01     0.03  -0.01   0.03
  64   1    -0.00  -0.00  -0.02     0.00   0.02   0.02    -0.01  -0.03  -0.04
  65   1    -0.01  -0.06   0.06     0.05  -0.01   0.02    -0.06   0.02  -0.07
  66   1    -0.01  -0.05   0.08     0.05  -0.03  -0.01    -0.06   0.03  -0.01
  67   1    -0.01   0.02   0.02     0.01  -0.04  -0.06    -0.01   0.01   0.06
  68   1    -0.02  -0.03  -0.04     0.00  -0.00   0.06     0.01  -0.01  -0.15
                     16                     17                     18
                        a                      a                      a 
 Frequencies --   152.5967               153.6552               176.9555
 Red. masses --    10.2251                10.1370                11.7193
 Frc consts  --     0.0000                 0.0000                 0.0000
 IR Inten    --     0.2477                 1.0387                 0.0446
 Raman Activ --     0.0000                 0.0000                 0.0000
 Depolar     --     0.0000                 0.0000                 0.0000
 Atom AN      X      Y      Z        X      Y      Z        X      Y      Z
   1   6    -0.07   0.09   0.09    -0.02   0.11   0.12     0.08   0.04   0.06
   2   6    -0.03  -0.09  -0.07     0.02  -0.04  -0.07     0.08   0.05  -0.06
   3   6     0.03  -0.15  -0.12     0.03  -0.11  -0.17    -0.00   0.04  -0.13
   4   6     0.05  -0.05  -0.04     0.01  -0.06  -0.08    -0.10  -0.01  -0.07
   5   6     0.04   0.01  -0.02     0.00  -0.02  -0.04    -0.09  -0.05  -0.03
   6   6    -0.04   0.13   0.09    -0.02   0.10   0.12    -0.00  -0.03   0.07
   7   8     0.08  -0.02  -0.08     0.01  -0.07  -0.10    -0.13  -0.10  -0.06
   8   6     0.09  -0.03  -0.05     0.00  -0.05  -0.08    -0.14  -0.05  -0.08
   9   6     0.07  -0.00   0.01    -0.01  -0.01  -0.03    -0.14   0.00  -0.05
  10   6     0.02   0.15   0.19    -0.05   0.15   0.20    -0.15   0.06   0.09
  11   6     0.00   0.16   0.20    -0.06   0.17   0.22    -0.11   0.05   0.07
  12   6     0.04   0.02   0.01    -0.01   0.01   0.02    -0.07  -0.05  -0.06
  13   6     0.03  -0.02  -0.04     0.00  -0.02  -0.03    -0.03  -0.06  -0.09
  14   6     0.02  -0.08  -0.16     0.05  -0.11  -0.15     0.03  -0.05  -0.02
  15   6    -0.01  -0.06  -0.10     0.05  -0.07  -0.10     0.06   0.03   0.05
  16   6    -0.05   0.05   0.11     0.01   0.09   0.10     0.05   0.08   0.02
  17   6    -0.03   0.06   0.16    -0.02   0.12   0.14     0.01   0.04  -0.08
  18   6     0.02  -0.01   0.02    -0.01   0.01   0.00    -0.03  -0.02  -0.12
  19   7     0.05  -0.06  -0.03     0.00  -0.04  -0.07    -0.04  -0.01  -0.12
  20   6     0.04  -0.04  -0.05     0.01  -0.04  -0.06    -0.04   0.02   0.12
  21   6    -0.03  -0.03  -0.06     0.00  -0.05   0.00     0.01   0.01   0.24
  22   7    -0.06   0.02  -0.07     0.00  -0.05   0.07     0.03  -0.03   0.26
  23   6    -0.04   0.05  -0.05     0.01  -0.04   0.05     0.04  -0.02   0.12
  24   7    -0.05   0.06  -0.04     0.00  -0.04   0.07     0.04   0.01  -0.12
  25   6    -0.02   0.01   0.02    -0.01   0.01  -0.00     0.02   0.02  -0.12
  26   6     0.03  -0.06   0.16    -0.02   0.12  -0.13    -0.01  -0.04  -0.08
  27   6     0.05  -0.05   0.12     0.01   0.08  -0.10    -0.05  -0.08   0.02
  28   6     0.01   0.07  -0.10     0.05  -0.07   0.10    -0.06  -0.04   0.05
  29   6    -0.02   0.09  -0.16     0.05  -0.11   0.14    -0.03   0.05  -0.02
  30   6    -0.03   0.02  -0.04     0.00  -0.02   0.03     0.02   0.06  -0.09
  31   6    -0.04  -0.02   0.01    -0.02   0.01  -0.02     0.07   0.05  -0.06
  32   6    -0.00  -0.16   0.21    -0.06   0.16  -0.21     0.11  -0.05   0.07
  33   6    -0.02  -0.16   0.20    -0.06   0.15  -0.19     0.15  -0.06   0.09
  34   6    -0.07   0.00   0.01    -0.01  -0.01   0.03     0.14  -0.00  -0.05
  35   6    -0.05   0.05  -0.05     0.01  -0.05   0.08     0.10   0.01  -0.07
  36   6    -0.03   0.16  -0.12     0.03  -0.11   0.16     0.00  -0.04  -0.13
  37   6     0.03   0.09  -0.07     0.02  -0.04   0.07    -0.08  -0.05  -0.06
  38   6     0.08  -0.09   0.09    -0.01   0.10  -0.12    -0.08  -0.04   0.06
  39   6     0.04  -0.13   0.10    -0.02   0.09  -0.11     0.00   0.03   0.07
  40   6    -0.04  -0.01  -0.02    -0.00  -0.02   0.04     0.09   0.05  -0.03
  41   8    -0.08   0.02  -0.08     0.01  -0.07   0.10     0.13   0.10  -0.06
  42   6    -0.09   0.03  -0.05    -0.00  -0.05   0.08     0.14   0.05  -0.08
  43   6    -0.07   0.03  -0.04    -0.00  -0.04   0.06     0.08   0.05  -0.09
  44   6     0.03   0.04  -0.06     0.00  -0.05  -0.01    -0.01  -0.01   0.24
  45   7     0.06  -0.02  -0.06     0.01  -0.05  -0.07    -0.03   0.03   0.26
  46   6     0.07  -0.03  -0.04     0.00  -0.04  -0.06    -0.08  -0.05  -0.09
  47   1    -0.04   0.05   0.05    -0.01   0.06   0.07     0.04   0.02   0.04
  48   1    -0.01  -0.05  -0.03     0.01  -0.02  -0.04     0.04   0.02  -0.02
  49   1     0.02  -0.08  -0.06     0.02  -0.06  -0.08    -0.00   0.02  -0.07
  50   1    -0.02   0.07   0.05    -0.01   0.05   0.07    -0.00  -0.02   0.05
  51   1    -0.00   0.08   0.09    -0.03   0.08   0.10    -0.06   0.03   0.06
  52   1    -0.01   0.08   0.10    -0.03   0.09   0.11    -0.04   0.03   0.05
  53   1     0.01  -0.04  -0.08     0.02  -0.06  -0.07     0.01  -0.03   0.00
  54   1    -0.00  -0.03  -0.06     0.03  -0.04  -0.06     0.02   0.02   0.04
  55   1    -0.03   0.03   0.06     0.00   0.05   0.06     0.02   0.04   0.02
  56   1    -0.01   0.03   0.08    -0.01   0.06   0.07     0.00   0.02  -0.03
  57   1    -0.02  -0.02  -0.02    -0.00  -0.02   0.00     0.01   0.01   0.08
  58   1     0.01  -0.03   0.08    -0.01   0.06  -0.07    -0.00  -0.02  -0.03
  59   1     0.03  -0.03   0.06     0.00   0.05  -0.06    -0.02  -0.04   0.02
  60   1     0.00   0.03  -0.06     0.03  -0.04   0.06    -0.02  -0.02   0.04
  61   1    -0.01   0.04  -0.08     0.02  -0.06   0.07    -0.01   0.03   0.00
  62   1     0.01  -0.08   0.10    -0.03   0.08  -0.11     0.04  -0.03   0.05
  63   1     0.00  -0.08   0.10    -0.03   0.07  -0.10     0.06  -0.03   0.06
  64   1    -0.02   0.08  -0.06     0.02  -0.05   0.08     0.00  -0.02  -0.07
  65   1     0.01   0.05  -0.04     0.01  -0.02   0.03    -0.04  -0.02  -0.03
  66   1     0.04  -0.06   0.06    -0.01   0.06  -0.07    -0.04  -0.02   0.04
  67   1     0.02  -0.07   0.05    -0.01   0.05  -0.06     0.00   0.02   0.05
  68   1     0.02   0.02  -0.02    -0.00  -0.02  -0.00    -0.01  -0.01   0.08
                     19                     20                     21
                        a                      a                      a 
 Frequencies --   215.7337               240.7828               252.6047
 Red. masses --    11.4483                11.3474                11.0119
 Frc consts  --     0.0000                 0.0000                 0.0000
 IR Inten    --     0.0823                 0.5327                 0.1199
 Raman Activ --     0.0000                 0.0000                 0.0000
 Depolar     --     0.0000                 0.0000                 0.0000
 Atom AN      X      Y      Z        X      Y      Z        X      Y      Z
   1   6    -0.05  -0.02   0.08     0.11  -0.04   0.07     0.05  -0.02  -0.12
   2   6    -0.03  -0.11   0.02     0.09   0.05   0.04     0.05   0.00  -0.14
   3   6     0.02  -0.13   0.02    -0.02   0.04  -0.05    -0.03   0.16   0.04
   4   6     0.06  -0.04   0.05    -0.13  -0.07  -0.04    -0.08   0.13   0.09
   5   6     0.06  -0.05   0.02    -0.12  -0.09   0.00    -0.08   0.12   0.09
   6   6     0.00   0.01   0.06     0.01  -0.14   0.06    -0.04   0.10   0.08
   7   8     0.10  -0.10  -0.04    -0.16  -0.03   0.05    -0.05   0.00  -0.08
   8   6     0.06  -0.04  -0.01    -0.12  -0.00   0.02    -0.00  -0.10  -0.16
   9   6     0.05  -0.00   0.07    -0.13  -0.07  -0.00    -0.03  -0.01  -0.06
  10   6     0.01   0.09   0.14    -0.09  -0.13   0.04    -0.01  -0.05  -0.04
  11   6     0.01  -0.01   0.01     0.03  -0.07   0.09     0.02  -0.02   0.00
  12   6     0.04  -0.09  -0.11     0.08   0.04   0.03     0.01  -0.01   0.01
  13   6     0.05  -0.10  -0.16     0.10   0.05  -0.03    -0.03   0.09   0.19
  14   6    -0.03   0.02  -0.06    -0.04   0.10  -0.13    -0.01   0.04   0.14
  15   6    -0.11   0.10   0.11    -0.15   0.06  -0.08     0.04  -0.12  -0.10
  16   6    -0.09  -0.01   0.02    -0.16   0.03  -0.00     0.03  -0.09  -0.05
  17   6    -0.00  -0.13  -0.12    -0.02  -0.03   0.02    -0.03   0.06   0.17
  18   6     0.05  -0.08  -0.11     0.11   0.03  -0.04    -0.03   0.06   0.16
  19   7     0.01   0.03   0.03     0.13   0.05  -0.06     0.03  -0.10  -0.08
  20   6    -0.07   0.21   0.07     0.14   0.06  -0.06     0.04  -0.08  -0.01
  21   6    -0.07   0.22   0.06     0.14   0.06   0.01    -0.05  -0.07   0.03
  22   7    -0.07   0.24  -0.01     0.15   0.07   0.09    -0.09   0.03   0.05
  23   6    -0.07   0.21  -0.06     0.14   0.06   0.06    -0.04   0.08  -0.01
  24   7     0.01   0.03  -0.03     0.13   0.05   0.05    -0.03   0.10  -0.08
  25   6     0.05  -0.08   0.11     0.11   0.03   0.04     0.03  -0.06   0.15
  26   6    -0.00  -0.13   0.12    -0.02  -0.03  -0.02     0.03  -0.06   0.17
  27   6    -0.09  -0.01  -0.02    -0.16   0.03   0.00    -0.03   0.09  -0.05
  28   6    -0.11   0.09  -0.11    -0.15   0.06   0.08    -0.04   0.12  -0.10
  29   6    -0.03   0.02   0.06    -0.04   0.10   0.13     0.01  -0.04   0.13
  30   6     0.05  -0.10   0.16     0.10   0.05   0.03     0.03  -0.09   0.18
  31   6     0.04  -0.09   0.11     0.08   0.04  -0.03    -0.01   0.01   0.02
  32   6     0.01  -0.01  -0.01     0.03  -0.07  -0.09    -0.02   0.02   0.00
  33   6     0.01   0.09  -0.14    -0.09  -0.13  -0.04     0.01   0.05  -0.04
  34   6     0.05  -0.00  -0.07    -0.13  -0.07   0.00     0.03   0.01  -0.06
  35   6     0.06  -0.04  -0.05    -0.13  -0.08   0.04     0.08  -0.13   0.09
  36   6     0.02  -0.13  -0.02    -0.02   0.04   0.05     0.03  -0.16   0.04
  37   6    -0.03  -0.12  -0.02     0.09   0.05  -0.04    -0.05  -0.01  -0.14
  38   6    -0.05  -0.02  -0.08     0.11  -0.04  -0.07    -0.05   0.02  -0.12
  39   6     0.00   0.01  -0.06     0.01  -0.14  -0.05     0.04  -0.10   0.08
  40   6     0.06  -0.05  -0.02    -0.12  -0.09  -0.00     0.08  -0.12   0.09
  41   8     0.10  -0.10   0.04    -0.16  -0.03  -0.05     0.05  -0.00  -0.08
  42   6     0.06  -0.04   0.01    -0.12  -0.00  -0.03     0.00   0.10  -0.15
  43   6     0.02  -0.05   0.03     0.05   0.04  -0.02    -0.04   0.11  -0.15
  44   6    -0.08   0.22  -0.06     0.14   0.06  -0.01     0.05   0.08   0.03
  45   7    -0.07   0.24   0.01     0.15   0.07  -0.09     0.09  -0.02   0.05
  46   6     0.02  -0.05  -0.03     0.05   0.04   0.02     0.04  -0.11  -0.15
  47   1    -0.03   0.01   0.03     0.05  -0.01   0.03     0.03  -0.04  -0.07
  48   1    -0.01  -0.05  -0.00     0.04   0.04   0.02     0.03  -0.03  -0.08
  49   1     0.01  -0.06   0.01    -0.01   0.04  -0.04    -0.01   0.06   0.01
  50   1    -0.00   0.02   0.02     0.01  -0.08   0.04    -0.01   0.02   0.04
  51   1    -0.00   0.06   0.07    -0.03  -0.06   0.01    -0.01  -0.01   0.01
  52   1     0.00   0.00   0.00     0.03  -0.04   0.04     0.00   0.01   0.02
  53   1    -0.01   0.02  -0.02    -0.01   0.06  -0.07    -0.00   0.01   0.05
  54   1    -0.05   0.07   0.08    -0.06   0.02  -0.03     0.02  -0.07  -0.09
  55   1    -0.04   0.00   0.02    -0.07   0.00   0.02     0.02  -0.05  -0.06
  56   1     0.00  -0.06  -0.04    -0.00  -0.04   0.03    -0.01   0.03   0.06
  57   1    -0.02   0.07   0.03     0.04   0.02  -0.00    -0.03  -0.04   0.02
  58   1     0.00  -0.06   0.04    -0.00  -0.04  -0.03     0.01  -0.03   0.06
  59   1    -0.04   0.00  -0.02    -0.07   0.00  -0.02    -0.02   0.05  -0.06
  60   1    -0.05   0.07  -0.08    -0.06   0.02   0.03    -0.02   0.07  -0.09
  61   1    -0.01   0.02   0.02    -0.01   0.06   0.07     0.00  -0.01   0.05
  62   1     0.00   0.00  -0.00     0.03  -0.04  -0.04    -0.00  -0.01   0.02
  63   1    -0.00   0.06  -0.07    -0.03  -0.06  -0.01     0.01   0.01   0.00
  64   1     0.01  -0.06  -0.01    -0.01   0.04   0.04     0.01  -0.06   0.01
  65   1    -0.01  -0.05   0.00     0.04   0.04  -0.02    -0.03   0.03  -0.08
  66   1    -0.03   0.01  -0.03     0.05  -0.01  -0.03    -0.03   0.04  -0.07
  67   1    -0.00   0.02  -0.02     0.01  -0.08  -0.04     0.01  -0.02   0.04
  68   1    -0.02   0.07  -0.03     0.04   0.02   0.00     0.03   0.04   0.02
                     22                     23                     24
                        a                      a                      a 
 Frequencies --   255.8307               262.0977               275.7461
 Red. masses --    11.1160                11.7478                11.6432
 Frc consts  --     0.0000                 0.0000                 0.0000
 IR Inten    --     3.7406                 0.1339                 0.1633
 Raman Activ --     0.0000                 0.0000                 0.0000
 Depolar     --     0.0000                 0.0000                 0.0000
 Atom AN      X      Y      Z        X      Y      Z        X      Y      Z
   1   6     0.03  -0.07  -0.05    -0.05  -0.03   0.05    -0.04  -0.15   0.06
   2   6     0.04  -0.12  -0.13    -0.01  -0.18  -0.08    -0.05  -0.14   0.15
   3   6    -0.02   0.07   0.10     0.00  -0.07   0.08     0.01  -0.14   0.16
   4   6    -0.05   0.12   0.18     0.04   0.08   0.16     0.11  -0.08   0.06
   5   6    -0.04   0.08   0.13     0.06   0.00   0.06     0.10  -0.04   0.10
   6   6    -0.03   0.10   0.17    -0.01   0.09   0.13     0.05  -0.07   0.04
   7   8     0.02  -0.12  -0.12     0.12  -0.20  -0.17     0.08  -0.01   0.17
   8   6     0.03  -0.14  -0.17     0.05  -0.09  -0.08     0.04  -0.01   0.05
   9   6    -0.01  -0.01   0.01     0.03   0.06   0.10     0.07  -0.07  -0.01
  10   6    -0.01  -0.02   0.02    -0.01   0.12   0.08     0.02  -0.03  -0.11
  11   6     0.02  -0.06  -0.04    -0.02  -0.06  -0.14    -0.07   0.06   0.02
  12   6     0.03  -0.05  -0.06    -0.02  -0.09  -0.14    -0.08   0.09   0.05
  13   6    -0.00   0.09   0.12    -0.03  -0.02  -0.04    -0.04   0.10   0.01
  14   6    -0.04   0.11   0.10    -0.03   0.04   0.07    -0.03   0.06  -0.07
  15   6    -0.03  -0.05  -0.10     0.00   0.05   0.05     0.01   0.05  -0.13
  16   6    -0.02  -0.07  -0.11     0.03  -0.03  -0.11    -0.01   0.14  -0.04
  17   6    -0.03   0.06   0.11    -0.00   0.02  -0.06    -0.01   0.14  -0.03
  18   6    -0.00   0.10   0.13    -0.04   0.06   0.04    -0.03   0.06  -0.08
  19   7     0.03  -0.00  -0.04    -0.08   0.12   0.12    -0.00  -0.03  -0.20
  20   6     0.01   0.05  -0.05    -0.07   0.11   0.05    -0.02   0.02  -0.19
  21   6     0.01   0.05  -0.00     0.07   0.10  -0.03    -0.03   0.02  -0.16
  22   7     0.02   0.06   0.06     0.14  -0.05  -0.01    -0.03   0.03   0.05
  23   6     0.01   0.05   0.05     0.07  -0.11   0.05    -0.02   0.02   0.19
  24   7     0.03  -0.01   0.04     0.08  -0.12   0.12    -0.00  -0.03   0.20
  25   6    -0.00   0.10  -0.13     0.04  -0.06   0.03    -0.03   0.06   0.08
  26   6    -0.03   0.06  -0.11     0.00  -0.02  -0.06    -0.01   0.14   0.03
  27   6    -0.02  -0.08   0.11    -0.03   0.02  -0.11    -0.01   0.14   0.04
  28   6    -0.02  -0.05   0.10    -0.00  -0.05   0.05     0.01   0.05   0.13
  29   6    -0.04   0.11  -0.10     0.03  -0.04   0.07    -0.03   0.06   0.07
  30   6    -0.00   0.09  -0.12     0.03   0.02  -0.04    -0.04   0.10  -0.01
  31   6     0.03  -0.05   0.06     0.03   0.09  -0.14    -0.08   0.09  -0.05
  32   6     0.02  -0.06   0.04     0.02   0.06  -0.14    -0.07   0.06  -0.02
  33   6    -0.01  -0.02  -0.02     0.01  -0.12   0.08     0.02  -0.03   0.11
  34   6    -0.01  -0.01  -0.01    -0.03  -0.06   0.10     0.07  -0.07   0.01
  35   6    -0.05   0.12  -0.18    -0.04  -0.08   0.16     0.11  -0.09  -0.06
  36   6    -0.02   0.07  -0.10    -0.00   0.07   0.08     0.01  -0.14  -0.16
  37   6     0.04  -0.12   0.13     0.01   0.18  -0.08    -0.05  -0.14  -0.15
  38   6     0.03  -0.07   0.05     0.05   0.03   0.05    -0.04  -0.15  -0.06
  39   6    -0.03   0.10  -0.17     0.01  -0.09   0.13     0.05  -0.07  -0.04
  40   6    -0.04   0.08  -0.13    -0.06  -0.00   0.06     0.10  -0.04  -0.10
  41   8     0.02  -0.12   0.12    -0.12   0.20  -0.17     0.08  -0.01  -0.17
  42   6     0.03  -0.14   0.17    -0.05   0.08  -0.08     0.04  -0.01  -0.05
  43   6     0.05  -0.13   0.17     0.03   0.06  -0.06    -0.04   0.00   0.01
  44   6     0.01   0.05   0.00    -0.07  -0.10  -0.03    -0.03   0.02   0.16
  45   7     0.02   0.06  -0.06    -0.14   0.05  -0.01    -0.03   0.03  -0.05
  46   6     0.04  -0.12  -0.17    -0.03  -0.06  -0.06    -0.04   0.00  -0.01
  47   1     0.02  -0.05  -0.05    -0.03  -0.01   0.01    -0.03  -0.05  -0.00
  48   1     0.03  -0.08  -0.10     0.00  -0.10  -0.07    -0.02  -0.04   0.05
  49   1    -0.01   0.02   0.03     0.01  -0.04   0.03     0.00  -0.06   0.07
  50   1    -0.01   0.03   0.06    -0.01   0.05   0.04     0.01  -0.00  -0.01
  51   1    -0.01   0.02   0.04    -0.01   0.08   0.06     0.02  -0.01  -0.07
  52   1     0.00  -0.01   0.00    -0.01  -0.02  -0.07    -0.03   0.03   0.01
  53   1    -0.01   0.05   0.04    -0.01   0.02   0.04    -0.01   0.01  -0.02
  54   1    -0.00  -0.04  -0.07     0.00   0.02   0.03     0.02  -0.00  -0.06
  55   1    -0.00  -0.06  -0.08     0.02  -0.03  -0.06    -0.00   0.05   0.00
  56   1    -0.01   0.01   0.04     0.00   0.00  -0.03    -0.01   0.05  -0.00
  57   1     0.00   0.01  -0.00     0.04   0.06  -0.04    -0.01   0.01  -0.07
  58   1    -0.01   0.01  -0.04    -0.00  -0.00  -0.03    -0.01   0.05   0.00
  59   1    -0.00  -0.06   0.08    -0.02   0.03  -0.06    -0.00   0.05  -0.00
  60   1    -0.00  -0.04   0.07    -0.00  -0.02   0.03     0.02  -0.00   0.06
  61   1    -0.01   0.05  -0.04     0.01  -0.02   0.04    -0.01   0.01   0.02
  62   1     0.00  -0.01  -0.00     0.01   0.02  -0.07    -0.03   0.03  -0.01
  63   1    -0.01   0.02  -0.04     0.01  -0.08   0.06     0.02  -0.01   0.07
  64   1    -0.01   0.03  -0.03    -0.01   0.04   0.03     0.00  -0.06  -0.07
  65   1     0.03  -0.08   0.10     0.00   0.10  -0.07    -0.02  -0.04  -0.05
  66   1     0.02  -0.05   0.05     0.03   0.01   0.01    -0.03  -0.05   0.00
  67   1    -0.01   0.03  -0.06     0.01  -0.05   0.04     0.01  -0.00   0.01
  68   1     0.00   0.01   0.00    -0.04  -0.06  -0.04    -0.01   0.01   0.07
                     25                     26                     27
                        a                      a                      a 
 Frequencies --   282.3252               296.6399               297.9168
 Red. masses --    11.4736                11.1356                11.6867
 Frc consts  --     0.0000                 0.0000                 0.0000
 IR Inten    --     0.0634                 0.1319                 0.1041
 Raman Activ --     0.0000                 0.0000                 0.0000
 Depolar     --     0.0000                 0.0000                 0.0000
 Atom AN      X      Y      Z        X      Y      Z        X      Y      Z
   1   6     0.04   0.17  -0.03     0.08  -0.06   0.07     0.03  -0.04  -0.15
   2   6     0.05   0.13  -0.13     0.08  -0.06   0.01    -0.01   0.11   0.04
   3   6     0.01   0.11  -0.17    -0.02  -0.01   0.02    -0.00   0.10   0.04
   4   6    -0.10   0.07  -0.06    -0.09  -0.04   0.06     0.01  -0.03  -0.09
   5   6    -0.09   0.02  -0.12    -0.08  -0.06   0.03    -0.02   0.11   0.06
   6   6    -0.04   0.06  -0.06     0.01  -0.07   0.11    -0.00   0.02  -0.06
   7   8    -0.07   0.02  -0.17    -0.05  -0.07  -0.06    -0.04   0.22   0.19
   8   6    -0.02   0.05   0.02    -0.02  -0.00  -0.02     0.04  -0.07  -0.11
   9   6    -0.05   0.09   0.06    -0.06  -0.05   0.06     0.06  -0.16  -0.22
  10   6     0.01   0.01   0.12    -0.01  -0.12   0.08     0.05  -0.06  -0.02
  11   6     0.11  -0.10  -0.03     0.11  -0.11   0.06    -0.01   0.11   0.21
  12   6     0.11  -0.08  -0.01     0.16   0.07   0.00     0.03  -0.05   0.02
  13   6     0.09  -0.10  -0.01     0.18   0.13  -0.03     0.03  -0.05   0.04
  14   6     0.04  -0.05   0.03     0.01   0.22  -0.13     0.01  -0.06   0.02
  15   6    -0.05  -0.05   0.13    -0.09   0.15  -0.14    -0.03  -0.08   0.03
  16   6    -0.03  -0.15   0.06    -0.09   0.08  -0.08    -0.03  -0.08   0.07
  17   6     0.02  -0.18   0.04     0.07   0.03   0.01    -0.01  -0.09   0.05
  18   6     0.07  -0.07   0.08     0.17   0.08  -0.02     0.04  -0.06   0.01
  19   7     0.02   0.04   0.21     0.12   0.08  -0.05     0.02  -0.07  -0.05
  20   6     0.02   0.01   0.07     0.07   0.06  -0.01    -0.05   0.08  -0.00
  21   6     0.00   0.02  -0.09     0.01   0.06   0.02    -0.06   0.09   0.00
  22   7     0.00   0.02  -0.03     0.01   0.03   0.03    -0.06   0.11  -0.00
  23   6    -0.02  -0.01   0.07    -0.07  -0.06  -0.01    -0.05   0.08   0.00
  24   7    -0.02  -0.04   0.21    -0.12  -0.08  -0.05     0.01  -0.07   0.05
  25   6    -0.07   0.07   0.08    -0.18  -0.08  -0.02     0.04  -0.06  -0.01
  26   6    -0.02   0.18   0.04    -0.07  -0.03   0.01    -0.01  -0.09  -0.05
  27   6     0.03   0.15   0.06     0.09  -0.08  -0.07    -0.03  -0.08  -0.07
  28   6     0.05   0.05   0.13     0.09  -0.15  -0.14    -0.03  -0.09  -0.04
  29   6    -0.03   0.05   0.03    -0.01  -0.22  -0.13     0.01  -0.06  -0.02
  30   6    -0.09   0.10  -0.01    -0.18  -0.12  -0.03     0.03  -0.05  -0.04
  31   6    -0.11   0.08  -0.01    -0.16  -0.07   0.01     0.03  -0.05  -0.02
  32   6    -0.11   0.10  -0.03    -0.11   0.11   0.06    -0.01   0.11  -0.21
  33   6    -0.01  -0.01   0.13     0.01   0.12   0.08     0.05  -0.06   0.02
  34   6     0.05  -0.09   0.06     0.06   0.05   0.06     0.06  -0.16   0.22
  35   6     0.10  -0.07  -0.06     0.09   0.04   0.06     0.01  -0.03   0.09
  36   6    -0.01  -0.11  -0.17     0.02   0.01   0.02    -0.00   0.10  -0.04
  37   6    -0.05  -0.13  -0.13    -0.08   0.06   0.01    -0.01   0.11  -0.04
  38   6    -0.04  -0.17  -0.03    -0.08   0.06   0.07     0.03  -0.04   0.15
  39   6     0.04  -0.06  -0.05    -0.01   0.07   0.11    -0.00   0.02   0.06
  40   6     0.08  -0.02  -0.12     0.08   0.06   0.03    -0.02   0.11  -0.06
  41   8     0.06  -0.02  -0.17     0.05   0.07  -0.06    -0.04   0.22  -0.19
  42   6     0.02  -0.05   0.02     0.02   0.00  -0.02     0.04  -0.07   0.10
  43   6    -0.05  -0.04   0.07    -0.11  -0.06  -0.01     0.03  -0.11   0.12
  44   6    -0.01  -0.02  -0.09    -0.01  -0.06   0.02    -0.06   0.09  -0.00
  45   7    -0.00  -0.02  -0.03    -0.01  -0.03   0.03    -0.06   0.11   0.00
  46   6     0.05   0.04   0.07     0.11   0.06  -0.01     0.03  -0.11  -0.12
  47   1     0.02   0.06   0.02     0.03  -0.02   0.03     0.02  -0.04  -0.09
  48   1     0.02   0.04  -0.04     0.04  -0.02  -0.01    -0.01   0.05   0.04
  49   1     0.00   0.05  -0.08    -0.01   0.02  -0.01    -0.00   0.04   0.02
  50   1    -0.01  -0.00   0.00     0.00  -0.04   0.06     0.00  -0.00  -0.02
  51   1    -0.01  -0.01   0.06    -0.01  -0.06   0.03     0.01  -0.00   0.02
  52   1     0.04  -0.05  -0.03     0.06  -0.06   0.03    -0.03   0.09   0.14
  53   1     0.01  -0.00   0.00    -0.00   0.10  -0.06     0.00  -0.01  -0.01
  54   1    -0.03   0.01   0.06    -0.04   0.05  -0.05    -0.01  -0.02   0.00
  55   1    -0.01  -0.05   0.01    -0.05   0.01  -0.02    -0.01  -0.02   0.03
  56   1     0.01  -0.07   0.01     0.02  -0.02   0.03    -0.00  -0.03   0.02
  57   1    -0.00   0.01  -0.08    -0.00   0.01   0.01    -0.02   0.03   0.00
  58   1    -0.01   0.07   0.01    -0.02   0.02   0.03    -0.00  -0.03  -0.02
  59   1     0.01   0.05   0.01     0.05  -0.00  -0.02    -0.01  -0.02  -0.03
  60   1     0.03  -0.01   0.06     0.04  -0.05  -0.05    -0.01  -0.02  -0.00
  61   1    -0.01   0.00   0.00    -0.00  -0.10  -0.06     0.00  -0.02   0.00
  62   1    -0.04   0.05  -0.03    -0.06   0.06   0.03    -0.03   0.09  -0.14
  63   1     0.01   0.01   0.06     0.01   0.06   0.03     0.01  -0.00  -0.02
  64   1    -0.00  -0.05  -0.08     0.01  -0.02  -0.01    -0.00   0.04  -0.02
  65   1    -0.02  -0.04  -0.04    -0.04   0.02  -0.01    -0.01   0.05  -0.04
  66   1    -0.02  -0.06   0.02    -0.03   0.02   0.02     0.02  -0.04   0.09
  67   1     0.01   0.00   0.00    -0.00   0.04   0.06     0.00  -0.00   0.03
  68   1     0.00  -0.01  -0.08     0.00  -0.01   0.01    -0.02   0.03  -0.00
                     28                     29                     30
                        a                      a                      a 
 Frequencies --   314.8541               330.7473               333.5071
 Red. masses --    11.3050                11.5349                10.5579
 Frc consts  --     0.0000                 0.0000                 0.0000
 IR Inten    --     0.0206                 5.2012                 0.0061
 Raman Activ --     0.0000                 0.0000                 0.0000
 Depolar     --     0.0000                 0.0000                 0.0000
 Atom AN      X      Y      Z        X      Y      Z        X      Y      Z
   1   6    -0.03   0.07   0.11    -0.01   0.08  -0.03    -0.01   0.04   0.09
   2   6     0.00  -0.05  -0.05     0.01   0.01  -0.10    -0.02   0.05   0.10
   3   6     0.01  -0.06  -0.06     0.02   0.06  -0.01     0.03  -0.13  -0.13
   4   6    -0.01   0.06   0.07    -0.00   0.07   0.04     0.01  -0.05  -0.04
   5   6     0.02  -0.08  -0.08     0.01   0.02  -0.06     0.00  -0.03  -0.02
   6   6    -0.00  -0.01   0.00    -0.02   0.09  -0.00     0.04  -0.14  -0.14
   7   8     0.03  -0.16  -0.17     0.05  -0.07  -0.16    -0.03   0.12   0.16
   8   6    -0.05   0.11   0.14     0.01   0.06   0.08    -0.02   0.05   0.05
   9   6    -0.06   0.18   0.21     0.01   0.08   0.09    -0.02   0.05   0.07
  10   6    -0.02   0.01  -0.06     0.09  -0.11  -0.07    -0.04   0.11   0.14
  11   6     0.01  -0.08  -0.18     0.05  -0.05   0.02     0.02  -0.06  -0.09
  12   6    -0.06   0.10   0.10    -0.01   0.08   0.23     0.04  -0.13  -0.20
  13   6    -0.07   0.05   0.05     0.04  -0.01   0.11     0.01   0.00  -0.02
  14   6    -0.01   0.00   0.02     0.03  -0.09  -0.02    -0.04   0.13   0.16
  15   6     0.05  -0.02  -0.07    -0.04  -0.13   0.01     0.01  -0.01  -0.06
  16   6     0.03   0.06   0.01    -0.07  -0.05   0.16     0.03  -0.07  -0.14
  17   6    -0.02   0.08   0.02    -0.01  -0.13   0.05    -0.02   0.11   0.14
  18   6    -0.05  -0.01  -0.03     0.07  -0.09  -0.03    -0.01   0.06   0.07
  19   7     0.02  -0.09  -0.12     0.02  -0.10  -0.14     0.01  -0.01  -0.04
  20   6     0.04  -0.13  -0.04    -0.06   0.07  -0.20     0.01  -0.02  -0.02
  21   6    -0.07  -0.12   0.04    -0.08   0.09  -0.12    -0.01  -0.02   0.02
  22   7    -0.14   0.04   0.03    -0.08   0.09   0.14    -0.02   0.00  -0.01
  23   6    -0.04   0.13  -0.04    -0.06   0.07   0.20    -0.01   0.01  -0.03
  24   7    -0.02   0.09  -0.12     0.02  -0.10   0.14    -0.01   0.02  -0.04
  25   6     0.05   0.01  -0.03     0.07  -0.09   0.03     0.01  -0.06   0.07
  26   6     0.02  -0.08   0.02    -0.01  -0.13  -0.05     0.03  -0.12   0.15
  27   6    -0.03  -0.06   0.01    -0.07  -0.05  -0.16    -0.03   0.08  -0.15
  28   6    -0.05   0.02  -0.07    -0.04  -0.13  -0.01    -0.01   0.01  -0.06
  29   6     0.01  -0.00   0.02     0.03  -0.09   0.02     0.04  -0.14   0.17
  30   6     0.07  -0.05   0.05     0.04  -0.01  -0.11    -0.01  -0.00  -0.02
  31   6     0.06  -0.10   0.10    -0.01   0.07  -0.23    -0.05   0.13  -0.20
  32   6    -0.00   0.08  -0.18     0.05  -0.05  -0.02    -0.02   0.06  -0.09
  33   6     0.02  -0.01  -0.06     0.09  -0.11   0.07     0.04  -0.11   0.14
  34   6     0.06  -0.18   0.21     0.01   0.08  -0.09     0.02  -0.05   0.07
  35   6     0.01  -0.06   0.07    -0.00   0.07  -0.04    -0.01   0.05  -0.04
  36   6    -0.01   0.06  -0.06     0.02   0.06   0.01    -0.03   0.14  -0.14
  37   6    -0.00   0.05  -0.05     0.01   0.01   0.10     0.02  -0.06   0.11
  38   6     0.03  -0.07   0.11    -0.01   0.09   0.03     0.01  -0.04   0.09
  39   6     0.00   0.01   0.00    -0.02   0.09   0.00    -0.04   0.14  -0.15
  40   6    -0.02   0.08  -0.08     0.01   0.02   0.06    -0.01   0.03  -0.02
  41   8    -0.03   0.16  -0.17     0.05  -0.06   0.16     0.03  -0.12   0.16
  42   6     0.05  -0.11   0.14     0.01   0.06  -0.08     0.02  -0.05   0.06
  43   6     0.04  -0.10   0.13    -0.03   0.06  -0.12    -0.03   0.09  -0.13
  44   6     0.07   0.12   0.04    -0.08   0.09   0.12     0.01   0.01   0.01
  45   7     0.14  -0.04   0.03    -0.08   0.09  -0.14     0.02  -0.01  -0.01
  46   6    -0.04   0.10   0.13    -0.03   0.06   0.12     0.03  -0.09  -0.13
  47   1    -0.02   0.05   0.07    -0.00   0.03   0.00    -0.01   0.03   0.05
  48   1     0.00  -0.03  -0.03     0.00  -0.02  -0.05    -0.01   0.05   0.07
  49   1     0.01  -0.03  -0.03     0.00   0.02   0.00     0.02  -0.07  -0.07
  50   1    -0.00   0.00   0.00    -0.01   0.04   0.01     0.02  -0.07  -0.07
  51   1     0.01  -0.04  -0.08     0.04  -0.09  -0.08    -0.02   0.07   0.08
  52   1     0.02  -0.08  -0.14     0.02  -0.04  -0.04     0.01  -0.02  -0.02
  53   1    -0.00  -0.01   0.02     0.01  -0.02  -0.03    -0.02   0.07   0.09
  54   1     0.03  -0.02  -0.04    -0.02  -0.04  -0.02     0.01  -0.02  -0.04
  55   1     0.01   0.03   0.01    -0.03   0.01   0.08     0.02  -0.05  -0.09
  56   1    -0.01   0.04   0.01    -0.00  -0.06   0.02    -0.01   0.05   0.07
  57   1    -0.04  -0.07   0.04    -0.02   0.03  -0.05    -0.01  -0.01   0.02
  58   1     0.01  -0.04   0.01    -0.00  -0.05  -0.02     0.01  -0.06   0.08
  59   1    -0.01  -0.03   0.01    -0.03   0.01  -0.08    -0.02   0.06  -0.09
  60   1    -0.03   0.02  -0.04    -0.02  -0.04   0.02    -0.01   0.02  -0.04
  61   1     0.00   0.01   0.02     0.01  -0.02   0.03     0.02  -0.07   0.09
  62   1    -0.02   0.08  -0.14     0.02  -0.04   0.04    -0.01   0.02  -0.03
  63   1    -0.01   0.04  -0.08     0.04  -0.09   0.08     0.02  -0.07   0.09
  64   1    -0.00   0.03  -0.03     0.00   0.02  -0.00    -0.02   0.07  -0.08
  65   1    -0.00   0.03  -0.03     0.00  -0.02   0.05     0.01  -0.05   0.07
  66   1     0.02  -0.05   0.07    -0.00   0.03  -0.00     0.01  -0.04   0.06
  67   1     0.00  -0.00   0.00    -0.01   0.04  -0.01    -0.02   0.07  -0.08
  68   1     0.04   0.07   0.04    -0.02   0.03   0.05     0.01   0.01   0.02
                     31                     32                     33
                        a                      a                      a 
 Frequencies --   333.7700               386.2379               400.0022
 Red. masses --    10.7152                11.5877                11.0652
 Frc consts  --     0.0000                 0.0000                 0.0000
 IR Inten    --     0.1633                 0.7805                 3.3688
 Raman Activ --     0.0000                 0.0000                 0.0000
 Depolar     --     0.0000                 0.0000                 0.0000
 Atom AN      X      Y      Z        X      Y      Z        X      Y      Z
   1   6    -0.02   0.09   0.08     0.03  -0.07   0.00     0.02   0.01   0.01
   2   6    -0.02   0.07   0.07     0.01  -0.02   0.03     0.02  -0.01  -0.01
   3   6     0.04  -0.12  -0.16    -0.04   0.01   0.03    -0.01   0.01   0.00
   4   6     0.02  -0.02  -0.03    -0.03  -0.05  -0.04    -0.03  -0.01   0.01
   5   6     0.02  -0.02  -0.05    -0.04  -0.02   0.01    -0.02  -0.02  -0.02
   6   6     0.04  -0.10  -0.17    -0.00  -0.02   0.07    -0.01  -0.01   0.01
   7   8    -0.01   0.12   0.12    -0.05   0.02   0.02     0.01  -0.01  -0.05
   8   6    -0.01   0.08   0.10     0.00  -0.04  -0.04     0.01   0.04   0.03
   9   6    -0.01   0.09   0.11    -0.00  -0.06  -0.06    -0.01   0.01   0.05
  10   6     0.00   0.08   0.13    -0.06   0.08   0.02     0.03  -0.08  -0.03
  11   6     0.04  -0.09  -0.09    -0.00   0.05  -0.05     0.03  -0.01   0.06
  12   6     0.04  -0.12  -0.12     0.02   0.02  -0.12     0.03   0.07   0.06
  13   6     0.02  -0.02   0.03    -0.07   0.02  -0.07     0.05  -0.02  -0.08
  14   6    -0.03   0.09   0.18    -0.02  -0.00  -0.09    -0.03   0.15   0.11
  15   6    -0.02  -0.09  -0.04     0.04   0.15   0.04     0.03  -0.02  -0.16
  16   6    -0.01  -0.12  -0.08     0.07   0.06  -0.08     0.01   0.04  -0.03
  17   6    -0.04   0.05   0.18     0.03   0.05  -0.10     0.02   0.11   0.12
  18   6     0.02   0.02   0.07    -0.10   0.07   0.10     0.06  -0.14  -0.21
  19   7     0.01  -0.06  -0.10    -0.01   0.07   0.27     0.04  -0.15  -0.20
  20   6    -0.03   0.04  -0.15     0.12  -0.22   0.11    -0.08  -0.00   0.26
  21   6    -0.04   0.05  -0.10    -0.08  -0.19  -0.05    -0.10  -0.01   0.20
  22   7    -0.03   0.06   0.09    -0.23   0.15  -0.03    -0.09  -0.01  -0.20
  23   6    -0.03   0.04   0.15    -0.12   0.22   0.11    -0.08  -0.00  -0.26
  24   7     0.01  -0.06   0.10     0.01  -0.08   0.27     0.04  -0.15   0.19
  25   6     0.02   0.02  -0.07     0.10  -0.07   0.10     0.06  -0.14   0.21
  26   6    -0.04   0.05  -0.18    -0.03  -0.05  -0.10     0.02   0.11  -0.12
  27   6    -0.01  -0.12   0.07    -0.07  -0.06  -0.08     0.01   0.04   0.03
  28   6    -0.02  -0.09   0.04    -0.04  -0.15   0.04     0.03  -0.02   0.16
  29   6    -0.03   0.08  -0.17     0.02   0.01  -0.09    -0.03   0.15  -0.11
  30   6     0.02  -0.02  -0.03     0.07  -0.02  -0.07     0.05  -0.02   0.08
  31   6     0.04  -0.12   0.11    -0.02  -0.02  -0.12     0.03   0.06  -0.06
  32   6     0.04  -0.08   0.08     0.00  -0.05  -0.05     0.03  -0.01  -0.06
  33   6     0.01   0.07  -0.12     0.06  -0.09   0.02     0.03  -0.08   0.03
  34   6    -0.00   0.09  -0.11     0.00   0.06  -0.07    -0.01   0.01  -0.05
  35   6     0.02  -0.02   0.03     0.03   0.05  -0.04    -0.03  -0.01  -0.01
  36   6     0.04  -0.11   0.15     0.04  -0.01   0.04    -0.01   0.01  -0.00
  37   6    -0.02   0.07  -0.07    -0.01   0.02   0.03     0.02  -0.01   0.01
  38   6    -0.02   0.09  -0.07    -0.03   0.07   0.00     0.02   0.01  -0.01
  39   6     0.03  -0.10   0.16     0.00   0.02   0.07    -0.01  -0.01  -0.02
  40   6     0.02  -0.02   0.05     0.04   0.02   0.01    -0.02  -0.02   0.03
  41   8    -0.01   0.11  -0.11     0.05  -0.02   0.02     0.01  -0.01   0.05
  42   6    -0.01   0.08  -0.10    -0.00   0.04  -0.04     0.01   0.04  -0.03
  43   6     0.01  -0.08   0.09    -0.06  -0.04   0.04     0.03   0.02   0.00
  44   6    -0.04   0.05   0.10     0.08   0.19  -0.06    -0.10  -0.01  -0.20
  45   7    -0.03   0.05  -0.09     0.23  -0.15  -0.03    -0.09  -0.01   0.20
  46   6     0.01  -0.08  -0.09     0.06   0.04   0.04     0.03   0.02  -0.00
  47   1    -0.02   0.05   0.06     0.01  -0.03  -0.01     0.01   0.01   0.01
  48   1    -0.01   0.05   0.06     0.01   0.00   0.01     0.01  -0.00  -0.01
  49   1     0.02  -0.07  -0.08    -0.02   0.02   0.02    -0.00   0.01   0.00
  50   1     0.02  -0.06  -0.08    -0.00  -0.00   0.04    -0.00  -0.01   0.02
  51   1    -0.00   0.04   0.06    -0.02   0.05   0.04     0.01  -0.05  -0.04
  52   1     0.01  -0.03  -0.05     0.01   0.02   0.01     0.02  -0.02   0.01
  53   1    -0.02   0.06   0.09     0.00  -0.04  -0.04    -0.02   0.10   0.11
  54   1    -0.00  -0.04  -0.04     0.02   0.06   0.04     0.01  -0.01  -0.06
  55   1     0.01  -0.06  -0.06     0.02   0.00  -0.04    -0.01   0.03   0.02
  56   1    -0.02   0.03   0.09     0.01   0.02  -0.08    -0.01   0.08   0.12
  57   1    -0.01   0.02  -0.04    -0.08  -0.12  -0.05    -0.03  -0.00   0.09
  58   1    -0.02   0.03  -0.09    -0.01  -0.02  -0.08    -0.01   0.08  -0.12
  59   1     0.00  -0.06   0.06    -0.02  -0.00  -0.04    -0.01   0.03  -0.02
  60   1    -0.00  -0.04   0.04    -0.02  -0.06   0.04     0.01  -0.01   0.06
  61   1    -0.02   0.06  -0.08    -0.00   0.04  -0.04    -0.02   0.10  -0.11
  62   1     0.01  -0.03   0.04    -0.00  -0.02   0.01     0.02  -0.02  -0.01
  63   1    -0.00   0.04  -0.06     0.02  -0.05   0.04     0.01  -0.05   0.04
  64   1     0.02  -0.06   0.08     0.02  -0.02   0.02    -0.00   0.01  -0.00
  65   1    -0.01   0.04  -0.05    -0.01  -0.00   0.01     0.01  -0.00   0.01
  66   1    -0.01   0.05  -0.05    -0.01   0.03  -0.01     0.01   0.01  -0.01
  67   1     0.02  -0.05   0.08     0.00   0.00   0.04    -0.00  -0.00  -0.02
  68   1    -0.01   0.02   0.04     0.08   0.12  -0.05    -0.03  -0.00  -0.09
                     34                     35                     36
                        a                      a                      a 
 Frequencies --   407.1462               407.5424               407.9300
 Red. masses --     9.4485                11.5373                 9.8250
 Frc consts  --     0.0000                 0.0000                 0.0000
 IR Inten    --     3.3733                12.0868                 2.5688
 Raman Activ --     0.0000                 0.0000                 0.0000
 Depolar     --     0.0000                 0.0000                 0.0000
 Atom AN      X      Y      Z        X      Y      Z        X      Y      Z
   1   6     0.01  -0.06  -0.08     0.01  -0.02   0.01     0.02  -0.07  -0.10
   2   6     0.01  -0.04  -0.06     0.00  -0.02   0.02     0.01  -0.04  -0.05
   3   6    -0.03   0.12   0.15    -0.00  -0.02   0.01    -0.03   0.13   0.16
   4   6     0.04  -0.14  -0.18     0.01  -0.01   0.00     0.05  -0.16  -0.20
   5   6     0.04  -0.13  -0.16     0.00   0.00   0.00     0.04  -0.13  -0.17
   6   6    -0.04   0.13   0.15     0.01  -0.00   0.01    -0.03   0.14   0.16
   7   8    -0.00  -0.00   0.01    -0.01   0.02   0.01    -0.00   0.02   0.02
   8   6    -0.02   0.07   0.09    -0.00   0.02   0.02    -0.02   0.06   0.08
   9   6     0.00  -0.01  -0.02     0.01   0.00   0.00     0.01  -0.03  -0.04
  10   6    -0.01   0.02   0.02     0.00   0.00  -0.03    -0.01   0.04   0.06
  11   6    -0.00   0.01   0.01    -0.01   0.03   0.01    -0.00  -0.01  -0.00
  12   6     0.00  -0.02  -0.03    -0.01   0.01   0.00     0.01  -0.05  -0.05
  13   6     0.04  -0.12  -0.17    -0.00  -0.01  -0.03     0.05  -0.11  -0.15
  14   6    -0.03   0.09   0.15    -0.00   0.02   0.03    -0.01   0.06   0.10
  15   6     0.01  -0.04  -0.04     0.02  -0.01  -0.02    -0.01  -0.01   0.00
  16   6     0.01  -0.06  -0.07     0.01   0.00  -0.01     0.01  -0.07  -0.08
  17   6    -0.03   0.10   0.15    -0.00   0.02   0.02    -0.02   0.06   0.12
  18   6     0.03  -0.10  -0.15     0.00  -0.03  -0.05     0.03  -0.04  -0.06
  19   7    -0.00   0.00   0.01     0.01  -0.03  -0.04    -0.03   0.07   0.09
  20   6     0.00  -0.01   0.01    -0.01  -0.02  -0.02     0.01  -0.01  -0.12
  21   6    -0.00  -0.01   0.04     0.01   0.00  -0.43     0.00  -0.01  -0.11
  22   7    -0.01   0.01  -0.06     0.01   0.00   0.48    -0.00  -0.02   0.10
  23   6    -0.00   0.01   0.01     0.01   0.02  -0.03     0.01  -0.01   0.12
  24   7     0.00  -0.00   0.01    -0.01   0.03  -0.03    -0.03   0.07  -0.09
  25   6    -0.03   0.10  -0.15    -0.00   0.03  -0.05     0.03  -0.04   0.06
  26   6     0.03  -0.10   0.15     0.00  -0.03   0.03    -0.02   0.06  -0.11
  27   6    -0.01   0.06  -0.07    -0.01   0.00  -0.01     0.01  -0.07   0.08
  28   6    -0.01   0.04  -0.04    -0.02   0.01  -0.02    -0.01  -0.01  -0.01
  29   6     0.03  -0.09   0.15     0.00  -0.02   0.03    -0.01   0.06  -0.09
  30   6    -0.04   0.12  -0.17     0.00   0.02  -0.04     0.05  -0.11   0.15
  31   6    -0.00   0.02  -0.03     0.01  -0.01   0.00     0.01  -0.05   0.05
  32   6     0.00  -0.01   0.01     0.01  -0.03   0.01    -0.00  -0.01   0.00
  33   6     0.01  -0.02   0.02    -0.00  -0.00  -0.03    -0.01   0.04  -0.06
  34   6    -0.00   0.02  -0.02    -0.01  -0.00   0.00     0.01  -0.03   0.04
  35   6    -0.04   0.14  -0.18    -0.01   0.02  -0.01     0.05  -0.16   0.20
  36   6     0.03  -0.12   0.15     0.00   0.01   0.02    -0.03   0.13  -0.16
  37   6    -0.01   0.04  -0.06    -0.00   0.02   0.02     0.01  -0.04   0.05
  38   6    -0.01   0.06  -0.08    -0.01   0.02   0.00     0.02  -0.07   0.10
  39   6     0.04  -0.13   0.15    -0.01  -0.00   0.02    -0.03   0.14  -0.16
  40   6    -0.04   0.13  -0.16    -0.00   0.00  -0.00     0.04  -0.13   0.17
  41   8     0.00   0.00   0.01     0.01  -0.02   0.01    -0.00   0.02  -0.02
  42   6     0.02  -0.07   0.09     0.00  -0.02   0.03    -0.02   0.06  -0.08
  43   6     0.02  -0.07   0.10    -0.00  -0.00   0.01    -0.03   0.07  -0.10
  44   6     0.00   0.01   0.04    -0.01  -0.00  -0.43     0.00  -0.01   0.09
  45   7     0.01  -0.01  -0.06    -0.01  -0.00   0.48    -0.00  -0.02  -0.08
  46   6    -0.02   0.07   0.09     0.00   0.00   0.00    -0.03   0.07   0.10
  47   1     0.00  -0.01  -0.02    -0.00  -0.01   0.00     0.00  -0.02  -0.02
  48   1    -0.00   0.00  -0.00     0.00  -0.00   0.01    -0.00   0.00   0.00
  49   1    -0.03   0.11   0.14    -0.00  -0.00   0.01    -0.03   0.12   0.15
  50   1    -0.03   0.11   0.13     0.00  -0.00   0.00    -0.03   0.12   0.14
  51   1    -0.00   0.00  -0.00     0.00  -0.00  -0.02    -0.00   0.02   0.03
  52   1     0.00  -0.00  -0.01    -0.00   0.01   0.00    -0.00  -0.01  -0.01
  53   1    -0.03   0.09   0.13    -0.00   0.02   0.03    -0.02   0.06   0.09
  54   1    -0.00  -0.00   0.00     0.00  -0.00  -0.00    -0.01   0.01   0.02
  55   1     0.00  -0.01  -0.02     0.00   0.00   0.00     0.00  -0.03  -0.03
  56   1    -0.03   0.08   0.13    -0.01   0.02   0.02    -0.02   0.05   0.10
  57   1    -0.00  -0.00   0.02    -0.00   0.01  -0.25    -0.00  -0.00  -0.05
  58   1     0.03  -0.09   0.13     0.01  -0.02   0.03    -0.02   0.05  -0.09
  59   1    -0.00   0.01  -0.02    -0.00  -0.00   0.00     0.00  -0.03   0.03
  60   1     0.00   0.00   0.00    -0.00   0.00  -0.00    -0.01   0.01  -0.02
  61   1     0.03  -0.09   0.13     0.01  -0.02   0.03    -0.02   0.06  -0.09
  62   1    -0.00   0.00  -0.01     0.00  -0.01   0.00    -0.00  -0.01   0.01
  63   1     0.00  -0.00  -0.00    -0.00   0.00  -0.02    -0.00   0.02  -0.03
  64   1     0.03  -0.11   0.14     0.00  -0.00   0.01    -0.03   0.12  -0.15
  65   1     0.00  -0.00  -0.00    -0.00   0.00   0.01    -0.00   0.00  -0.00
  66   1    -0.00   0.01  -0.02     0.00   0.01  -0.00     0.00  -0.02   0.02
  67   1     0.03  -0.11   0.14    -0.00  -0.00   0.01    -0.03   0.12  -0.14
  68   1     0.00   0.00   0.02     0.00  -0.01  -0.25    -0.00  -0.00   0.04
                     37                     38                     39
                        a                      a                      a 
 Frequencies --   418.1589               437.3518               444.2026
 Red. masses --    11.7579                10.2558                10.7737
 Frc consts  --     0.0000                 0.0000                 0.0000
 IR Inten    --     2.7464                 0.4194                 3.6800
 Raman Activ --     0.0000                 0.0000                 0.0000
 Depolar     --     0.0000                 0.0000                 0.0000
 Atom AN      X      Y      Z        X      Y      Z        X      Y      Z
   1   6    -0.05  -0.03   0.03     0.00  -0.02  -0.04     0.01  -0.03  -0.01
   2   6    -0.05  -0.01  -0.02     0.00  -0.03  -0.04     0.01  -0.04  -0.03
   3   6    -0.02   0.00   0.01    -0.01   0.06   0.09    -0.03   0.05   0.07
   4   6     0.04   0.04  -0.02     0.05  -0.13  -0.17     0.02  -0.12  -0.15
   5   6     0.05  -0.04   0.01     0.06  -0.14  -0.18     0.03  -0.15  -0.18
   6   6    -0.00  -0.01   0.01    -0.01   0.08   0.08    -0.01   0.04   0.08
   7   8    -0.04  -0.10   0.04    -0.01   0.07   0.09    -0.02   0.08   0.08
   8   6    -0.09  -0.02   0.04    -0.02   0.07   0.08    -0.02   0.08   0.09
   9   6    -0.04   0.08  -0.04    -0.02   0.05   0.07    -0.02   0.07   0.09
  10   6    -0.09   0.12  -0.17    -0.01   0.06   0.11    -0.01   0.05   0.07
  11   6    -0.09   0.16  -0.10     0.02  -0.09  -0.08     0.03  -0.06  -0.09
  12   6    -0.11   0.03   0.00     0.01  -0.06  -0.05     0.02  -0.02  -0.05
  13   6    -0.10  -0.06  -0.02    -0.02   0.12   0.20    -0.05   0.15   0.21
  14   6     0.02  -0.09   0.13     0.03  -0.07  -0.09     0.01  -0.05  -0.07
  15   6     0.03  -0.17   0.06    -0.02   0.01   0.05     0.01   0.01  -0.00
  16   6     0.01  -0.09   0.07    -0.02   0.02   0.05    -0.01   0.05   0.07
  17   6    -0.12  -0.02   0.04     0.02  -0.08  -0.09     0.02  -0.06  -0.10
  18   6    -0.06  -0.06  -0.09    -0.02   0.15   0.20    -0.04   0.10   0.15
  19   7     0.10  -0.04  -0.09     0.01  -0.04  -0.13     0.05  -0.14  -0.20
  20   6     0.15   0.08   0.06    -0.01   0.03  -0.12    -0.02   0.02   0.11
  21   6     0.22   0.10   0.06     0.01   0.02  -0.01    -0.02   0.02   0.10
  22   7     0.24   0.14  -0.04     0.03  -0.03   0.08    -0.01   0.03  -0.09
  23   6     0.15   0.08  -0.06     0.01  -0.03  -0.12    -0.02   0.02  -0.11
  24   7     0.10  -0.04   0.09    -0.01   0.04  -0.13     0.05  -0.14   0.20
  25   6    -0.06  -0.06   0.09     0.02  -0.15   0.20    -0.04   0.10  -0.15
  26   6    -0.12  -0.02  -0.04    -0.02   0.08  -0.09     0.02  -0.06   0.10
  27   6     0.01  -0.09  -0.07     0.02  -0.02   0.05    -0.01   0.05  -0.07
[...]
  42   6    -0.00   0.00   0.00     0.00  -0.00  -0.00     0.00  -0.00  -0.00
  43   6     0.00   0.00   0.00    -0.00  -0.00  -0.00    -0.00  -0.00  -0.00
  44   6    -0.00   0.00  -0.00    -0.00   0.00  -0.00    -0.00   0.00  -0.00
  45   7     0.00   0.00  -0.00    -0.00  -0.00  -0.00     0.00   0.00  -0.00
  46   6     0.00   0.00  -0.00     0.00   0.00  -0.00    -0.00  -0.00   0.00
  47   1    -0.05  -0.10   0.07    -0.00  -0.01   0.01     0.02   0.04  -0.03
  48   1     0.07  -0.07   0.07     0.01  -0.01   0.01    -0.04   0.04  -0.04
  49   1     0.00   0.00  -0.00     0.01   0.00   0.00    -0.03  -0.01  -0.00
  50   1     0.06   0.01   0.00     0.01   0.00   0.00    -0.04  -0.01  -0.00
  51   1    -0.46   0.12  -0.20    -0.04   0.01  -0.02     0.25  -0.06   0.11
  52   1     0.51   0.38  -0.15     0.05   0.04  -0.01    -0.18  -0.13   0.05
  53   1    -0.20  -0.03  -0.02    -0.01  -0.00  -0.00    -0.49  -0.07  -0.05
  54   1    -0.14  -0.24   0.14    -0.01  -0.02   0.01    -0.19  -0.34   0.19
  55   1     0.12  -0.15   0.12     0.01  -0.01   0.01     0.14  -0.17   0.15
  56   1    -0.07  -0.01  -0.01    -0.00  -0.00  -0.00    -0.08  -0.01  -0.01
  57   1    -0.00   0.00   0.00    -0.01   0.01   0.00     0.01  -0.00  -0.00
  58   1    -0.01  -0.00   0.00     0.07   0.01  -0.01    -0.05  -0.01   0.01
  59   1     0.01  -0.02  -0.01    -0.12   0.15   0.13     0.09  -0.11  -0.09
  60   1    -0.01  -0.03  -0.01     0.14   0.25   0.14    -0.12  -0.22  -0.12
  61   1    -0.03  -0.00   0.00     0.21   0.03  -0.02    -0.32  -0.04   0.03
  62   1     0.04   0.03   0.01    -0.50  -0.38  -0.15    -0.12  -0.09  -0.04
  63   1    -0.04   0.01   0.02     0.46  -0.12  -0.20     0.17  -0.04  -0.07
  64   1    -0.00  -0.00   0.00    -0.00  -0.00  -0.00    -0.03  -0.01   0.00
  65   1     0.00  -0.00  -0.00    -0.07   0.07   0.07    -0.03   0.03   0.03
  66   1    -0.00  -0.01  -0.01     0.05   0.10   0.07     0.01   0.03   0.02
  67   1     0.01   0.00  -0.00    -0.06  -0.01   0.00    -0.03  -0.01   0.00
  68   1     0.01  -0.01   0.00     0.00  -0.00   0.00     0.01  -0.01   0.00
                    190                    191                    192
                        a                      a                      a 
 Frequencies --  3096.7491              3098.7887              3098.9171
 Red. masses --     1.8715                 1.8829                 1.8829
 Frc consts  --     0.0000                 0.0000                 0.0000
 IR Inten    --    31.8844                73.1424                47.0811
 Raman Activ --     0.0000                 0.0000                 0.0000
 Depolar     --     0.0000                 0.0000                 0.0000
 Atom AN      X      Y      Z        X      Y      Z        X      Y      Z
   1   6    -0.00  -0.01   0.00     0.04   0.07  -0.05     0.01   0.02  -0.01
   2   6     0.00  -0.00   0.00    -0.09   0.09  -0.09    -0.02   0.02  -0.02
   3   6    -0.00  -0.00  -0.00    -0.18  -0.04  -0.01    -0.04  -0.01  -0.00
   4   6    -0.00   0.00  -0.00    -0.00  -0.01   0.00    -0.00  -0.00   0.00
   5   6     0.00  -0.00   0.00    -0.00   0.00  -0.00    -0.00   0.00  -0.00
   6   6     0.00   0.00   0.00    -0.07  -0.01  -0.00    -0.02  -0.00  -0.00
   7   8    -0.00  -0.00  -0.00     0.00   0.00  -0.00     0.00   0.00  -0.00
   8   6     0.00  -0.00   0.00    -0.00  -0.00   0.00    -0.00  -0.00   0.00
   9   6    -0.00   0.00  -0.00    -0.00  -0.00  -0.00    -0.00  -0.00   0.00
  10   6    -0.05   0.01  -0.02    -0.00   0.00  -0.00     0.00  -0.00   0.00
  11   6     0.03   0.02  -0.01     0.04   0.03  -0.01     0.01   0.01  -0.00
  12   6     0.00   0.00  -0.00     0.00   0.00  -0.00    -0.00   0.00  -0.00
  13   6     0.00  -0.00   0.00     0.00  -0.00   0.00     0.00   0.00  -0.00
  14   6     0.09   0.01   0.01     0.01   0.00   0.00    -0.00  -0.00  -0.00
  15   6     0.04   0.07  -0.04     0.00   0.00  -0.00    -0.00  -0.00   0.00
  16   6    -0.03   0.03  -0.03    -0.00   0.00  -0.00     0.00  -0.00   0.00
  17   6     0.01   0.00   0.00    -0.00  -0.00  -0.00    -0.00  -0.00  -0.00
  18   6    -0.00   0.00  -0.00    -0.00  -0.00   0.00    -0.00  -0.00   0.00
  19   7    -0.00  -0.00  -0.00    -0.00   0.00  -0.00     0.00   0.00  -0.00
  20   6     0.00   0.00   0.00     0.00   0.00   0.00    -0.00  -0.00   0.00
  21   6     0.00  -0.00  -0.00     0.00  -0.00  -0.00    -0.00   0.00   0.00
  22   7     0.00  -0.00  -0.00     0.00   0.00  -0.00    -0.00  -0.00  -0.00
  23   6     0.00   0.00   0.00     0.00   0.00   0.00    -0.00  -0.00   0.00
  24   7    -0.00  -0.00  -0.00    -0.00  -0.00   0.00    -0.00  -0.00  -0.00
  25   6     0.00  -0.00  -0.00     0.00   0.00   0.00     0.00   0.00   0.00
  26   6    -0.02  -0.00   0.00     0.00   0.00  -0.00     0.00   0.00  -0.00
  27   6     0.04  -0.05  -0.04    -0.00   0.00   0.00     0.00  -0.00  -0.00
  28   6    -0.06  -0.10  -0.06     0.00   0.00   0.00    -0.00  -0.00  -0.00
  29   6    -0.14  -0.02   0.02     0.01   0.00  -0.00    -0.01  -0.00   0.00
  30   6    -0.00   0.00   0.00     0.00  -0.00  -0.00    -0.00   0.00   0.00
  31   6    -0.00  -0.00  -0.00     0.00   0.00   0.00    -0.00  -0.00  -0.00
  32   6    -0.05  -0.04  -0.01     0.01   0.01   0.00    -0.04  -0.03  -0.01
  33   6     0.07  -0.02  -0.03    -0.00   0.00   0.00     0.00  -0.00  -0.00
  34   6     0.00  -0.00  -0.00    -0.00   0.00   0.00     0.00   0.00  -0.00
  35   6     0.00  -0.00  -0.00    -0.00  -0.00  -0.00     0.00   0.01   0.00
  36   6    -0.00  -0.00   0.00    -0.05  -0.01   0.00     0.18   0.04  -0.01
  37   6    -0.01   0.01   0.01    -0.02   0.02   0.02     0.09  -0.09  -0.09
  38   6     0.00   0.01   0.01     0.01   0.02   0.01    -0.04  -0.07  -0.05
  39   6    -0.01  -0.00   0.00    -0.02  -0.00   0.00     0.07   0.01  -0.00
  40   6    -0.00   0.00   0.00    -0.00   0.00   0.00     0.00  -0.00  -0.00
  41   8     0.00   0.00  -0.00    -0.00   0.00   0.00    -0.00  -0.00  -0.00
  42   6    -0.00   0.00   0.00    -0.00  -0.00  -0.00     0.00   0.00   0.00
  43   6    -0.00   0.00   0.00     0.00  -0.00  -0.00     0.00   0.00   0.00
  44   6    -0.00   0.00  -0.00     0.00  -0.00   0.00    -0.00   0.00  -0.00
  45   7    -0.00   0.00  -0.00     0.00   0.00   0.00    -0.00  -0.00  -0.00
  46   6     0.00  -0.00   0.00    -0.00  -0.00   0.00    -0.00  -0.00   0.00
  47   1     0.01   0.02  -0.01    -0.12  -0.25   0.17    -0.03  -0.06   0.04
  48   1    -0.01   0.01  -0.01     0.30  -0.30   0.30     0.08  -0.07   0.08
  49   1     0.00   0.00   0.00     0.62   0.12   0.03     0.15   0.03   0.01
  50   1    -0.02  -0.00  -0.00     0.24   0.05   0.01     0.06   0.01   0.00
  51   1     0.16  -0.04   0.07     0.02  -0.01   0.01    -0.00   0.00  -0.00
  52   1    -0.11  -0.08   0.03    -0.14  -0.11   0.04    -0.04  -0.03   0.01
  53   1    -0.32  -0.04  -0.03    -0.03  -0.00  -0.00     0.01   0.00   0.00
  54   1    -0.12  -0.22   0.12    -0.01  -0.01   0.01     0.01   0.01  -0.01
  55   1     0.09  -0.12   0.10     0.00  -0.00   0.00    -0.00   0.01  -0.00
  56   1    -0.05  -0.01  -0.01     0.00   0.00   0.00     0.00   0.00   0.00
  57   1    -0.01   0.01   0.00    -0.00   0.00   0.00     0.00  -0.00  -0.00
  58   1     0.08   0.01  -0.01    -0.00  -0.00   0.00    -0.00  -0.00   0.00
  59   1    -0.14   0.18   0.15     0.01  -0.01  -0.01    -0.00   0.00   0.00
  60   1     0.19   0.34   0.19    -0.01  -0.01  -0.01     0.00   0.00   0.00
  61   1     0.49   0.07  -0.05    -0.02  -0.00   0.00     0.03   0.00  -0.00
  62   1     0.17   0.13   0.05    -0.04  -0.03  -0.01     0.14   0.11   0.04
  63   1    -0.25   0.07   0.11     0.01  -0.00  -0.01    -0.02   0.00   0.01
  64   1     0.01   0.00  -0.00     0.16   0.03  -0.01    -0.62  -0.12   0.03
  65   1     0.03  -0.03  -0.03     0.07  -0.07  -0.07    -0.30   0.29   0.30
  66   1    -0.02  -0.03  -0.02    -0.03  -0.06  -0.04     0.12   0.24   0.17
  67   1     0.03   0.01  -0.00     0.06   0.01  -0.00    -0.24  -0.05   0.01
  68   1     0.01  -0.01   0.00    -0.00   0.00  -0.00     0.00  -0.00   0.00
                    193                    194                    195
                        a                      a                      a 
 Frequencies --  3106.2173              3106.3389              3109.0237
 Red. masses --     1.8864                 1.8863                 1.8812
 Frc consts  --     0.0000                 0.0000                 0.0000
 IR Inten    --   110.7634                19.4667                11.6378
 Raman Activ --     0.0000                 0.0000                 0.0000
 Depolar     --     0.0000                 0.0000                 0.0000
 Atom AN      X      Y      Z        X      Y      Z        X      Y      Z
   1   6     0.00  -0.00   0.00    -0.00  -0.00   0.00     0.02   0.03  -0.02
   2   6    -0.01   0.01  -0.01     0.00  -0.00   0.00    -0.01   0.01  -0.01
   3   6    -0.03  -0.01  -0.00     0.01   0.00   0.00    -0.01  -0.00  -0.00
   4   6    -0.00  -0.00   0.00     0.00   0.00  -0.00    -0.00  -0.00  -0.00
   5   6    -0.00   0.00  -0.00     0.00  -0.00   0.00     0.00  -0.00   0.00
   6   6    -0.02  -0.00  -0.00     0.01   0.00   0.00     0.11   0.02   0.01
   7   8    -0.00  -0.00   0.00    -0.00   0.00  -0.00    -0.00   0.00  -0.00
   8   6     0.00  -0.00   0.00    -0.00   0.00  -0.00     0.00   0.00  -0.00
   9   6     0.00   0.01  -0.00    -0.00  -0.00   0.00     0.00   0.00  -0.00
  10   6    -0.18   0.05  -0.08     0.07  -0.02   0.03    -0.00   0.00  -0.00
  11   6    -0.13  -0.10   0.04     0.05   0.04  -0.02    -0.00  -0.00   0.00
  12   6     0.00  -0.00   0.00    -0.00   0.00  -0.00     0.00  -0.00   0.00
  13   6    -0.00   0.00  -0.00     0.00  -0.00   0.00    -0.00   0.00  -0.00
  14   6    -0.02  -0.00  -0.00     0.01   0.00   0.00    -0.00  -0.00  -0.00
  15   6    -0.00  -0.01   0.00     0.00   0.00  -0.00    -0.00  -0.00   0.00
  16   6     0.00  -0.00   0.00    -0.00   0.00  -0.00     0.00  -0.00   0.00
  17   6    -0.00  -0.00  -0.00     0.00   0.00   0.00    -0.00  -0.00  -0.00
  18   6    -0.00  -0.00   0.00     0.00   0.00  -0.00    -0.00  -0.00   0.00
  19   7    -0.00  -0.00   0.00    -0.00  -0.00  -0.00    -0.00   0.00  -0.00
  20   6     0.00   0.00   0.00     0.00   0.00   0.00     0.00  -0.00  -0.00
  21   6     0.00  -0.00  -0.00     0.00  -0.00  -0.00    -0.00   0.00   0.00
  22   7     0.00  -0.00  -0.00     0.00  -0.00  -0.00     0.00  -0.00   0.00
  23   6     0.00   0.00  -0.00     0.00   0.00  -0.00    -0.00  -0.00  -0.00
  24   7    -0.00  -0.00  -0.00     0.00  -0.00  -0.00     0.00   0.00  -0.00
  25   6    -0.00   0.00   0.00    -0.00  -0.00  -0.00     0.00  -0.00  -0.00
  26   6    -0.00  -0.00   0.00    -0.00  -0.00   0.00     0.00   0.00  -0.00
  27   6     0.00  -0.00  -0.00     0.00  -0.00  -0.00    -0.00   0.00   0.00
  28   6    -0.00  -0.00  -0.00    -0.00  -0.01  -0.00     0.00   0.00   0.00
  29   6    -0.01  -0.00   0.00    -0.02  -0.00   0.00     0.00   0.00  -0.00
  30   6    -0.00   0.00   0.00    -0.00   0.00   0.00     0.00  -0.00  -0.00
  31   6     0.00  -0.00  -0.00     0.00  -0.00  -0.00    -0.00   0.00   0.00
  32   6    -0.05  -0.04  -0.02    -0.13  -0.10  -0.04     0.01   0.01   0.00
  33   6    -0.07   0.02   0.03    -0.17   0.05   0.07     0.01  -0.00  -0.00
  34   6     0.00   0.00   0.00     0.00   0.01   0.00    -0.00  -0.00  -0.00
  35   6    -0.00  -0.00  -0.00    -0.00  -0.00  -0.00     0.00   0.00  -0.00
  36   6    -0.01  -0.00   0.00    -0.03  -0.01   0.00     0.02   0.00  -0.00
  37   6    -0.00   0.00   0.00    -0.01   0.01   0.01     0.02  -0.02  -0.02
  38   6    -0.00  -0.00  -0.00     0.00  -0.00  -0.00    -0.03  -0.07  -0.05
  39   6    -0.01  -0.00   0.00    -0.02  -0.00   0.00    -0.23  -0.04   0.01
  40   6    -0.00   0.00   0.00    -0.00   0.00   0.00    -0.00   0.01   0.01
  41   8    -0.00  -0.00  -0.00    -0.00  -0.00  -0.00     0.00  -0.00  -0.00
  42   6     0.00  -0.00  -0.00     0.00  -0.00  -0.00    -0.00  -0.00  -0.00
  43   6     0.00   0.00   0.00     0.00   0.00   0.00    -0.00   0.00   0.00
  44   6     0.00  -0.00   0.00     0.00  -0.00   0.00     0.00  -0.00   0.00
  45   7     0.00  -0.00   0.00     0.00  -0.00  -0.00     0.00   0.00   0.00
  46   6     0.00   0.00  -0.00    -0.00  -0.00   0.00     0.00  -0.00   0.00
  47   1     0.00   0.00  -0.00     0.00   0.00  -0.00    -0.05  -0.11   0.07
  48   1     0.02  -0.02   0.02    -0.01   0.01  -0.01     0.03  -0.03   0.03
  49   1     0.09   0.02   0.01    -0.04  -0.01  -0.00     0.03   0.01   0.00
  50   1     0.06   0.01   0.00    -0.03  -0.01  -0.00    -0.38  -0.07  -0.02
  51   1     0.60  -0.15   0.25    -0.25   0.06  -0.10     0.02  -0.00   0.01
  52   1     0.44   0.33  -0.13    -0.18  -0.13   0.06     0.01   0.01  -0.00
  53   1     0.07   0.01   0.01    -0.03  -0.00  -0.00     0.00   0.00   0.00
  54   1     0.01   0.02  -0.01    -0.01  -0.01   0.01     0.00   0.00  -0.00
  55   1    -0.01   0.01  -0.01     0.00  -0.01   0.00    -0.00   0.00  -0.00
  56   1     0.01   0.00   0.00    -0.00  -0.00  -0.00     0.00   0.00   0.00
  57   1    -0.00   0.00   0.00    -0.00   0.00   0.00     0.00  -0.00  -0.00
  58   1     0.00   0.00  -0.00     0.01   0.00  -0.00    -0.01  -0.00   0.00
  59   1    -0.00   0.00   0.00    -0.01   0.01   0.01     0.00  -0.00  -0.00
  60   1     0.00   0.01   0.00     0.01   0.02   0.01    -0.00  -0.00  -0.00
  61   1     0.03   0.00  -0.00     0.08   0.01  -0.01    -0.01  -0.00   0.00
  62   1     0.18   0.14   0.06     0.44   0.33   0.13    -0.03  -0.02  -0.01
  63   1     0.25  -0.06  -0.10     0.60  -0.15  -0.25    -0.03   0.01   0.01
  64   1     0.04   0.01  -0.00     0.09   0.02  -0.01    -0.07  -0.01   0.00
  65   1     0.01  -0.01  -0.01     0.02  -0.02  -0.02    -0.07   0.07   0.07
  66   1     0.00   0.00   0.00     0.00   0.00   0.00     0.11   0.22   0.15
  67   1     0.02   0.00  -0.00     0.07   0.01  -0.00     0.78   0.15  -0.04
  68   1    -0.00   0.00  -0.00    -0.00   0.00  -0.00    -0.00   0.00  -0.00
                    196                    197                    198
                        a                      a                      a 
 Frequencies --  3109.0529              3116.4529              3116.8103
 Red. masses --     1.8812                 1.8570                 1.8568
 Frc consts  --     0.0000                 0.0000                 0.0000
 IR Inten    --    27.9431                11.0146                10.6304
 Raman Activ --     0.0000                 0.0000                 0.0000
 Depolar     --     0.0000                 0.0000                 0.0000
 Atom AN      X      Y      Z        X      Y      Z        X      Y      Z
   1   6    -0.03  -0.07   0.05     0.00   0.00  -0.00    -0.00  -0.00   0.00
   2   6     0.02  -0.02   0.02    -0.00   0.00  -0.00     0.00  -0.00   0.00
   3   6     0.02   0.00   0.00    -0.00  -0.00  -0.00     0.00   0.00   0.00
   4   6     0.00   0.00   0.00    -0.00  -0.00   0.00     0.00   0.00   0.00
   5   6    -0.00   0.01  -0.01     0.00  -0.00   0.00    -0.00   0.00  -0.00
   6   6    -0.23  -0.04  -0.01     0.00   0.00   0.00    -0.00  -0.00  -0.00
   7   8     0.00  -0.00   0.00    -0.00  -0.00   0.00     0.00  -0.00   0.00
   8   6    -0.00  -0.00   0.00     0.00   0.00  -0.00     0.00   0.00  -0.00
   9   6    -0.00  -0.00   0.00     0.00   0.00  -0.00    -0.00  -0.00   0.00
  10   6     0.01  -0.00   0.00    -0.00   0.00  -0.00     0.00  -0.00   0.00
  11   6     0.01   0.01  -0.00    -0.00  -0.00   0.00     0.00   0.00  -0.00
  12   6    -0.00   0.00  -0.00     0.00   0.00   0.00    -0.00   0.00  -0.00
  13   6     0.00  -0.00   0.00    -0.00  -0.00   0.00    -0.00  -0.00   0.00
  14   6     0.00   0.00   0.00    -0.00  -0.00  -0.00     0.00  -0.00   0.00
  15   6     0.00   0.00  -0.00    -0.01  -0.01   0.01    -0.00  -0.00   0.00
  16   6    -0.00   0.00  -0.00     0.03  -0.04   0.03     0.00  -0.00   0.00
  17   6     0.00   0.00   0.00     0.27   0.03   0.03     0.00   0.00   0.00
  18   6     0.00  -0.00   0.00     0.00   0.01  -0.00     0.00   0.00  -0.00
  19   7     0.00   0.00   0.00    -0.00  -0.00  -0.00     0.00   0.00  -0.00
  20   6    -0.00  -0.00   0.00    -0.00  -0.00   0.00     0.00  -0.00   0.00
  21   6     0.00  -0.00  -0.00     0.00  -0.00   0.00     0.00  -0.00  -0.00
  22   7     0.00   0.00  -0.00     0.00   0.00  -0.00    -0.00  -0.00  -0.00
  23   6    -0.00  -0.00   0.00    -0.00   0.00   0.00     0.00   0.00   0.00
  24   7     0.00   0.00  -0.00    -0.00  -0.00  -0.00     0.00   0.00  -0.00
  25   6     0.00  -0.00  -0.00     0.00   0.00   0.00    -0.00  -0.01  -0.00
  26   6     0.00   0.00  -0.00     0.00   0.00  -0.00    -0.27  -0.03   0.03
  27   6     0.00  -0.00  -0.00     0.00  -0.00  -0.00    -0.03   0.04   0.03
  28   6     0.00   0.00   0.00    -0.00  -0.00  -0.00     0.01   0.01   0.01
  29   6     0.00   0.00  -0.00    -0.00  -0.00   0.00     0.00   0.00  -0.00
  30   6     0.00  -0.00  -0.00    -0.00  -0.00   0.00     0.00   0.00   0.00
  31   6    -0.00   0.00   0.00     0.00  -0.00  -0.00    -0.00  -0.00   0.00
  32   6     0.00   0.00   0.00    -0.00  -0.00  -0.00     0.00   0.00   0.00
  33   6     0.00  -0.00  -0.00    -0.00   0.00   0.00     0.00  -0.00  -0.00
  34   6    -0.00  -0.00  -0.00     0.00   0.00   0.00    -0.00  -0.00  -0.00
  35   6     0.00   0.00  -0.00    -0.00  -0.00   0.00     0.00   0.00  -0.00
  36   6     0.01   0.00  -0.00    -0.00  -0.00   0.00     0.00   0.00  -0.00
  37   6     0.01  -0.01  -0.01    -0.00   0.00   0.00     0.00  -0.00  -0.00
  38   6    -0.02  -0.03  -0.02     0.00   0.00   0.00    -0.00  -0.00  -0.00
  39   6    -0.11  -0.02   0.01     0.00   0.00  -0.00    -0.00  -0.00   0.00
  40   6    -0.00   0.00   0.00     0.00  -0.00  -0.00    -0.00   0.00   0.00
  41   8     0.00  -0.00  -0.00    -0.00   0.00   0.00     0.00   0.00   0.00
  42   6     0.00  -0.00  -0.00    -0.00  -0.00   0.00    -0.00  -0.00  -0.00
  43   6    -0.00   0.00   0.00     0.00  -0.00  -0.00    -0.00   0.00   0.00
  44   6    -0.00   0.00   0.00    -0.00   0.00  -0.00    -0.00   0.00   0.00
  45   7     0.00   0.00   0.00     0.00   0.00  -0.00    -0.00  -0.00  -0.00
  46   6    -0.00   0.00  -0.00     0.00  -0.00   0.00    -0.00   0.00  -0.00
  47   1     0.11   0.22  -0.15    -0.00  -0.00   0.00     0.00   0.00  -0.00
  48   1    -0.07   0.07  -0.07     0.00  -0.00   0.00    -0.00   0.00  -0.00
  49   1    -0.07  -0.01  -0.00     0.00   0.00   0.00    -0.00  -0.00  -0.00
  50   1     0.78   0.15   0.04    -0.01  -0.00  -0.00     0.00   0.00   0.00
  51   1    -0.03   0.01  -0.01     0.01  -0.00   0.00    -0.00   0.00  -0.00
  52   1    -0.02  -0.02   0.01     0.00   0.00  -0.00    -0.00  -0.00   0.00
  53   1    -0.01  -0.00  -0.00     0.01   0.00   0.00    -0.00  -0.00  -0.00
  54   1    -0.00  -0.00   0.00     0.02   0.04  -0.02     0.00   0.00  -0.00
  55   1     0.00  -0.00   0.00    -0.09   0.11  -0.10    -0.00   0.00  -0.00
  56   1    -0.01  -0.00  -0.00    -0.93  -0.12  -0.10    -0.01  -0.00  -0.00
  57   1    -0.00   0.00   0.00    -0.00   0.00   0.00    -0.02   0.01   0.00
  58   1    -0.01  -0.00   0.00    -0.01  -0.00   0.00     0.93   0.12  -0.10
  59   1    -0.00   0.00   0.00    -0.00   0.00   0.00     0.09  -0.11  -0.09
  60   1    -0.00  -0.00  -0.00     0.00   0.00   0.00    -0.02  -0.04  -0.02
  61   1    -0.00  -0.00   0.00     0.00   0.00  -0.00    -0.01  -0.00   0.00
  62   1    -0.01  -0.01  -0.00     0.00   0.00   0.00    -0.00  -0.00  -0.00
  63   1    -0.01   0.00   0.01     0.00  -0.00  -0.00    -0.01   0.00   0.00
  64   1    -0.03  -0.01   0.00     0.00   0.00  -0.00    -0.00  -0.00   0.00
  65   1    -0.03   0.03   0.03     0.00  -0.00  -0.00    -0.00   0.00   0.00
  66   1     0.05   0.11   0.07    -0.00  -0.00  -0.00     0.00   0.00   0.00
  67   1     0.38   0.07  -0.02    -0.00  -0.00   0.00     0.01   0.00  -0.00
  68   1    -0.00  -0.00  -0.00     0.02  -0.01   0.00     0.00  -0.00   0.00
