$hessian                                                                        
        0.6244148842   0.0563478978   0.0634242624  -0.2995114079  -0.0153409743
       -0.0420234139  -0.0239673858  -0.0692922645   0.0541139584  -0.0450026546
        0.0171640361  -0.0234954415   0.0486751699   0.0404372182  -0.0238507199
       -0.1841931483   0.0439779183  -0.0686149298   0.0054346056  -0.0041579893
        0.0031905110  -0.0046836201  -0.0023776072   0.0008655583  -0.0014012016
       -0.0057556542   0.0046904024   0.0015350189   0.0024101688  -0.0016625782
        0.0010848958  -0.0016762114   0.0016897535  -0.0023368372  -0.0007406786
        0.0000669586  -0.0003157717   0.0002345309  -0.0002556634  -0.0000498682
       -0.0002174900   0.0001265299  -0.0003428064   0.0000364272  -0.0001177500
        0.0003419097   0.0001839474  -0.0000622088   0.0000931198  -0.0002475000
        0.0001763682   0.0002548810   0.0006361541  -0.0004551583   0.0012042357
       -0.0004566678   0.0006789925  -0.0002109445  -0.0005094354  -0.0001523551
        0.0001432903   0.0004628594  -0.0001271725  -0.0001399787  -0.0001106609
        0.0001503706  -0.0002376893   0.0000817984  -0.0000221685   0.0000307809
        0.0000615337  -0.0000380638   0.0000095734   0.0000720295  -0.0000256132
       -0.0000236669  -0.0000037800   0.0000123358   0.0000122246   0.0000111192
        0.0000339921  -0.0000110562   0.0000178512   0.0000020286   0.0000017550
       -0.0000107594  -0.0000011756  -0.0000240164   0.0000157594   0.0000182377
       -0.0000219821  -0.0000330275  -0.0000298468  -0.0000092784   0.0000209421
        0.0000093616  -0.0000205104  -0.0000216199  -0.0000164533   0.0000235284
        0.0000228294   0.0000101950  -0.0000070142  -0.0000128990  -0.0000140449
       -0.0000031004   0.0000222206   0.0000119871   0.0000041625  -0.0000046226
       -0.0000129709  -0.0000215594   0.0000031346  -0.0000017097  -0.0000054525
       -0.0000073697  -0.0000029658  -0.0000028597   0.0000075018  -0.0000030162
        0.0000008334  -0.0000105445   0.0000080572  -0.0000085976   0.0000002343
       -0.0000226245   0.0000513429   0.0000073271   0.0000086210  -0.0002206528
       -0.0001842007   0.0000935974   0.0000277095   0.0000771428   0.0000576855
       -0.0000190288   0.0028557105  -0.0022529488  -0.0810051787  -0.0741511787
        0.0531794822  -0.0201966035  -0.0018958387  -0.0028196812   0.0003614601
       -0.0026625512   0.0005405629  -0.0199180317   0.0145572084  -0.0169568300
        0.0001603278   0.0000939400  -0.0000398538   0.0000341435   0.0000156004
       -0.0000100059   0.0000147928   0.0000092976  -0.0000001206  -0.0000001837
        0.0000143266  -0.0000124200  -0.0000006031   0.0000061022   0.0000048885
       -0.0000068814  -0.0000059888  -0.0000111975   0.0000649294   0.0000334702
        0.0000437210   0.0000050359   0.0000224386  -0.0000209557   0.0000138516
       -0.0000136397  -0.0000148779  -0.0000155644   0.0000026906  -0.0000215476
       -0.0000070971  -0.0000074450   0.0000034271  -0.0000081088  -0.0000083215
       -0.0000058773  -0.0000065992   0.0000123340   0.0000074142  -0.0000076710
        0.0000077905  -0.0000023679  -0.0000085669   0.0000123257   0.0000014615
        0.0000009398   0.0000097776  -0.0000017083  -0.0000051747   0.0000076107
       -0.0000051484  -0.0000210479  -0.0000562852  -0.0000371369
        0.0563478978   0.4422698385  -0.2684450216  -0.0751287646  -0.0832510233
        0.0134037478  -0.0246604082  -0.0028365539  -0.0018941025   0.0104135252
       -0.0014475011  -0.0009231034  -0.0004388076  -0.0369778041   0.0305863154
        0.1018504877  -0.1408359469   0.1062003055  -0.0044849706   0.0020726639
        0.0025926897  -0.0009795128  -0.0009781100   0.0013586943   0.0005603783
       -0.0011255090   0.0009202681   0.0002088136   0.0000796861  -0.0001457395
        0.0001068765   0.0001601604  -0.0001135960   0.0004240394   0.0003995331
       -0.0003313681   0.0002082088  -0.0003357299   0.0003325179   0.0000450851
        0.0001654899  -0.0001066406   0.0001601123  -0.0000610660   0.0000770589
       -0.0001555028  -0.0000489289  -0.0000077613  -0.0000180769   0.0000354091
        0.0000081642  -0.0002117286  -0.0001723837   0.0001227818  -0.0007506054
        0.0000523077  -0.0002951334   0.0002803759   0.0006476965   0.0001146778
       -0.0007216473  -0.0006849646   0.0002412137   0.0006148812   0.0004509087
       -0.0002012004   0.0002504879  -0.0002118033   0.0000205078  -0.0000884368
       -0.0000344570   0.0000048086  -0.0000057103  -0.0000796714   0.0000259103
        0.0000033359  -0.0000181547  -0.0000308173  -0.0000117067   0.0000329014
        0.0000005939  -0.0000231269   0.0000243253   0.0000241716   0.0000208341
       -0.0000431500  -0.0000464391   0.0000115291   0.0000325910   0.0000292038
        0.0000384622  -0.0000198836  -0.0000207067  -0.0000294451   0.0000410145
        0.0000422790  -0.0000021864  -0.0000304655  -0.0000215135   0.0000216559
       -0.0000044206  -0.0000080682  -0.0000009819  -0.0000126766  -0.0000116939
        0.0000031862   0.0000025351  -0.0000023498  -0.0000012285   0.0000024368
       -0.0000006755   0.0000074672  -0.0000028855  -0.0000064266   0.0000014761
        0.0000121651  -0.0000018597   0.0000106473  -0.0000191735  -0.0000160669
        0.0000279921   0.0000573455   0.0000078600  -0.0000440308  -0.0000193479
       -0.0000114725  -0.0000249013   0.0000076830   0.0000120619   0.0006082723
        0.0004012324  -0.0000252236  -0.0004743904  -0.0002782880  -0.0000876913
       -0.0002439910  -0.0011220541   0.0007539688  -0.0743200789  -0.1819094771
        0.1110535485   0.0160137617   0.0022381404   0.0017450864  -0.0030064205
        0.0003212986   0.0062080358  -0.0023943577   0.0029790328  -0.0030907333
        0.0000256238   0.0000409784  -0.0000132182   0.0000185695   0.0000568359
       -0.0000113316   0.0000024350   0.0000086708   0.0000003628   0.0000021091
        0.0000061058  -0.0000006132  -0.0000051785   0.0000019333  -0.0000093582
       -0.0000035115   0.0000092904  -0.0000049646  -0.0000362224  -0.0000843730
       -0.0000485579  -0.0000049328  -0.0000225457   0.0000204600   0.0000058510
       -0.0000021677   0.0000019741  -0.0000021596  -0.0000120784   0.0000021981
       -0.0000082114   0.0000016908  -0.0000019844  -0.0000021178  -0.0000050719
       -0.0000017370  -0.0000058396   0.0000048585   0.0000053050  -0.0000003224
        0.0000023084  -0.0000002437  -0.0000009704   0.0000049271  -0.0000002756
       -0.0000007956   0.0000055017  -0.0000031815  -0.0000007790   0.0000008836
        0.0000031157  -0.0000023192   0.0000572865   0.0000209836
        0.0634242624  -0.2684450216   0.3601115662   0.0094560024   0.0265698452
       -0.0692282831   0.0156529244  -0.0116928028   0.0147589574  -0.0177141139
        0.0005661316  -0.0095500908   0.0115022354   0.0394547610  -0.0329110245
       -0.1185395916   0.0934524541  -0.1495649173   0.0036248617   0.0027713940
        0.0045331478  -0.0003809639   0.0010218166  -0.0001649074  -0.0006839554
       -0.0004604987   0.0000271995   0.0000923621   0.0002714262  -0.0003185635
        0.0001071801  -0.0004614180   0.0004615599  -0.0008040261  -0.0006180527
        0.0001932475  -0.0002162250   0.0004176841  -0.0003794525  -0.0000647533
       -0.0002672056   0.0001907368  -0.0002662414   0.0000586662  -0.0001071705
        0.0002283172   0.0001174625   0.0000053438   0.0000245021  -0.0000905483
        0.0000351939   0.0002184834   0.0001747481  -0.0002004342   0.0007977914
       -0.0001469408   0.0003900086  -0.0000005575  -0.0006476368  -0.0000387981
        0.0004438639   0.0005027242  -0.0000881453  -0.0003399741  -0.0001892975
        0.0001727542  -0.0000075945   0.0002686085  -0.0001254950  -0.0000255405
        0.0000195998   0.0000068945  -0.0000228483  -0.0000499197  -0.0000618453
       -0.0000063523  -0.0000054880   0.0000162841   0.0000455207   0.0000119700
       -0.0000085411  -0.0000536804  -0.0000074797   0.0000029038  -0.0000360812
       -0.0000707175  -0.0000478298   0.0000196016   0.0000521040   0.0000435615
        0.0000349311  -0.0000409536  -0.0000444298  -0.0000862680   0.0000327036
        0.0000456212  -0.0000690788  -0.0000531674  -0.0000279474   0.0000467728
        0.0000489254   0.0000287935   0.0000157692  -0.0000031270  -0.0000065180
       -0.0000136076   0.0000215380   0.0000259210  -0.0000015528  -0.0000126307
       -0.0000067810   0.0000002646  -0.0000076862  -0.0000023758  -0.0000163941
       -0.0000116372   0.0000106534  -0.0000240442   0.0000144596   0.0000021169
        0.0000688891   0.0000125825   0.0000404959  -0.0000522640  -0.0000543218
       -0.0000444018  -0.0000525447   0.0000452655   0.0000560375  -0.0005781360
       -0.0004577493  -0.0000775963   0.0003611765   0.0004459030   0.0001199036
        0.0001276630   0.0015587133  -0.0012382586   0.0533548493   0.1111996173
       -0.1171119165  -0.0182599110  -0.0021844587  -0.0019405931   0.0008601718
        0.0062440922   0.0030379236  -0.0023141390   0.0006066529  -0.0011071850
        0.0000323873  -0.0000137396   0.0000089651  -0.0000147471  -0.0000091588
        0.0000425984   0.0000080562   0.0000009911   0.0000030347   0.0000026802
        0.0000006768  -0.0000146618   0.0000014327   0.0000011153   0.0000069743
       -0.0000098107  -0.0000214248  -0.0000106458   0.0000696295   0.0000653429
        0.0000107822  -0.0000106851   0.0000088068  -0.0000066511  -0.0000062975
        0.0000061033   0.0000038830   0.0000041995   0.0000179260   0.0000089116
        0.0000127971   0.0000053471   0.0000000865   0.0000141532   0.0000106561
        0.0000006410   0.0000178041  -0.0000044288  -0.0000101520   0.0000014353
       -0.0000017195  -0.0000021358  -0.0000016285  -0.0000010043  -0.0000003232
       -0.0000003474  -0.0000010943   0.0000024631   0.0000009507   0.0000041968
       -0.0000071432   0.0000000337  -0.0000516819   0.0000500482
       -0.2995114079  -0.0751287646   0.0094560024   0.6258933561   0.0493790665
        0.0698816564  -0.1345080516  -0.0510430830   0.0241671119   0.0478957688
       -0.0090619060   0.0180168663  -0.0331762634  -0.0285648173   0.0186403400
       -0.0456020023   0.0495879750  -0.0530755850  -0.0048503950   0.0010977057
       -0.0017271821   0.0045428604   0.0013527646  -0.0002167084  -0.0007185157
        0.0084101287  -0.0088813780  -0.0021342127  -0.0025366902   0.0016509903
       -0.0007881013   0.0016720443  -0.0015182915   0.0019098643   0.0002666899
        0.0002479727   0.0000971055  -0.0000282755   0.0000632814   0.0000422253
        0.0001697221  -0.0001067188   0.0002919699  -0.0000154269   0.0000852549
       -0.0002335683  -0.0001849587   0.0000674818  -0.0000793929   0.0002331339
       -0.0001829750  -0.0000660535  -0.0004862311   0.0003818815  -0.0004076228
        0.0004220316  -0.0004254837  -0.0002169726  -0.0001265692   0.0000665986
        0.0002375069  -0.0000898128  -0.0000007987  -0.0000883125  -0.0000972545
       -0.0001099194   0.0000251448   0.0000002684   0.0000705241   0.0000423246
       -0.0000069408  -0.0000066108   0.0000095105   0.0000082776   0.0000424931
        0.0000235125   0.0000192417   0.0000004638  -0.0000030000  -0.0000220541
       -0.0000241509   0.0000145994  -0.0000274109  -0.0000180907  -0.0000057992
        0.0000510076   0.0000351835   0.0000028597  -0.0000407055  -0.0000375030
       -0.0000192097   0.0000358510   0.0000348871   0.0000383143  -0.0000408883
       -0.0000402549   0.0000188393   0.0000389567   0.0000263297  -0.0000283061
       -0.0000144798  -0.0000056476  -0.0000093868   0.0000177212   0.0000204137
        0.0000067002  -0.0000167031  -0.0000106808  -0.0000030414   0.0000022703
        0.0000084917   0.0000036231   0.0000037211   0.0000089035   0.0000047177
        0.0000034699   0.0000032851   0.0000103001  -0.0000094907   0.0000021180
       -0.0000368784  -0.0000219452  -0.0000189584   0.0000442538   0.0000165728
        0.0000236545   0.0000095310  -0.0000261723  -0.0000327463  -0.0001136137
       -0.0000972234   0.0000052016   0.0001873152   0.0002442686  -0.0000435099
       -0.0004885026  -0.0017005667   0.0013305094  -0.0134750679  -0.0042929460
        0.0006909459  -0.1294380583   0.0810438999  -0.0908253829  -0.0147183551
       -0.0218406048   0.0154273581  -0.0005475325   0.0014147793  -0.0031540519
       -0.0000005121   0.0000721816  -0.0001016115  -0.0000280687  -0.0000033281
        0.0000070616  -0.0000149176  -0.0000046092  -0.0000019613   0.0000015614
       -0.0000205829   0.0000220001   0.0000091913  -0.0000102201   0.0000067539
        0.0000255714  -0.0000033093   0.0000281979  -0.0001021758  -0.0000128306
        0.0000119314  -0.0000056915  -0.0000051609   0.0000185365  -0.0000147730
        0.0000114455   0.0000089147   0.0000099806   0.0000037449   0.0000122208
        0.0000025376   0.0000033443  -0.0000059617   0.0000010012   0.0000088205
        0.0000040990   0.0000021687  -0.0000091857  -0.0000081694   0.0000027389
       -0.0000047211   0.0000018813   0.0000056677  -0.0000088551  -0.0000001376
       -0.0000016363  -0.0000078100   0.0000038041   0.0000005078  -0.0000092655
        0.0000012012   0.0000222687   0.0000306944  -0.0000023332
       -0.0153409743  -0.0832510233   0.0265698452   0.0493790665   0.4402617511
       -0.2692431628  -0.1085860676  -0.2064863927   0.1152035854   0.0320779210
       -0.0391094387   0.0418208709  -0.0226311914  -0.0191794340   0.0064468046
        0.0068283319   0.0281010635  -0.0217437192  -0.0034352507  -0.0009747967
       -0.0000348771   0.0042942119   0.0008353595   0.0004223931   0.0026653796
        0.0085508080  -0.0010816876  -0.0018561594  -0.0023183699   0.0016347112
       -0.0010134362   0.0013007196  -0.0016924379   0.0017233500   0.0001814896
        0.0002842957   0.0000002731   0.0001247224  -0.0000649818  -0.0000034048
        0.0000247634  -0.0000079599   0.0001184268   0.0000017051   0.0000491132
       -0.0000967950  -0.0001230943   0.0000547351  -0.0000482992   0.0001180471
       -0.0000825455   0.0000399875  -0.0002548904   0.0002103384  -0.0001512124
        0.0001925676  -0.0001760150  -0.0002720249  -0.0002352103   0.0000376320
        0.0002701127   0.0000792364  -0.0000055690  -0.0001606093  -0.0001302507
       -0.0000242563   0.0000494395   0.0000837276   0.0000052337  -0.0000208422
       -0.0000049641  -0.0000148246   0.0000152390   0.0000005548   0.0000343499
       -0.0000102653  -0.0000073141  -0.0000085105  -0.0000004403   0.0000214396
        0.0000030994  -0.0000221307   0.0000230695   0.0000165528   0.0000245455
       -0.0000175041  -0.0000262705  -0.0000176935   0.0000256644   0.0000269418
        0.0000056827  -0.0000321260  -0.0000278590  -0.0000032156   0.0000362893
        0.0000280925  -0.0000069578  -0.0000342371  -0.0000274518   0.0000310501
        0.0000088194  -0.0000008435  -0.0000159266  -0.0000219069  -0.0000164462
        0.0000106936   0.0000005273  -0.0000032763   0.0000015102  -0.0000024113
       -0.0000026500  -0.0000031054   0.0000026653   0.0000049786  -0.0000047086
       -0.0000070340  -0.0000064367   0.0000261700  -0.0000099922  -0.0000158410
        0.0000076404   0.0000511138   0.0000369814  -0.0000442897  -0.0000271970
       -0.0000247395   0.0000286912   0.0000056036  -0.0000146392  -0.0000673814
       -0.0001308605   0.0000059722   0.0000943419   0.0002347211  -0.0000102063
       -0.0001284859  -0.0014367973   0.0008206223  -0.0222392373  -0.0057575343
        0.0006954576   0.0811137939  -0.1180653629   0.0906472221  -0.0042552209
       -0.0046887551   0.0035285267   0.0017404852   0.0020604346   0.0056990141
       -0.0000722327   0.0000168388   0.0001087465   0.0000136543   0.0000032356
       -0.0000220969   0.0000052630  -0.0000068650  -0.0000065098   0.0000076187
       -0.0000022070   0.0000065547  -0.0000003702  -0.0000048476  -0.0000051110
        0.0000153710  -0.0000013433   0.0000147431  -0.0000504344  -0.0000416431
       -0.0000445186   0.0000001942  -0.0000067487   0.0000119654   0.0000021608
       -0.0000038013  -0.0000043658  -0.0000040858  -0.0000094123  -0.0000035237
       -0.0000121789   0.0000014787  -0.0000054469  -0.0000089209  -0.0000027430
       -0.0000042655  -0.0000106684   0.0000042388   0.0000027555  -0.0000028766
        0.0000008100   0.0000002126  -0.0000020796   0.0000054124   0.0000038901
       -0.0000001240   0.0000046270   0.0000034703   0.0000031551   0.0000014155
        0.0000017500   0.0000055370   0.0000215892   0.0000115872
       -0.0420234139   0.0134037478  -0.0692282831   0.0698816564  -0.2692431628
        0.3617415969   0.0737607775   0.1278590646  -0.1386238059  -0.0174112096
        0.0328112463  -0.0308303519   0.0134869516   0.0051011068  -0.0073752042
       -0.0161520664  -0.0122570495   0.0082226100   0.0019744705   0.0007890350
       -0.0006924051  -0.0027147274  -0.0002596855  -0.0001657305  -0.0039534356
        0.0001810101   0.0055717925   0.0011312635   0.0015824600  -0.0009524176
        0.0007974313  -0.0011225745   0.0007030752  -0.0010782475  -0.0000583545
       -0.0001832954   0.0000246255  -0.0000983932   0.0001071763   0.0000104682
        0.0000158717  -0.0000230828  -0.0000399708  -0.0000067906  -0.0000162852
        0.0000357550   0.0000679480  -0.0000349571   0.0000185036  -0.0000344831
        0.0000569979  -0.0000564265   0.0001361829  -0.0000741690   0.0000168347
       -0.0001249343   0.0000345048   0.0002412622   0.0001634538  -0.0000258011
       -0.0002173676  -0.0001465303   0.0000077392   0.0001510353   0.0001435444
       -0.0000036518  -0.0000419572  -0.0000868509   0.0000102404   0.0000329215
        0.0000070187   0.0000158062  -0.0000171573   0.0000010287  -0.0000190480
        0.0000212957   0.0000165137   0.0000071609  -0.0000017335  -0.0000293568
       -0.0000131360   0.0000214117  -0.0000270764  -0.0000216779  -0.0000184436
        0.0000393903   0.0000383412   0.0000166210  -0.0000407741  -0.0000412091
       -0.0000112701   0.0000422335   0.0000384466   0.0000191186  -0.0000440616
       -0.0000377705   0.0000155044   0.0000432692   0.0000337096  -0.0000364014
       -0.0000143324  -0.0000016507   0.0000121321   0.0000224278   0.0000191888
       -0.0000078068  -0.0000116015  -0.0000041261  -0.0000064990   0.0000035631
        0.0000091302   0.0000104606   0.0000014668   0.0000017101   0.0000009005
       -0.0000039184   0.0000016634  -0.0000154417   0.0000062087   0.0000107455
       -0.0000181886  -0.0000409491  -0.0000216259   0.0000441055   0.0000225115
        0.0000211341  -0.0000226589  -0.0000112541   0.0000024735  -0.0000323552
        0.0000385341  -0.0000050038  -0.0000176827  -0.0000522446   0.0000047912
        0.0001142602   0.0005297337  -0.0008308850   0.0159970524   0.0045728016
        0.0002255357  -0.0908789733   0.0906573677  -0.1312669657   0.0003121622
       -0.0003040879   0.0008848144  -0.0034365488   0.0056397211   0.0026687249
        0.0000246079   0.0001354070   0.0000416768  -0.0000073717  -0.0000385544
       -0.0000180665  -0.0000073595   0.0000045117   0.0000038317  -0.0000060615
       -0.0000015050  -0.0000019061   0.0000034916  -0.0000038163  -0.0000004096
       -0.0000074854  -0.0000009007  -0.0000060308   0.0000237636   0.0000302468
        0.0000425389  -0.0000020481   0.0000031406  -0.0000077202  -0.0000049515
        0.0000078306   0.0000081182   0.0000067168   0.0000107563   0.0000060251
        0.0000084151  -0.0000010680   0.0000033935   0.0000071483   0.0000042489
        0.0000046903   0.0000084458  -0.0000049755  -0.0000034794   0.0000050685
       -0.0000006235   0.0000010053   0.0000043009  -0.0000060734  -0.0000034496
       -0.0000016701  -0.0000063531  -0.0000025782   0.0000005544  -0.0000012052
       -0.0000023562   0.0000054370  -0.0000110621  -0.0000118532
       -0.0239673858  -0.0246604082   0.0156529244  -0.1345080516  -0.1085860676
        0.0737607775   0.6633108633   0.0669742938   0.0635498222  -0.1801048218
        0.0914312260  -0.1086027505  -0.0372876258   0.0086860516  -0.0153187242
        0.0034924117   0.0032680765  -0.0015718635  -0.0079412054  -0.0000769832
       -0.0027842055   0.0021595431  -0.0019342905   0.0014390003   0.0070815620
        0.0053896854  -0.0025298954  -0.0007453398  -0.0020102739   0.0015466817
       -0.0007943975   0.0008094750  -0.0008674901   0.0006109004  -0.0002635539
        0.0004131523  -0.0002964550   0.0002596630  -0.0002643096   0.0000312213
        0.0000203599  -0.0000255877   0.0000679732   0.0000251473   0.0000128918
       -0.0000103634  -0.0001137479   0.0000519701  -0.0000216451   0.0000943959
       -0.0000768954   0.0002789486  -0.0000928291   0.0001755440   0.0006924139
       -0.0001857738   0.0003435838  -0.0005257720  -0.0005285615  -0.0001371630
        0.0007955806   0.0006104446  -0.0002964020  -0.0004774251  -0.0005527942
        0.0000909346  -0.0004148706   0.0002097171   0.0000999108   0.0001808040
        0.0000911071  -0.0000178267  -0.0000184990   0.0000383581  -0.0000545768
        0.0000602335   0.0000453546   0.0000082186  -0.0000428857  -0.0001102315
       -0.0000113310   0.0000923344  -0.0000514255  -0.0000608504  -0.0000103414
        0.0001253649   0.0001183481  -0.0000140251  -0.0001244448  -0.0001137499
       -0.0000886143   0.0000969926   0.0000949039   0.0000951630  -0.0001124189
       -0.0001181616   0.0000763473   0.0001260694   0.0000883924  -0.0001185683
       -0.0000420231  -0.0000087625   0.0000049367   0.0000458293   0.0000394184
        0.0000021305  -0.0000257544  -0.0000229231   0.0000050463   0.0000132083
        0.0000098768  -0.0000039686   0.0000102563   0.0000116631   0.0000166426
        0.0000087280  -0.0000024548  -0.0000362195   0.0000343903   0.0000458503
       -0.0000615538  -0.0000900551  -0.0000711710   0.0001460691   0.0000689827
        0.0000318325  -0.0000385569  -0.0000189690   0.0000081684  -0.0003605649
       -0.0001795093   0.0001271010   0.0004269157   0.0000291314   0.0000303961
       -0.0001157827   0.0004815966  -0.0004852520  -0.0054786790  -0.0021688234
       -0.0008397733   0.0059623088   0.0123416957  -0.0093218165  -0.2923370030
       -0.0490396348  -0.0147118569   0.0006034396   0.0002185286   0.0000070911
       -0.0002749998  -0.0004390721   0.0003316793  -0.0000606755  -0.0001198420
        0.0000793157  -0.0000293526  -0.0000086840  -0.0000156992  -0.0000153598
       -0.0000213799   0.0000427076   0.0000126551  -0.0000067532   0.0000044898
        0.0000123251   0.0000175185   0.0000166326  -0.0000684889   0.0000340405
        0.0001605375   0.0000048144   0.0000068324  -0.0000013635  -0.0000156585
        0.0000168686   0.0000196069   0.0000183572   0.0000141208   0.0000100920
        0.0000110547  -0.0000025181   0.0000052029   0.0000054076   0.0000100309
        0.0000084804   0.0000055774  -0.0000113070  -0.0000090336   0.0000076689
       -0.0000005368   0.0000002452   0.0000117208  -0.0000115577  -0.0000102549
       -0.0000046538  -0.0000087292  -0.0000061319   0.0000022063  -0.0000016251
        0.0000035978   0.0000042327  -0.0000529628  -0.0000827655
       -0.0692922645  -0.0028365539  -0.0116928028  -0.0510430830  -0.2064863927
        0.1278590646   0.0669742938   0.4259677190  -0.2548273036   0.0547543181
       -0.1274654125   0.0833783760   0.0395054271   0.0252504573  -0.0147756449
        0.0072347556  -0.0327665051   0.0279291680   0.0010586227   0.0036142392
        0.0013656467  -0.0075214272  -0.0030940198   0.0038944411   0.0109058040
       -0.0243046433   0.0211082109   0.0037526345   0.0042989813  -0.0027225663
        0.0016366848  -0.0023893796   0.0024574538  -0.0023579077   0.0002267496
       -0.0008435373   0.0002149205  -0.0003522936   0.0003125085   0.0000332272
        0.0000471547  -0.0000334800  -0.0000527844  -0.0000459939  -0.0000137907
        0.0000359337   0.0001658208  -0.0000865730   0.0000338724  -0.0001704473
        0.0001199876  -0.0001581838   0.0002986841  -0.0002494266  -0.0004040741
       -0.0003113408   0.0002224632   0.0006510161   0.0005094070   0.0000329662
       -0.0011438533  -0.0007374029   0.0001765427   0.0007446930   0.0008879255
       -0.0000450514   0.0001952630  -0.0004544483  -0.0000466903  -0.0000364156
       -0.0000207898   0.0000420124  -0.0000300328  -0.0000295755  -0.0000282970
       -0.0000070451   0.0000063111   0.0000132314   0.0000379846   0.0000187424
       -0.0000098688  -0.0000070996  -0.0000226192  -0.0000127499  -0.0000490646
       -0.0000052132   0.0000010151   0.0000510830   0.0000039041  -0.0000123640
        0.0000301346   0.0000259946   0.0000170044  -0.0000296727  -0.0000222095
       -0.0000082495  -0.0000243423   0.0000155507   0.0000141834  -0.0000015699
        0.0000034521   0.0000066042   0.0000284474   0.0000174030   0.0000137974
       -0.0000250874   0.0000029192   0.0000130060  -0.0000142488  -0.0000018961
        0.0000083189   0.0000208227  -0.0000036727  -0.0000064848  -0.0000038627
       -0.0000074005   0.0000053075  -0.0000294007   0.0000012170   0.0000126579
        0.0000092315  -0.0000484486  -0.0000221028   0.0000073185   0.0000067902
        0.0000245746  -0.0000262626  -0.0000069414   0.0000103565   0.0001562557
        0.0001792261  -0.0000846090  -0.0002788565  -0.0000932387  -0.0000047208
        0.0014044813   0.0009916058  -0.0002411732  -0.0019405931   0.0029754126
        0.0027356434  -0.0056421183  -0.0146922418   0.0114589994  -0.0496543904
       -0.0487278082   0.0025153836   0.0000251142  -0.0004128101   0.0001784007
        0.0000935900   0.0000749547  -0.0001681307   0.0000365425  -0.0000414303
        0.0000075343   0.0000087957   0.0000120589   0.0000131999  -0.0000023499
       -0.0000025978  -0.0000234627  -0.0000018926  -0.0000091211   0.0000192212
       -0.0000207205  -0.0000140943  -0.0000190618   0.0001088911  -0.0000190486
       -0.0000019002  -0.0000057129  -0.0000008485  -0.0000236213   0.0000017075
        0.0000015108   0.0000029006  -0.0000013146   0.0000167274   0.0000010500
        0.0000131235  -0.0000004805   0.0000051294   0.0000141463  -0.0000000851
        0.0000030477   0.0000178068  -0.0000003149   0.0000007366   0.0000059627
       -0.0000006821   0.0000012613   0.0000016732  -0.0000066737  -0.0000009425
        0.0000011416  -0.0000106528  -0.0000027835  -0.0000075473  -0.0000030906
       -0.0000018127   0.0000074581  -0.0000020996   0.0000277948
        0.0541139584  -0.0018941025   0.0147589574   0.0241671119   0.1152035854
       -0.1386238059   0.0635498222  -0.2548273036   0.3465603712  -0.0769984054
        0.0913456993  -0.1405866583  -0.0417829672  -0.0215402409   0.0073779011
       -0.0049355887   0.0269974979  -0.0266549507  -0.0038665541   0.0013953505
        0.0034601565   0.0062470220   0.0051947475   0.0002586555  -0.0073175350
        0.0198760385  -0.0214961794  -0.0034159301  -0.0040775709   0.0027523197
       -0.0015918045   0.0023212625  -0.0022218406   0.0022132642  -0.0003210403
        0.0007129206  -0.0002561455   0.0003644344  -0.0003127137  -0.0000206247
       -0.0000267196   0.0000159190   0.0000612215   0.0000432131   0.0000081903
       -0.0000230803  -0.0001605405   0.0000842011  -0.0000291030   0.0001332131
       -0.0001393813   0.0002113856  -0.0002612042   0.0002240164   0.0005099414
        0.0003506726   0.0000582814  -0.0006974328  -0.0006260264  -0.0000712551
        0.0010828756   0.0007184877  -0.0002107761  -0.0006624484  -0.0007844593
        0.0000675305  -0.0002846283   0.0004080913   0.0000469941   0.0000683958
        0.0000490966  -0.0000359370   0.0000193284   0.0000389716   0.0000133170
        0.0000271896   0.0000112740  -0.0000073931  -0.0000365759  -0.0000432600
        0.0000035945   0.0000176242   0.0000093327  -0.0000016079   0.0000442544
        0.0000357679   0.0000273451  -0.0000494240  -0.0000280765  -0.0000123260
       -0.0000457310  -0.0000067710   0.0000028118   0.0000484036  -0.0000011036
       -0.0000158749   0.0000326685   0.0000077614   0.0000042806  -0.0000117139
       -0.0000077077  -0.0000067358  -0.0000255472  -0.0000112588  -0.0000077291
        0.0000216385  -0.0000138566  -0.0000197032   0.0000087754   0.0000068237
       -0.0000001398  -0.0000110661   0.0000097182   0.0000126643  -0.0000012272
       -0.0000060015  -0.0000113445   0.0000272522   0.0000038640  -0.0000096586
       -0.0000198343   0.0000352268   0.0000230782   0.0000086129  -0.0000000093
       -0.0000228678   0.0000269905   0.0000009396  -0.0000105930  -0.0002144901
       -0.0002215668   0.0001052741   0.0002916170   0.0001487514   0.0000178865
       -0.0013593654  -0.0005009856   0.0004249478  -0.0010015357   0.0026748883
        0.0041271202   0.0061550253   0.0153766859  -0.0118817087  -0.0142146241
        0.0026483519  -0.0385472621   0.0001590241   0.0002108165  -0.0003749367
       -0.0001085093  -0.0002800682   0.0000807589  -0.0000385384  -0.0000140251
       -0.0000216543  -0.0000141951  -0.0000115578  -0.0000138960  -0.0000016042
       -0.0000030596   0.0000307614   0.0000034239   0.0000119219  -0.0000081339
        0.0000244221   0.0000144077   0.0000200519  -0.0000768397   0.0000179597
        0.0000684335   0.0000069546  -0.0000011994   0.0000189453  -0.0000047381
        0.0000049930   0.0000048670   0.0000058984  -0.0000104015   0.0000019535
       -0.0000120360  -0.0000009231  -0.0000029938  -0.0000120648   0.0000028142
       -0.0000006287  -0.0000154536  -0.0000015692  -0.0000021973  -0.0000011819
        0.0000016123  -0.0000007640   0.0000025259   0.0000041992  -0.0000019027
       -0.0000041049   0.0000084821   0.0000014287   0.0000106833   0.0000068171
        0.0000010962  -0.0000046622  -0.0000111617  -0.0000414812
       -0.0450026546   0.0104135252  -0.0177141139   0.0478957688   0.0320779210
       -0.0174112096  -0.1801048218   0.0547543181  -0.0769984054   0.6082280583