$hessian                                                                        
        0.5159197185  -0.0225524317   0.0021363364  -0.0660832398  -0.0361081787
        0.0036553131   0.0032037696   0.0210291445  -0.0021327530  -0.0093213902
       -0.0162689884   0.0094268545  -0.0002938158  -0.0010881056  -0.0008519449
       -0.0005434192   0.0004396071   0.0000961568   0.0000418475   0.0000874252
       -0.0000160295  -0.0006975508   0.0005163767   0.0000676696  -0.0000360846
       -0.0002616139   0.0023615539  -0.0001926090  -0.0000421388  -0.0000168196
        0.0001696703   0.0000151407   0.0000003744  -0.0000468759   0.0000209712
        0.0000016919   0.0000157838  -0.0000151582   0.0000023595   0.0001378133
        0.0001186927  -0.0000096534  -0.0000900283  -0.0001746508   0.0000079435
       -0.0000083187   0.0001258325  -0.0000076131  -0.0000056239  -0.0000269649
        0.0000034007  -0.0000080145  -0.0000082520  -0.0000036020   0.0000021583
       -0.0000009415   0.0000015428  -0.0000057148   0.0000064913   0.0000002709
        0.0000182222  -0.0000017165   0.0000002920  -0.0000089821   0.0000022482
       -0.0000001375   0.0000024314  -0.0000072268  -0.0000007418   0.0000021227
        0.0000146547   0.0000008636  -0.0000174770  -0.0000072127   0.0000002001
        0.0000096007  -0.0000012967   0.0000018727  -0.0000234964   0.0000065479
       -0.0000008631   0.0000265059  -0.0000314052   0.0000007417  -0.0000131291
        0.0000197782  -0.0000001992   0.0000126874  -0.0000008852  -0.0000010727
       -0.0000162220   0.0000199706  -0.0000006973   0.0000289528   0.0000072263
        0.0000003403  -0.0001208922  -0.0001336091   0.0000078878   0.0000669097
        0.0002715095  -0.0000157637   0.0000424825  -0.0001944064   0.0000114728
        0.0000442879  -0.0000256938  -0.0000046681   0.0000742152  -0.0006908087
       -0.0021533678  -0.0006625574   0.0004724825  -0.0001893775   0.0000486567
        0.0000993662   0.0000019143  -0.0005290559   0.0003983619  -0.0002139650
       -0.0003127745  -0.0008852231   0.0010889917  -0.0087736440  -0.0172251394
       -0.0061819948  -0.1202350989  -0.0129591186   0.1122037602  -0.1135379046
       -0.0341533053  -0.1046464000  -0.1968252143   0.1148010376  -0.0141818441
       -0.0029994759   0.0040827621  -0.0004744961   0.0008177257   0.0005033639
        0.0001891103   0.0008322574   0.0004758327  -0.0002697228   0.0000274576
       -0.0001807158  -0.0003281985   0.0000120173  -0.0000146046  -0.0000154648
        0.0000215595  -0.0001192315   0.0000268868  -0.0000895840  -0.0000863301
        0.0001129409  -0.0000076163   0.0000291573  -0.0000026814  -0.0000079915
       -0.0000099611   0.0000002475   0.0000056581   0.0000082854  -0.0000001568
       -0.0000053013   0.0000014601  -0.0000002087   0.0000009005  -0.0000024308
        0.0000004589   0.0000054253   0.0000030347   0.0000000949  -0.0000084703
        0.0000045222   0.0000005414  -0.0000067214  -0.0000131235   0.0000012404
       -0.0000294934   0.0000148983   0.0000034315  -0.0000862155  -0.0001015038
       -0.0000893402   0.0000202604  -0.0001180916  -0.0000031780   0.0000110008
       -0.0000152679   0.0000203131   0.0000279042  -0.0000704500   0.0003778847
       -0.0225524317   0.4397353840   0.0088139737  -0.0279078163  -0.1585480168
        0.0095533779  -0.0006817266  -0.0269850101   0.0029106368  -0.0079880446
       -0.0069138592   0.0093177798  -0.0000882436  -0.0002590771  -0.0015853230
       -0.0006416843   0.0000901718   0.0003016661   0.0000522264   0.0001096057
       -0.0000372627  -0.0002975529   0.0002244477   0.0002976877   0.0012402419
       -0.0005154639   0.0002495453  -0.0002541778  -0.0002554497   0.0002294728
        0.0001759772   0.0003422005  -0.0000289518   0.0000257891  -0.0000649505
        0.0000040526   0.0000442963   0.0000647893  -0.0000036702   0.0001394584
       -0.0000872449   0.0000001346  -0.0000403823  -0.0000495122   0.0000009161
       -0.0001356976   0.0000712936  -0.0000052277  -0.0000040940   0.0000483810
        0.0000012011   0.0000072249  -0.0000304874  -0.0000015392  -0.0000174399
        0.0000082939   0.0000010040   0.0000410631   0.0000084642   0.0000000556
       -0.0000717096  -0.0000323046   0.0000019662   0.0000461158   0.0000211191
       -0.0000009767  -0.0000195450  -0.0000044473  -0.0000011672   0.0000078349
       -0.0000097032   0.0000019367   0.0000286968   0.0000059077   0.0000000984
       -0.0000218141   0.0000182429   0.0000009019   0.0000436355  -0.0000313586
        0.0000011825  -0.0000603166   0.0000583215  -0.0000041280   0.0000363748
       -0.0000355864   0.0000033668  -0.0000291439   0.0000055206  -0.0000011525
        0.0000259849   0.0000055709   0.0000001077  -0.0000492656  -0.0000222992
        0.0000027787  -0.0000854691   0.0000251034  -0.0000102199  -0.0000943732
       -0.0000240777   0.0000079472   0.0002234489   0.0000565597  -0.0000022453
       -0.0000536703  -0.0000934325   0.0000142275   0.0012930448  -0.0007634217
       -0.0008544467  -0.0004500506   0.0003104316  -0.0003706121  -0.0000260772
        0.0000964888   0.0000093977  -0.0006358123   0.0001718103  -0.0001879295
       -0.0002048526  -0.0001127745   0.0013395720  -0.0099933991  -0.0131294556
       -0.0082433823  -0.0124304923  -0.0440462251   0.0199284185  -0.0336192853
       -0.0590576682  -0.0521125263   0.1143313558  -0.1277096017   0.0103203749
        0.0031368378  -0.0033294798   0.0004438528  -0.0009760644   0.0007895654
       -0.0003424710  -0.0010226549   0.0007268013   0.0001869935  -0.0001434999
       -0.0001942940  -0.0001528687   0.0000164932  -0.0000399872   0.0000065319
       -0.0000059349  -0.0000461664   0.0000290158  -0.0000260407  -0.0000240977
        0.0000229588  -0.0000177265   0.0000335756  -0.0000045138  -0.0000135135
        0.0000080682  -0.0000005045   0.0000013742   0.0000003780  -0.0000002161
        0.0000023843   0.0000105880  -0.0000008645   0.0000076915  -0.0000063707
        0.0000007035   0.0000124335   0.0000034470   0.0000001233  -0.0000034010
       -0.0000098405   0.0000013911  -0.0000092886  -0.0000031220  -0.0000001580
        0.0000088019  -0.0000170886  -0.0000036345  -0.0000512091  -0.0000382824
       -0.0000567211  -0.0000053063  -0.0000853582  -0.0000164674   0.0000186231
       -0.0000446295   0.0000037080  -0.0002382006  -0.0004303868   0.0000201207
        0.0021363364   0.0088139737   0.5278997532   0.0028099530   0.0094121383
       -0.0625652713   0.0000954758   0.0032521309   0.0010666692   0.0117683897
        0.0215131944  -0.0061266985   0.0003609983   0.0005018745  -0.0013385486
        0.0000760307  -0.0005385556   0.0007897456   0.0003892942   0.0001328871
       -0.0000332711   0.0008216331  -0.0007560611   0.0000067910  -0.0000995236
        0.0003184491  -0.0037901410  -0.0000354325   0.0002129338   0.0019214031
       -0.0000071913  -0.0000411841  -0.0000008537  -0.0000072843  -0.0000003040
        0.0000159276  -0.0000014369  -0.0000045891   0.0000074506  -0.0000410690
       -0.0000136013  -0.0000120977   0.0000120742   0.0000591657   0.0000074330
        0.0000309470  -0.0000438067  -0.0000040339  -0.0000031393  -0.0000031380
        0.0000029911   0.0000019128   0.0000071425   0.0000015158   0.0000016736
       -0.0000000626   0.0000006675  -0.0000038891  -0.0000009106   0.0000000999
        0.0000066670   0.0000030962   0.0000002458  -0.0000035832  -0.0000017950
        0.0000005168   0.0000010726   0.0000001568   0.0000004394   0.0000018381
       -0.0000008458   0.0000002655  -0.0000064504   0.0000000859   0.0000004438
        0.0000033245  -0.0000043337   0.0000003421  -0.0000075850   0.0000049187
       -0.0000007564   0.0000078357  -0.0000074770  -0.0000011214  -0.0000049489
        0.0000047257   0.0000012574   0.0000060524  -0.0000010379   0.0000003105
       -0.0000026510   0.0000017950   0.0000011677   0.0000085696  -0.0000051713
        0.0000019465   0.0000105513   0.0000091106  -0.0000106361   0.0000127363
       -0.0000138523   0.0000175671  -0.0000332757   0.0000098584  -0.0000159019
       -0.0000021331   0.0000146263   0.0000525196   0.0000268286  -0.0009463539
       -0.0036657995  -0.0007637329   0.0007160752  -0.0000787389  -0.0003832931
       -0.0001511624  -0.0000329865   0.0000264847   0.0006767123   0.0007066614
       -0.0003150366  -0.0008067533  -0.0014806129  -0.0101418847  -0.0206631667
       -0.0005336952   0.1120713031   0.0203619767  -0.2068286232  -0.1046257968
       -0.0525653103  -0.1985100409  -0.0141312765   0.0103303360  -0.0460080734
       -0.0003761636   0.0004578663   0.0004569893   0.0002858915   0.0005175239
        0.0001306579  -0.0000564751  -0.0006307330   0.0001827050   0.0004796312
        0.0011759968  -0.0010278464  -0.0000140869   0.0000053024   0.0000003695
       -0.0000056964   0.0001689629  -0.0000215602   0.0001357583   0.0000318222
       -0.0001888035   0.0000022895  -0.0000009964  -0.0000188751   0.0000017838
       -0.0000009064  -0.0000032180   0.0000001377  -0.0000014520  -0.0000011677
       -0.0000004516  -0.0000011670   0.0000001021  -0.0000009678   0.0000006505
       -0.0000000873  -0.0000010745  -0.0000001607  -0.0000001114   0.0000000758
        0.0000009044  -0.0000008344   0.0000008950   0.0000003491  -0.0000032030
       -0.0000030791   0.0000004593  -0.0000269417  -0.0001247405  -0.0000597323
       -0.0001773489   0.0000066747  -0.0001592686   0.0000175397   0.0000094234
        0.0000043707   0.0000029288  -0.0004071943  -0.0012976831  -0.0007875238
       -0.0660832398  -0.0279078163   0.0028099530   0.4521208070   0.0089722542
       -0.0015911372  -0.1250823522   0.0510184517  -0.0062388935  -0.0995557128
       -0.0082557479   0.0537158753   0.0080168747   0.0024326875  -0.0016649905
        0.0006614253  -0.0021894963  -0.0034051903  -0.0006751099  -0.0001139724
        0.0003710309  -0.0035607446  -0.0029960039  -0.0013761386  -0.0201885019
       -0.0047161845   0.0217566152   0.0041892560   0.0022919896  -0.0001381353
       -0.0008050050  -0.0001778108   0.0000028573   0.0004113907   0.0002516869
        0.0000323556  -0.0000914695  -0.0002982048   0.0000364507   0.0002064579
        0.0008647806  -0.0000923772  -0.0000843663  -0.0013484428   0.0000627701
       -0.0000161595   0.0009331922  -0.0000626470   0.0000819853  -0.0002371461
        0.0000333483  -0.0000424058  -0.0000549763  -0.0000305165   0.0000702798
       -0.0000294511   0.0000212462  -0.0001476672   0.0000200643   0.0000042073
        0.0002172007   0.0000028801   0.0000014116  -0.0001065036   0.0000139233
        0.0000002907   0.0000607008  -0.0000048395  -0.0000150518  -0.0000284516
        0.0000720455   0.0000102695   0.0000398998  -0.0000233516  -0.0000014940
        0.0000286978   0.0000142322   0.0000185455  -0.0001020243   0.0000465160
       -0.0000104883   0.0001569099  -0.0001858421  -0.0000010006  -0.0000780730
        0.0001128407   0.0000031356   0.0000369066   0.0000272812  -0.0000141024
       -0.0000372512  -0.0000596080   0.0000144904   0.0000973249   0.0002878868
       -0.0000121466  -0.0000584536  -0.0006856446   0.0000481014   0.0002738028
        0.0009964848  -0.0000408457  -0.0003938256  -0.0007909746   0.0000442890
        0.0003067928   0.0003610079  -0.0000733870  -0.0193732499  -0.0089136450
       -0.0210268822  -0.0036636239  -0.0026866726   0.0018256588  -0.0006469018
       -0.0001178054  -0.0004379137   0.0004256529  -0.0014775151   0.0038603573
        0.0082948112   0.0028155452   0.0024313251  -0.0962286010  -0.0182397478
       -0.0493893391  -0.0067549182  -0.0163095978   0.0038043086  -0.0064290445
       -0.0160511032  -0.0006136421   0.0058662653   0.0206653610  -0.0020350688
        0.0050399603  -0.0020079160   0.0002898810  -0.0168484651   0.0102294394
       -0.0045413373  -0.0175700956   0.0113444751   0.0018411911  -0.0004035582
        0.0006494918  -0.0007649442   0.0002942573   0.0000185160  -0.0008371065
       -0.0001362335   0.0003847381  -0.0001087042  -0.0006564801  -0.0001102506
        0.0008761650  -0.0001191171  -0.0000035351  -0.0000089590   0.0000637892
       -0.0000349408  -0.0000017106   0.0000400104   0.0000457013  -0.0000000650
       -0.0000555838   0.0000200972  -0.0000026892   0.0000182572  -0.0000227881
        0.0000037397   0.0000489592   0.0000256803  -0.0000000276  -0.0000674687
        0.0000279485   0.0000040651  -0.0000490242  -0.0000660166   0.0000031572
       -0.0000453937   0.0000882822   0.0000055220  -0.0006413089  -0.0002732636
       -0.0008683070  -0.0001366225   0.0003991566   0.0000223020   0.0002848909
        0.0001573874   0.0008653266  -0.0003905586   0.0007982861   0.0005849961
       -0.0361081787  -0.1585480168   0.0094121383   0.0089722542   0.4236223021
        0.0077725293   0.0591008535  -0.1001282937   0.0048572007  -0.0077071553
       -0.0551261224   0.0059940215   0.0036914846   0.0002634966  -0.0038293180
       -0.0021838222   0.0058599068  -0.0019638174  -0.0000792291  -0.0002961112
        0.0001274460  -0.0029817880   0.0050399167  -0.0009508299  -0.0060071877
        0.0015161443   0.0063652267   0.0023068171  -0.0027487261   0.0000501117
       -0.0002395329  -0.0005943634   0.0000327989  -0.0000283281   0.0002037669
        0.0000023182  -0.0000891392  -0.0002368867   0.0000257789   0.0001971703
        0.0004155904  -0.0000334050   0.0000038836  -0.0006765369   0.0000339631
       -0.0001018082   0.0004194449  -0.0000243109   0.0000787240  -0.0000472992
        0.0000024773  -0.0000327751  -0.0000558311  -0.0000077315   0.0000390884
       -0.0000160320   0.0000077797  -0.0000715944   0.0000047524   0.0000013924
        0.0000907049   0.0000064695   0.0000000054  -0.0000501220  -0.0000007936
        0.0000005397   0.0000381914   0.0000088046  -0.0000041511  -0.0000448203
        0.0000378483   0.0000022060   0.0000490102  -0.0000043538  -0.0000016781
       -0.0000022370   0.0000215760   0.0000048325  -0.0000079835   0.0000004833
       -0.0000021941   0.0000330275  -0.0000421840  -0.0000012039  -0.0000144213
        0.0000222215   0.0000016373  -0.0000128656   0.0000128010  -0.0000045921
        0.0000025422  -0.0000541496   0.0000073631  -0.0000172250   0.0001305251
       -0.0000075986   0.0001282918  -0.0001080830   0.0000240942   0.0000519998
        0.0000979778  -0.0000122520  -0.0002514996  -0.0002936343   0.0000089952
        0.0003986061   0.0002648968  -0.0000394217  -0.0074095830  -0.0002226706
       -0.0063619963  -0.0027122177   0.0052176642  -0.0000183798  -0.0001667698
       -0.0003212949  -0.0001017045  -0.0014551295   0.0063030860   0.0001849815
        0.0015385615  -0.0003260164  -0.0027512641  -0.0188010218  -0.0618382723
       -0.0251478624  -0.0041032643  -0.0066152454   0.0029444288  -0.0057142707
       -0.0117940835  -0.0016029901  -0.0033145421  -0.0224479757   0.0022635659
        0.0219047636  -0.0216226475   0.0025685444  -0.0024822528   0.0029272251
        0.0003356103   0.0015479664  -0.0001656192  -0.0010340220   0.0008380901
       -0.0025849712   0.0001430234   0.0001105471   0.0001386185  -0.0003658793
        0.0003993676  -0.0013422662   0.0001296243  -0.0001813461  -0.0001806549
        0.0002906485  -0.0000480592  -0.0000855466   0.0000041287  -0.0000121460
       -0.0000439633  -0.0000003211   0.0000112385   0.0000199569  -0.0000000916
       -0.0000165529   0.0000071491  -0.0000007623   0.0000066773  -0.0000075269
        0.0000012674   0.0000127136   0.0000076938  -0.0000000146  -0.0000190814
        0.0000062924   0.0000009696  -0.0000127279  -0.0000169443   0.0000008655
        0.0000423987   0.0000250107   0.0000109743  -0.0001179646  -0.0002109271
       -0.0002252926   0.0003881388  -0.0013405243   0.0001702002  -0.0000066515
        0.0001453586   0.0001433723   0.0006221816  -0.0026024122   0.0005660243
        0.0036553131   0.0095533779  -0.0625652713  -0.0015911372   0.0077725293
        0.4991600617  -0.0070813137   0.0047462392  -0.0623769579   0.0580038093
        0.0073702513  -0.1505178864   0.0107820901  -0.0000934690  -0.0323332385
       -0.0032058650  -0.0019223096  -0.0023823514   0.0003234002   0.0001022072
       -0.0002916436  -0.0008783843  -0.0008190621   0.0008972678   0.0094353579
        0.0026677753   0.0011460886  -0.0001315373   0.0000253982  -0.0030487048
        0.0000135394   0.0000419529  -0.0001461423   0.0000111795  -0.0000199679
       -0.0000685631   0.0000038854   0.0000196629  -0.0000067818  -0.0000160792
       -0.0000321047   0.0000158868   0.0000021822   0.0000432939  -0.0000115818
        0.0000040069  -0.0000267773   0.0000051236  -0.0000032075   0.0000045600
        0.0000020355   0.0000021474   0.0000018387  -0.0000000097  -0.0000017040
        0.0000007720  -0.0000001085   0.0000035452  -0.0000003523   0.0000008417
       -0.0000045888  -0.0000005217   0.0000028929   0.0000030780  -0.0000000614
       -0.0000006506  -0.0000011997  -0.0000003550   0.0000000854   0.0000013930
       -0.0000020014   0.0000001563  -0.0000017910   0.0000006711   0.0000005053
        0.0000002450  -0.0000011946  -0.0000007113   0.0000001488   0.0000000298
       -0.0000000809  -0.0000019113   0.0000020576   0.0000014514   0.0000008350
       -0.0000016826  -0.0000020882  -0.0000001614  -0.0000009647  -0.0000011580
       -0.0000003545   0.0000014467  -0.0000042356  -0.0000009583  -0.0000068959
       -0.0000000985   0.0000046324   0.0000128896  -0.0000008882  -0.0000134432
       -0.0000205166  -0.0000103815   0.0000177091   0.0000356725   0.0000256347
       -0.0000347962  -0.0000285333  -0.0000756843  -0.0087234490  -0.0026726797
        0.0020589689   0.0013352848  -0.0001927740   0.0008214469  -0.0003099348
       -0.0000708267  -0.0002664533   0.0036840631   0.0000614550  -0.0025914539
       -0.0100815513  -0.0064661733  -0.0320318197  -0.0537139815  -0.0264501632
       -0.1471445282   0.0086383007   0.0231164237  -0.0044354674  -0.0077722288
       -0.0221252487   0.0004244027   0.0004314837   0.0026312434  -0.0002589880
       -0.0021601917   0.0021829957  -0.0002500931  -0.0197004999   0.0140272382
       -0.0038486160   0.0193117589  -0.0143605046  -0.0000317614   0.0008704855
        0.0006462773   0.0007615598   0.0005558995   0.0000588564  -0.0009598254
       -0.0000777399   0.0001435156   0.0000983886  -0.0003049220  -0.0000745796
        0.0001278074   0.0000005514   0.0000103604   0.0000269574   0.0000018192
        0.0000055606   0.0000129107  -0.0000004549  -0.0000007979   0.0000020720
        0.0000012955  -0.0000002678   0.0000017204  -0.0000004472   0.0000003521
        0.0000010956  -0.0000009251  -0.0000005029   0.0000008452   0.0000007993
        0.0000000061   0.0000005235   0.0000009042   0.0000017729   0.0000029520
       -0.0000023352   0.0000019758   0.0000277101   0.0003177826   0.0001214857
        0.0001427496  -0.0000111306   0.0001678296   0.0000937629  -0.0005325229
       -0.0002677432  -0.0009678758  -0.0010581788   0.0000790574   0.0007681949
        0.0032037696  -0.0006817266   0.0000954758  -0.1250823522   0.0591008535
       -0.0070813137   0.4712806071   0.0437840730  -0.0054026819  -0.0217839942
        0.0105209212   0.0101521547  -0.0007866798   0.0004465647  -0.0016484317
       -0.0004231163  -0.0007669898   0.0003099998   0.0000871092  -0.0000984778
       -0.0000116504  -0.0003657170  -0.0008650358   0.0003719343   0.0001520406
        0.0012369897   0.0021519137  -0.0003354828  -0.0000002034  -0.0000458810
        0.0003009035   0.0000833091  -0.0000003132  -0.0000326848   0.0000121080
       -0.0000001649   0.0000184799   0.0000053751  -0.0000005326   0.0001842576
        0.0000494785  -0.0000084706  -0.0001013222  -0.0002074815   0.0000087009
       -0.0000799375   0.0001622105  -0.0000102302  -0.0000043257  -0.0000041993
        0.0000046729  -0.0000049726  -0.0000167168  -0.0000041591  -0.0000077894
        0.0000027446   0.0000020424   0.0000148336   0.0000077858   0.0000003865
       -0.0000207937  -0.0000179806   0.0000012401   0.0000165259   0.0000115835
       -0.0000004083  -0.0000085624  -0.0000076492  -0.0000016000   0.0000070189
        0.0000027177   0.0000020071   0.0000055530  -0.0000021688   0.0000002407
       -0.0000076416   0.0000084078   0.0000022465   0.0000093589  -0.0000131467
       -0.0000000872  -0.0000168102   0.0000135114  -0.0000021263   0.0000093674
       -0.0000084081   0.0000020923  -0.0000088548   0.0000068728  -0.0000018746
        0.0000146377   0.0000204193  -0.0000005659  -0.0000097755   0.0000030297
        0.0000012575  -0.0001567439  -0.0001161647   0.0000005588  -0.0000013796
        0.0002316994  -0.0000089206   0.0002110112  -0.0001434171   0.0000102729
       -0.0000130648  -0.0000434710   0.0000006034   0.0001864539   0.0007520754
       -0.0022321805  -0.0003572800  -0.0008891605  -0.0001987946   0.0001038407
       -0.0000784091   0.0000214625  -0.0004381141  -0.0007995304  -0.0001955444
       -0.0008127295   0.0007393753   0.0015578508  -0.0207328884   0.0078346661
       -0.0125653473   0.0005776467  -0.0006276832   0.0000242811   0.0005610433
       -0.0006037364   0.0001156887   0.0002398781  -0.0016562786   0.0001670822
       -0.0688042288  -0.0748461189   0.0072748126  -0.1144011566  -0.0324274379
       -0.1067213455  -0.1215028084  -0.0108264736   0.1139086600  -0.0002350909
        0.0001642300  -0.0003452824  -0.0000089361   0.0000572980  -0.0000188629
       -0.0000638388   0.0001226583   0.0000129703  -0.0001340113   0.0000214440
        0.0001077835  -0.0000305105   0.0000052062  -0.0000020531  -0.0000175386
       -0.0000086690   0.0000004754   0.0000052557   0.0000059302  -0.0000002619
       -0.0000044810   0.0000063834  -0.0000006501   0.0000059176  -0.0000061450
        0.0000008114   0.0000111236   0.0000039913   0.0000001680  -0.0000075812
       -0.0000058172   0.0000014700  -0.0000124366  -0.0000138111   0.0000009108
        0.0000128477  -0.0000270354   0.0000024667  -0.0001264756   0.0000067929
       -0.0001109909  -0.0000591834   0.0001131575  -0.0000385630  -0.0000092934
        0.0000536893   0.0000082625  -0.0002088971   0.0002119906   0.0003363318
        0.0210291445  -0.0269850101   0.0032521309   0.0510184517  -0.1001282937
        0.0047462392   0.0437840730   0.4845233038   0.0052275004   0.0036166981
        0.0006984576  -0.0034863367  -0.0002226501   0.0003137436   0.0004355087
        0.0002499504   0.0000760495  -0.0000287565   0.0000226073   0.0000447123
        0.0000175820  -0.0000064490  -0.0000117052  -0.0002103429  -0.0007067362
       -0.0007750169   0.0004560913   0.0002061174  -0.0000951088   0.0002055463
       -0.0001227249   0.0001523000  -0.0000165021   0.0000446063   0.0000562662
        0.0000046423  -0.0000410816  -0.0000402685   0.0000046858  -0.0000124338
        0.0001673005  -0.0000117770  -0.0000237438  -0.0001884270   0.0000128453
        0.0000667088   0.0001017565  -0.0000070096   0.0000206829  -0.0000625741
        0.0000031457  -0.0000173569   0.0000145560   0.0000000574   0.0000211693
       -0.0000094454   0.0000005633  -0.0000472698  -0.0000046405   0.0000000974
        0.0000773288   0.0000283133  -0.0000016669  -0.0000475954  -0.0000167248
        0.0000009995   0.0000160243   0.0000011934  -0.0000000548  -0.0000123360
        0.0000168967  -0.0000010722  -0.0000172005  -0.0000098217   0.0000003039
        0.0000154206  -0.0000070708   0.0000002239  -0.0000375246   0.0000261262
       -0.0000014756   0.0000571919  -0.0000589196   0.0000031467  -0.0000329228
        0.0000385059  -0.0000022466   0.0000241239  -0.0000034846   0.0000002544
       -0.0000303422  -0.0000088066   0.0000010476   0.0000495234   0.0000488759
       -0.0000032487   0.0000228047  -0.0001100347   0.0000088804   0.0000624808
        0.0001500831  -0.0000073692  -0.0001356977  -0.0001148077   0.0000054594
       -0.0000256147   0.0000218541  -0.0000005070  -0.0007621116  -0.0008188847
       -0.0010844016  -0.0000733164  -0.0001826906   0.0002201846  -0.0000536478
        0.0000157768  -0.0000375604   0.0003052350  -0.0000091176   0.0001862605
       -0.0003286167   0.0002700989  -0.0007972773  -0.0007825246   0.0036903023
        0.0024013962   0.0008300132   0.0010163714  -0.0004251729   0.0009137140
        0.0010099389   0.0002742469  -0.0007280072  -0.0065426964   0.0007140615
       -0.0743646195  -0.2549567706   0.0203231037  -0.0329645101  -0.0567692721
       -0.0463516735  -0.0113422937  -0.0444044348   0.0141903904   0.0003762138
       -0.0001627949  -0.0002210634   0.0000055322  -0.0000345497  -0.0000077062
        0.0000163784   0.0000026168  -0.0000135349  -0.0000197164   0.0000215206
        0.0000027375  -0.0000086077  -0.0000355253  -0.0000022999   0.0000144106
       -0.0000047651  -0.0000006508   0.0000023697   0.0000049695  -0.0000004239
       -0.0000056338  -0.0000061714   0.0000003114  -0.0000042172   0.0000044573
       -0.0000003765  -0.0000048604  -0.0000004422  -0.0000001038  -0.0000018951
        0.0000110424  -0.0000008544   0.0000032062  -0.0000056020   0.0000000496
        0.0000064342  -0.0000033862  -0.0000020746  -0.0000448886   0.0000098857
       -0.0000461208  -0.0000015356   0.0000334186   0.0000101357   0.0000070964
       -0.0000302036   0.0000141840   0.0001449705   0.0000267738   0.0000456474
       -0.0021327530   0.0029106368   0.0010666692  -0.0062388935   0.0048572007
       -0.0623769579  -0.0054026819   0.0052275004   0.5282194915   0.0204878356
       -0.0118440806  -0.0012360597   0.0006553883  -0.0005409926  -0.0014578851
       -0.0003476100   0.0005678971   0.0007106633   0.0004015725   0.0000924844
       -0.0000401148   0.0002726059   0.0010329706  -0.0001102893   0.0004395796
       -0.0008303476  -0.0037315231  -0.0000321719   0.0002076920   0.0018790693
        0.0000122353  -0.0000182606  -0.0000063285  -0.0000046970  -0.0000025166
        0.0000398613   0.0000072367   0.0000070909   0.0000114267   0.0000095777
       -0.0000134876  -0.0000102335  -0.0000043169   0.0000155829   0.0000072281
       -0.0000054885  -0.0000059146  -0.0000023477  -0.0000053263   0.0000044823
       -0.0000028227   0.0000021205  -0.0000005019   0.0000010301  -0.0000038010
        0.0000018517   0.0000008414   0.0000069655   0.0000007421  -0.0000000375
       -0.0000094317  -0.0000034313  -0.0000001355   0.0000062757   0.0000021025
        0.0000008582  -0.0000031522  -0.0000014421   0.0000012810   0.0000032054
       -0.0000023184   0.0000003269  -0.0000000790   0.0000005538  -0.0000003330
       -0.0000013795   0.0000007498   0.0000007930   0.0000033890  -0.0000027269
        0.0000000411  -0.0000058855   0.0000060318  -0.0000010951   0.0000034947
       -0.0000040379   0.0000013501  -0.0000020484   0.0000005931   0.0000010758
        0.0000028746   0.0000040603   0.0000025952  -0.0000030957  -0.0000061606
       -0.0000001532  -0.0000192513  -0.0000002240   0.0000010869   0.0000027373
        0.0000080647   0.0000120404   0.0000195596  -0.0000040746  -0.0000216052
        0.0000077798  -0.0000047164   0.0000276196  -0.0002230663   0.0002417583
       -0.0037368734  -0.0002825326  -0.0010437647   0.0000332115  -0.0003958001
       -0.0001036690  -0.0000251090   0.0002453027  -0.0004524764   0.0007914449
       -0.0005561148   0.0001986501  -0.0013683351  -0.0213025852   0.0110223134
       -0.0052078152  -0.0005465538   0.0002825021   0.0001457050   0.0003790371
       -0.0004798631   0.0001685611   0.0000702217   0.0006987810   0.0004370238
        0.0072222992   0.0203157065  -0.0466774437  -0.1068418668  -0.0459363825
       -0.1999830359   0.1141456235   0.0137921988  -0.2052271148   0.0010897359
       -0.0008815035  -0.0008483774  -0.0000102289  -0.0000025364   0.0000044908
        0.0000843405  -0.0001370061   0.0000146868   0.0001390062   0.0000193157
       -0.0001860343   0.0000010607   0.0000042847  -0.0000203395  -0.0000016374
       -0.0000001737  -0.0000079615  -0.0000000572  -0.0000004593  -0.0000012189
        0.0000006153   0.0000005705  -0.0000002850   0.0000005051  -0.0000004720
        0.0000000542   0.0000007680   0.0000000343   0.0000000088   0.0000000938
       -0.0000013265  -0.0000007698  -0.0000009300  -0.0000002164  -0.0000032621
       -0.0000026589   0.0000001091  -0.0000185046  -0.0001327980  -0.0000537454
       -0.0001822913  -0.0000867278   0.0001372773  -0.0000196552   0.0000084917
        0.0000127702   0.0000009458  -0.0011259143   0.0007042698  -0.0010691330
       -0.0093213902  -0.0079880446   0.0117683897  -0.0995557128  -0.0077071553
        0.0580038093  -0.0217839942   0.0036166981   0.0204878356   0.5857004464
        0.1338940683   0.0127306580  -0.1285330633  -0.0300674428  -0.0493634789
        0.0487303643   0.0124041815  -0.0221949739  -0.0350752004  -0.0118518681
       -0.0247649685  -0.0301311024  -0.0029027334   0.0601347706  -0.2634461467
       -0.0654844576  -0.0133950042  -0.0325673251  -0.0131982410  -0.0281353087
        0.0027785198   0.0001068187  -0.0020965661  -0.0013404925  -0.0005327930
        0.0000265901   0.0003529877   0.0007473011   0.0001060940  -0.0002272579
       -0.0022811773   0.0001922011   0.0001716517   0.0033121442  -0.0001666489
       -0.0001016008  -0.0022683716   0.0001172725  -0.0001061617   0.0006636402
       -0.0000610096   0.0000933580   0.0000431140   0.0000577575  -0.0001184308
        0.0000673851  -0.0000394001   0.0002973078  -0.0000203910  -0.0000081560
       -0.0004953899  -0.0000494912  -0.0000010143   0.0002534203   0.0000027891
        0.0000028094  -0.0001190024   0.0000168791   0.0000284869   0.0000269689
       -0.0001291910  -0.0000157330  -0.0000407665   0.0000592278   0.0000037162
       -0.0000745573  -0.0000096182  -0.0000352734   0.0002262418  -0.0001214854
        0.0000214100  -0.0003710953   0.0004183561  -0.0000057343   0.0002022466
       -0.0002618065   0.0000028579  -0.0000879589  -0.0000659059   0.0000276752