$hessian                                                                        
        0.4955197169   0.0346869711  -0.0223439227  -0.1462919611   0.0493015366
       -0.0630926353   0.0020931972   0.0003526938   0.0032279429  -0.0278632205
        0.0127388018  -0.0144979646  -0.0033971895  -0.0020051829   0.0007525615
       -0.0007994617   0.0005419761  -0.0017023642  -0.0002806406  -0.0002060957
       -0.0000277167   0.0000769076  -0.0001538412  -0.0001147263  -0.0002045446
        0.0004208036   0.0001120693   0.0001835291  -0.0002893005   0.0000178847
       -0.0001519218   0.0000971978   0.0000569739  -0.0000202143  -0.0000992409
        0.0000081832   0.0000101028   0.0000574400  -0.0000150702   0.0000728537
       -0.0000251428  -0.0000226954   0.0000878995   0.0001958124  -0.0000179082
        0.0002854797  -0.0001393669  -0.0000232025   0.0003744527   0.0005035460
       -0.0000070419  -0.0001294679   0.0000191366  -0.0000048868   0.0000122739
       -0.0000822509   0.0000021316  -0.0000051784  -0.0000155605  -0.0000009614
       -0.0000046419  -0.0000106179  -0.0000034371  -0.0000295196   0.0000208509
        0.0000239943   0.0000555330   0.0000824988   0.0000032662  -0.0003443307
       -0.0004733887   0.0000736727   0.0000332881   0.0002246945  -0.0000296303
        0.0000988806  -0.0000522474   0.0000305489   0.0000203962   0.0000209996
        0.0000132151   0.0000479796   0.0000107101   0.0000292551  -0.0000268089
        0.0000572239  -0.0000366338  -0.0000368036  -0.0001202926  -0.0000321008
       -0.0004128020   0.0000980836  -0.0005198592   0.0000144883   0.0005329880
        0.0002317132  -0.0405894680   0.0007275028   0.0143779436  -0.2280957204
       -0.0568475154   0.0858164513  -0.0478207393  -0.0366244479  -0.0044612364
       -0.0004720343  -0.0014179664   0.0014162891   0.0007710487  -0.0012513996
        0.0003041800   0.0002970947  -0.0008028543   0.0003259822  -0.0001888918
       -0.0000834904   0.0000325620  -0.0004405498  -0.0001431635   0.0000220386
       -0.0000353887  -0.0000594165   0.0000443596   0.0000109716  -0.0000700672
        0.0000181766   0.0000021734  -0.0000114580   0.0000050170  -0.0000007129
       -0.0000292317  -0.0000650281   0.0000136214  -0.0000087111  -0.0000038705
        0.0000111666  -0.0000064499  -0.0000161742  -0.0000300229   0.0000259061
        0.0000082021  -0.0000134292   0.0000364394  -0.0000198574  -0.0000324784
       -0.0000336106   0.0000050342  -0.0000153598  -0.0000151204   0.0000023205
        0.0000112081  -0.0000151568   0.0000243202  -0.0000317593   0.0000283139
       -0.0000219866  -0.0000072108   0.0000085889   0.0000545927  -0.0000318815
        0.0000392789  -0.0000136072  -0.0000649219  -0.0000183479  -0.0000347295
        0.0000121544   0.0000295866  -0.0000378609  -0.0022471419   0.0002513547
        0.0001262263
        0.0346869711   0.5038018537  -0.0026837699   0.0469568563  -0.1032414787
        0.0567246941   0.0154232441  -0.0193769339   0.0122165692  -0.0028015067
        0.0036415077  -0.0074460725  -0.0029353065   0.0001507578   0.0008487192
       -0.0008122144   0.0001307437   0.0002222762  -0.0000084936   0.0002668197
       -0.0002916120  -0.0000685413   0.0001865198  -0.0000395328  -0.0000617754
       -0.0003134362  -0.0000439935  -0.0001178994   0.0002138594  -0.0000074723
        0.0001496894  -0.0001019432  -0.0000270806  -0.0000059601   0.0001097013
        0.0000185164   0.0000415555  -0.0000484373  -0.0000096561  -0.0000435887
        0.0000403604  -0.0000002127  -0.0000187132  -0.0001490790   0.0000082405
        0.0000743037  -0.0002353329  -0.0000482442   0.0000644080   0.0002518672
        0.0000418387   0.0000078409  -0.0000255951  -0.0000113346  -0.0000168655
       -0.0000078075   0.0000067076   0.0000096032  -0.0000224102  -0.0000022010
        0.0000101974  -0.0000020160  -0.0000047450   0.0000140018   0.0000043142
       -0.0000044480  -0.0000200881   0.0000231102   0.0000006909  -0.0000582180
       -0.0000816177  -0.0000112814  -0.0000669378   0.0000931327   0.0000100174
        0.0001010688   0.0000095964   0.0000452616   0.0000271330   0.0000029724
        0.0000300020  -0.0000050259  -0.0000282096   0.0000023567  -0.0000454730
       -0.0000280275  -0.0000335639  -0.0000824987  -0.0000028783   0.0000150894
        0.0006779470   0.0006968485   0.0003467730  -0.0019248242  -0.0012948182
       -0.0005392730  -0.0001465856  -0.0554366947  -0.0559619995  -0.0523861548
       -0.0577645708   0.0233091847  -0.0383623342  -0.2657897442  -0.0307894303
        0.0006971516  -0.0004484675  -0.0003988043   0.0023168958  -0.0003290463
        0.0010778206  -0.0001634828  -0.0050059750   0.0036516339   0.0001072525
       -0.0000029880  -0.0000422638  -0.0001304941  -0.0001491539  -0.0001970471
       -0.0000408449   0.0000878056  -0.0000308444  -0.0000084956   0.0000060347
       -0.0000349128  -0.0000004203  -0.0000249459  -0.0000082663  -0.0000174051
       -0.0000073078   0.0000409246  -0.0000255657   0.0000063959  -0.0000003528
       -0.0000010937   0.0000087129   0.0000009746   0.0000132319  -0.0000057798
        0.0000005964  -0.0000017867  -0.0000208239   0.0000120735   0.0000086931
        0.0000154199  -0.0000046172   0.0000092692   0.0000046388  -0.0000021371
       -0.0000317048   0.0000008363  -0.0000211468  -0.0000011369   0.0000008214
        0.0000046127  -0.0000060304   0.0000206625  -0.0000345726   0.0000326296
       -0.0000129216   0.0000253055   0.0000671893   0.0000098860   0.0000067316
       -0.0000521367   0.0000373281   0.0000585203  -0.0010275302   0.0001359335
        0.0000047573
       -0.0223439227  -0.0026837699   0.4719644856  -0.0530592023   0.0553730909
       -0.0914348017  -0.0089098139   0.0074680951  -0.0095037625  -0.0079295950
       -0.0035311482  -0.0041335377  -0.0010252372   0.0010890209   0.0022694587
       -0.0000271034   0.0016095118  -0.0001781533  -0.0013473450  -0.0005283709
        0.0001977757   0.0008973584  -0.0003767524  -0.0004202056  -0.0003912253
        0.0007725426   0.0003377323   0.0005261472  -0.0007211857   0.0000419513
       -0.0005184331   0.0001217659   0.0002270132  -0.0000440414  -0.0003589803
       -0.0000103317  -0.0000878167   0.0001843105  -0.0000160987   0.0002905749
       -0.0001127386  -0.0001152491   0.0001856177   0.0005330914  -0.0000436854
        0.0004755795  -0.0001336365  -0.0000318009   0.0008382991   0.0009424598
        0.0000185851  -0.0004242644   0.0000867400  -0.0000418495   0.0000847059
       -0.0002466879  -0.0000143411  -0.0000631448  -0.0000472172  -0.0000146781
        0.0000554496  -0.0000604585  -0.0000281867  -0.0001225135   0.0000944572
        0.0000710803   0.0001738620   0.0001910432   0.0000167896  -0.0007339135
       -0.0011810000   0.0000780231  -0.0000431435   0.0010882544  -0.0000587367
        0.0004453961  -0.0003668524   0.0002081253   0.0001273695   0.0002820764
        0.0000839740   0.0001067857  -0.0002062365   0.0000567615  -0.0002075359
        0.0003917313  -0.0001601287  -0.0002744531  -0.0005654460  -0.0002257461
        0.0000887403  -0.0003717541   0.0006037998   0.0023173588  -0.0000723536
       -0.0011946075   0.0103093147  -0.0522358797  -0.2439543978   0.0820559905
        0.0226384822  -0.0783879732  -0.0034358749  -0.0293092818  -0.0458180377
        0.0009116786   0.0019865491  -0.0010814830  -0.0004298587  -0.0005991093
        0.0008752110   0.0007190585  -0.0006885759  -0.0002748309  -0.0000466144
       -0.0000891667  -0.0001214484   0.0000523059  -0.0003142038  -0.0001488500
       -0.0000059516  -0.0000650804   0.0000317263   0.0000356955  -0.0000759772
        0.0000133513   0.0000158760   0.0000000806   0.0000225998   0.0000032511
       -0.0000298881  -0.0000710663   0.0000237799   0.0000035889  -0.0000187843
        0.0000063012  -0.0000032580  -0.0000225012  -0.0000335045   0.0000316182
        0.0000106927  -0.0000162089   0.0000388164  -0.0000237129  -0.0000375896
       -0.0000373140   0.0000063589  -0.0000131491  -0.0000183484   0.0000060136
        0.0000220232  -0.0000182303   0.0000454458  -0.0000285721   0.0000219097
       -0.0000083821  -0.0000016913  -0.0000074700   0.0000678502  -0.0000229531
        0.0000155236  -0.0000148667  -0.0000591610   0.0000093423   0.0000192315
        0.0000100677   0.0001046524   0.0000055010   0.0009052464  -0.0000223826
        0.0002926979
       -0.1462919611   0.0469568563  -0.0530592023   0.6220969999   0.0836149672
        0.0929477637  -0.0850347639  -0.0374373236   0.0074889015  -0.2717785877
       -0.0734577494  -0.0180196799  -0.0464684914  -0.0003067563  -0.0164299609
        0.0006484517   0.0009068043  -0.0026610865   0.0015130491  -0.0000397060
       -0.0007262691  -0.0015811362   0.0017875451   0.0018905109  -0.0015391860
       -0.0049626884  -0.0008338681  -0.0028216456   0.0035876857  -0.0001060879
        0.0023176437  -0.0008992998  -0.0007140663  -0.0001279094   0.0016703447
        0.0003791171   0.0012962598  -0.0008390595  -0.0001874815  -0.0018394228
        0.0011876571   0.0006510593   0.0000854974  -0.0026908421   0.0001310371
        0.0029342678  -0.0026996309  -0.0004497239   0.0021164225   0.0044489827
       -0.0001547652   0.0003568300  -0.0002323136   0.0005114772  -0.0003120526
        0.0000336063   0.0001933594   0.0001784842  -0.0000945510  -0.0000521126
       -0.0001544342   0.0000648988   0.0000368957   0.0001403623  -0.0000292113
       -0.0000922417  -0.0000339867   0.0002260725   0.0000625337  -0.0030032432
        0.0000126295  -0.0000820142  -0.0003168991  -0.0018504962   0.0000178697
       -0.0000634167   0.0012462111  -0.0005295510  -0.0001030077  -0.0010002195
        0.0000463078  -0.0000914615   0.0008727645  -0.0000345504   0.0003511553
       -0.0012354429   0.0001889361  -0.0000612748   0.0015053852   0.0003405425
        0.0028299786  -0.0000660005  -0.0000734350  -0.0258157279  -0.0247305329
        0.0130904764  -0.0066988046   0.0035449269  -0.0194747509  -0.0321471344
        0.0150767876  -0.0159685840  -0.0000463702   0.0057624763   0.0001195839
       -0.0017965364  -0.0084617182   0.0105276352  -0.0140739540  -0.0272096474
        0.0124321169   0.0063196751   0.0153797385  -0.0106987994   0.0006894431
       -0.0002109978   0.0012843263  -0.0007831626  -0.0005769163  -0.0002108163
       -0.0003586921   0.0001164813  -0.0002164979   0.0001366090  -0.0002473722
       -0.0000777477   0.0000054956  -0.0001286079  -0.0001778740  -0.0000654372
       -0.0001513178  -0.0001010967  -0.0000168424   0.0000268557   0.0000502121
        0.0001208900  -0.0000396221  -0.0001009942  -0.0000743318   0.0001114197
        0.0000242933  -0.0000685176   0.0000950459  -0.0000419770  -0.0000943053
       -0.0001228743  -0.0000075378  -0.0000017003  -0.0000977867  -0.0000072169
       -0.0001253712  -0.0001510586  -0.0000038571  -0.0002566823   0.0001917100
       -0.0001546905  -0.0000089082   0.0001954502   0.0000800219   0.0000797153
        0.0003034288   0.0000736945   0.0000687557  -0.0001358707  -0.0000949123
       -0.0003293222   0.0001463762   0.0000256511   0.0000986952   0.0010325060
       -0.0010508742
        0.0493015366  -0.1032414787   0.0553730909   0.0836149672   0.4365761267
       -0.2273117521  -0.0393606786  -0.1696718050   0.0719014894  -0.0732394221
       -0.0871936531   0.0258327985   0.0061459215   0.0078436976  -0.0039033567
        0.0020403812   0.0004746280   0.0039407545   0.0005919634  -0.0003107963
        0.0001553471  -0.0004028011   0.0002305894   0.0003099480  -0.0007541547
       -0.0016446211  -0.0002785939  -0.0008184103   0.0010982397  -0.0000417597
        0.0006632585  -0.0002576036  -0.0002818364   0.0000242929   0.0005510680
        0.0001023380   0.0003759920  -0.0002561395  -0.0000541196  -0.0005544895
        0.0003646497   0.0002003341   0.0000284500  -0.0008114996   0.0000357679
        0.0011726872  -0.0009476138  -0.0001758160   0.0006346826   0.0015004636
       -0.0000710810   0.0002032798  -0.0000941586   0.0001761450  -0.0001435256
        0.0000344525   0.0000666399   0.0000837196  -0.0000259079  -0.0000115397
       -0.0000825063   0.0000334599   0.0000201558   0.0000821326  -0.0000339321
       -0.0000440498  -0.0000476080   0.0000564985   0.0000158328  -0.0009530228
        0.0001038943  -0.0000433663  -0.0001617317  -0.0008003968   0.0000199753
       -0.0000842570   0.0005165802  -0.0002210221  -0.0000860909  -0.0004462559
       -0.0000083362   0.0000045865   0.0003917714   0.0000139775   0.0001094109
       -0.0004644480   0.0000453449   0.0000562638   0.0006196251   0.0000910322
       -0.0007937703  -0.0011686626   0.0046672490  -0.0313040893  -0.0158277564
        0.0045830273   0.0023061639   0.0029083498   0.0099241548  -0.0027945959
        0.0024387501  -0.0030142306   0.0225438617  -0.0220052454   0.0186106032
       -0.0064847174  -0.0046625922   0.0197657339  -0.0098819648  -0.0167531029
        0.0062527587  -0.0021367693  -0.0280436951   0.0137076101   0.0001480293
       -0.0008654691  -0.0000507690   0.0008206999   0.0002130623   0.0002848252
       -0.0000771722   0.0000288799  -0.0000371113   0.0000141113  -0.0000544670
       -0.0000046101  -0.0000038606  -0.0000334474  -0.0000642870  -0.0000279774
       -0.0000533853  -0.0000350844  -0.0000134338   0.0000059227   0.0000240660
        0.0000414534  -0.0000078679  -0.0000262468  -0.0000317421   0.0000438193
        0.0000161712  -0.0000237313   0.0000332427  -0.0000113182  -0.0000327773
       -0.0000410401   0.0000001176  -0.0000003349  -0.0000301538   0.0000011547
       -0.0000339519  -0.0000449517   0.0000212634  -0.0000806920   0.0000717133
       -0.0000422236  -0.0000056254   0.0000719235   0.0000379784   0.0000297929
        0.0001414331   0.0000511509   0.0000034253  -0.0000794772  -0.0000007247
       -0.0012510322  -0.0003129112   0.0002826008   0.0006258731  -0.0001683057
       -0.0007982016
       -0.0630926353   0.0567246941  -0.0914348017   0.0929477637  -0.2273117521
        0.2572122377   0.0144472439   0.0792877912  -0.0860522161  -0.0177785123
        0.0236678130  -0.0453741952  -0.0258621779  -0.0054561400  -0.0016918801
       -0.0011836248   0.0041577142  -0.0016176909   0.0001685132  -0.0005334775
        0.0006541941   0.0000854853  -0.0001625683  -0.0002309847   0.0000652121
       -0.0002953559  -0.0001084920  -0.0002314836   0.0002561920   0.0000490687
        0.0002910495   0.0001867029  -0.0000355339   0.0001101894  -0.0000111890
        0.0000173160   0.0001691432  -0.0000027868  -0.0000519686  -0.0002054451
        0.0000679387   0.0000655938  -0.0000623595  -0.0002849367   0.0000480533
       -0.0001057106  -0.0001226142   0.0000426875   0.0002624153   0.0003246976
       -0.0000305053  -0.0000950478   0.0000228371   0.0000371298   0.0000220050
       -0.0001042189  -0.0000130186  -0.0000203268  -0.0000285399  -0.0000178862
        0.0000440905  -0.0000234021  -0.0000094462  -0.0000337570   0.0000408534
        0.0000153576   0.0000678481   0.0000635573   0.0000298066  -0.0002051928
       -0.0001418561  -0.0000450751   0.0000063491  -0.0000149070   0.0000162965
        0.0000921549   0.0000352557   0.0000473318   0.0000336866  -0.0000456576
        0.0000401956   0.0000119781  -0.0000012193   0.0000122433  -0.0000621012
       -0.0000745290  -0.0000369737  -0.0001531048   0.0000511049  -0.0000652054
       -0.0014184762   0.0039073286  -0.0015479633   0.0214981416   0.0096916109
        0.0012516651  -0.0261621818   0.0174466014  -0.0209747245   0.0011479205
       -0.0027303682   0.0046091313  -0.0029289118   0.0090804981  -0.0005524302
        0.0111606519   0.0296374612  -0.0183066990  -0.0007629969  -0.0052655302
        0.0056823604  -0.0027290603   0.0093450728  -0.0012678840   0.0004065130
       -0.0008765751  -0.0000469923  -0.0010101760  -0.0002015405  -0.0001120033
        0.0000127311  -0.0000362765  -0.0000521635  -0.0000519174   0.0000396541
        0.0000185359  -0.0000200281   0.0000020507  -0.0000235823  -0.0000143670
        0.0000035785  -0.0000034145  -0.0000014382  -0.0000010397  -0.0000030175
        0.0000130879   0.0000106521  -0.0000039693  -0.0000111115   0.0000166671
        0.0000078327  -0.0000105112   0.0000062859  -0.0000004658  -0.0000081405
       -0.0000053825  -0.0000034276   0.0000023409  -0.0000062087  -0.0000062190
        0.0000072249  -0.0000012944   0.0000049413  -0.0000043027   0.0000188984
        0.0000010332   0.0000074276   0.0000218258   0.0000110920   0.0000168663
        0.0000794517   0.0000270021  -0.0000008730  -0.0000470907   0.0000059556
        0.0008825894   0.0004712984  -0.0000330153   0.0002453495  -0.0008796306
       -0.0001532171
        0.0020931972   0.0154232441  -0.0089098139  -0.0850347639  -0.0393606786
        0.0144472439   0.5288777842  -0.0140701871   0.0231041659  -0.0126479009
       -0.0246252243   0.0147762548  -0.0010421189  -0.0003406350   0.0001459576
        0.0003694385  -0.0002739613   0.0001729089  -0.0002879221  -0.0002030072
        0.0001798133   0.0000852762  -0.0001110662  -0.0000717344  -0.0002489802
        0.0002344294   0.0000907069   0.0001023982  -0.0001807240   0.0000255919
       -0.0000983915   0.0000536200   0.0000130744  -0.0000216863  -0.0000602983
        0.0000171985   0.0000310779   0.0000253945  -0.0000088170   0.0000242021
        0.0000034339  -0.0000103262   0.0000860035   0.0001128019  -0.0000067246
        0.0003271805  -0.0003088145  -0.0000402479   0.0004088817   0.0006489242
       -0.0000150031  -0.0001245767   0.0000075293   0.0000014511   0.0000004872
       -0.0000912415   0.0000020031  -0.0000000268  -0.0000238713  -0.0000090128
        0.0000031342  -0.0000068496  -0.0000042779  -0.0000197116   0.0000274019
        0.0000176048   0.0000455613   0.0000889493   0.0000063223  -0.0003669438
       -0.0005085297   0.0000716185  -0.0000044943   0.0002847708  -0.0000148357
        0.0001566806  -0.0000550892   0.0000518904   0.0000413356   0.0000358309
        0.0000308551   0.0000460261  -0.0000026882   0.0000280603  -0.0000385673
        0.0000429902  -0.0000590527  -0.0000833099  -0.0001025668  -0.0000562913
       -0.0005854779  -0.0011966075   0.0011385213  -0.0043482620  -0.0016502325
       -0.0016005590  -0.0006436882   0.0011058707  -0.0008348356   0.0010432144
        0.0020543932  -0.0009706491  -0.0019652081   0.0031363010  -0.0025276575
       -0.0507100745   0.0095069821   0.0379896737  -0.2034270205  -0.0626127935
       -0.0926770526  -0.1696697770   0.1148882031   0.0157546782  -0.0016238252
       -0.0016707363  -0.0002898683   0.0000187702  -0.0000718556  -0.0000188357
       -0.0000061506  -0.0000090166   0.0000387364   0.0000033134  -0.0000360269
        0.0000040261   0.0000021586  -0.0000166101   0.0000048632  -0.0000044864
       -0.0000272828  -0.0000257772  -0.0000013607  -0.0000054908  -0.0000019132
        0.0000070919   0.0000022974  -0.0000129396  -0.0000230202   0.0000207315
        0.0000043203  -0.0000160103   0.0000173545  -0.0000126683  -0.0000249006
       -0.0000232853  -0.0000004652  -0.0000027319  -0.0000143364   0.0000023004
       -0.0000076599  -0.0000175897   0.0000086647  -0.0000309890   0.0000215155
       -0.0000206536  -0.0000125778   0.0000215502   0.0000197613  -0.0000192260
        0.0000447713  -0.0000025425  -0.0000399289  -0.0000393752  -0.0000112964
       -0.0004770050  -0.0000928931   0.0000729846  -0.0001144384   0.0000002740
       -0.0000074006
        0.0003526938  -0.0193769339   0.0074680951  -0.0374373236  -0.1696718050
        0.0792877912  -0.0140701871   0.4667863872   0.0102897583  -0.0089951174
       -0.0131024689   0.0020082939   0.0020143508  -0.0002009087  -0.0003652043
       -0.0009039857  -0.0000869528   0.0004925549  -0.0003545863   0.0002243453
       -0.0001852206   0.0001949355  -0.0003429376  -0.0001103048  -0.0000955763
        0.0004903128   0.0001298405   0.0003199168  -0.0003966598  -0.0000328181
       -0.0002514544   0.0000105859   0.0000586082   0.0000031339  -0.0000701615
       -0.0000256505  -0.0001121511   0.0000354177   0.0000351166   0.0002386704
       -0.0001115357  -0.0000667465   0.0000419920   0.0003143160  -0.0000229317
        0.0001131306   0.0001796924  -0.0000174255   0.0000605692  -0.0000162209
        0.0000255029  -0.0000306135   0.0000229183  -0.0000290435   0.0000078160
       -0.0000138863   0.0000084257   0.0000009856   0.0000032745   0.0000079769
       -0.0000201311  -0.0000148063  -0.0000058135  -0.0000166038  -0.0000122307
        0.0000127296   0.0000219240   0.0000162608  -0.0000034282  -0.0000124615
       -0.0001597227   0.0000114071  -0.0000175973   0.0001127070  -0.0000367922
        0.0000199036  -0.0000579847   0.0000239601  -0.0000249981  -0.0000137981
       -0.0000253855   0.0000281567   0.0000084066   0.0000220756  -0.0000266167
        0.0000468795   0.0000063204   0.0000394345  -0.0001126972  -0.0000155950
        0.0001274466  -0.0000560404   0.0013173292  -0.0006655527   0.0010835155
        0.0001796854  -0.0008488269  -0.0001086974  -0.0012271523  -0.0016040762
       -0.0002566650   0.0006335233   0.0021853836  -0.0025863445   0.0027682973
        0.0107606576  -0.0480494312  -0.0480089843  -0.0670113808  -0.0679409300
       -0.0393069902   0.1168355032  -0.1461312232  -0.0149512770  -0.0004064827
       -0.0003138072  -0.0001057812   0.0000245499   0.0000590667   0.0000460140
       -0.0000487329  -0.0000601004   0.0000556011  -0.0000166184  -0.0000885350
        0.0000194122  -0.0000030495   0.0000055812   0.0000129679   0.0000001040
       -0.0000150276  -0.0000789487   0.0000263640  -0.0000023359  -0.0000038891
        0.0000098891  -0.0000099006  -0.0000158453  -0.0000251146   0.0000229503
        0.0000061805  -0.0000050434   0.0000405296  -0.0000267414  -0.0000258496
       -0.0000303254   0.0000055064  -0.0000226416  -0.0000105188  -0.0000028612
        0.0000301587   0.0000017824   0.0000288400  -0.0000100278   0.0000263235
       -0.0000131504   0.0000104145  -0.0000092380   0.0000673709  -0.0000038748
        0.0000176305  -0.0000243363  -0.0000697860   0.0000508036  -0.0000378726
       -0.0001253208  -0.0000735578  -0.0002072851  -0.0002063020  -0.0000552985
       -0.0000757100
        0.0032279429   0.0122165692  -0.0095037625   0.0074889015   0.0719014894
       -0.0860522161   0.0231041659   0.0102897583   0.4756235918   0.0076035346
       -0.0000876339  -0.0023018438  -0.0017410833  -0.0013729650  -0.0014116858
        0.0000335968  -0.0005405659   0.0006314927   0.0012997761   0.0004008526
        0.0000725092  -0.0007340373   0.0001417072   0.0002541290   0.0005487286
       -0.0008151717  -0.0002474499  -0.0006240800   0.0008280058  -0.0000475893
        0.0005747513  -0.0001843567  -0.0002508749  -0.0000186451   0.0004039803
        0.0000191008   0.0001415635  -0.0002047494   0.0000000363  -0.0003479035
        0.0001644181   0.0001245897  -0.0001450662  -0.0005871133   0.0000306952
       -0.0005760930   0.0001418728   0.0000269024  -0.0006832310  -0.0008344959
        0.0000383114   0.0003397008  -0.0000851427   0.0000347421  -0.0000413779
        0.0002120247   0.0000281884   0.0000390904   0.0000449982  -0.0000016221
       -0.0000350661   0.0000452154   0.0000230883   0.0000783743  -0.0000865095
       -0.0000677452  -0.0001282289  -0.0001556540   0.0000016287   0.0006808914
        0.0010053125  -0.0000969953  -0.0000050077  -0.0008091060   0.0000786275
       -0.0003523509   0.0002587099  -0.0001732352  -0.0000838568  -0.0001711966
       -0.0000529352  -0.0001065794   0.0001432502  -0.0000849554   0.0001707133
       -0.0002878201   0.0001389714   0.0002387939   0.0004216283   0.0002064317
       -0.0009682338   0.0011198617   0.0000168606  -0.0002709628   0.0014506381
        0.0020932219  -0.0019538140   0.0011382217  -0.0015420668   0.0005779407
        0.0000104861   0.0009320284  -0.0001954713  -0.0008525492  -0.0004165778
        0.0388774032  -0.0426209718  -0.2412886189  -0.0894186283  -0.0372739334
       -0.0929011272   0.0140252839  -0.0145374748  -0.0439990895  -0.0008441135
       -0.0006845976   0.0002780517  -0.0000772140   0.0000885384   0.0000379881
       -0.0000252904   0.0000629296  -0.0000256273   0.0000054986   0.0000481133
       -0.0000187388  -0.0000052791  -0.0000083918  -0.0000197938   0.0000040162
        0.0000254703   0.0000729713  -0.0000112043  -0.0000034728   0.0000218505
       -0.0000054039  -0.0000053262   0.0000177937   0.0000338933  -0.0000311038
       -0.0000093188   0.0000173059  -0.0000387141   0.0000206194   0.0000369205
        0.0000375736  -0.0000074497   0.0000154639   0.0000119802  -0.0000053284
       -0.0000303456   0.0000132928  -0.0000474017   0.0000141079  -0.0000261979
        0.0000139090  -0.0000045505  -0.0000004009  -0.0000594678   0.0000066505
       -0.0000529590   0.0000133647   0.0000696663  -0.0000023854  -0.0000166616
        0.0000817552  -0.0002258898  -0.0001086170   0.0000966869  -0.0000400492
       -0.0000929003
       -0.0278632205  -0.0028015067  -0.0079295950  -0.2717785877  -0.0732394221
       -0.0177785123  -0.0126479009  -0.0089951174   0.0076035346   0.6110630508
        0.1002544335   0.0875273438  -0.1435070900   0.0543670217  -0.1020751764
       -0.0510761415  -0.0054810098  -0.0159031082   0.0083860692   0.0097835636
       -0.0027960342  -0.0010017440  -0.0037212917  -0.0010618157   0.0048565783
        0.0039421802  -0.0007017007   0.0011333710  -0.0012732924   0.0001783086
       -0.0005804209  -0.0000194330   0.0000333290   0.0001307377   0.0000450717
       -0.0008143790  -0.0013321592  -0.0001173332   0.0003851387   0.0011215458
       -0.0010056029  -0.0003839133  -0.0006667212   0.0011670557   0.0001735455
       -0.0064187267   0.0051255513   0.0006760228  -0.0064507396  -0.0106973192
        0.0004218103   0.0015850873  -0.0001339643  -0.0007935672   0.0000306851
        0.0011183341  -0.0000863356   0.0001176178   0.0003463916   0.0001432303
       -0.0001686155   0.0002120213   0.0001147257   0.0003956559  -0.0005208081
       -0.0002137411  -0.0008212441  -0.0010846723  -0.0001485073   0.0060857022
        0.0077615689   0.0001412983   0.0001531996  -0.0039573285   0.0005024849
       -0.0023609613   0.0003954338  -0.0001833235  -0.0006875692  -0.0005548056
       -0.0006582854   0.0001386778   0.0001601163   0.0000492908   0.0005655127
        0.0000711423   0.0002595631   0.0023365136   0.0005438875   0.0004328742
       -0.0213149819  -0.0219716385   0.0174097710  -0.0944791148  -0.0555190320
        0.0453700571   0.0009285353  -0.0001071798   0.0034694529  -0.0029551854
        0.0008977245  -0.0019068477   0.0012518803  -0.0016454516  -0.0002014540
        0.0010801212   0.0004320282  -0.0030857563  -0.0002085381   0.0004458390
        0.0002825242   0.0007569274   0.0022946917  -0.0001887271   0.0061648266
       -0.0024955878   0.0058068354  -0.0039059532  -0.0030766712  -0.0012684888
        0.0003219963  -0.0003900257   0.0001613492  -0.0001927168   0.0003516156
        0.0000278547  -0.0000232330   0.0001867573   0.0002029953   0.0001016981
        0.0002484838   0.0001923348   0.0000425029  -0.0000577551  -0.0000613609
       -0.0001608339   0.0000031478   0.0001766918   0.0001596973  -0.0002173149
       -0.0000479285   0.0001294061  -0.0001746154   0.0000825340   0.0001928237
        0.0002364948  -0.0000093603   0.0000155527   0.0001876305  -0.0000152465
        0.0002025975   0.0002658587  -0.0001080708   0.0004061724  -0.0002893020
        0.0001955962  -0.0000028967  -0.0002609867  -0.0001383602  -0.0001071751
       -0.0003918382  -0.0000290636  -0.0003732735   0.0002823631   0.0003039653
       -0.0041438842  -0.0038086974  -0.0016883522   0.0053748866   0.0128825947
       -0.0120474506
        0.0127388018   0.0036415077  -0.0035311482  -0.0734577494  -0.0871936531
        0.0236678130  -0.0246252243  -0.0131024689  -0.0000876339   0.1002544335
        0.3858714740  -0.2287436448   0.0196564203  -0.1004640635   0.0622928550
        0.0251552581   0.0193250561  -0.0116917615   0.0079872719  -0.0158655783
        0.0158542077   0.0001672906  -0.0015890040  -0.0023191019   0.0018739187
        0.0006156025  -0.0001201403  -0.0012179216  -0.0000539193   0.0004243165
        0.0006560624   0.0020100344   0.0004189561   0.0001341058  -0.0017488461
        0.0004663845   0.0010311497   0.0011224223  -0.0006072311  -0.0010076614
        0.0001178039   0.0003012846   0.0001505734  -0.0000815552  -0.0000916865
       -0.0023249039   0.0016637908   0.0002930263  -0.0010804033  -0.0028446149
        0.0000609024  -0.0001407576   0.0000643133  -0.0001845415   0.0002395206
        0.0000925903  -0.0000989369  -0.0001534860   0.0000491703   0.0000079323
        0.0000948924   0.0000393120   0.0000156175  -0.0000530168  -0.0000290599
       -0.0000042923   0.0000312851  -0.0001444837  -0.0000263667   0.0012444390
        0.0014502547   0.0002107640   0.0011946305  -0.0004383018   0.0003912930
       -0.0008281860  -0.0001978322  -0.0003027433   0.0002646669   0.0005941354
        0.0001565064  -0.0009368726  -0.0000840165  -0.0007152743   0.0007415964
       -0.0006170066   0.0007376794  -0.0004726398   0.0006724579   0.0000781412
       -0.0533903362  -0.0177630861  -0.0035889439  -0.0202710335  -0.1592165822
        0.1115209704   0.0004839880   0.0002951335   0.0009662513   0.0040043557
       -0.0020165339   0.0021395601   0.0015319817  -0.0002508078   0.0006069495
        0.0001215647   0.0003919170  -0.0013436003  -0.0028226575  -0.0048375303
        0.0025894334  -0.0008313452   0.0003917543   0.0005500340   0.0116441526
       -0.0095851912   0.0151557532  -0.0041285007   0.0043978837   0.0032278691
       -0.0000620307  -0.0002962506  -0.0003719755   0.0000361872   0.0000655106
        0.0000345962  -0.0000257153   0.0000422646  -0.0000467479   0.0000542647