$hessian                                                                        
        0.5008610657   0.0330231445  -0.0253680306  -0.1368115034   0.0322070181
       -0.0740131284   0.0013821011   0.0008230251   0.0027232604  -0.0284078842
        0.0091570331  -0.0178036132  -0.0030972689  -0.0023781251   0.0007531870
       -0.0009028786   0.0001798657  -0.0018758779   0.0001349649  -0.0002449628
        0.0002566810   0.0000994167   0.0001641769   0.0000289118  -0.0000932570
       -0.0001320132   0.0000340787   0.0000363949  -0.0000401911  -0.0000083547
        0.0000221531   0.0000473225  -0.0000116482  -0.0000055085   0.0000101990
       -0.0000015680  -0.0000050206   0.0000228083  -0.0000072698   0.0000012432
        0.0000141567  -0.0000012337  -0.0000119239   0.0000124884   0.0000000392
        0.0000850923   0.0000538482  -0.0000364371   0.0000156981  -0.0000026611
        0.0000224840  -0.0000171503   0.0000005077   0.0000078457   0.0000135251
       -0.0000070065  -0.0000060135   0.0000023370   0.0000063199   0.0000034803
        0.0000010633   0.0000003761  -0.0000009575   0.0000046916  -0.0000029788
       -0.0000055749   0.0000212203   0.0000115842   0.0000067288  -0.0001315075
        0.0000348159  -0.0000283754   0.0000050482   0.0000428849   0.0000063171
       -0.0000171963  -0.0000061255  -0.0000117673   0.0000120906   0.0000055602
        0.0000103575   0.0000083182  -0.0000092757   0.0000105683  -0.0000034898
       -0.0000031577  -0.0000225578   0.0000430749  -0.0000143044   0.0000163197
       -0.0009606573  -0.0000297319  -0.0008765677   0.0004219023   0.0007330778
        0.0002510173  -0.0535990027   0.0134899227   0.0526744513  -0.2353189789
       -0.0805284221   0.0595597003  -0.0413524959  -0.0030093099   0.0005124705
       -0.0007278291  -0.0011772676   0.0018701103   0.0011971990  -0.0017934184
        0.0013074351   0.0002193368  -0.0002634197   0.0001651002  -0.0001694597
       -0.0001212680   0.0001026870  -0.0004359584  -0.0001464682   0.0000642064
       -0.0000055281  -0.0000265927   0.0000148566  -0.0000044733  -0.0000080618
        0.0000118060   0.0000028242  -0.0000111849   0.0000042972  -0.0000001586
       -0.0000068203   0.0000047546  -0.0000025419  -0.0000118879   0.0000071294
       -0.0000074631   0.0000008873   0.0000024060  -0.0000071346   0.0000002556
       -0.0000002437  -0.0000069134  -0.0000009523  -0.0000002323  -0.0000065040
       -0.0000012238  -0.0000007873  -0.0000046067  -0.0000074113  -0.0000046490
       -0.0000023169   0.0000007535   0.0000010168  -0.0000097105   0.0000017050
       -0.0000071109  -0.0000131574   0.0000146932  -0.0000061112  -0.0000145261
        0.0000064939   0.0000053494  -0.0000223326  -0.0000039119  -0.0000130976
        0.0000467240   0.0000282290  -0.0000617630  -0.0024611473  -0.0001049988
       -0.0002660829
        0.0330231445   0.4963800881  -0.0059405290   0.0293431676  -0.0801892009
        0.0563651653   0.0125608683  -0.0143939959   0.0129807760  -0.0050082114
        0.0014596654  -0.0096373899  -0.0027946669   0.0000369391   0.0010974724
       -0.0011078660   0.0002992997   0.0005901181  -0.0000638014   0.0005854789
       -0.0005256132  -0.0002938773  -0.0002689303  -0.0001987253   0.0001831362
        0.0003094897  -0.0000496920  -0.0000473194   0.0000517278  -0.0000040024
        0.0000120341  -0.0000347647   0.0000137983  -0.0000085898   0.0000113424
        0.0000341905   0.0000234332  -0.0000184547  -0.0000053689   0.0000152814
       -0.0000149254  -0.0000148980   0.0000222910  -0.0000037593  -0.0000116087
       -0.0002639355  -0.0001086764   0.0000455983  -0.0000642048  -0.0000717338
       -0.0000188285   0.0000679852  -0.0000134885  -0.0000064169  -0.0000246001
        0.0000029568   0.0000081711   0.0000068465  -0.0000109752  -0.0000050121
       -0.0000048890  -0.0000005897   0.0000011262   0.0000080627   0.0000001558
        0.0000034548  -0.0000396147   0.0000040069  -0.0000032995   0.0003270479
       -0.0000938113   0.0000129428   0.0000045194  -0.0000314208   0.0000013855
        0.0000339928   0.0000032789   0.0000386198  -0.0000056563  -0.0000054164
        0.0000016671  -0.0000053543  -0.0000039391  -0.0000044049  -0.0000070032
       -0.0000261674   0.0000176590  -0.0000320215  -0.0000053832   0.0000193591
        0.0005028556   0.0009379917   0.0004901294  -0.0018601075  -0.0014293603
       -0.0010207370   0.0123343138  -0.0599079934  -0.0592283614  -0.0760476096
       -0.0734806454   0.0224628154  -0.0023725505  -0.2650432888  -0.0216317136
        0.0010108698  -0.0002845515  -0.0008946992   0.0023206490   0.0000020693
        0.0015780251  -0.0001418804  -0.0044300700   0.0039827018   0.0000308184
        0.0000873538  -0.0000561555  -0.0001842893  -0.0001597389  -0.0002374321
       -0.0000408464   0.0000627536   0.0000042309   0.0000071265  -0.0000230375
       -0.0000261292  -0.0000021858  -0.0000131990  -0.0000056012  -0.0000037022
       -0.0000078232  -0.0000032340  -0.0000067836   0.0000084777  -0.0000059312
        0.0000100197   0.0000006105  -0.0000023593   0.0000016212   0.0000028728
        0.0000037308  -0.0000023906   0.0000008227   0.0000013811  -0.0000034276
       -0.0000020030  -0.0000026312   0.0000040179   0.0000030212   0.0000018092
       -0.0000117418  -0.0000004605  -0.0000149941  -0.0000042704   0.0000103856
       -0.0000040466   0.0000037892   0.0000044204   0.0000015375   0.0000109114
       -0.0000121980  -0.0000055940   0.0000181534   0.0000184765  -0.0000255280
       -0.0000891908   0.0000166661   0.0000690645  -0.0013443686  -0.0002103490
       -0.0002359932
       -0.0253680306  -0.0059405290   0.4696063202  -0.0666049716   0.0563924413
       -0.1206076400  -0.0099934603   0.0081622942  -0.0151790956  -0.0063206049
       -0.0041222267  -0.0038299939  -0.0003437236   0.0010457113   0.0015169758
       -0.0002272050   0.0014008919  -0.0002545334  -0.0001435733  -0.0003780436
        0.0006583200   0.0007651351   0.0000428154  -0.0001360979  -0.0003454576
       -0.0005319637   0.0000993199   0.0000364446  -0.0000230446  -0.0000037272
        0.0000207901   0.0000226239   0.0000219282   0.0000177416   0.0000144300
       -0.0000180476  -0.0000063451   0.0000154995  -0.0000156613   0.0000012265
        0.0000077059   0.0000084692  -0.0000367480  -0.0000019227   0.0000121064
        0.0003348901   0.0001311573  -0.0000593053   0.0001268755   0.0000324322
        0.0000509192  -0.0001057005   0.0000246646   0.0000134822   0.0000472091
        0.0000039700  -0.0000075515  -0.0000054903   0.0000131894   0.0000137161
        0.0000056453  -0.0000048406  -0.0000007159  -0.0000044063  -0.0000034256
       -0.0000023937   0.0000571111  -0.0000007183   0.0000035983  -0.0003414171
        0.0001953436  -0.0000718037   0.0000011694   0.0001144003  -0.0000030074
       -0.0000524815  -0.0000210337  -0.0000556046  -0.0000023935   0.0000055613
       -0.0000039230  -0.0000052468  -0.0000061516  -0.0000087567   0.0000151851
        0.0000568091   0.0000135414   0.0000537764  -0.0000316748  -0.0000069953
       -0.0009947108   0.0000432240   0.0003163496   0.0031735270  -0.0000549995
       -0.0006199441   0.0487163796  -0.0561657167  -0.2271581754   0.0545077371
        0.0207013749  -0.0579061124   0.0022310777  -0.0221612536  -0.0438917578
        0.0008024982   0.0025290125  -0.0024889857  -0.0014969334  -0.0003426277
        0.0004722376   0.0004557298  -0.0010009978  -0.0007697777  -0.0000975281
       -0.0000697090   0.0000961058   0.0000801042  -0.0002443583  -0.0000041393
       -0.0000114751  -0.0000440046  -0.0000283508  -0.0000028405  -0.0000197582
        0.0000110265  -0.0000027633   0.0000062503   0.0000031644   0.0000056058
        0.0000134610  -0.0000005472   0.0000151560  -0.0000064969  -0.0000027229
       -0.0000147779  -0.0000039027   0.0000058922   0.0000038501  -0.0000075978
       -0.0000028041   0.0000046444   0.0000004516   0.0000002627   0.0000014166
        0.0000032166   0.0000059803  -0.0000138285  -0.0000080601  -0.0000057184
        0.0000017785   0.0000057627   0.0000136753  -0.0000021891  -0.0000116160
        0.0000047730  -0.0000024709  -0.0000110592   0.0000041691  -0.0000012720
       -0.0000351450  -0.0000050201   0.0000043946   0.0000330539   0.0000309562
        0.0000619114   0.0001253905  -0.0000182287   0.0009990346   0.0001097385
        0.0001838491
       -0.1368115034   0.0293431676  -0.0666049716   0.6068463088   0.1228448676
        0.1038249379  -0.0823972013  -0.0339821231   0.0136709303  -0.2778253639
       -0.0898749889  -0.0189099130  -0.0449813165  -0.0065477396  -0.0163681234
        0.0026533248   0.0020948813  -0.0021310029   0.0005284848   0.0000244259
       -0.0001415673  -0.0049412554  -0.0015005702  -0.0001110705   0.0026888665
        0.0041540716  -0.0007667722  -0.0002583179   0.0002268286   0.0001451179
        0.0000757394  -0.0002258792  -0.0002275936  -0.0003287308   0.0000746685
        0.0001791423  -0.0000437416   0.0000295906   0.0000421239   0.0001078506
        0.0001145434  -0.0001577433   0.0004059947   0.0000705294  -0.0001608216
       -0.0032791098  -0.0010285881   0.0007078026  -0.0008588658  -0.0007377743
       -0.0004327237   0.0008741968  -0.0002368747  -0.0002190950  -0.0003045764
       -0.0000728077  -0.0000123711   0.0000552210  -0.0000746595  -0.0000582767
       -0.0000271542   0.0000344622   0.0000185808   0.0001473488   0.0000120956
        0.0000509857  -0.0004578925   0.0001593687   0.0000542110   0.0029325921
       -0.0014021203   0.0007619680  -0.0000594976  -0.0004947482  -0.0000165897
        0.0002648221   0.0001780367   0.0002584392   0.0001145773   0.0000253040
        0.0001609577   0.0000076203  -0.0001037655  -0.0000149644  -0.0001393092
       -0.0001988882  -0.0001904395  -0.0001010713   0.0001283988   0.0002085835
        0.0041573551   0.0002456880  -0.0006249908  -0.0253317129  -0.0223904388
        0.0126015118  -0.0000707987  -0.0015703384  -0.0164474078  -0.0288928409
        0.0092094132  -0.0195926500  -0.0055987626   0.0105670346  -0.0040874849
       -0.0001984036  -0.0035814229   0.0092076037  -0.0144940034  -0.0239672894
        0.0172477019   0.0070064783   0.0084931527  -0.0119227870   0.0005152499
       -0.0001325439   0.0011073446  -0.0010185298  -0.0003141562  -0.0004235485
       -0.0002514440   0.0001094487   0.0003475098   0.0000996491  -0.0001039987
       -0.0000816932   0.0000781976  -0.0001544190   0.0000369400  -0.0000123892
       -0.0001561554   0.0000625204  -0.0000958453   0.0000177714   0.0000382035
        0.0001072780   0.0000357205  -0.0000048307  -0.0000449881   0.0000609856
        0.0000340072  -0.0000777697   0.0000095406   0.0000027822  -0.0000799053
       -0.0000478726  -0.0000372393   0.0000878925  -0.0000213005   0.0000017663
       -0.0000655829  -0.0000925551  -0.0000982322  -0.0001131954   0.0000860577
       -0.0001028736  -0.0000396513   0.0001578957  -0.0000461357   0.0000170341
        0.0000760081   0.0000574942  -0.0000668637  -0.0001398530  -0.0002989618
       -0.0003567818  -0.0002172182   0.0002161915  -0.0001477063   0.0007871324
       -0.0007524830
        0.0322070181  -0.0801892009   0.0563924413   0.1228448676   0.3602773032
       -0.2457994989  -0.0373903124  -0.1378913841   0.0853606971  -0.0886559382
       -0.0883211590   0.0253432247   0.0017752242   0.0068409066  -0.0039399790
        0.0021949254   0.0015656534   0.0038623874   0.0001741653   0.0000620000
       -0.0000616353  -0.0016663851  -0.0012724921  -0.0003834237   0.0009872180
        0.0016667405  -0.0003296270  -0.0000203970   0.0000282317   0.0000527621
        0.0000145513  -0.0000130005  -0.0001428413  -0.0000790816   0.0000123122
        0.0000283482  -0.0000446882   0.0000661345   0.0000100588   0.0000571542
        0.0000583841  -0.0000709180   0.0001546428   0.0000353843  -0.0000626713
       -0.0013708645  -0.0002770960   0.0003191542  -0.0003500605  -0.0004010666
       -0.0001819098   0.0003870485  -0.0000941463  -0.0000870529  -0.0001353583
       -0.0000581081  -0.0000327778   0.0000120785  -0.0000252239  -0.0000219992
       -0.0000128113   0.0000157752   0.0000062899   0.0000723060   0.0000002629
        0.0000143688  -0.0001748322   0.0000696173   0.0000190541   0.0010819508
       -0.0004810078   0.0003084153  -0.0000683513  -0.0002713196  -0.0000285385
        0.0000837175   0.0001246212   0.0000694555   0.0000443946   0.0000081021
        0.0000775807  -0.0000071193  -0.0000245931  -0.0000284179  -0.0000975796
       -0.0000963774  -0.0001511319  -0.0000217583   0.0001382345   0.0000829925
        0.0003456588  -0.0002282897   0.0044453311  -0.0308604370  -0.0157217560
        0.0063705865  -0.0005628265   0.0045830970   0.0075112171  -0.0069990459
        0.0025383865  -0.0058710494   0.0215736229  -0.0149821727   0.0227698164
       -0.0039095834   0.0032726653   0.0168821104  -0.0081899828  -0.0131440079
        0.0083907859  -0.0032961274  -0.0265933961   0.0190170336  -0.0000004345
       -0.0008042339  -0.0000598348   0.0005816615   0.0002069420   0.0001050395
       -0.0000369325  -0.0000108774   0.0001771399   0.0000000698   0.0000046315
        0.0000115445   0.0000298995  -0.0000583290   0.0000207995  -0.0000199572
       -0.0000703963   0.0000393445  -0.0000576070  -0.0000023389   0.0000331549
        0.0000430887   0.0000253489   0.0000142581  -0.0000257627   0.0000284278
        0.0000166224  -0.0000322082   0.0000061497   0.0000022417  -0.0000310430
       -0.0000167384  -0.0000146141   0.0000406662  -0.0000050338   0.0000035795
       -0.0000032482  -0.0000314029  -0.0000024815  -0.0000340666   0.0000366361
       -0.0000225861  -0.0000187611   0.0000768327  -0.0000051706   0.0000052134
        0.0000822178   0.0000808764  -0.0000406433  -0.0001374461  -0.0000923991
       -0.0011033825  -0.0004990443   0.0002935025   0.0006064438  -0.0001093602
       -0.0007416567
       -0.0740131284   0.0563651653  -0.1206076400   0.1038249379  -0.2457994989
        0.3601926752   0.0187761529   0.0891948343  -0.1176587842  -0.0175203442
        0.0249170912  -0.0590595641  -0.0280316847  -0.0075299265  -0.0016300358
       -0.0013275031   0.0044975543  -0.0027509730   0.0003082842  -0.0008705683
        0.0014964952  -0.0000126054  -0.0005232989  -0.0002467751   0.0000173236
        0.0001766327  -0.0001193992   0.0000393850  -0.0000631311   0.0000161256
        0.0000168405   0.0000756527  -0.0000493858   0.0000549644  -0.0000244997
       -0.0000338359  -0.0000204232   0.0000246064  -0.0000008141   0.0000143408
       -0.0000069068   0.0000043518  -0.0000052403  -0.0000051778   0.0000230380
       -0.0001859785   0.0000108641   0.0000830169  -0.0000284469  -0.0001031612
       -0.0000434523   0.0000604199  -0.0000006049  -0.0000030307  -0.0000314264
       -0.0000267048  -0.0000073524  -0.0000022695  -0.0000037425  -0.0000010852
       -0.0000003184  -0.0000001567   0.0000017225   0.0000183883  -0.0000008596
        0.0000040760  -0.0000173993   0.0000009456   0.0000048747   0.0001253647
        0.0000137138  -0.0000082643  -0.0000024124  -0.0000784992  -0.0000145570
        0.0000116431   0.0000372940   0.0000421567   0.0000116780  -0.0000202116
        0.0000368359  -0.0000002155   0.0000021707   0.0000028044  -0.0000481962
       -0.0000651649  -0.0000693883  -0.0000327621   0.0000666946  -0.0000300729
       -0.0014354375   0.0043311329  -0.0026459703   0.0234167867   0.0117947454
        0.0013166357  -0.0242155423   0.0129956382  -0.0285875975  -0.0009238990
       -0.0011332426   0.0020948992  -0.0075526482   0.0134077861  -0.0032879166
        0.0107845845   0.0260207126  -0.0274391968   0.0004211009  -0.0016984519
        0.0033440972  -0.0029296756   0.0151508593  -0.0040356928   0.0006431844
       -0.0005913073  -0.0000281685  -0.0011463489  -0.0003196223  -0.0002084934
        0.0000377015  -0.0000072693   0.0000071022  -0.0000397196   0.0000476862
        0.0000230265  -0.0000031234  -0.0000090421   0.0000001092  -0.0000190880
       -0.0000162368   0.0000075787  -0.0000230950  -0.0000099147   0.0000076011
        0.0000093302   0.0000128857   0.0000035944  -0.0000056619   0.0000065633
        0.0000028860  -0.0000002303   0.0000037830  -0.0000015556  -0.0000005416
        0.0000013623  -0.0000021335   0.0000062872   0.0000052958  -0.0000015876
        0.0000252495   0.0000040365   0.0000156647   0.0000142336   0.0000063369
        0.0000114961   0.0000038628   0.0000150273   0.0000026145   0.0000020418
        0.0000671759   0.0000439708  -0.0000357478  -0.0000382418  -0.0000009955
        0.0010278987   0.0005353611  -0.0001179927  -0.0000608714  -0.0008441659
       -0.0000977384
        0.0013821011   0.0125608683  -0.0099934603  -0.0823972013  -0.0373903124
        0.0187761529   0.5294197145  -0.0016582395   0.0261210685  -0.0141152534
       -0.0222298085   0.0188272721  -0.0007927716  -0.0001426088   0.0004794877
        0.0000322279  -0.0008145913   0.0002983761   0.0001023572  -0.0001073710
        0.0000989763  -0.0001189527   0.0000330995   0.0001235618   0.0001069214
        0.0001160103   0.0000254450   0.0000147705   0.0000054189  -0.0000150056
       -0.0000168033   0.0000245825  -0.0000143682  -0.0000210339   0.0000289088
        0.0000015581   0.0000086874  -0.0000035511  -0.0000071573  -0.0000052989
       -0.0000068878   0.0000034043   0.0000036170   0.0000291268  -0.0000124502
       -0.0000681830  -0.0000745270  -0.0000174417  -0.0000525395   0.0000461948
       -0.0000000764   0.0000226532  -0.0000054730  -0.0000018248  -0.0000129657
        0.0000020705  -0.0000007185   0.0000114476   0.0000011222  -0.0000012978
       -0.0000065028   0.0000057618   0.0000025314   0.0000072059  -0.0000014576
       -0.0000004495  -0.0000177035   0.0000022034  -0.0000005898   0.0001231175
       -0.0000565749  -0.0000001292   0.0000042944  -0.0000135513   0.0000188624
        0.0000093685  -0.0000188276   0.0000155652  -0.0000026786   0.0000159975
       -0.0000006639   0.0000107188   0.0000186219   0.0000078527   0.0000113940
       -0.0000342251  -0.0000160229   0.0000053543  -0.0000040533  -0.0000116214
       -0.0007886295  -0.0013150306   0.0008867466  -0.0041240102  -0.0015969595
       -0.0016174890  -0.0005451451   0.0008970132  -0.0007464383   0.0009844198
        0.0026233353  -0.0019515226  -0.0019389755   0.0025035181  -0.0027234368
       -0.0448573706   0.0060894879   0.0128105270  -0.2308184141  -0.0703819389
       -0.0702365684  -0.1487637142   0.1127890049   0.0086267806  -0.0021486319
       -0.0016685918   0.0001864220   0.0000104899  -0.0000476569  -0.0000012404
        0.0000044638  -0.0000033971   0.0000239139  -0.0000043574  -0.0000049132
       -0.0000019196  -0.0000015605  -0.0000158030   0.0000027578  -0.0000032191
       -0.0000134629   0.0000018067  -0.0000093186  -0.0000136940   0.0000060115
       -0.0000020420  -0.0000005837   0.0000005562  -0.0000079617   0.0000031993
        0.0000024328  -0.0000056492   0.0000006677  -0.0000008405  -0.0000062960
       -0.0000002761  -0.0000027579  -0.0000005035   0.0000004426  -0.0000014742
       -0.0000077686   0.0000020612  -0.0000048587  -0.0000073937   0.0000065867
       -0.0000017285  -0.0000132793   0.0000135458  -0.0000034524  -0.0000108051
        0.0000186608   0.0000108919  -0.0000026852  -0.0000297086  -0.0000083521
       -0.0004756412  -0.0001394297   0.0000844061  -0.0001040639  -0.0000440048
       -0.0000480100
        0.0008230251  -0.0143939959   0.0081622942  -0.0339821231  -0.1378913841
        0.0891948343  -0.0016582395   0.4673917883   0.0124926187  -0.0088329143
       -0.0146192912   0.0045966408   0.0023761769  -0.0000617133  -0.0007830179
       -0.0013098583  -0.0002249671   0.0008806627  -0.0002702313   0.0005465848
       -0.0005189921   0.0004639955  -0.0000901561  -0.0001363176  -0.0002628210
       -0.0003354175   0.0000305324   0.0000191370  -0.0000344650  -0.0000115024
        0.0000291943   0.0000398019   0.0000288775   0.0000175371   0.0000002329
        0.0000197432   0.0000051994   0.0000159903  -0.0000055984   0.0000064762
        0.0000038533   0.0000052388  -0.0000357638  -0.0000053400   0.0000175983
        0.0002163658   0.0000698812  -0.0000481186   0.0000890944   0.0000202837
        0.0000423318  -0.0000693213   0.0000191974   0.0000177479   0.0000367430
       -0.0000014099  -0.0000003540  -0.0000049865   0.0000111069   0.0000069814
        0.0000031193  -0.0000030024  -0.0000052116  -0.0000044895  -0.0000018300
       -0.0000056333   0.0000452213   0.0000090930   0.0000074048  -0.0002091014
        0.0001262815  -0.0000620852   0.0000096301   0.0000977282  -0.0000046896
       -0.0000142294  -0.0000207883  -0.0000152071   0.0000066727  -0.0000190812
       -0.0000000456  -0.0000009653  -0.0000325903   0.0000130739  -0.0000097955
        0.0000031712   0.0000251918   0.0000351323  -0.0000232661   0.0000055514
       -0.0001023080   0.0001147850   0.0016744054  -0.0012103288   0.0012451458
        0.0002229744  -0.0011465476  -0.0004329145  -0.0019007367  -0.0015545083
        0.0002636087   0.0001722190   0.0021589707  -0.0021799965   0.0028374177
        0.0075341822  -0.0689703114  -0.0778509930  -0.0747772686  -0.0698772099
       -0.0287402106   0.1122695543  -0.1602482606  -0.0100432338  -0.0003978605
       -0.0004925701  -0.0000003919   0.0000500994   0.0000415971   0.0001027964
       -0.0000312610  -0.0000148009  -0.0000152827  -0.0000100425  -0.0000296636
        0.0000008722  -0.0000063031  -0.0000071377   0.0000050782  -0.0000027353
        0.0000056213   0.0000059410   0.0000013122   0.0000002540   0.0000009472
       -0.0000097175   0.0000053645  -0.0000033718   0.0000024984   0.0000016748
       -0.0000066155  -0.0000012508   0.0000054608  -0.0000012142  -0.0000037396
        0.0000063063   0.0000026731  -0.0000134819  -0.0000063159  -0.0000046657
       -0.0000015279   0.0000136026  -0.0000033385   0.0000030112   0.0000020416
       -0.0000074374   0.0000060640   0.0000021476  -0.0000071898   0.0000015215
       -0.0000072468  -0.0000329048  -0.0000259415   0.0000518044  -0.0000162971
       -0.0000616634  -0.0001117016  -0.0002236225  -0.0001886079   0.0000224187
       -0.0001183696
        0.0027232604   0.0129807760  -0.0151790956   0.0136709303   0.0853606971
       -0.1176587842   0.0261210685   0.0124926187   0.4720073360   0.0062937942
       -0.0005618534  -0.0021342236  -0.0022429322  -0.0021848060  -0.0006967920
        0.0006457843   0.0006340314   0.0004114116   0.0003610947  -0.0002277081
        0.0006747189  -0.0005893970  -0.0004380718  -0.0001843231   0.0002792550
        0.0005116863  -0.0000591827  -0.0000471049   0.0000650704   0.0000102577
       -0.0000338302  -0.0000744150  -0.0000268573  -0.0000560739   0.0000196071
        0.0000113557   0.0000058085  -0.0000102542  -0.0000016483   0.0000081664
       -0.0000018090  -0.0000034140   0.0000594313   0.0000196812  -0.0000263175
       -0.0003527712  -0.0001856053   0.0000630113  -0.0000844236  -0.0000335864
       -0.0000304131   0.0000975791  -0.0000232265  -0.0000266304  -0.0000429485
        0.0000084175  -0.0000016797   0.0000079163  -0.0000101989  -0.0000119068
       -0.0000064648   0.0000032301   0.0000005046   0.0000141325   0.0000022967
        0.0000132041  -0.0000662610   0.0000033028  -0.0000037502   0.0004201604
       -0.0001688921   0.0000928488  -0.0000100338  -0.0000597428   0.0000043005
        0.0000323971   0.0000228156   0.0000168901  -0.0000039983   0.0000030231
       -0.0000028275  -0.0000028170   0.0000082167  -0.0000257854  -0.0000100122
       -0.0000032363  -0.0000125478  -0.0000430611   0.0000011471   0.0000160679
       -0.0009202888   0.0010949377  -0.0001917070  -0.0008090803   0.0009053330
        0.0013408586  -0.0022819953   0.0015316650  -0.0027324778   0.0012894274
        0.0009083474   0.0003270449   0.0004261359  -0.0010374501  -0.0007823667
        0.0136991389  -0.0727945609  -0.2265664423  -0.0653644305  -0.0263971724
       -0.0662392435   0.0075923957  -0.0114369805  -0.0426245684  -0.0009140507
       -0.0007134787   0.0001201357  -0.0000991999   0.0000651786  -0.0000266768
       -0.0000333898   0.0000257010   0.0000455843   0.0000256814  -0.0000196141
        0.0000004085   0.0000062938  -0.0000113990   0.0000078874   0.0000024077
       -0.0000101589   0.0000065440  -0.0000036275   0.0000068402   0.0000032409
        0.0000170686   0.0000008908  -0.0000017190   0.0000015572   0.0000059333
        0.0000024125   0.0000002588   0.0000023571  -0.0000018151  -0.0000037169
       -0.0000066819  -0.0000014544   0.0000123619   0.0000018391   0.0000075545
       -0.0000113128  -0.0000172404  -0.0000129330  -0.0000072270   0.0000042977
       -0.0000050771   0.0000008632   0.0000025562  -0.0000020323   0.0000140297
       -0.0000158459   0.0000085670   0.0000400755  -0.0000144138  -0.0000132768
        0.0000561333  -0.0002426797  -0.0000001419   0.0001158414   0.0000085874
        0.0000959658
       -0.0284078842  -0.0050082114  -0.0063206049  -0.2778253639  -0.0886559382
       -0.0175203442  -0.0141152534  -0.0088329143   0.0062937942   0.6269810654
        0.1301810992   0.0969761934  -0.1575384694   0.0474338878  -0.1175351910
       -0.0478214104  -0.0067442236  -0.0163363090  -0.0004474836   0.0087700041
       -0.0079435323   0.0053091345   0.0017905258   0.0002757599  -0.0031098000
       -0.0047986140   0.0006936671   0.0002434605  -0.0002028200  -0.0001410820
       -0.0000313777   0.0002273949   0.0004183680   0.0004017270  -0.0000788368
       -0.0002036413   0.0000430015  -0.0000331517  -0.0000557213  -0.0001160828
       -0.0001206333   0.0001795358  -0.0004554076  -0.0000885273   0.0001608817
        0.0040991476   0.0013174681  -0.0007706903   0.0011863272   0.0009235015
        0.0004726783  -0.0010674752   0.0002729307   0.0002402057   0.0003835261
        0.0000812459   0.0000152491  -0.0000755984   0.0000938280   0.0000730972
        0.0000320252  -0.0000407921  -0.0000234573  -0.0001793680  -0.0000163102
       -0.0000649166   0.0005612399  -0.0001879621  -0.0000605855  -0.0033906477
        0.0016737371  -0.0006772735   0.0000724835   0.0004421958  -0.0000237113
       -0.0003020500  -0.0002349642  -0.0002890655  -0.0001189165  -0.0000360616
       -0.0001766497  -0.0000114424   0.0001256806   0.0000086833   0.0001956481
        0.0002708179   0.0002364632   0.0001620679  -0.0001052916  -0.0003851258
       -0.0129012594  -0.0226092896   0.0233167451  -0.0986099832  -0.0607825546
        0.0519752805   0.0017291694   0.0002830809   0.0045663552  -0.0036824422
        0.0006369131  -0.0025301082   0.0024619438  -0.0027275023   0.0002561849
        0.0016876432   0.0003649132  -0.0041401796  -0.0008855919  -0.0004323707
        0.0003952118   0.0007646029   0.0040351777  -0.0008754133   0.0062460997
       -0.0022109770   0.0054998899  -0.0033068757  -0.0039288696  -0.0010721322
        0.0001519051  -0.0002533357  -0.0004960507  -0.0000729788   0.0000836746
        0.0000774300  -0.0000802201   0.0001930690  -0.0000544547   0.0000374478
        0.0001920615  -0.0000823838   0.0001533952   0.0000014257  -0.0000775661
       -0.0001307541  -0.0000631271  -0.0000097632   0.0000506850  -0.0000766075
       -0.0000447676   0.0000911706  -0.0000120275  -0.0000054453   0.0000940026
        0.0000605385   0.0000467054  -0.0001014199   0.0000415365   0.0000025498
        0.0001341810   0.0001236102   0.0001750095   0.0001493461  -0.0001033145
        0.0001396315   0.0000670929  -0.0001933342   0.0000701326  -0.0000028690
       -0.0000408630  -0.0000515377  -0.0001485666   0.0001641975   0.0005333985
       -0.0037800913  -0.0037901943  -0.0019393617   0.0052275438   0.0126251042
       -0.0131920360
        0.0091570331   0.0014596654  -0.0041222267  -0.0898749889  -0.0883211590
        0.0249170912  -0.0222298085  -0.0146192912  -0.0005618534   0.1301810992
        0.3685186283  -0.2262993140   0.0122512324  -0.0885140033   0.0543516153
        0.0208537303   0.0220769096  -0.0196835849   0.0085540765  -0.0208655298
        0.0243747935   0.0020400038   0.0006599283  -0.0001411102  -0.0012696774
       -0.0018961906   0.0002907850   0.0000389953  -0.0000087374  -0.0000162484
       -0.0000056682  -0.0001061640   0.0001057616   0.0001096837   0.0000228790
       -0.0000681105   0.0000075466  -0.0000779427   0.0000388758   0.0000027060
       -0.0000747912   0.0000400991  -0.0001543877   0.0000344766   0.0000748565
        0.0016379284   0.0004968616  -0.0003533344   0.0004764228   0.0003458203
        0.0002041937  -0.0004182369   0.0001113520   0.0000822855   0.0001687069
        0.0000496515   0.0000166474  -0.0000238822   0.0000364620   0.0000367855
        0.0000143838  -0.0000157429  -0.0000048550  -0.0000734760  -0.0000048981
       -0.0000171664   0.0002216556  -0.0000602057  -0.0000169334  -0.0012458800
        0.0006357168  -0.0002550141   0.0001004927   0.0003411366   0.0000264822
       -0.0001633109  -0.0000565243  -0.0001125083  -0.0000352498  -0.0000386691
       -0.0000796066   0.0000058217   0.0000117956   0.0000409275   0.0000758537
        0.0001391639   0.0001059871   0.0000758868  -0.0001013671  -0.0000523783
       -0.0502403735  -0.0174082699  -0.0067341350  -0.0256609265  -0.1548411974
        0.1186010338   0.0000064689   0.0007111823   0.0011324805   0.0028153115
       -0.0011495218   0.0022595937   0.0022547116  -0.0009114099   0.0011489247
        0.0008273862   0.0010624489  -0.0022813982  -0.0027072712  -0.0040511714
        0.0032092782  -0.0007670797   0.0007700263   0.0006526889   0.0114436587
       -0.0072739321   0.0156295540  -0.0043352933   0.0042420600   0.0032208374
        0.0000337554  -0.0000875162  -0.0003262195   0.0000130940  -0.0000106648
       -0.0000160345  -0.0000227377   0.0000846078  -0.0000234203   0.0000276216