      -----------------------------------------------------------      
     |                   =====================                   |     
     |                           x T B                           |     
     |                   =====================                   |     
     |                         S. Grimme                         |     
     |          Mulliken Center for Theoretical Chemistry        |     
     |                    University of Bonn                     |     
      -----------------------------------------------------------      

   * xtb version 6.7.1 (edcfbbe) compiled by 'albert@albert-system' on 2024-07-22

   xtb is free software: you can redistribute it and/or modify it under
   the terms of the GNU Lesser General Public License as published by
   the Free Software Foundation, either version 3 of the License, or
   (at your option) any later version.
   
   xtb is distributed in the hope that it will be useful,
   but WITHOUT ANY WARRANTY; without even the implied warranty of
   MERCHANTABILITY or FITNESS FOR A PARTICULAR PURPOSE.  See the
   GNU Lesser General Public License for more details.
   
   Cite this work as:
   * C. Bannwarth, E. Caldeweyher, S. Ehlert, A. Hansen, P. Pracht,
     J. Seibert, S. Spicher, S. Grimme, WIREs Comput. Mol. Sci., 2020, 11,
     e01493. DOI: 10.1002/wcms.1493
   
   for GFN2-xTB:
   * C. Bannwarth, S. Ehlert and S. Grimme., J. Chem. Theory Comput., 2019,
     15, 1652-1671. DOI: 10.1021/acs.jctc.8b01176
   for GFN1-xTB:
   * S. Grimme, C. Bannwarth, P. Shushkov, J. Chem. Theory Comput., 2017,
     13, 1989-2009. DOI: 10.1021/acs.jctc.7b00118
   for GFN0-xTB:
   * P. Pracht, E. Caldeweyher, S. Ehlert, S. Grimme, ChemRxiv, 2019, preprint.
     DOI: 10.26434/chemrxiv.8326202.v1
   for GFN-FF:
   * S. Spicher and S. Grimme, Angew. Chem. Int. Ed., 2020, 59, 15665-15673.
     DOI: 10.1002/anie.202004239
   
   for ALPB and GBSA implicit solvation:
   * S. Ehlert, M. Stahn, S. Spicher, S. Grimme, J. Chem. Theory Comput.,
     2021, 17, 4250-4261. DOI: 10.1021/acs.jctc.1c00471
   
   for ddCOSMO and CPCM-X implicit solvation:
   * M. Stahn, S. Ehlert, S. Grimme, J. Phys. Chem. A,
     2023, XX, XXXX-XXXX. DOI: 10.1021/acs.jpca.3c04382
   
   for DFT-D4:
   * E. Caldeweyher, C. Bannwarth and S. Grimme, J. Chem. Phys., 2017,
     147, 034112. DOI: 10.1063/1.4993215
   * E. Caldeweyher, S. Ehlert, A. Hansen, H. Neugebauer, S. Spicher,
     C. Bannwarth and S. Grimme, J. Chem. Phys., 2019, 150, 154122.
     DOI: 10.1063/1.5090222
   * E. Caldeweyher, J.-M. Mewes, S. Ehlert and S. Grimme, Phys. Chem. Chem. Phys.
     2020, 22, 8499-8512. DOI: 10.1039/D0CP00502A
   
   for sTDA-xTB:
   * S. Grimme and C. Bannwarth, J. Chem. Phys., 2016, 145, 054103.
     DOI: 10.1063/1.4959605
   
   in the mass-spec context:
   * V. Asgeirsson, C. Bauer and S. Grimme, Chem. Sci., 2017, 8, 4879.
     DOI: 10.1039/c7sc00601b
   * J. Koopman and S. Grimme, ACS Omega 2019, 4, 12, 15120-15133.
     DOI: 10.1021/acsomega.9b02011
   
   for metadynamics refer to:
   * S. Grimme, J. Chem. Theory Comput., 2019, 155, 2847-2862
     DOI: 10.1021/acs.jctc.9b00143
   
   for SPH calculations refer to:
   * S. Spicher and S. Grimme, J. Chem. Theory Comput., 2021, 17, 1701-1714
     DOI: 10.1021/acs.jctc.0c01306
   
   for ONIOM refer to:
   * C. Plett, A. Katbashev, S. Ehlert, S. Grimme, M. Bursch,
     Phys. Chem. Chem. Phys., 2023, 25, 17860-17868. DOI: 10.1039/D3CP02178E
   
   for DIPRO refer to:
   * J. Kohn, N. Gildemeister, S. Grimme, D. Fazzi, A. Hansen,
     J. Chem. Phys., 2023, just accepted.
   
   for PTB refer to:
   * S. Grimme, M. Mueller, A. Hansen, J. Chem. Phys., 2023, 158, 124111.
     DOI: 10.1063/5.0137838
   
   with help from (in alphabetical order)
   P. Atkinson, C. Bannwarth, F. Bohle, G. Brandenburg, E. Caldeweyher
   M. Checinski, S. Dohm, S. Ehlert, S. Ehrlich, I. Gerasimov, C. Hölzer
   A. Katbashev, J. Kohn, J. Koopman, C. Lavigne, S. Lehtola, F. März, M. Müller,
   F. Musil, H. Neugebauer, J. Pisarek, C. Plett, P. Pracht, F. Pultar,
   J. Seibert, P. Shushkov, S. Spicher, M. Stahn, M. Steiner, T. Strunk,
   J. Stückrath, T. Rose, and J. Unsleber
   
 * started run on 2025/08/25 at 11:45:42.688     
   ID    Z sym.   atoms
    1    6 C      1-6, 8, 10-18, 20-44, 46-62
    2    7 N      7, 19, 45
    3    8 O      9, 63
    4    1 H      64-108

           -------------------------------------------------
          |                Calculation Setup                |
           -------------------------------------------------

          program call               : xtb data2507/toluene/Cbz-MI/Cbz-MI_toluene_S0_finalOpt.xtbopt.xyz --gfn 2 --uhf 2 --gbsa toluene --ohess vtight --parallel 40 --molden --ceasefiles --namespace data2507/toluene/Cbz-MI/Cbz-MI_toluene_T1_preOpt
          calculation namespace      : data2507/toluene/Cbz-MI/Cbz-MI_toluene_T1_preOpt
          coordinate file            : data2507/toluene/Cbz-MI/Cbz-MI_toluene_S0_finalOpt.xtbopt.xyz
          omp threads                :                    40


           -------------------------------------------------
          |                 G F N 2 - x T B                 |
           -------------------------------------------------

        Reference                      10.1021/acs.jctc.8b01176
      * Hamiltonian:
        H0-scaling (s, p, d)           1.850000    2.230000    2.230000
        zeta-weighting                 0.500000
      * Dispersion:
        s8                             2.700000
        a1                             0.520000
        a2                             5.000000
        s9                             5.000000
      * Repulsion:
        kExp                           1.500000    1.000000
        rExp                           1.000000
      * Coulomb:
        alpha                          2.000000
        third order                    shell-resolved
        anisotropic                    true
        a3                             3.000000
        a5                             4.000000
        cn-shift                       1.200000
        cn-exp                         4.000000
        max-rad                        5.000000

      * Solvation model:               GBSA
        Solvent                        toluene
        Parameter file                 internal GFN2-xTB/GBSA
        Dielectric constant                7.0000E+00
        Reference state                gsolv [1 M gas/solution]
        Free energy shift                  4.5239E-03 Eh       2.8388E+00 kcal/mol
        Temperature                        2.9815E+02 K
        Density                            8.6700E-01 kg/L
        Solvent mass                       9.2140E+01 g/mol
        Interaction kernel             Still
        Born radius scaling (c1)           1.5686E+00
        Born radii integrator          GBOBC
        Born offset                        0.0000E+00 a0       0.0000E+00 AA
        H-bond correction              false
        Ion screening                  false
        Surface tension                    1.0000E-05 Eh       1.5569E+01 dyn/cm
        Grid points                               230 per atom

          ...................................................
          :                      SETUP                      :
          :.................................................:
          :  # basis functions                 297          :
          :  # atomic orbitals                 297          :
          :  # shells                          171          :
          :  # electrons                       304          :
          :  max. iterations                   250          :
          :  Hamiltonian                  GFN2-xTB          :
          :  restarted?                      false          :
          :  GBSA solvation                   true          :
          :  PC potential                    false          :
          :  electronic temp.          300.0000000     K    :
          :  accuracy                    1.0000000          :
          :  -> integral cutoff          0.2500000E+02      :
          :  -> integral neglect         0.1000000E-07      :
          :  -> SCF convergence          0.1000000E-05 Eh   :
          :  -> wf. convergence          0.1000000E-03 e    :
          :  Broyden damping             0.4000000          :
          :  net charge                          0          :
          :  unpaired electrons                  2          :
          ...................................................

 iter      E             dE          RMSdq      gap      omega  full diag
   1   -166.8681282 -0.166868E+03  0.419E+00    1.66       0.0  T
   2   -166.9848757 -0.116747E+00  0.254E+00    0.26       1.0  T
   3   -166.7927861  0.192090E+00  0.152E+00    1.86       1.0  T
   4   -167.0708632 -0.278077E+00  0.479E-01    0.54       1.0  T
   5   -167.0700701  0.793085E-03  0.281E-01    0.35       1.0  T
   6   -167.0694430  0.627105E-03  0.264E-01    0.72       1.0  T
   7   -167.0810948 -0.116518E-01  0.975E-02    0.49       1.0  T
   8   -167.0816986 -0.603796E-03  0.576E-02    0.49       1.0  T
   9   -167.0817451 -0.465026E-04  0.520E-02    0.46       1.0  T
  10   -167.0820417 -0.296563E-03  0.286E-02    0.47       1.0  T
  11   -167.0821731 -0.131427E-03  0.102E-02    0.48       1.0  T
  12   -167.0821708  0.234865E-05  0.944E-03    0.48       1.0  T
  13   -167.0821832 -0.124293E-04  0.351E-03    0.48       2.7  T
  14   -167.0821848 -0.163873E-05  0.134E-03    0.48       7.2  T
  15   -167.0821849 -0.109139E-06  0.592E-04    0.48      16.3  T
  16   -167.0821850 -0.176455E-07  0.289E-04    0.48      33.3  T

   *** convergence criteria satisfied after 16 iterations ***

         #    Occupation            Energy/Eh            Energy/eV
      -------------------------------------------------------------
         1        2.0000           -0.6920002             -18.8303
       ...           ...                  ...                  ...
       147        2.0000           -0.3911713             -10.6443
       148        2.0000           -0.3825689             -10.4102
       149        1.9998           -0.3806300             -10.3575
       150        1.9634           -0.3757390             -10.2244
       151        1.8580           -0.3743408             -10.1863
       152        1.1789           -0.3711846             -10.1004
       153        0.9999           -0.2792391              -7.5985 (HOMO)
       154        0.0001           -0.2616663              -7.1203 (LUMO)
       155        0.0000           -0.2608328              -7.0976
       156                         -0.2543845              -6.9222
       157                         -0.2539685              -6.9108
       158                         -0.2420459              -6.5864
       ...                                ...                  ...
       297                          0.7679315              20.8965
      -------------------------------------------------------------
                  HL-Gap            0.0175728 Eh            0.4782 eV
             Fermi-level           -0.3216252 Eh           -8.7519 eV
 
 transition dipole moment (au) for excitation:         152         153
     X       Y       Z   
   0.0153  -0.1906  -0.2435  total (au/Debye):    0.310   0.787
 dE (eV)             :    2.502
 oscillator strength :  0.83078E-02

 SCC (total)                   0 d,  0 h,  0 min,  0.433 sec
 SCC setup                      ...        0 min,  0.006 sec (  1.305%)
 Dispersion                     ...        0 min,  0.010 sec (  2.265%)
 classical contributions        ...        0 min,  0.000 sec (  0.096%)
 integral evaluation            ...        0 min,  0.018 sec (  4.230%)
 iterations                     ...        0 min,  0.334 sec ( 77.147%)
 molecular gradient             ...        0 min,  0.021 sec (  4.770%)
 printout                       ...        0 min,  0.044 sec ( 10.168%)

         :::::::::::::::::::::::::::::::::::::::::::::::::::::
         ::                     SUMMARY                     ::
         :::::::::::::::::::::::::::::::::::::::::::::::::::::
         :: total energy            -164.149908629106 Eh    ::
         :: total w/o Gsasa/hb      -164.102328489127 Eh    ::
         :: gradient norm              0.130285917883 Eh/a0 ::
         :: HOMO-LUMO gap              0.478180457960 eV    ::
         ::.................................................::
         :: SCC energy              -167.074473140123 Eh    ::
         :: -> isotropic ES            0.116816269074 Eh    ::
         :: -> anisotropic ES          0.006941859287 Eh    ::
         :: -> anisotropic XC          0.083727301128 Eh    ::
         :: -> dispersion             -0.178332619549 Eh    ::
         :: -> Gsolv                  -0.075487452636 Eh    ::
         ::    -> Gelec               -0.027907312658 Eh    ::
         ::    -> Gsasa               -0.052104019850 Eh    ::
         ::    -> Ghb                  0.000000000000 Eh    ::
         ::    -> Gshift               0.004523879872 Eh    ::
         :: repulsion energy           2.924564511017 Eh    ::
         :: add. restraining           0.000000000000 Eh    ::
         :: total charge              -0.000000000002 e     ::
         :::::::::::::::::::::::::::::::::::::::::::::::::::::

      ----------------------------------------------------------- 
     |                   =====================                   |
     |                        A N C O P T                        |
     |                   =====================                   |
     |               Approximate Normal Coordinate               |
     |                Rational Function Optimizer                |
      ----------------------------------------------------------- 

Optimization log is written to '/dev/null'
      ----------------------------------------------------------- 
     |                   =====================                   |
     |                        A N C O P T                        |
     |                   =====================                   |
     |               Approximate Normal Coordinate               |
     |                Rational Function Optimizer                |
      ----------------------------------------------------------- 

          ...................................................
          :                      SETUP                      :
          :.................................................:
          :   optimization level         verytight          :
          :   max. optcycles                  2160          :
          :   ANC micro-cycles                  20          :
          :   degrees of freedom               318          :
          :.................................................:
          :   RF solver                   davidson          :
          :   write xtbopt.log                true          :
          :   linear?                        false          :
          :   energy convergence         0.1000000E-06 Eh   :
          :   grad. convergence          0.2000000E-03 Eh/α :
          :   maxmium RF displ.          1.0000000          :
          :   Hlow (freq-cutoff)         0.1000000E-01      :
          :   Hmax (freq-cutoff)         5.0000000          :
          :   S6 in model hess.         20.0000000          :
          ...................................................

generating ANC from exact Hessian ...
Using Lindh-Hessian (1995)
 Shifting diagonal of input Hessian by   1.013560638257717E-002
 Lowest  eigenvalues of input Hessian
    0.010000    0.000000    0.000000    0.000000    0.000000    0.000000
    0.000000    0.010220    0.010334    0.010371    0.010503    0.010547
    0.010900    0.011196    0.011228    0.011269    0.011509    0.011585
 Highest eigenvalues
    2.190534    2.190576    2.221648    2.221712    2.355712    2.432779
 

........................................................................
.............................. CYCLE    1 ..............................
........................................................................

 iter      E             dE          RMSdq      gap      omega  full diag
   1   -167.0821850 -0.167082E+03  0.287E-04    0.48       0.0  T
   2   -167.0821847  0.222506E-06  0.999E-04    0.48       9.6  T
   3   -167.0821850 -0.227816E-06  0.169E-04    0.48      56.8  T
     SCC iter.                  ...        0 min,  0.052 sec
     gradient                   ...        0 min,  0.019 sec
 * total energy  :  -164.1499086 Eh     change       -0.1366260E-08 Eh
   gradient norm :     0.1302690 Eh/α   predicted     0.0000000E+00 (-100.00%)
   displ. norm   :     0.1732467 α      lambda       -0.1116597E-01
   maximum displ.:     0.0651640 α      in ANC's #180, #317, #65, ...

........................................................................
.............................. CYCLE    2 ..............................
........................................................................

 iter      E             dE          RMSdq      gap      omega  full diag
   1   -167.0645047 -0.167065E+03  0.133E-01    0.80       0.0  T
   2   -167.0525495  0.119552E-01  0.280E-01    0.63       1.0  T
   3   -167.0638900 -0.113405E-01  0.105E-01    0.80       1.0  T
   4   -167.0659631 -0.207313E-02  0.616E-02    0.72       1.0  T
   5   -167.0664569 -0.493786E-03  0.313E-02    0.73       1.0  T
   6   -167.0664600 -0.311836E-05  0.266E-02    0.73       1.0  T
   7   -167.0665280 -0.679301E-04  0.155E-02    0.73       1.0  T
   8   -167.0665585 -0.305412E-04  0.695E-03    0.73       1.4  T
   9   -167.0665657 -0.714993E-05  0.171E-03    0.74       5.6  T
  10   -167.0665659 -0.247670E-06  0.815E-04    0.74      11.8  T
  11   -167.0665659 -0.937453E-08  0.340E-04    0.74      28.3  T
     SCC iter.                  ...        0 min,  0.170 sec
     gradient                   ...        0 min,  0.018 sec
 * total energy  :  -164.1574617 Eh     change       -0.7553071E-02 Eh
   gradient norm :     0.0536145 Eh/α   predicted    -0.5752515E-02 ( -23.84%)
   displ. norm   :     0.1698396 α      lambda       -0.3380554E-02
   maximum displ.:     0.0584327 α      in ANC's #29, #17, #28, ...

........................................................................
.............................. CYCLE    3 ..............................
........................................................................

 iter      E             dE          RMSdq      gap      omega  full diag
   1   -167.0641551 -0.167064E+03  0.841E-02    0.93       0.0  T
   2   -167.0632031  0.952007E-03  0.913E-02    0.96       1.0  T
   3   -167.0626123  0.590759E-03  0.955E-02    0.88       1.0  T
   4   -167.0646481 -0.203576E-02  0.259E-02    0.93       1.0  T
   5   -167.0646824 -0.343325E-04  0.160E-02    0.92       1.0  T
   6   -167.0647226 -0.402041E-04  0.686E-03    0.92       1.4  T
   7   -167.0647293 -0.670872E-05  0.300E-03    0.92       3.2  T
   8   -167.0647306 -0.128556E-05  0.105E-03    0.92       9.2  T
   9   -167.0647306 -0.116129E-07  0.759E-04    0.92      12.7  T
  10   -167.0647307 -0.772033E-07  0.315E-04    0.92      30.6  T
     SCC iter.                  ...        0 min,  0.163 sec
     gradient                   ...        0 min,  0.019 sec
 * total energy  :  -164.1593991 Eh     change       -0.1937393E-02 Eh
   gradient norm :     0.0129695 Eh/α   predicted    -0.1739806E-02 ( -10.20%)
   displ. norm   :     0.1357596 α      lambda       -0.4176558E-03
   maximum displ.:     0.0537496 α      in ANC's #28, #17, #12, ...

........................................................................
.............................. CYCLE    4 ..............................
........................................................................

 iter      E             dE          RMSdq      gap      omega  full diag
   1   -167.0671465 -0.167067E+03  0.383E-02    0.95       0.0  T
   2   -167.0657116  0.143485E-02  0.777E-02    1.00       1.0  T
   3   -167.0670606 -0.134895E-02  0.322E-02    0.95       1.0  T
   4   -167.0672308 -0.170247E-03  0.129E-02    0.96       1.0  T
   5   -167.0672461 -0.152436E-04  0.241E-03    0.96       4.0  T
   6   -167.0672466 -0.499315E-06  0.178E-03    0.96       5.4  T
   7   -167.0672469 -0.318521E-06  0.951E-04    0.96      10.1  T
   8   -167.0672470 -0.111747E-06  0.476E-04    0.96      20.2  T
     SCC iter.                  ...        0 min,  0.106 sec
     gradient                   ...        0 min,  0.018 sec
 * total energy  :  -164.1597325 Eh     change       -0.3334292E-03 Eh
   gradient norm :     0.0088170 Eh/α   predicted    -0.2126853E-03 ( -36.21%)
   displ. norm   :     0.3328571 α      lambda       -0.6501047E-03
   maximum displ.:     0.1444284 α      in ANC's #28, #12, #17, ...

........................................................................
.............................. CYCLE    5 ..............................
........................................................................

 iter      E             dE          RMSdq      gap      omega  full diag
   1   -167.0703684 -0.167070E+03  0.828E-02    0.99       0.0  T
   2   -167.0653005  0.506784E-02  0.149E-01    1.10       1.0  T
   3   -167.0701648 -0.486422E-02  0.641E-02    0.99       1.0  T
   4   -167.0708071 -0.642332E-03  0.103E-02    1.01       1.0  T
   5   -167.0708156 -0.849363E-05  0.559E-03    1.01       1.7  T
   6   -167.0708179 -0.228912E-05  0.374E-03    1.01       2.6  T
   7   -167.0708192 -0.135725E-05  0.213E-03    1.01       4.5  T
   8   -167.0708199 -0.658813E-06  0.479E-04    1.01      20.1  T
   9   -167.0708199 -0.932937E-08  0.263E-04    1.01      36.6  T
     SCC iter.                  ...        0 min,  0.119 sec
     gradient                   ...        0 min,  0.018 sec
 * total energy  :  -164.1602005 Eh     change       -0.4679891E-03 Eh
   gradient norm :     0.0118778 Eh/α   predicted    -0.3610793E-03 ( -22.84%)
   displ. norm   :     0.3878654 α      lambda       -0.4946587E-03
   maximum displ.:     0.1794916 α      in ANC's #28, #12, #17, ...

........................................................................
.............................. CYCLE    6 ..............................
........................................................................

 iter      E             dE          RMSdq      gap      omega  full diag
   1   -167.0713345 -0.167071E+03  0.878E-02    1.02       0.0  T
   2   -167.0670286  0.430596E-02  0.141E-01    1.13       1.0  T
   3   -167.0708301 -0.380154E-02  0.735E-02    1.02       1.0  T
   4   -167.0716908 -0.860664E-03  0.156E-02    1.04       1.0  T
   5   -167.0717163 -0.255455E-04  0.543E-03    1.04       1.8  T
   6   -167.0717186 -0.224396E-05  0.359E-03    1.05       2.7  T
   7   -167.0717198 -0.122329E-05  0.212E-03    1.05       4.5  T
   8   -167.0717203 -0.510541E-06  0.686E-04    1.04      14.0  T
   9   -167.0717204 -0.362829E-07  0.276E-04    1.04      34.9  T
     SCC iter.                  ...        0 min,  0.119 sec
     gradient                   ...        0 min,  0.019 sec
 * total energy  :  -164.1606013 Eh     change       -0.4007586E-03 Eh
   gradient norm :     0.0156211 Eh/α   predicted    -0.2846075E-03 ( -28.98%)
   displ. norm   :     0.5435938 α      lambda       -0.6772229E-03
   maximum displ.:     0.2584363 α      in ANC's #28, #12, #17, ...

........................................................................
.............................. CYCLE    7 ..............................
........................................................................

 iter      E             dE          RMSdq      gap      omega  full diag
   1   -167.0698507 -0.167070E+03  0.119E-01    1.05       0.0  T
   2   -167.0655087  0.434205E-02  0.150E-01    1.16       1.0  T
   3   -167.0679551 -0.244643E-02  0.113E-01    1.03       1.0  T
   4   -167.0702253 -0.227012E-02  0.226E-02    1.07       1.0  T
   5   -167.0702863 -0.610471E-04  0.684E-03    1.08       1.4  T
   6   -167.0702897 -0.335631E-05  0.449E-03    1.08       2.1  T
   7   -167.0702913 -0.160690E-05  0.277E-03    1.08       3.5  T
   8   -167.0702918 -0.547498E-06  0.125E-03    1.08       7.7  T
   9   -167.0702920 -0.141850E-06  0.335E-04    1.08      28.7  T
  10   -167.0702920 -0.168885E-07  0.116E-04    1.08      82.6  T
     SCC iter.                  ...        0 min,  0.132 sec
     gradient                   ...        0 min,  0.018 sec
 * total energy  :  -164.1611444 Eh     change       -0.5431594E-03 Eh
   gradient norm :     0.0152502 Eh/α   predicted    -0.4386691E-03 ( -19.24%)
   displ. norm   :     0.5092715 α      lambda       -0.6771277E-03
   maximum displ.:     0.2386328 α      in ANC's #28, #12, #17, ...

........................................................................
.............................. CYCLE    8 ..............................
........................................................................

 iter      E             dE          RMSdq      gap      omega  full diag
   1   -167.0688469 -0.167069E+03  0.110E-01    1.07       0.0  T
   2   -167.0668417  0.200520E-02  0.112E-01    1.14       1.0  T
   3   -167.0660580  0.783637E-03  0.121E-01    1.03       1.0  T
   4   -167.0689937 -0.293570E-02  0.207E-02    1.08       1.0  T
   5   -167.0690579 -0.641680E-04  0.487E-03    1.09       2.0  T
   6   -167.0690601 -0.220462E-05  0.284E-03    1.09       3.4  T
   7   -167.0690606 -0.524334E-06  0.175E-03    1.09       5.5  T
   8   -167.0690607 -0.883898E-07  0.966E-04    1.09      10.0  T
   9   -167.0690608 -0.771402E-07  0.242E-04    1.09      39.7  T
     SCC iter.                  ...        0 min,  0.118 sec
     gradient                   ...        0 min,  0.018 sec
 * total energy  :  -164.1616510 Eh     change       -0.5065751E-03 Eh
   gradient norm :     0.0101943 Eh/α   predicted    -0.4263732E-03 ( -15.83%)
   displ. norm   :     0.3856804 α      lambda       -0.4289724E-03
   maximum displ.:     0.1774540 α      in ANC's #12, #28, #10, ...

........................................................................
.............................. CYCLE    9 ..............................
........................................................................

 iter      E             dE          RMSdq      gap      omega  full diag
   1   -167.0696371 -0.167070E+03  0.825E-02    1.08       0.0  T
   2   -167.0688682  0.768944E-03  0.753E-02    1.13       1.0  T
   3   -167.0676423  0.122586E-02  0.969E-02    1.04       1.0  T
   4   -167.0697000 -0.205772E-02  0.100E-02    1.09       1.0  T
   5   -167.0697182 -0.181625E-04  0.186E-03    1.10       5.2  T
   6   -167.0697183 -0.161545E-06  0.121E-03    1.10       7.9  T
   7   -167.0697184 -0.174388E-07  0.846E-04    1.10      11.4  T
   8   -167.0697184 -0.129983E-07  0.575E-04    1.10      16.7  T
     SCC iter.                  ...        0 min,  0.105 sec
     gradient                   ...        0 min,  0.018 sec
 * total energy  :  -164.1619549 Eh     change       -0.3039288E-03 Eh
   gradient norm :     0.0079950 Eh/α   predicted    -0.2463915E-03 ( -18.93%)
   displ. norm   :     0.3291899 α      lambda       -0.2381676E-03
   maximum displ.:     0.1422457 α      in ANC's #12, #10, #28, ...

........................................................................
.............................. CYCLE   10 ..............................
........................................................................

 iter      E             dE          RMSdq      gap      omega  full diag
   1   -167.0693124 -0.167069E+03  0.700E-02    1.11       0.0  T
   2   -167.0684925  0.819851E-03  0.709E-02    1.15       1.0  T
   3   -167.0682899  0.202660E-03  0.737E-02    1.08       1.0  T
   4   -167.0693943 -0.110445E-02  0.526E-03    1.12       1.8  T
   5   -167.0693982 -0.392303E-05  0.149E-03    1.12       6.4  T
   6   -167.0693983 -0.655056E-07  0.110E-03    1.12       8.7  T
   7   -167.0693984 -0.616116E-07  0.717E-04    1.12      13.4  T
   8   -167.0693984 -0.296717E-07  0.306E-04    1.12      31.4  T
     SCC iter.                  ...        0 min,  0.123 sec
     gradient                   ...        0 min,  0.021 sec
 * total energy  :  -164.1621272 Eh     change       -0.1723016E-03 Eh
   gradient norm :     0.0056864 Eh/α   predicted    -0.1320095E-03 ( -23.38%)
   displ. norm   :     0.2459338 α      lambda       -0.1902962E-03
   maximum displ.:     0.1241737 α      in ANC's #10, #8, #18, ...

........................................................................
.............................. CYCLE   11 ..............................
........................................................................

 iter      E             dE          RMSdq      gap      omega  full diag
   1   -167.0728205 -0.167073E+03  0.482E-02    1.12       0.0  T
   2   -167.0725106  0.309867E-03  0.462E-02    1.15       1.0  T
   3   -167.0722748  0.235752E-03  0.522E-02    1.10       1.0  T
   4   -167.0728520 -0.577144E-03  0.617E-03    1.13       1.6  T
   5   -167.0728569 -0.495178E-05  0.217E-03    1.13       4.4  T
   6   -167.0728575 -0.586896E-06  0.934E-04    1.13      10.3  T
   7   -167.0728576 -0.105086E-06  0.450E-04    1.13      21.4  T
     SCC iter.                  ...        0 min,  0.092 sec
     gradient                   ...        0 min,  0.018 sec
 * total energy  :  -164.1622470 Eh     change       -0.1197933E-03 Eh
   gradient norm :     0.0061143 Eh/α   predicted    -0.1009092E-03 ( -15.76%)
   displ. norm   :     0.2848454 α      lambda       -0.1409437E-03
   maximum displ.:     0.1459883 α      in ANC's #10, #18, #8, ...

........................................................................
.............................. CYCLE   12 ..............................
........................................................................

 iter      E             dE          RMSdq      gap      omega  full diag
   1   -167.0698643 -0.167070E+03  0.600E-02    1.16       0.0  T
   2   -167.0691107  0.753559E-03  0.646E-02    1.19       1.0  T
   3   -167.0692395 -0.128718E-03  0.604E-02    1.14       1.0  T
   4   -167.0699429 -0.703396E-03  0.484E-03    1.17       2.0  T
   5   -167.0699465 -0.363309E-05  0.133E-03    1.17       7.3  T
   6   -167.0699466 -0.128719E-06  0.818E-04    1.17      11.8  T
   7   -167.0699466 -0.226173E-07  0.543E-04    1.17      17.7  T
     SCC iter.                  ...        0 min,  0.090 sec
     gradient                   ...        0 min,  0.019 sec
 * total energy  :  -164.1623327 Eh     change       -0.8568689E-04 Eh
   gradient norm :     0.0052391 Eh/α   predicted    -0.7619053E-04 ( -11.08%)
   displ. norm   :     0.1657242 α      lambda       -0.1120968E-03
   maximum displ.:     0.0879227 α      in ANC's #10, #8, #5, ...

........................................................................
.............................. CYCLE   13 ..............................
........................................................................

 iter      E             dE          RMSdq      gap      omega  full diag
   1   -167.0719034 -0.167072E+03  0.213E-02    1.17       0.0  T
   2   -167.0719012  0.214491E-05  0.131E-02    1.17       1.0  T
   3   -167.0717789  0.122283E-03  0.226E-02    1.16       1.0  T
   4   -167.0718984 -0.119434E-03  0.523E-03    1.17       1.8  T
   5   -167.0719044 -0.604982E-05  0.119E-03    1.17       8.1  T
   6   -167.0719046 -0.201199E-06  0.339E-04    1.17      28.3  T
   7   -167.0719046 -0.103998E-07  0.168E-04    1.17      57.3  T
     SCC iter.                  ...        0 min,  0.091 sec
     gradient                   ...        0 min,  0.019 sec
 * total energy  :  -164.1624212 Eh     change       -0.8845070E-04 Eh
   gradient norm :     0.0052641 Eh/α   predicted    -0.5759506E-04 ( -34.88%)
   displ. norm   :     0.2597182 α      lambda       -0.1524741E-03
   maximum displ.:     0.1452744 α      in ANC's #10, #8, #5, ...

........................................................................
.............................. CYCLE   14 ..............................
........................................................................

 iter      E             dE          RMSdq      gap      omega  full diag
   1   -167.0720872 -0.167072E+03  0.336E-02    1.17       0.0  T
   2   -167.0720866  0.590759E-06  0.200E-02    1.17       1.0  T
   3   -167.0719918  0.948182E-04  0.198E-02    1.16       1.0  T
   4   -167.0720799 -0.881373E-04  0.600E-03    1.17       1.6  T
   5   -167.0720882 -0.831431E-05  0.112E-03    1.17       8.6  T
   6   -167.0720884 -0.168079E-06  0.369E-04    1.17      26.0  T
   7   -167.0720884 -0.759383E-08  0.210E-04    1.17      45.8  T
     SCC iter.                  ...        0 min,  0.090 sec
     gradient                   ...        0 min,  0.019 sec
 * total energy  :  -164.1625385 Eh     change       -0.1173444E-03 Eh
   gradient norm :     0.0044235 Eh/α   predicted    -0.8138148E-04 ( -30.65%)
   displ. norm   :     0.2786633 α      lambda       -0.1228882E-03
   maximum displ.:     0.1614778 α      in ANC's #10, #8, #5, ...

........................................................................
.............................. CYCLE   15 ..............................
........................................................................

 iter      E             dE          RMSdq      gap      omega  full diag
   1   -167.0714778 -0.167071E+03  0.362E-02    1.17       0.0  T
   2   -167.0714789 -0.106639E-05  0.213E-02    1.17       1.0  T
   3   -167.0714728  0.609686E-05  0.607E-03    1.17       1.6  T
   4   -167.0714723  0.539881E-06  0.538E-03    1.17       1.8  T
   5   -167.0714788 -0.649946E-05  0.170E-03    1.17       5.6  T
   6   -167.0714794 -0.626161E-06  0.394E-04    1.17      24.4  T
   7   -167.0714794 -0.999424E-08  0.229E-04    1.17      42.0  T
     SCC iter.                  ...        0 min,  0.091 sec
     gradient                   ...        0 min,  0.018 sec
 * total energy  :  -164.1626335 Eh     change       -0.9499614E-04 Eh
   gradient norm :     0.0036282 Eh/α   predicted    -0.6621865E-04 ( -30.29%)
   displ. norm   :     0.2782106 α      lambda       -0.9782999E-04
   maximum displ.:     0.1658575 α      in ANC's #10, #8, #5, ...

........................................................................
.............................. CYCLE   16 ..............................
........................................................................

 iter      E             dE          RMSdq      gap      omega  full diag
   1   -167.0709200 -0.167071E+03  0.369E-02    1.17       0.0  T
   2   -167.0709102  0.979328E-05  0.228E-02    1.17       1.0  T
   3   -167.0703949  0.515343E-03  0.461E-02    1.14       1.0  T
   4   -167.0709215 -0.526580E-03  0.313E-03    1.17       3.1  T
   5   -167.0709228 -0.128476E-05  0.803E-04    1.17      12.0  T
   6   -167.0709228 -0.928702E-07  0.286E-04    1.17      33.7  T
   7   -167.0709229 -0.190329E-08  0.164E-04    1.17      58.8  T
     SCC iter.                  ...        0 min,  0.091 sec
     gradient                   ...        0 min,  0.018 sec
 * total energy  :  -164.1627130 Eh     change       -0.7953157E-04 Eh
   gradient norm :     0.0032932 Eh/α   predicted    -0.5270189E-04 ( -33.73%)
   displ. norm   :     0.3275931 α      lambda       -0.1056256E-03
   maximum displ.:     0.1967071 α      in ANC's #10, #8, #5, ...

........................................................................
.............................. CYCLE   17 ..............................
........................................................................

 iter      E             dE          RMSdq      gap      omega  full diag
   1   -167.0706838 -0.167071E+03  0.428E-02    1.17       0.0  T
   2   -167.0706316  0.522755E-04  0.294E-02    1.18       1.0  T
   3   -167.0697650  0.866541E-03  0.621E-02    1.14       1.0  T
   4   -167.0706894 -0.924395E-03  0.353E-03    1.18       2.7  T
   5   -167.0706909 -0.146630E-05  0.116E-03    1.18       8.3  T
   6   -167.0706911 -0.184985E-06  0.507E-04    1.18      19.0  T
   7   -167.0706911 -0.208069E-07  0.272E-04    1.18      35.4  T
     SCC iter.                  ...        0 min,  0.091 sec
     gradient                   ...        0 min,  0.022 sec
 * total energy  :  -164.1628014 Eh     change       -0.8834725E-04 Eh
   gradient norm :     0.0035998 Eh/α   predicted    -0.5848266E-04 ( -33.80%)
   displ. norm   :     0.4272262 α      lambda       -0.1292208E-03
   maximum displ.:     0.2571734 α      in ANC's #10, #8, #5, ...

........................................................................
.............................. CYCLE   18 ..............................
........................................................................

 iter      E             dE          RMSdq      gap      omega  full diag
   1   -167.0704618 -0.167070E+03  0.548E-02    1.18       0.0  T
   2   -167.0702750  0.186749E-03  0.428E-02    1.20       1.0  T
   3   -167.0693325  0.942491E-03  0.711E-02    1.15       1.0  T
   4   -167.0704803 -0.114774E-02  0.500E-03    1.19       1.9  T
   5   -167.0704834 -0.315249E-05  0.159E-03    1.19       6.1  T
   6   -167.0704838 -0.361106E-06  0.709E-04    1.19      13.6  T
   7   -167.0704838 -0.372035E-07  0.385E-04    1.19      25.0  T
     SCC iter.                  ...        0 min,  0.091 sec
     gradient                   ...        0 min,  0.019 sec
 * total energy  :  -164.1629087 Eh     change       -0.1073373E-03 Eh
   gradient norm :     0.0037926 Eh/α   predicted    -0.7640488E-04 ( -28.82%)
   displ. norm   :     0.5230394 α      lambda       -0.1455145E-03
   maximum displ.:     0.3135214 α      in ANC's #10, #8, #5, ...

........................................................................
.............................. CYCLE   19 ..............................
........................................................................

 iter      E             dE          RMSdq      gap      omega  full diag
   1   -167.0704115 -0.167070E+03  0.637E-02    1.20       0.0  T
   2   -167.0700962  0.315244E-03  0.525E-02    1.23       1.0  T
   3   -167.0691241  0.972095E-03  0.773E-02    1.17       1.0  T
   4   -167.0704431 -0.131901E-02  0.595E-03    1.21       1.6  T
   5   -167.0704475 -0.437528E-05  0.189E-03    1.21       5.1  T
   6   -167.0704480 -0.502165E-06  0.874E-04    1.21      11.0  T
   7   -167.0704481 -0.491374E-07  0.490E-04    1.21      19.6  T
     SCC iter.                  ...        0 min,  0.091 sec
     gradient                   ...        0 min,  0.018 sec
 * total energy  :  -164.1630276 Eh     change       -0.1189219E-03 Eh
   gradient norm :     0.0037127 Eh/α   predicted    -0.9266219E-04 ( -22.08%)
   displ. norm   :     0.4855805 α      lambda       -0.1278681E-03
   maximum displ.:     0.2854353 α      in ANC's #10, #8, #5, ...

........................................................................
.............................. CYCLE   20 ..............................
........................................................................

 iter      E             dE          RMSdq      gap      omega  full diag
   1   -167.0713876 -0.167071E+03  0.560E-02    1.22       0.0  T
   2   -167.0711087  0.278829E-03  0.479E-02    1.24       1.0  T
   3   -167.0704919  0.616808E-03  0.653E-02    1.19       1.0  T
   4   -167.0714168 -0.924903E-03  0.511E-03    1.22       1.9  T
   5   -167.0714200 -0.322211E-05  0.167E-03    1.22       5.8  T
   6   -167.0714204 -0.360448E-06  0.753E-04    1.22      12.8  T
   7   -167.0714204 -0.326972E-07  0.422E-04    1.22      22.8  T
     SCC iter.                  ...        0 min,  0.091 sec
     gradient                   ...        0 min,  0.018 sec
 * total energy  :  -164.1631275 Eh     change       -0.9987166E-04 Eh
   gradient norm :     0.0036085 Eh/α   predicted    -0.7901268E-04 ( -20.89%)
   displ. norm   :     0.4192058 α      lambda       -0.1081658E-03
   maximum displ.:     0.2380644 α      in ANC's #10, #5, #8, ...
 * RMSD in coord.:     0.4852629 α      energy gain  -0.1321889E-01 Eh

generating ANC from exact Hessian ...
Using Lindh-Hessian (1995)
 Shifting diagonal of input Hessian by   1.014073649244060E-002
 Lowest  eigenvalues of input Hessian
    0.010000    0.000000    0.000000    0.000000    0.000000    0.000000
    0.000000    0.010218    0.010330    0.010379    0.010458    0.010511
    0.010878    0.011089    0.011252    0.011281    0.011463    0.011625
 Highest eigenvalues
    2.187987    2.188045    2.222839    2.222867    2.294631    2.357073
 

........................................................................
.............................. CYCLE   21 ..............................
........................................................................

 iter      E             dE          RMSdq      gap      omega  full diag
   1   -167.0723134 -0.167072E+03  0.481E-02    1.23       0.0  T
   2   -167.0721136  0.199810E-03  0.411E-02    1.25       1.0  T
   3   -167.0716479  0.465709E-03  0.561E-02    1.21       1.0  T
   4   -167.0723348 -0.686958E-03  0.435E-03    1.24       2.2  T
   5   -167.0723372 -0.238731E-05  0.136E-03    1.24       7.1  T
   6   -167.0723374 -0.219061E-06  0.666E-04    1.24      14.4  T
   7   -167.0723375 -0.334857E-07  0.338E-04    1.24      28.5  T
     SCC iter.                  ...        0 min,  0.090 sec
     gradient                   ...        0 min,  0.019 sec
 * total energy  :  -164.1632223 Eh     change       -0.9473890E-04 Eh
   gradient norm :     0.0037458 Eh/α   predicted     0.0000000E+00 (-100.00%)
   displ. norm   :     0.0493039 α      lambda       -0.3136550E-04
   maximum displ.:     0.0243866 α      in ANC's #6, #12, #5, ...

........................................................................
.............................. CYCLE   22 ..............................
........................................................................

 iter      E             dE          RMSdq      gap      omega  full diag
   1   -167.0727725 -0.167073E+03  0.925E-03    1.23       0.0  T
   2   -167.0727706  0.180929E-05  0.624E-03    1.23       1.5  T
   3   -167.0727427  0.279744E-04  0.116E-02    1.24       1.0  T
   4   -167.0727719 -0.292181E-04  0.240E-03    1.23       4.0  T
   5   -167.0727732 -0.130567E-05  0.493E-04    1.23      19.5  T
   6   -167.0727732 -0.313900E-07  0.205E-04    1.23      46.8  T
   7   -167.0727732 -0.478641E-08  0.854E-05    1.23     112.7  T
     SCC iter.                  ...        0 min,  0.091 sec
     gradient                   ...        0 min,  0.019 sec
 * total energy  :  -164.1632643 Eh     change       -0.4205324E-04 Eh
   gradient norm :     0.0018030 Eh/α   predicted    -0.2470232E-04 ( -41.26%)
   displ. norm   :     0.2708318 α      lambda       -0.1194812E-03
   maximum displ.:     0.1380972 α      in ANC's #6, #12, #5, ...

........................................................................
.............................. CYCLE   23 ..............................
........................................................................

 iter      E             dE          RMSdq      gap      omega  full diag
   1   -167.0729370 -0.167073E+03  0.424E-02    1.23       0.0  T
   2   -167.0729333  0.376104E-05  0.253E-02    1.23       1.0  T
   3   -167.0725724  0.360900E-03  0.393E-02    1.25       1.0  T
   4   -167.0729277 -0.355296E-03  0.761E-03    1.23       1.3  T
   5   -167.0729412 -0.135444E-04  0.155E-03    1.23       6.2  T
   6   -167.0729415 -0.296676E-06  0.666E-04    1.23      14.4  T
   7   -167.0729415 -0.393943E-07  0.331E-04    1.23      29.1  T
     SCC iter.                  ...        0 min,  0.090 sec
     gradient                   ...        0 min,  0.018 sec
 * total energy  :  -164.1633580 Eh     change       -0.9373729E-04 Eh
   gradient norm :     0.0044334 Eh/α   predicted    -0.6168945E-04 ( -34.19%)
   displ. norm   :     0.0880706 α      lambda       -0.4291634E-04
   maximum displ.:     0.0513194 α      in ANC's #6, #12, #17, ...

........................................................................
.............................. CYCLE   24 ..............................
........................................................................

 iter      E             dE          RMSdq      gap      omega  full diag
   1   -167.0726824 -0.167073E+03  0.110E-02    1.23       0.0  T
   2   -167.0726813  0.116009E-05  0.691E-03    1.23       1.4  T
   3   -167.0726323  0.489964E-04  0.144E-02    1.22       1.0  T
   4   -167.0726825 -0.502612E-04  0.801E-04    1.23      12.0  T
   5   -167.0726826 -0.119432E-06  0.218E-04    1.23      44.2  T
   6   -167.0726826 -0.396187E-08  0.132E-04    1.23      72.8  T
     SCC iter.                  ...        0 min,  0.078 sec
     gradient                   ...        0 min,  0.018 sec
 * total energy  :  -164.1633991 Eh     change       -0.4110217E-04 Eh
   gradient norm :     0.0037919 Eh/α   predicted    -0.2162472E-04 ( -47.39%)
   displ. norm   :     0.3133918 α      lambda       -0.1687157E-03
   maximum displ.:     0.1774260 α      in ANC's #6, #12, #17, ...

........................................................................
.............................. CYCLE   25 ..............................
........................................................................

 iter      E             dE          RMSdq      gap      omega  full diag
   1   -167.0715709 -0.167072E+03  0.385E-02    1.24       0.0  T
   2   -167.0715542  0.166753E-04  0.242E-02    1.24       1.0  T
   3   -167.0709630  0.591209E-03  0.504E-02    1.21       1.0  T
   4   -167.0715729 -0.609955E-03  0.253E-03    1.24       3.8  T
   5   -167.0715740 -0.109532E-05  0.537E-04    1.24      17.9  T
   6   -167.0715740 -0.193849E-07  0.338E-04    1.24      28.5  T
   7   -167.0715740 -0.367794E-08  0.212E-04    1.24      45.5  T
     SCC iter.                  ...        0 min,  0.091 sec
     gradient                   ...        0 min,  0.019 sec
 * total energy  :  -164.1635459 Eh     change       -0.1467831E-03 Eh
   gradient norm :     0.0019364 Eh/α   predicted    -0.9264353E-04 ( -36.88%)
   displ. norm   :     0.8534924 α      lambda       -0.2414185E-03
   maximum displ.:     0.4888498 α      in ANC's #6, #12, #17, ...

........................................................................
.............................. CYCLE   26 ..............................
........................................................................

 iter      E             dE          RMSdq      gap      omega  full diag
   1   -167.0668737 -0.167067E+03  0.101E-01    1.25       0.0  T
   2   -167.0668374  0.362634E-04  0.604E-02    1.26       1.0  T
   3   -167.0647071  0.213027E-02  0.953E-02    1.20       1.0  T
   4   -167.0668802 -0.217312E-02  0.533E-03    1.25       1.8  T
   5   -167.0668843 -0.409739E-05  0.156E-03    1.25       6.2  T
   6   -167.0668845 -0.177871E-06  0.109E-03    1.25       8.8  T
   7   -167.0668846 -0.671100E-07  0.614E-04    1.25      15.7  T
   8   -167.0668846 -0.398574E-07  0.201E-04    1.25      48.0  T
     SCC iter.                  ...        0 min,  0.102 sec
     gradient                   ...        0 min,  0.018 sec
 * total energy  :  -164.1638337 Eh     change       -0.2878086E-03 Eh
   gradient norm :     0.0072554 Eh/α   predicted    -0.1597891E-03 ( -44.48%)
   displ. norm   :     0.5131247 α      lambda       -0.2034793E-03
   maximum displ.:     0.3023764 α      in ANC's #6, #12, #3, ...

........................................................................
.............................. CYCLE   27 ..............................
........................................................................

 iter      E             dE          RMSdq      gap      omega  full diag
   1   -167.0657347 -0.167066E+03  0.573E-02    1.25       0.0  T
   2   -167.0657356 -0.902928E-06  0.336E-02    1.25       1.0  T
   3   -167.0657218  0.137097E-04  0.809E-03    1.25       1.2  T
   4   -167.0657277 -0.581129E-05  0.597E-03    1.25       1.6  T
   5   -167.0657361 -0.848641E-05  0.741E-04    1.25      13.0  T
   6   -167.0657362 -0.362285E-07  0.480E-04    1.25      20.0  T
   7   -167.0657362 -0.797993E-08  0.315E-04    1.25      30.6  T
     SCC iter.                  ...        0 min,  0.091 sec
     gradient                   ...        0 min,  0.018 sec
 * total energy  :  -164.1640134 Eh     change       -0.1796901E-03 Eh
   gradient norm :     0.0081225 Eh/α   predicted    -0.1285288E-03 ( -28.47%)
   displ. norm   :     0.4030519 α      lambda       -0.2392075E-03
   maximum displ.:     0.2451125 α      in ANC's #6, #12, #3, ...

........................................................................
.............................. CYCLE   28 ..............................
........................................................................

 iter      E             dE          RMSdq      gap      omega  full diag
   1   -167.0684007 -0.167068E+03  0.419E-02    1.25       0.0  T
   2   -167.0683944  0.626068E-05  0.253E-02    1.24       1.0  T
   3   -167.0680029  0.391515E-03  0.405E-02    1.27       1.0  T
   4   -167.0684001 -0.397169E-03  0.377E-03    1.25       2.6  T
   5   -167.0684029 -0.284633E-05  0.536E-04    1.25      18.0  T
   6   -167.0684029 -0.189186E-07  0.341E-04    1.25      28.2  T
   7   -167.0684029 -0.134733E-08  0.249E-04    1.25      38.6  T
     SCC iter.                  ...        0 min,  0.089 sec
     gradient                   ...        0 min,  0.018 sec
 * total energy  :  -164.1642311 Eh     change       -0.2177037E-03 Eh
   gradient norm :     0.0058769 Eh/α   predicted    -0.1390332E-03 ( -36.14%)
   displ. norm   :     0.4848002 α      lambda       -0.3457307E-03
   maximum displ.:     0.3050439 α      in ANC's #6, #12, #3, ...

........................................................................
.............................. CYCLE   29 ..............................
........................................................................

 iter      E             dE          RMSdq      gap      omega  full diag
   1   -167.0725845 -0.167073E+03  0.465E-02    1.24       0.0  T
   2   -167.0725596  0.248832E-04  0.294E-02    1.23       1.0  T
   3   -167.0717943  0.765242E-03  0.576E-02    1.27       1.0  T
   4   -167.0725866 -0.792252E-03  0.462E-03    1.24       2.1  T
   5   -167.0725903 -0.365208E-05  0.771E-04    1.24      12.5  T
   6   -167.0725903 -0.662437E-07  0.480E-04    1.24      20.0  T
   7   -167.0725903 -0.127285E-07  0.298E-04    1.24      32.3  T
     SCC iter.                  ...        0 min,  0.091 sec
     gradient                   ...        0 min,  0.019 sec
 * total energy  :  -164.1645184 Eh     change       -0.2873152E-03 Eh
   gradient norm :     0.0024153 Eh/α   predicted    -0.2134976E-03 ( -25.69%)
   displ. norm   :     0.4778265 α      lambda       -0.2856070E-03
   maximum displ.:     0.3082439 α      in ANC's #6, #12, #8, ...

........................................................................
.............................. CYCLE   30 ..............................
........................................................................

 iter      E             dE          RMSdq      gap      omega  full diag
   1   -167.0748028 -0.167075E+03  0.408E-02    1.23       0.0  T
   2   -167.0747927  0.100793E-04  0.249E-02    1.23       1.0  T
   3   -167.0743300  0.462733E-03  0.445E-02    1.25       1.0  T
   4   -167.0748030 -0.473001E-03  0.425E-03    1.23       2.3  T
   5   -167.0748061 -0.308827E-05  0.831E-04    1.23      11.6  T
   6   -167.0748061 -0.756762E-07  0.529E-04    1.23      18.2  T
   7   -167.0748062 -0.282919E-07  0.232E-04    1.23      41.5  T
     SCC iter.                  ...        0 min,  0.090 sec
     gradient                   ...        0 min,  0.018 sec
 * total energy  :  -164.1647543 Eh     change       -0.2358756E-03 Eh
   gradient norm :     0.0039972 Eh/α   predicted    -0.1754094E-03 ( -25.63%)
   displ. norm   :     0.4086177 α      lambda       -0.2292071E-03
   maximum displ.:     0.2653117 α      in ANC's #6, #8, #7, ...

........................................................................
.............................. CYCLE   31 ..............................
........................................................................

 iter      E             dE          RMSdq      gap      omega  full diag
   1   -167.0757148 -0.167076E+03  0.303E-02    1.23       0.0  T
   2   -167.0757156 -0.726317E-06  0.179E-02    1.23       1.0  T
   3   -167.0757083  0.730696E-05  0.670E-03    1.22       1.4  T
   4   -167.0757117 -0.341440E-05  0.435E-03    1.23       2.2  T
   5   -167.0757157 -0.404502E-05  0.120E-03    1.23       8.0  T
   6   -167.0757160 -0.299642E-06  0.450E-04    1.23      21.4  T
   7   -167.0757160 -0.227571E-07  0.169E-04    1.23      57.0  T
     SCC iter.                  ...        0 min,  0.089 sec
     gradient                   ...        0 min,  0.018 sec
 * total energy  :  -164.1649550 Eh     change       -0.2006343E-03 Eh
   gradient norm :     0.0054867 Eh/α   predicted    -0.1337389E-03 ( -33.34%)
   displ. norm   :     0.3909459 α      lambda       -0.2407928E-03
   maximum displ.:     0.2502671 α      in ANC's #6, #8, #7, ...

........................................................................
.............................. CYCLE   32 ..............................
........................................................................

 iter      E             dE          RMSdq      gap      omega  full diag
   1   -167.0756140 -0.167076E+03  0.282E-02    1.23       0.0  T
   2   -167.0755971  0.168871E-04  0.194E-02    1.23       1.0  T
   3   -167.0753317  0.265398E-03  0.351E-02    1.21       1.0  T
   4   -167.0756161 -0.284465E-03  0.280E-03    1.23       3.4  T
   5   -167.0756173 -0.110198E-05  0.114E-03    1.23       8.4  T
   6   -167.0756174 -0.196127E-06  0.433E-04    1.23      22.2  T
   7   -167.0756175 -0.183310E-07  0.191E-04    1.23      50.3  T
     SCC iter.                  ...        0 min,  0.092 sec
     gradient                   ...        0 min,  0.018 sec
 * total energy  :  -164.1651648 Eh     change       -0.2098878E-03 Eh
   gradient norm :     0.0051581 Eh/α   predicted    -0.1387983E-03 ( -33.87%)
   displ. norm   :     0.4064329 α      lambda       -0.2509550E-03
   maximum displ.:     0.2575288 α      in ANC's #6, #8, #13, ...

........................................................................
.............................. CYCLE   33 ..............................
........................................................................

 iter      E             dE          RMSdq      gap      omega  full diag
   1   -167.0742889 -0.167074E+03  0.340E-02    1.23       0.0  T
   2   -167.0742255  0.634338E-04  0.270E-02    1.25       1.0  T
   3   -167.0739865  0.238997E-03  0.378E-02    1.22       1.0  T
   4   -167.0742973 -0.310834E-03  0.297E-03    1.24       3.2  T
   5   -167.0742984 -0.108366E-05  0.125E-03    1.24       7.7  T
   6   -167.0742986 -0.221238E-06  0.492E-04    1.24      19.5  T
   7   -167.0742987 -0.181798E-07  0.247E-04    1.24      39.0  T
     SCC iter.                  ...        0 min,  0.091 sec
     gradient                   ...        0 min,  0.018 sec
 * total energy  :  -164.1653767 Eh     change       -0.2118366E-03 Eh
   gradient norm :     0.0032996 Eh/α   predicted    -0.1462049E-03 ( -30.98%)
   displ. norm   :     0.3927803 α      lambda       -0.2034827E-03
   maximum displ.:     0.2544087 α      in ANC's #6, #8, #13, ...

........................................................................
.............................. CYCLE   34 ..............................
........................................................................

 iter      E             dE          RMSdq      gap      omega  full diag
   1   -167.0724359 -0.167072E+03  0.369E-02    1.25       0.0  T
   2   -167.0723426  0.932500E-04  0.306E-02    1.26       1.0  T
   3   -167.0721123  0.230337E-03  0.398E-02    1.23       1.0  T
   4   -167.0724480 -0.335717E-03  0.274E-03    1.25       3.5  T
   5   -167.0724489 -0.950941E-06  0.982E-04    1.25       9.8  T
   6   -167.0724491 -0.109805E-06  0.513E-04    1.25      18.8  T
     SCC iter.                  ...        0 min,  0.077 sec
     gradient                   ...        0 min,  0.018 sec
 * total energy  :  -164.1655433 Eh     change       -0.1666368E-03 Eh
   gradient norm :     0.0017834 Eh/α   predicted    -0.1174401E-03 ( -29.52%)
   displ. norm   :     0.4686292 α      lambda       -0.1341636E-03
   maximum displ.:     0.3157330 α      in ANC's #6, #8, #13, ...

........................................................................
.............................. CYCLE   35 ..............................
........................................................................

 iter      E             dE          RMSdq      gap      omega  full diag
   1   -167.0707645 -0.167071E+03  0.480E-02    1.26       0.0  T
   2   -167.0706063  0.158212E-03  0.395E-02    1.28       1.0  T
   3   -167.0701961  0.410240E-03  0.528E-02    1.24       1.0  T
   4   -167.0707842 -0.588123E-03  0.351E-03    1.27       2.7  T
   5   -167.0707857 -0.146346E-05  0.134E-03    1.26       7.2  T
   6   -167.0707859 -0.214833E-06  0.645E-04    1.26      14.9  T
   7   -167.0707859 -0.310510E-07  0.332E-04    1.26      29.0  T
     SCC iter.                  ...        0 min,  0.090 sec
     gradient                   ...        0 min,  0.019 sec
 * total energy  :  -164.1657031 Eh     change       -0.1597972E-03 Eh
   gradient norm :     0.0030224 Eh/α   predicted    -0.7363095E-04 ( -53.92%)
   displ. norm   :     0.2029654 α      lambda       -0.9119111E-04
   maximum displ.:     0.1463384 α      in ANC's #6, #8, #5, ...

........................................................................
.............................. CYCLE   36 ..............................
........................................................................

 iter      E             dE          RMSdq      gap      omega  full diag
   1   -167.0710376 -0.167071E+03  0.217E-02    1.27       0.0  T
   2   -167.0710142  0.233924E-04  0.165E-02    1.28       1.0  T
   3   -167.0708868  0.127456E-03  0.265E-02    1.26       1.0  T
   4   -167.0710406 -0.153834E-03  0.117E-03    1.27       8.2  T
   5   -167.0710408 -0.166122E-06  0.419E-04    1.27      23.0  T
   6   -167.0710408 -0.158810E-07  0.249E-04    1.27      38.7  T
     SCC iter.                  ...        0 min,  0.078 sec
     gradient                   ...        0 min,  0.017 sec
 * total energy  :  -164.1657895 Eh     change       -0.8639190E-04 Eh
   gradient norm :     0.0030928 Eh/α   predicted    -0.4747502E-04 ( -45.05%)
   displ. norm   :     0.2529998 α      lambda       -0.1406820E-03
   maximum displ.:     0.1815056 α      in ANC's #6, #8, #20, ...

........................................................................
.............................. CYCLE   37 ..............................
........................................................................

 iter      E             dE          RMSdq      gap      omega  full diag
   1   -167.0719347 -0.167072E+03  0.288E-02    1.27       0.0  T
   2   -167.0718961  0.386183E-04  0.215E-02    1.28       1.0  T
   3   -167.0716556  0.240547E-03  0.360E-02    1.26       1.0  T
   4   -167.0719395 -0.283912E-03  0.186E-03    1.28       5.2  T
   5   -167.0719399 -0.388517E-06  0.774E-04    1.28      12.4  T
   6   -167.0719399 -0.787265E-07  0.326E-04    1.28      29.6  T
     SCC iter.                  ...        0 min,  0.077 sec
     gradient                   ...        0 min,  0.018 sec
 * total energy  :  -164.1659186 Eh     change       -0.1291268E-03 Eh
   gradient norm :     0.0024987 Eh/α   predicted    -0.7484768E-04 ( -42.04%)
   displ. norm   :     0.3614857 α      lambda       -0.1893657E-03
   maximum displ.:     0.2569582 α      in ANC's #6, #8, #20, ...

........................................................................
.............................. CYCLE   38 ..............................
........................................................................

 iter      E             dE          RMSdq      gap      omega  full diag
   1   -167.0723295 -0.167072E+03  0.408E-02    1.28       0.0  T
   2   -167.0722436  0.859026E-04  0.311E-02    1.29       1.0  T
   3   -167.0717977  0.445848E-03  0.500E-02    1.26       1.0  T
   4   -167.0723394 -0.541719E-03  0.313E-03    1.28       3.1  T
   5   -167.0723406 -0.115898E-05  0.134E-03    1.28       7.2  T
   6   -167.0723408 -0.255716E-06  0.530E-04    1.28      18.2  T
   7   -167.0723409 -0.279894E-07  0.245E-04    1.28      39.3  T
     SCC iter.                  ...        0 min,  0.090 sec
     gradient                   ...        0 min,  0.018 sec
 * total energy  :  -164.1660843 Eh     change       -0.1656294E-03 Eh
   gradient norm :     0.0017661 Eh/α   predicted    -0.1070574E-03 ( -35.36%)
   displ. norm   :     0.5854987 α      lambda       -0.1672514E-03
   maximum displ.:     0.4206361 α      in ANC's #6, #8, #20, ...

........................................................................
.............................. CYCLE   39 ..............................
........................................................................

 iter      E             dE          RMSdq      gap      omega  full diag
   1   -167.0719712 -0.167072E+03  0.625E-02    1.29       0.0  T
   2   -167.0717378  0.233436E-03  0.492E-02    1.32       1.0  T
   3   -167.0708472  0.890594E-03  0.737E-02    1.26       1.0  T
   4   -167.0719959 -0.114877E-02  0.578E-03    1.30       1.7  T
   5   -167.0720006 -0.471299E-05  0.211E-03    1.30       4.6  T
   6   -167.0720013 -0.625249E-06  0.110E-03    1.30       8.7  T
   7   -167.0720014 -0.158492E-06  0.457E-04    1.30      21.1  T
   8   -167.0720014 -0.287136E-08  0.238E-04    1.30      40.4  T
     SCC iter.                  ...        0 min,  0.102 sec
     gradient                   ...        0 min,  0.017 sec
 * total energy  :  -164.1662834 Eh     change       -0.1991475E-03 Eh
   gradient norm :     0.0022245 Eh/α   predicted    -0.9636897E-04 ( -51.61%)
   displ. norm   :     0.2607283 α      lambda       -0.9368385E-04
   maximum displ.:     0.1934920 α      in ANC's #6, #8, #5, ...

........................................................................
.............................. CYCLE   40 ..............................
........................................................................

 iter      E             dE          RMSdq      gap      omega  full diag
   1   -167.0726463 -0.167073E+03  0.245E-02    1.30       0.0  T
   2   -167.0726080  0.383189E-04  0.197E-02    1.31       1.0  T
   3   -167.0724720  0.135937E-03  0.289E-02    1.29       1.0  T
   4   -167.0726510 -0.179026E-03  0.164E-03    1.30       5.9  T
   5   -167.0726513 -0.244265E-06  0.874E-04    1.30      11.0  T
   6   -167.0726514 -0.107193E-06  0.333E-04    1.30      28.9  T
     SCC iter.                  ...        0 min,  0.077 sec
     gradient                   ...        0 min,  0.018 sec
 * total energy  :  -164.1663719 Eh     change       -0.8845598E-04 Eh
   gradient norm :     0.0021473 Eh/α   predicted    -0.5002632E-04 ( -43.44%)
   displ. norm   :     0.2685497 α      lambda       -0.1141317E-03
   maximum displ.:     0.1978452 α      in ANC's #6, #8, #5, ...

........................................................................
.............................. CYCLE   41 ..............................
........................................................................

 iter      E             dE          RMSdq      gap      omega  full diag
   1   -167.0736909 -0.167074E+03  0.242E-02    1.30       0.0  T
   2   -167.0736643  0.266061E-04  0.183E-02    1.31       1.0  T
   3   -167.0734912  0.173027E-03  0.303E-02    1.29       1.0  T
   4   -167.0736944 -0.203163E-03  0.156E-03    1.31       6.2  T
   5   -167.0736946 -0.218465E-06  0.719E-04    1.31      13.4  T
   6   -167.0736947 -0.631797E-07  0.385E-04    1.31      25.0  T
     SCC iter.                  ...        0 min,  0.077 sec
     gradient                   ...        0 min,  0.019 sec
 * total energy  :  -164.1664812 Eh     change       -0.1093322E-03 Eh
   gradient norm :     0.0017942 Eh/α   predicted    -0.6118532E-04 ( -44.04%)
   displ. norm   :     0.5703534 α      lambda       -0.1722539E-03
   maximum displ.:     0.4113603 α      in ANC's #6, #5, #8, ...

........................................................................
.............................. CYCLE   42 ..............................
........................................................................

 iter      E             dE          RMSdq      gap      omega  full diag
   1   -167.0744356 -0.167074E+03  0.526E-02    1.31       0.0  T
   2   -167.0743670  0.685745E-04  0.361E-02    1.32       1.0  T
   3   -167.0734023  0.964676E-03  0.678E-02    1.28       1.0  T
   4   -167.0744446 -0.104225E-02  0.363E-03    1.31       2.7  T
   5   -167.0744461 -0.156840E-05  0.112E-03    1.31       8.6  T
   6   -167.0744463 -0.223025E-06  0.439E-04    1.31      21.9  T
   7   -167.0744463  0.748832E-08  0.369E-04    1.31      26.1  T
     SCC iter.                  ...        0 min,  0.092 sec
     gradient                   ...        0 min,  0.018 sec
 * total energy  :  -164.1667178 Eh     change       -0.2365678E-03 Eh
   gradient norm :     0.0017994 Eh/α   predicted    -0.9858202E-04 ( -58.33%)
   displ. norm   :     0.7135204 α      lambda       -0.2015596E-03
   maximum displ.:     0.5111014 α      in ANC's #6, #5, #8, ...
 * RMSD in coord.:     0.7198127 α      energy gain  -0.3590252E-02 Eh

generating ANC from exact Hessian ...
Using Lindh-Hessian (1995)
 Shifting diagonal of input Hessian by   1.010597595865282E-002
 Lowest  eigenvalues of input Hessian
    0.010000    0.000000    0.000000    0.000000    0.000000    0.000000
    0.000000    0.010178    0.010286    0.010302    0.010381    0.010412
    0.010754    0.010934    0.011005    0.011172    0.011373    0.011487
 Highest eigenvalues
    2.188149    2.188608    2.224085    2.224304    2.301411    2.363438
 

........................................................................
.............................. CYCLE   43 ..............................
........................................................................

 iter      E             dE          RMSdq      gap      omega  full diag
   1   -167.0738067 -0.167074E+03  0.652E-02    1.31       0.0  T
   2   -167.0737487  0.579548E-04  0.420E-02    1.32       1.0  T
   3   -167.0723222  0.142658E-02  0.807E-02    1.27       1.0  T
   4   -167.0738132 -0.149108E-02  0.504E-03    1.31       1.9  T
   5   -167.0738156 -0.238980E-05  0.276E-03    1.31       3.5  T
   6   -167.0738168 -0.120353E-05  0.968E-04    1.31       9.9  T
   7   -167.0738169 -0.106932E-06  0.387E-04    1.32      24.8  T
   8   -167.0738169 -0.519574E-08  0.142E-04    1.32      67.9  T
     SCC iter.                  ...        0 min,  0.102 sec
     gradient                   ...        0 min,  0.018 sec
 * total energy  :  -164.1669978 Eh     change       -0.2800475E-03 Eh
   gradient norm :     0.0024720 Eh/α   predicted     0.0000000E+00 (-100.00%)
   displ. norm   :     0.0581084 α      lambda       -0.5054846E-04
   maximum displ.:     0.0369861 α      in ANC's #6, #20, #5, ...

........................................................................
.............................. CYCLE   44 ..............................
........................................................................

 iter      E             dE          RMSdq      gap      omega  full diag
   1   -167.0744362 -0.167074E+03  0.814E-03    1.31       0.0  T
   2   -167.0744348  0.132961E-05  0.552E-03    1.31       1.7  T
   3   -167.0744104  0.244306E-04  0.106E-02    1.32       1.0  T
   4   -167.0744363 -0.258967E-04  0.950E-04    1.31      10.1  T
   5   -167.0744364 -0.936882E-07  0.572E-04    1.31      16.8  T
   6   -167.0744364 -0.500993E-07  0.106E-04    1.31      90.5  T
     SCC iter.                  ...        0 min,  0.077 sec
     gradient                   ...        0 min,  0.018 sec
 * total energy  :  -164.1670437 Eh     change       -0.4586302E-04 Eh
   gradient norm :     0.0014284 Eh/α   predicted    -0.2562171E-04 ( -44.13%)
   displ. norm   :     0.3317366 α      lambda       -0.1511433E-03
   maximum displ.:     0.1978874 α      in ANC's #6, #20, #5, ...

........................................................................
.............................. CYCLE   45 ..............................
........................................................................

 iter      E             dE          RMSdq      gap      omega  full diag
   1   -167.0749114 -0.167075E+03  0.455E-02    1.30       0.0  T
   2   -167.0748535  0.578547E-04  0.318E-02    1.29       1.0  T
   3   -167.0740932  0.760349E-03  0.603E-02    1.33       1.0  T
   4   -167.0749182 -0.825028E-03  0.440E-03    1.30       2.2  T
   5   -167.0749204 -0.217418E-05  0.260E-03    1.30       3.7  T
   6   -167.0749214 -0.100332E-05  0.590E-04    1.30      16.3  T
   7   -167.0749214 -0.275323E-07  0.294E-04    1.30      32.7  T
   8   -167.0749214 -0.202704E-09  0.116E-04    1.30      82.8  T
     SCC iter.                  ...        0 min,  0.102 sec
     gradient                   ...        0 min,  0.019 sec
 * total energy  :  -164.1671856 Eh     change       -0.1419394E-03 Eh
   gradient norm :     0.0034505 Eh/α   predicted    -0.7927606E-04 ( -44.15%)
   displ. norm   :     0.1447204 α      lambda       -0.6519101E-04
   maximum displ.:     0.0929785 α      in ANC's #6, #5, #20, ...

........................................................................
.............................. CYCLE   46 ..............................
........................................................................

 iter      E             dE          RMSdq      gap      omega  full diag
   1   -167.0742701 -0.167074E+03  0.192E-02    1.29       0.0  T
   2   -167.0742557  0.144083E-04  0.138E-02    1.29       1.0  T
   3   -167.0741332  0.122502E-03  0.251E-02    1.30       1.0  T
   4   -167.0742719 -0.138690E-03  0.142E-03    1.29       6.8  T
   5   -167.0742721 -0.237987E-06  0.743E-04    1.29      12.9  T
   6   -167.0742722 -0.814428E-07  0.184E-04    1.29      52.3  T
     SCC iter.                  ...        0 min,  0.076 sec
     gradient                   ...        0 min,  0.018 sec
 * total energy  :  -164.1672460 Eh     change       -0.6036146E-04 Eh
   gradient norm :     0.0032821 Eh/α   predicted    -0.3328503E-04 ( -44.86%)
   displ. norm   :     0.2585630 α      lambda       -0.1314973E-03
   maximum displ.:     0.1612281 α      in ANC's #6, #5, #7, ...

........................................................................
.............................. CYCLE   47 ..............................
........................................................................

 iter      E             dE          RMSdq      gap      omega  full diag
   1   -167.0730218 -0.167073E+03  0.342E-02    1.29       0.0  T
   2   -167.0729850  0.367398E-04  0.236E-02    1.28       1.0  T
   3   -167.0725532  0.431813E-03  0.462E-02    1.31       1.0  T
   4   -167.0730265 -0.473252E-03  0.221E-03    1.28       4.4  T
   5   -167.0730271 -0.673736E-06  0.860E-04    1.28      11.2  T
   6   -167.0730272 -0.869135E-07  0.432E-04    1.28      22.3  T
     SCC iter.                  ...        0 min,  0.077 sec
     gradient                   ...        0 min,  0.018 sec
 * total energy  :  -164.1673633 Eh     change       -0.1173505E-03 Eh
   gradient norm :     0.0021471 Eh/α   predicted    -0.7015327E-04 ( -40.22%)
   displ. norm   :     0.3987371 α      lambda       -0.1792610E-03
   maximum displ.:     0.2480780 α      in ANC's #6, #5, #7, ...

........................................................................
.............................. CYCLE   48 ..............................
........................................................................

 iter      E             dE          RMSdq      gap      omega  full diag
   1   -167.0715813 -0.167072E+03  0.508E-02    1.28       0.0  T
   2   -167.0715259  0.554683E-04  0.334E-02    1.26       1.0  T
   3   -167.0704876  0.103828E-02  0.698E-02    1.31       1.0  T
   4   -167.0715883 -0.110072E-02  0.317E-03    1.27       3.0  T
   5   -167.0715898 -0.146947E-05  0.985E-04    1.27       9.8  T
   6   -167.0715899 -0.833957E-07  0.691E-04    1.27      13.9  T
   7   -167.0715899 -0.558874E-07  0.277E-04    1.27      34.7  T
     SCC iter.                  ...        0 min,  0.090 sec
     gradient                   ...        0 min,  0.018 sec
 * total energy  :  -164.1675171 Eh     change       -0.1537320E-03 Eh
   gradient norm :     0.0021958 Eh/α   predicted    -0.1038811E-03 ( -32.43%)
   displ. norm   :     0.4308494 α      lambda       -0.1637645E-03
   maximum displ.:     0.2702209 α      in ANC's #6, #5, #7, ...

........................................................................
.............................. CYCLE   49 ..............................
........................................................................

 iter      E             dE          RMSdq      gap      omega  full diag
   1   -167.0709735 -0.167071E+03  0.520E-02    1.27       0.0  T
   2   -167.0709374  0.361620E-04  0.328E-02    1.26       1.0  T
   3   -167.0698705  0.106684E-02  0.694E-02    1.30       1.0  T
   4   -167.0709781 -0.110762E-02  0.284E-03    1.26       3.4  T
   5   -167.0709793 -0.116474E-05  0.776E-04    1.26      12.4  T
   6   -167.0709794 -0.664041E-07  0.466E-04    1.26      20.7  T
   7   -167.0709794 -0.698694E-08  0.343E-04    1.26      28.0  T
     SCC iter.                  ...        0 min,  0.091 sec
     gradient                   ...        0 min,  0.018 sec
 * total energy  :  -164.1676599 Eh     change       -0.1428239E-03 Eh
   gradient norm :     0.0030690 Eh/α   predicted    -0.9708365E-04 ( -32.03%)
   displ. norm   :     0.4157318 α      lambda       -0.1523110E-03
   maximum displ.:     0.2631174 α      in ANC's #6, #5, #7, ...

........................................................................
.............................. CYCLE   50 ..............................
........................................................................

 iter      E             dE          RMSdq      gap      omega  full diag
   1   -167.0716319 -0.167072E+03  0.464E-02    1.26       0.0  T
   2   -167.0716197  0.122057E-04  0.281E-02    1.25       1.0  T
   3   -167.0709969  0.622802E-03  0.522E-02    1.28       1.0  T
   4   -167.0716334 -0.636519E-03  0.238E-03    1.26       4.0  T
   5   -167.0716343 -0.838845E-06  0.667E-04    1.26      14.4  T
   6   -167.0716343 -0.318642E-07  0.477E-04    1.26      20.2  T
     SCC iter.                  ...        0 min,  0.078 sec
     gradient                   ...        0 min,  0.018 sec
 * total energy  :  -164.1677985 Eh     change       -0.1386408E-03 Eh
   gradient norm :     0.0033055 Eh/α   predicted    -0.8932207E-04 ( -35.57%)
   displ. norm   :     0.4503695 α      lambda       -0.1755220E-03
   maximum displ.:     0.2864712 α      in ANC's #6, #5, #2, ...

........................................................................
.............................. CYCLE   51 ..............................
........................................................................

 iter      E             dE          RMSdq      gap      omega  full diag
   1   -167.0731541 -0.167073E+03  0.457E-02    1.25       0.0  T
   2   -167.0731533  0.813694E-06  0.269E-02    1.25       1.0  T
   3   -167.0730575  0.957571E-04  0.204E-02    1.26       1.0  T
   4   -167.0731529 -0.953637E-04  0.330E-03    1.25       2.9  T
   5   -167.0731549 -0.201906E-05  0.922E-04    1.25      10.4  T
   6   -167.0731550 -0.689452E-07  0.563E-04    1.25      17.1  T
   7   -167.0731550 -0.386920E-07  0.203E-04    1.25      47.3  T
     SCC iter.                  ...        0 min,  0.089 sec
     gradient                   ...        0 min,  0.018 sec
 * total energy  :  -164.1679611 Eh     change       -0.1625902E-03 Eh
   gradient norm :     0.0029785 Eh/α   predicted    -0.1055667E-03 ( -35.07%)
   displ. norm   :     0.5379055 α      lambda       -0.2192079E-03
   maximum displ.:     0.3428106 α      in ANC's #6, #5, #2, ...

........................................................................
.............................. CYCLE   52 ..............................
........................................................................

 iter      E             dE          RMSdq      gap      omega  full diag
   1   -167.0746322 -0.167075E+03  0.497E-02    1.25       0.0  T
   2   -167.0746294  0.278410E-05  0.295E-02    1.25       1.0  T
   3   -167.0744056  0.223812E-03  0.316E-02    1.23       1.0  T
   4   -167.0746321 -0.226471E-03  0.284E-03    1.25       3.4  T
   5   -167.0746332 -0.110164E-05  0.149E-03    1.25       6.5  T
   6   -167.0746335 -0.319961E-06  0.532E-04    1.25      18.1  T
   7   -167.0746335 -0.227702E-07  0.236E-04    1.25      40.8  T
     SCC iter.                  ...        0 min,  0.089 sec
     gradient                   ...        0 min,  0.018 sec
 * total energy  :  -164.1681646 Eh     change       -0.2035313E-03 Eh
   gradient norm :     0.0024957 Eh/α   predicted    -0.1413173E-03 ( -30.57%)
   displ. norm   :     0.6171455 α      lambda       -0.2529698E-03
   maximum displ.:     0.3939439 α      in ANC's #6, #5, #2, ...

........................................................................
.............................. CYCLE   53 ..............................
........................................................................

 iter      E             dE          RMSdq      gap      omega  full diag
   1   -167.0753698 -0.167075E+03  0.530E-02    1.25       0.0  T
   2   -167.0753426  0.272129E-04  0.332E-02    1.25       1.0  T
   3   -167.0744352  0.907383E-03  0.642E-02    1.22       1.0  T
   4   -167.0753730 -0.937857E-03  0.312E-03    1.25       3.1  T
   5   -167.0753739 -0.851198E-06  0.175E-03    1.25       5.5  T
   6   -167.0753743 -0.446352E-06  0.660E-04    1.25      14.6  T
   7   -167.0753744 -0.419471E-07  0.288E-04    1.25      33.4  T
     SCC iter.                  ...        0 min,  0.090 sec
     gradient                   ...        0 min,  0.018 sec
 * total energy  :  -164.1683973 Eh     change       -0.2326702E-03 Eh
   gradient norm :     0.0021453 Eh/α   predicted    -0.1746593E-03 ( -24.93%)
   displ. norm   :     0.6558795 α      lambda       -0.2566749E-03
   maximum displ.:     0.4200945 α      in ANC's #6, #5, #2, ...

........................................................................
.............................. CYCLE   54 ..............................
........................................................................

 iter      E             dE          RMSdq      gap      omega  full diag
   1   -167.0751688 -0.167075E+03  0.535E-02    1.25       0.0  T
   2   -167.0750971  0.716618E-04  0.363E-02    1.26       1.0  T
   3   -167.0741181  0.978975E-03  0.693E-02    1.22       1.0  T
   4   -167.0751769 -0.105879E-02  0.370E-03    1.25       2.6  T
   5   -167.0751787 -0.180809E-05  0.140E-03    1.25       6.9  T
   6   -167.0751790 -0.224129E-06  0.867E-04    1.25      11.1  T
[...]
eigval :     1273.31  1276.18  1287.81  1288.27  1288.30  1290.76
eigval :     1291.16  1296.81  1298.90  1307.19  1313.51  1313.87
eigval :     1315.74  1323.02  1323.30  1328.06  1333.21  1348.70
eigval :     1348.76  1354.22  1355.71  1357.48  1360.53  1364.82
eigval :     1370.59  1373.68  1406.95  1407.26  1409.30  1411.14
eigval :     1416.61  1417.58  1417.81  1420.57  1423.84  1427.28
eigval :     1430.31  1461.13  1464.28  1464.44  1466.74  1476.25
eigval :     1481.71  1481.96  1487.83  1491.14  1493.08  1493.48
eigval :     1495.34  1495.51  1496.38  1499.88  1503.45  1538.13
eigval :     1538.16  1541.61  1553.86  1569.63  1569.66  1582.15
eigval :     1582.62  1585.85  1585.88  1587.85  1587.91  1603.15
eigval :     1605.35  1645.81  1653.96  2931.25  2950.11  2954.03
eigval :     2958.79  2962.53  2970.55  2974.26  2979.19  2985.04
eigval :     3000.73  3024.04  3027.45  3034.01  3076.92  3077.18
eigval :     3077.44  3077.74  3081.24  3081.26  3083.00  3083.25
eigval :     3083.39  3083.85  3084.22  3084.64  3087.22  3087.50
eigval :     3088.79  3088.85  3091.38  3091.59  3092.63  3092.78
eigval :     3096.78  3097.11  3097.93  3097.98  3098.35  3098.43
eigval :     3098.57  3099.97  3100.23  3101.50  3108.19  3108.42
 reduced masses (amu)
   1: 11.50   2: 11.58   3: 11.56   4: 11.50   5: 11.49   6: 11.67   7: 11.45   8: 10.23
   9: 10.30  10: 10.80  11: 10.80  12: 11.03  13: 10.45  14: 11.17  15: 11.27  16:  8.89
  17: 10.64  18: 11.85  19:  9.11  20: 10.10  21:  9.82  22: 12.24  23: 10.28  24: 10.83
  25: 11.22  26: 11.40  27: 10.07  28: 10.53  29: 10.76  30: 10.30  31: 11.30  32: 10.23
  33: 11.10  34: 12.13  35:  9.80  36:  9.85  37:  9.90  38: 11.09  39: 11.43  40: 11.05
  41: 11.01  42: 10.97  43: 10.67  44:  3.70  45: 10.43  46: 10.88  47:  7.94  48: 10.69
  49: 10.25  50: 10.25  51:  9.91  52: 10.54  53:  7.86  54: 11.38  55: 11.76  56: 11.79
  57: 12.01  58: 11.48  59:  9.76  60: 11.62  61:  9.63  62:  9.24  63:  9.35  64:  9.61
  65:  9.61  66: 10.43  67: 10.93  68: 11.06  69: 10.42  70: 10.26  71: 10.29  72: 10.47
  73: 10.51  74: 11.01  75: 11.15  76: 11.31  77:  9.74  78:  9.73  79: 10.74  80: 10.86
  81: 10.90  82:  9.57  83:  9.82  84:  9.97  85:  9.94  86: 10.74  87: 10.66  88:  9.21
  89: 11.19  90: 11.11  91: 12.26  92: 11.07  93: 11.04  94: 11.31  95: 11.56  96: 11.66
  97: 11.28  98: 11.28  99: 12.07 100: 12.11 101: 11.45 102: 11.44 103: 11.48 104: 11.31
 105: 11.26 106: 11.40 107: 11.31 108: 11.38 109: 11.55 110: 11.43 111: 11.44 112: 11.64
 113: 10.94 114: 10.83 115: 11.14 116: 10.76 117:  3.52 118:  3.49 119:  2.94 120:  3.93
 121:  3.91 122:  4.17 123:  4.86 124:  4.87 125:  5.52 126:  5.43 127:  3.38 128:  3.39
 129:  8.13 130:  7.02 131:  3.85 132:  3.62 133:  3.50 134:  5.02 135:  3.56 136:  4.09
 137:  8.39 138:  5.36 139: 11.72 140: 11.71 141:  3.97 142:  3.93 143:  3.93 144:  3.96
 145:  2.96 146:  2.96 147:  3.51 148:  3.46 149:  3.35 150:  3.62 151:  4.95 152:  6.46
 153:  5.32 154:  7.93 155:  3.38 156:  7.27 157:  4.44 158:  4.62 159:  4.27 160:  9.28
 161: 10.53 162:  7.00 163:  8.64 164:  8.87 165: 10.88 166: 10.71 167:  7.47 168:  7.09
 169:  7.25 170:  7.48 171:  5.79 172:  5.79 173:  6.69 174:  6.47 175:  6.47 176:  9.12
 177:  9.62 178:  7.65 179:  7.64 180:  8.22 181:  7.42 182:  3.01 183:  5.76 184:  5.76
 185:  4.08 186:  4.26 187:  4.20 188:  4.66 189:  7.87 190:  3.07 191:  2.96 192:  2.00
 193:  2.00 194:  2.49 195:  2.66 196:  4.22 197:  2.79 198:  4.46 199:  3.99 200:  4.83
 201:  5.86 202:  6.61 203:  7.50 204:  6.47 205:  6.44 206:  4.56 207:  3.70 208:  3.72
 209:  5.35 210:  3.48 211:  3.55 212:  2.96 213:  2.77 214:  7.75 215:  7.77 216:  7.48
 217:  7.46 218:  8.39 219:  8.59 220:  3.55 221: 10.48 222: 10.41 223:  3.29 224: 11.16
 225: 11.13 226: 11.63 227:  4.53 228: 11.72 229: 11.72 230: 11.27 231: 11.60 232:  9.78
 233:  9.67 234: 10.68 235:  4.92 236:  5.24 237: 10.39 238: 10.45 239:  7.32 240:  6.05
 241:  9.94 242:  8.95 243:  8.92 244: 10.35 245: 10.70 246: 10.61 247:  2.01 248:  9.84
 249: 10.16 250: 10.15 251: 10.22 252:  2.17 253: 10.37 254: 10.37 255:  2.05 256: 11.34
 257: 11.11 258: 10.24 259:  3.03 260:  9.40 261:  1.88 262:  1.54 263:  1.66 264: 11.61
 265: 11.61 266: 11.35 267: 11.44 268: 11.58 269: 11.58 270: 11.57 271: 11.57 272: 11.66
 273: 11.66 274: 11.55 275: 11.53 276: 11.67 277: 11.68 278: 13.16 279: 13.05 280:  1.74
 281:  1.94 282:  1.89 283:  1.71 284:  1.79 285:  1.59 286:  1.55 287:  1.82 288:  1.58
 289:  1.68 290:  1.94 291:  1.93 292:  1.28 293:  1.76 294:  1.76 295:  1.76 296:  1.76
 297:  1.80 298:  1.81 299:  1.81 300:  1.81 301:  1.79 302:  1.81 303:  1.81 304:  1.79
 305:  1.79 306:  1.79 307:  1.79 308:  1.79 309:  1.87 310:  1.87 311:  1.86 312:  1.86
 313:  1.90 314:  1.90 315:  1.87 316:  1.89 317:  1.88 318:  1.89 319:  1.89 320:  1.88
 321:  1.88 322:  1.87 323:  1.85 324:  1.85
 IR intensities (km·mol⁻¹)
   1:  0.48   2:  0.27   3:  0.96   4:  7.17   5:  1.00   6:  1.50   7:  6.91   8:  0.84
   9:  1.56  10:  4.21  11:  3.51  12:  5.54  13:  0.26  14:  0.42  15:  4.34  16:  1.68
  17: 11.89  18:  0.76  19: 13.96  20: 26.89  21:  2.31  22: 57.61  23: 64.39  24: 31.15
  25:  5.27  26:  6.86  27:100.25  28:  1.04  29:  3.68  30: 40.29  31: 26.82  32:  8.01
  33:  7.44  34:  9.87  35: 93.42  36: 16.37  37:  0.55  38: 14.64  39: 10.81  40: 25.37
  41:  5.12  42:  0.74  43:  0.56  44:  2.97  45: 10.12  46:  4.10  47: 10.15  48: 53.90
  49:  5.44  50:  9.91  51:  4.79  52:  4.36  53: 12.54  54: 19.29  55: 40.06  56: 35.73
  57:  2.08  58: 42.15  59: 95.51  60: 46.83  61: 29.01  62:114.82  63: 21.06  64: 13.90
  65: 25.86  66:  5.54  67:  2.15  68:  3.78  69: 26.58  70:  0.62  71: 17.89  72: 36.47
  73: 24.83  74: 65.98  75: 25.87  76: 24.57  77:  5.21  78:  4.57  79:110.16  80:  7.78
  81:  2.62  82: 20.10  83: 44.95  84: 19.89  85:  2.68  86:  2.02  87:  3.00  88: 22.72
  89:  1.19  90:  0.71  91:  6.48  92:  0.95  93:  0.15  94:  4.21  95:  0.14  96:110.53
  97:  6.30  98:  1.55  99:  0.18 100: 47.76 101: 41.36 102:  2.74 103:  8.52 104:  8.62
 105:  4.39 106: 56.05 107: 93.89 108:  6.62 109:  0.94 110: 38.80 111: 15.45 112:  5.69
 113: 85.03 114:  4.16 115: 56.08 116: 56.29 117: 77.71 118: 89.04 119: 45.05 120:  4.51
 121:  9.83 122: 53.24 123: 47.24 124: 40.22 125: 19.42 126: 18.46 127: 19.48 128:  6.56
 129: 10.96 130: 30.13 131:351.91 132:417.57 133:  2.25 134:  9.36 135: 39.19 136:  5.59
 137:  2.66 138:  1.47 139: 10.83 140:  7.61 141: 24.63 142:  3.54 143:  6.38 144: 79.86
 145: 33.85 146:  5.81 147:  1.72 148:199.58 149:110.68 150:  2.71 151: 90.17 152: 43.65
 153: 61.02 154: 27.67 155:  7.45 156:  3.51 157:  0.19 158: 11.26 159:  3.02 160: 23.03
 161: 28.91 162:311.30 163:  1.16 164: 12.13 165: 51.66 166:  5.40 167: 20.39 168: 31.53
 169: 71.07 170: 12.18 171: 26.93 172: 16.30 173: 76.14 174:177.48 175:216.58 176: 23.98
 177: 20.10 178:563.52 179:165.37 180:109.96 181:145.97 182: 32.69 183: 76.16 184: 80.32
 185: 90.03 186: 24.61 187: 31.93 188: 41.95 189: 16.75 190: 55.94 191: 34.57 192:276.68
 193:168.70 194: 47.09 195: 78.80 196:549.70 197:110.40 198:346.07 199:527.04 200:273.07
 201: 49.28 202: 59.34 203: 55.27 204:217.99 205:118.93 206:  6.18 207:  8.33 208:  0.38
 209:459.14 210: 51.33 211: 12.50 212:  7.83 213: 41.15 214: 82.54 215: 90.81 216: 55.12
 217: 75.50 218:678.20 219: 18.74 220:309.71 221:  1.72 222:  0.65 223:  8.62 224:  0.71
 225:  1.92 226:919.48 227:220.52 228:  4.05 229:  1.07 230:****** 231:181.72 232:******
 233:512.73 234:507.98 235: 29.47 236:251.02 237:253.17 238: 10.80 239:****** 240:150.07
 241:****** 242: 21.91 243: 28.47 244:117.87 245:  3.28 246:179.07 247: 16.04 248:138.95
 249:510.63 250: 48.16 251:****** 252:  6.53 253:266.43 254: 50.11 255: 73.19 256:  3.96
 257:  3.57 258:105.11 259:  0.81 260:281.73 261:  7.88 262:  6.89 263: 11.74 264:  3.60
 265:  4.37 266:****** 267:232.81 268:  9.92 269:  5.97 270:180.84 271: 34.04 272:  8.61
 273:  6.10 274:383.36 275:381.47 276:****** 277:176.81 278:903.04 279:****** 280:135.13
 281: 24.86 282: 18.69 283: 23.07 284: 42.78 285: 49.85 286: 51.46 287:133.24 288:141.10
 289: 82.10 290: 53.69 291: 85.49 292:114.79 293: 12.46 294:  2.90 295:  4.64 296:  2.40
 297: 39.23 298: 26.24 299:114.99 300: 81.48 301: 20.52 302: 19.85 303:  5.66 304: 26.50
 305:  2.02 306:  3.42 307: 16.14 308: 78.96 309: 26.04 310: 20.94 311:460.71 312:531.00
 313:273.26 314:211.59 315: 12.06 316: 91.36 317:165.02 318:295.34 319:715.97 320: 80.55
 321:240.14 322: 20.42 323: 28.45 324: 39.22
 Raman intensities (Ä⁴*amu⁻¹)
   1:  0.00   2:  0.00   3:  0.00   4:  0.00   5:  0.00   6:  0.00   7:  0.00   8:  0.00
   9:  0.00  10:  0.00  11:  0.00  12:  0.00  13:  0.00  14:  0.00  15:  0.00  16:  0.00
  17:  0.00  18:  0.00  19:  0.00  20:  0.00  21:  0.00  22:  0.00  23:  0.00  24:  0.00
  25:  0.00  26:  0.00  27:  0.00  28:  0.00  29:  0.00  30:  0.00  31:  0.00  32:  0.00
  33:  0.00  34:  0.00  35:  0.00  36:  0.00  37:  0.00  38:  0.00  39:  0.00  40:  0.00
  41:  0.00  42:  0.00  43:  0.00  44:  0.00  45:  0.00  46:  0.00  47:  0.00  48:  0.00
  49:  0.00  50:  0.00  51:  0.00  52:  0.00  53:  0.00  54:  0.00  55:  0.00  56:  0.00
  57:  0.00  58:  0.00  59:  0.00  60:  0.00  61:  0.00  62:  0.00  63:  0.00  64:  0.00
  65:  0.00  66:  0.00  67:  0.00  68:  0.00  69:  0.00  70:  0.00  71:  0.00  72:  0.00
  73:  0.00  74:  0.00  75:  0.00  76:  0.00  77:  0.00  78:  0.00  79:  0.00  80:  0.00
  81:  0.00  82:  0.00  83:  0.00  84:  0.00  85:  0.00  86:  0.00  87:  0.00  88:  0.00
  89:  0.00  90:  0.00  91:  0.00  92:  0.00  93:  0.00  94:  0.00  95:  0.00  96:  0.00
  97:  0.00  98:  0.00  99:  0.00 100:  0.00 101:  0.00 102:  0.00 103:  0.00 104:  0.00
 105:  0.00 106:  0.00 107:  0.00 108:  0.00 109:  0.00 110:  0.00 111:  0.00 112:  0.00
 113:  0.00 114:  0.00 115:  0.00 116:  0.00 117:  0.00 118:  0.00 119:  0.00 120:  0.00
 121:  0.00 122:  0.00 123:  0.00 124:  0.00 125:  0.00 126:  0.00 127:  0.00 128:  0.00
 129:  0.00 130:  0.00 131:  0.00 132:  0.00 133:  0.00 134:  0.00 135:  0.00 136:  0.00
 137:  0.00 138:  0.00 139:  0.00 140:  0.00 141:  0.00 142:  0.00 143:  0.00 144:  0.00
 145:  0.00 146:  0.00 147:  0.00 148:  0.00 149:  0.00 150:  0.00 151:  0.00 152:  0.00
 153:  0.00 154:  0.00 155:  0.00 156:  0.00 157:  0.00 158:  0.00 159:  0.00 160:  0.00
 161:  0.00 162:  0.00 163:  0.00 164:  0.00 165:  0.00 166:  0.00 167:  0.00 168:  0.00
 169:  0.00 170:  0.00 171:  0.00 172:  0.00 173:  0.00 174:  0.00 175:  0.00 176:  0.00
 177:  0.00 178:  0.00 179:  0.00 180:  0.00 181:  0.00 182:  0.00 183:  0.00 184:  0.00
 185:  0.00 186:  0.00 187:  0.00 188:  0.00 189:  0.00 190:  0.00 191:  0.00 192:  0.00
 193:  0.00 194:  0.00 195:  0.00 196:  0.00 197:  0.00 198:  0.00 199:  0.00 200:  0.00
 201:  0.00 202:  0.00 203:  0.00 204:  0.00 205:  0.00 206:  0.00 207:  0.00 208:  0.00
 209:  0.00 210:  0.00 211:  0.00 212:  0.00 213:  0.00 214:  0.00 215:  0.00 216:  0.00
 217:  0.00 218:  0.00 219:  0.00 220:  0.00 221:  0.00 222:  0.00 223:  0.00 224:  0.00
 225:  0.00 226:  0.00 227:  0.00 228:  0.00 229:  0.00 230:  0.00 231:  0.00 232:  0.00
 233:  0.00 234:  0.00 235:  0.00 236:  0.00 237:  0.00 238:  0.00 239:  0.00 240:  0.00
 241:  0.00 242:  0.00 243:  0.00 244:  0.00 245:  0.00 246:  0.00 247:  0.00 248:  0.00
 249:  0.00 250:  0.00 251:  0.00 252:  0.00 253:  0.00 254:  0.00 255:  0.00 256:  0.00
 257:  0.00 258:  0.00 259:  0.00 260:  0.00 261:  0.00 262:  0.00 263:  0.00 264:  0.00
 265:  0.00 266:  0.00 267:  0.00 268:  0.00 269:  0.00 270:  0.00 271:  0.00 272:  0.00
 273:  0.00 274:  0.00 275:  0.00 276:  0.00 277:  0.00 278:  0.00 279:  0.00 280:  0.00
 281:  0.00 282:  0.00 283:  0.00 284:  0.00 285:  0.00 286:  0.00 287:  0.00 288:  0.00
 289:  0.00 290:  0.00 291:  0.00 292:  0.00 293:  0.00 294:  0.00 295:  0.00 296:  0.00
 297:  0.00 298:  0.00 299:  0.00 300:  0.00 301:  0.00 302:  0.00 303:  0.00 304:  0.00
 305:  0.00 306:  0.00 307:  0.00 308:  0.00 309:  0.00 310:  0.00 311:  0.00 312:  0.00
 313:  0.00 314:  0.00 315:  0.00 316:  0.00 317:  0.00 318:  0.00 319:  0.00 320:  0.00
 321:  0.00 322:  0.00 323:  0.00 324:  0.00
 output can be read by thermo (or use thermo option).
 writing <g98.out> molden fake output.
 recommended (thermochemical) frequency scaling factor: 1.0
           -------------------------------------------------
          |             Thermodynamic Functions             |
           -------------------------------------------------

Refinement of some symmetry elements was terminated before convergence was reached.
Some symmetry elements may remain unidentified.
Molecule has no symmetry elements
It seems to be the C1 point group
c1  symmetry found (for desy threshold:  0.10E+00) used in thermo

          ...................................................
          :                      SETUP                      :
          :.................................................:
          :  # frequencies                         318      :
          :  # imaginary freq.                       0      :
          :  linear?                             false      :
          :  only rotor calc.                    false      :
          :  symmetry                               c1      :
          :  rotational number                       1      :
          :  scaling factor                  1.0000000      :
          :  rotor cutoff                   50.0000000 cm⁻¹ :
          :  imag. cutoff                  -20.0000000 cm⁻¹ :
          :.................................................:

    mode    ω/cm⁻¹     T·S(HO)/kcal·mol⁻¹    T·S(FR)/kcal·mol⁻¹   T·S(vib)
   ------------------------------------------------------------------------
       1      5.17    -2.77935 (  0.01%)    -1.72875 ( 99.99%)    -1.72887
       2      6.93    -2.60543 (  0.04%)    -1.64179 ( 99.96%)    -1.64215
       3      9.44    -2.42244 (  0.13%)    -1.55029 ( 99.87%)    -1.55140
       4     11.69    -2.29614 (  0.30%)    -1.48714 ( 99.70%)    -1.48954
       5     13.63    -2.20505 (  0.55%)    -1.44158 ( 99.45%)    -1.44577
       6     17.33    -2.06299 (  1.42%)    -1.37052 ( 98.58%)    -1.38036
       7     22.58    -1.90608 (  4.00%)    -1.29200 ( 96.00%)    -1.31654
       8     25.73    -1.82879 (  6.56%)    -1.25332 ( 93.44%)    -1.29105
       9     30.09    -1.73632 ( 11.59%)    -1.20701 ( 88.41%)    -1.26837
      10     37.08    -1.61277 ( 23.22%)    -1.14510 ( 76.78%)    -1.25371
      11     48.10    -1.45915 ( 46.13%)    -1.06803 ( 53.87%)    -1.24846
      12     49.94    -1.43696 ( 49.89%)    -1.05688 ( 50.11%)    -1.24650
      13     57.08    -1.35828 ( 62.94%)    -1.01732 ( 37.06%)    -1.23192
      14     61.15    -1.31771 ( 69.11%)    -0.99690 ( 30.89%)    -1.21862
      15     64.05    -1.29046 ( 72.92%)    -0.98317 ( 27.08%)    -1.20726
      16     65.94    -1.27337 ( 75.16%)    -0.97455 ( 24.84%)    -1.19914
      17     81.10    -1.15209 ( 87.37%)    -0.91328 ( 12.63%)    -1.12194
      18     83.31    -1.13636 ( 88.51%)    -0.90531 ( 11.49%)    -1.10982
      19     88.49    -1.10115 ( 90.75%)    -0.88745 (  9.25%)    -1.08138
      20     89.61    -1.09380 ( 91.16%)    -0.88372 (  8.84%)    -1.07524
      21     96.68    -1.04951 ( 93.32%)    -0.86120 (  6.68%)    -1.03694
      22    105.59    -0.99831 ( 95.21%)    -0.83509 (  4.79%)    -0.99050
      23    106.38    -0.99402 ( 95.35%)    -0.83290 (  4.65%)    -0.98653
      24    113.73    -0.95534 ( 96.40%)    -0.81310 (  3.60%)    -0.95022
      25    117.25    -0.93774 ( 96.80%)    -0.80406 (  3.20%)    -0.93346
      26    118.67    -0.93081 ( 96.94%)    -0.80050 (  3.06%)    -0.92683
      27    120.62    -0.92139 ( 97.13%)    -0.79567 (  2.87%)    -0.91779
      28    137.49    -0.84631 ( 98.28%)    -0.75690 (  1.72%)    -0.84477
      29    146.28    -0.81100 ( 98.65%)    -0.73854 (  1.35%)    -0.81003
      30    147.39    -0.80668 ( 98.69%)    -0.73629 (  1.31%)    -0.80576
      31    162.25    -0.75237 ( 99.11%)    -0.70785 (  0.89%)    -0.75197
      32    176.08    -0.70649 ( 99.35%)    -0.68361 (  0.65%)    -0.70635
      33    181.81    -0.68866 ( 99.43%)    -0.67413 (  0.57%)    -0.68858
      34    211.20    -0.60623 ( 99.69%)    -0.62973 (  0.31%)    -0.60630
      35    214.57    -0.59762 ( 99.71%)    -0.62504 (  0.29%)    -0.59771
      36    216.55    -0.59266 ( 99.72%)    -0.62232 (  0.28%)    -0.59274
      37    221.61    -0.58018 ( 99.74%)    -0.61548 (  0.26%)    -0.58027
      38    231.75    -0.55615 ( 99.78%)    -0.60222 (  0.22%)    -0.55625
      39    250.80    -0.51429 ( 99.84%)    -0.57882 (  0.16%)    -0.51439
      40    252.49    -0.51077 ( 99.85%)    -0.57683 (  0.15%)    -0.51087
      41    256.40    -0.50272 ( 99.86%)    -0.57227 (  0.14%)    -0.50282
      42    268.99    -0.47784 ( 99.88%)    -0.55808 (  0.12%)    -0.47794
      43    271.29    -0.47345 ( 99.88%)    -0.55555 (  0.12%)    -0.47354
      44    272.54    -0.47109 ( 99.89%)    -0.55420 (  0.11%)    -0.47119
      45    284.96    -0.44833 ( 99.91%)    -0.54099 (  0.09%)    -0.44841
      46    292.45    -0.43522 ( 99.91%)    -0.53331 (  0.09%)    -0.43530
      47    294.49    -0.43174 ( 99.92%)    -0.53125 (  0.08%)    -0.43182
   ------------------------------------------------------------------------

   temp. (K)  partition function   enthalpy   heat capacity  entropy
                                   cal/mol     cal/K/mol   cal/K/mol   J/K/mol
 298.15  VIB  0.474E+27            31518.561    193.575    200.903
         ROT  0.388E+09              888.752      2.981     42.284
         INT  0.184E+36            32407.313    196.556    243.188
         TR   0.226E+29             1481.254      4.968     45.955
         TOT                       33888.5672   201.5243   289.1421  1209.7705

       T/K    H(0)-H(T)+PV         H(T)/Eh          T*S/Eh         G(T)/Eh
   ------------------------------------------------------------------------
    298.15    0.540049E-01    0.902230E+00    0.137381E+00    0.764849E+00
   ------------------------------------------------------------------------

         :::::::::::::::::::::::::::::::::::::::::::::::::::::
         ::                  THERMODYNAMIC                  ::
         :::::::::::::::::::::::::::::::::::::::::::::::::::::
         :: total free energy        -163.419531712983 Eh   ::
         ::.................................................::
         :: total energy             -164.184380533160 Eh   ::
         :: zero point energy           0.848224692606 Eh   ::
         :: G(RRHO) w/o ZPVE           -0.083375872429 Eh   ::
         :: G(RRHO) contrib.            0.764848820177 Eh   ::
         :::::::::::::::::::::::::::::::::::::::::::::::::::::

optimized geometry written to: xtbopt.xyz


           -------------------------------------------------
          | TOTAL ENERGY             -164.184380533160 Eh   |
          | TOTAL ENTHALPY           -163.282150971100 Eh   |
          | TOTAL FREE ENERGY        -163.419531712983 Eh   |
          | GRADIENT NORM               0.000065231521 Eh/α |
          | HOMO-LUMO GAP               1.460551098666 eV   |
           -------------------------------------------------

------------------------------------------------------------------------
 * finished run on 2025/08/25 at 11:47:31.385     
------------------------------------------------------------------------
 total:
 * wall-time:     0 d,  0 h,  1 min, 48.695 sec
 *  cpu-time:     0 d,  1 h, 11 min, 24.626 sec
 * ratio c/w:    39.419 speedup
 SCF:
 * wall-time:     0 d,  0 h,  0 min,  0.435 sec
 *  cpu-time:     0 d,  0 h,  0 min, 16.223 sec
 * ratio c/w:    37.312 speedup
 ANC optimizer:
 * wall-time:     0 d,  0 h,  1 min, 39.529 sec
 *  cpu-time:     0 d,  1 h,  6 min, 20.852 sec
 * ratio c/w:    39.997 speedup
 analytical hessian:
 * wall-time:     0 d,  0 h,  0 min,  8.419 sec
 *  cpu-time:     0 d,  0 h,  4 min, 38.397 sec
 * ratio c/w:    33.067 speedup

