$hessian                                                                        
        0.6466192054  -0.0843871575  -0.0413731869  -0.2986833066  -0.0275169008
        0.1104850519  -0.0614566085   0.0428994004  -0.0372542943  -0.0237344131
       -0.0173349284   0.0305147856  -0.0015280659   0.0010647022  -0.0028326903
       -0.0003513245  -0.0006860294   0.0009111806  -0.0000562588   0.0002309793
       -0.0002017399  -0.0001180348  -0.0002655137  -0.0000063649   0.0001551772
        0.0000839131   0.0001863000   0.0001187652   0.0000900992  -0.0001528370
        0.0002120881  -0.0002859901  -0.0000364063   0.0003496866   0.0001048286
       -0.0002306845  -0.0004672088  -0.0001908703  -0.0002250728   0.0004282670
        0.0000028625  -0.0000415074  -0.0001933481   0.0001020613   0.0000366541
       -0.0001544918  -0.0001266828  -0.0000162389   0.0004843506   0.0000128359
       -0.0000577955   0.0000687784  -0.0000545667   0.0000194253  -0.0000415770
        0.0001190778   0.0000310763  -0.0000026827  -0.0000743412  -0.0000151299
        0.0000008284  -0.0000096308  -0.0000085734   0.0000226412   0.0000468626
       -0.0000132676  -0.0000020172  -0.0000170204   0.0000044464  -0.0000069354
        0.0000144323   0.0000094970   0.0000115872   0.0000079752  -0.0000107681
        0.0000079911   0.0000156755  -0.0000219081  -0.0000172223  -0.0000159647
        0.0000043818  -0.0000490031  -0.0000039683   0.0000294269   0.0000172698
        0.0000082985  -0.0000100742  -0.0000105386  -0.0000195352   0.0000180953
       -0.0000093599   0.0000026530   0.0000141625  -0.0000164559   0.0000183995
       -0.0000039549   0.0000104748  -0.0000100792  -0.0000079710  -0.0000347524
        0.0000530104   0.0000018131   0.0001585966   0.0002258488   0.0000164580
        0.0000348572  -0.0002722209  -0.0000493210   0.0001227268   0.0000266679
        0.0000174740  -0.0002006554  -0.0000694776  -0.0000125619   0.0001345080
        0.0001763694   0.0000303087   0.0001495204  -0.0001147259  -0.0000178163
       -0.0000780089   0.0000675048   0.0000035031  -0.0000218286  -0.0000461317
       -0.0000060350   0.0002166443   0.0001288301   0.0000216986  -0.0001844930
       -0.0003763326  -0.0000621138  -0.0000960156   0.0002771640   0.0000435529
        0.0000876941  -0.0001875123  -0.0000130820  -0.0002868918   0.0001153226
        0.0000138916   0.0433101287  -0.0019155211  -0.0097393609  -0.1039151322
        0.0021853512   0.0132979094  -0.1801217022   0.0959464956  -0.0872240546
       -0.0076877820  -0.0018341666   0.0040957193  -0.0020910496   0.0034395397
       -0.0015782947  -0.0000003815  -0.0000031567   0.0000245972   0.0000067879
       -0.0000008618   0.0000009076  -0.0000148454   0.0000064784   0.0000273628
        0.0000203358   0.0000199923  -0.0000077183   0.0000139516   0.0000399681
        0.0000909815  -0.0002776274   0.0000067743  -0.0000721804  -0.0000347344
        0.0000047264  -0.0000465385  -0.0000025891  -0.0000627945  -0.0000257122
       -0.0000105213  -0.0000477392  -0.0000113410   0.0000034641  -0.0000003073
       -0.0000065882   0.0000022456  -0.0000082380  -0.0000050644  -0.0000031733
       -0.0000117722   0.0000065288  -0.0000039430  -0.0000002308   0.0000113606
        0.0000048893   0.0000056929   0.0000098773   0.0000020033   0.0000016509
       -0.0000064013   0.0000007180   0.0000067805  -0.0000078929   0.0000107458
        0.0000008774  -0.0000061633   0.0000074010  -0.0000055723   0.0000045556
        0.0000004886  -0.0000015903   0.0000062390   0.0000146353  -0.0000057107
        0.0000075954   0.0000002821   0.0000086695   0.0000022054   0.0000045146
        0.0000020378   0.0000004169   0.0000019407  -0.0000001090   0.0000010830
       -0.0000000284   0.0000101730   0.0000000449  -0.0000019721   0.0000056595
        0.0000030849  -0.0000206540   0.0000076786  -0.0000005575  -0.0023148417
        0.0036755542  -0.0021327653  -0.0085137143  -0.0153065240   0.0235483763
       -0.0843871575   0.3180394377  -0.2536058246   0.0188127803  -0.0654337518
        0.0184977067   0.0074309628   0.0125241981  -0.0177492558  -0.0180686380
       -0.0088694185   0.0100237873   0.0014959701  -0.0013100330   0.0001195036
        0.0000506760   0.0001903276  -0.0003206414  -0.0000200039   0.0000118485
       -0.0000870746  -0.0000150517   0.0000030197  -0.0000148092   0.0000507196
       -0.0000644812   0.0001333151   0.0000076748   0.0001829800  -0.0002054288
        0.0000585544  -0.0003332719   0.0001652288  -0.0004185050   0.0002456874
        0.0002504539   0.0000236185  -0.0003447399  -0.0000851108   0.0000244928
        0.0000695831   0.0000017506  -0.0000646479  -0.0001711628  -0.0000010861
        0.0001341099   0.0001739615   0.0000100847  -0.0001112230  -0.0000607169
       -0.0000125421  -0.0001460585   0.0001516873   0.0000129469   0.0002072500
       -0.0001509965  -0.0000147652  -0.0002556757  -0.0001959670  -0.0000568078
       -0.0000002699   0.0000526433   0.0000084821  -0.0000171145  -0.0000284842
        0.0000087419   0.0000109300   0.0000193110  -0.0000099453   0.0000059445
       -0.0000198498  -0.0000109513  -0.0000081677  -0.0000125541   0.0000065935
       -0.0000027240   0.0000127486   0.0000210335   0.0000061657   0.0000059821
       -0.0000080979   0.0000036648   0.0000038347   0.0000100901  -0.0000112362
        0.0000095980   0.0000106480  -0.0000027621   0.0000186208  -0.0000100657
        0.0000083030   0.0000058133  -0.0000207620   0.0000121433  -0.0000243490
        0.0000173334  -0.0000048401  -0.0000069456   0.0000092193   0.0001418946
        0.0001422479  -0.0000060352  -0.0000328683   0.0000312913   0.0000106312
        0.0000729923  -0.0000913263  -0.0000064642   0.0000504106  -0.0000090205
       -0.0000053547  -0.0001189027  -0.0000693888  -0.0000125264   0.0001169352
        0.0001060267   0.0000132039   0.0001091968  -0.0000764482  -0.0000068190
       -0.0000671991   0.0000666294   0.0000116707  -0.0000520219   0.0000234520
        0.0000010845   0.0001464535   0.0001192597   0.0000211980  -0.0001442493
       -0.0002263060  -0.0000313745  -0.0000803321   0.0002750324   0.0000316176
        0.0000506693  -0.0000760900  -0.0000010207   0.0000238093   0.0000274106
        0.0000082425   0.0323291403  -0.0235622272   0.0259691567  -0.0437764429
       -0.1350017476   0.1317776228   0.0958699558  -0.1021961528   0.0661116033
       -0.0152914629  -0.0009426001   0.0070912668   0.0037107005   0.0037665336
        0.0047278746  -0.0000033740  -0.0000199677  -0.0000176424  -0.0000067491
       -0.0000047934   0.0000030605  -0.0000103372   0.0000070583   0.0000033895
        0.0000125162  -0.0000228113  -0.0000003780   0.0000105478  -0.0001005777
        0.0000687284   0.0000189150   0.0000457507   0.0000467736   0.0000251766
        0.0000162721   0.0000026698  -0.0000147882   0.0000297264   0.0000238692
        0.0000021925   0.0000129038   0.0000049580  -0.0000026580  -0.0000022194
        0.0000007560  -0.0000013832   0.0000076612   0.0000036727   0.0000027896
        0.0000102100  -0.0000067414   0.0000039675  -0.0000006097  -0.0000101211
       -0.0000011183  -0.0000033210  -0.0000014512  -0.0000020464  -0.0000007461
        0.0000008720   0.0000014882  -0.0000045753   0.0000052771  -0.0000090169
       -0.0000009240   0.0000051368  -0.0000067773   0.0000059953  -0.0000036687
        0.0000021925   0.0000022812  -0.0000035518   0.0000009009   0.0000020799
        0.0000124145  -0.0000000691   0.0000066455   0.0000009786  -0.0000139459
        0.0000052548   0.0000010420  -0.0000122847  -0.0000094289  -0.0000016632
        0.0000025369  -0.0000203557  -0.0000013851   0.0000046835  -0.0000088430
       -0.0000027301   0.0000105320   0.0000004923   0.0000027190   0.0034823557
        0.0038741228   0.0047903776  -0.0013648107  -0.0008284175   0.0022733086
       -0.0413731869  -0.2536058246   0.4708077409   0.0468091944   0.0329089415
       -0.1054986955   0.0090329865  -0.0280920815   0.0366029355   0.0296048676
        0.0086426087  -0.0286043088  -0.0017650481   0.0011047349   0.0005542216
        0.0000081672   0.0000455457   0.0001495535   0.0000744739  -0.0001230472
        0.0002508288   0.0000763890   0.0001238158   0.0000342247  -0.0001313896
        0.0000416573  -0.0002598581  -0.0000811630  -0.0002928265   0.0003641959
       -0.0002404524   0.0006578818  -0.0002764730   0.0005419403  -0.0003309378
       -0.0001970730   0.0002838968   0.0004861448   0.0003069595  -0.0002354269
       -0.0001105295   0.0000494628   0.0001701077   0.0001597331  -0.0000228622
       -0.0001619132  -0.0001563048   0.0000004677  -0.0000362616   0.0001184583
        0.0000463968   0.0002303622  -0.0002412397  -0.0000309880  -0.0003221825
        0.0002206278   0.0000283658   0.0003755611   0.0002712247   0.0000819894
       -0.0000053105  -0.0000571800  -0.0000088802   0.0000186544   0.0000330439
       -0.0000134783  -0.0000086620  -0.0000242144   0.0000092516  -0.0000033558
        0.0000206547   0.0000080106   0.0000074184   0.0000145039  -0.0000031428
        0.0000029425  -0.0000144811  -0.0000227500  -0.0000088494  -0.0000046454
        0.0000096875   0.0000011172  -0.0000026552  -0.0000172138   0.0000127468
       -0.0000107159  -0.0000110744  -0.0000026148  -0.0000157323   0.0000090808
       -0.0000054421  -0.0000086586   0.0000231806  -0.0000094465   0.0000241564
       -0.0000181376   0.0000017794   0.0000079926  -0.0000077277  -0.0002077277
       -0.0001614190   0.0000070288   0.0000347714  -0.0001409377  -0.0000224101
       -0.0001157532   0.0002078931   0.0000273716  -0.0001063958  -0.0000037064
       -0.0000000425   0.0002013703   0.0000972025   0.0000175618  -0.0001738475
       -0.0001910560  -0.0000260831  -0.0001639507   0.0001409544   0.0000157556
        0.0001142492  -0.0000838102  -0.0000128949   0.0000553929  -0.0000236403
       -0.0000014954  -0.0002306997  -0.0001752555  -0.0000310227   0.0002239861
        0.0003674689   0.0000522989   0.0001547244  -0.0004378733  -0.0000536850
       -0.0000967048   0.0001164754  -0.0000107612   0.0000223370  -0.0000535770
       -0.0000117484  -0.0567662063   0.0349302668  -0.0317131780   0.0769324224
        0.1177169964  -0.2300950071  -0.0873468219   0.0659662701  -0.0973399580
        0.0234875754   0.0030959215  -0.0099381087  -0.0020646398   0.0049560614
        0.0020313366   0.0000088435   0.0000267310   0.0000189749   0.0000066920
        0.0000076811  -0.0000013235   0.0000249610  -0.0000138590  -0.0000162945
       -0.0000223417   0.0000359481  -0.0000010157  -0.0000617790   0.0001876252
       -0.0001408224   0.0001090346  -0.0000697992   0.0000004135  -0.0000109062
       -0.0000207840   0.0000144539   0.0000166221  -0.0000172210  -0.0000277484
       -0.0000025979  -0.0000086201  -0.0000073385   0.0000010492   0.0000024725
        0.0000009805   0.0000007994  -0.0000063707  -0.0000031428  -0.0000026614
       -0.0000100002   0.0000067100  -0.0000044512   0.0000005036   0.0000111478
        0.0000012128   0.0000047002   0.0000015127   0.0000022899  -0.0000003855
       -0.0000014216  -0.0000023610   0.0000030330  -0.0000039538   0.0000086968
        0.0000008432  -0.0000046446   0.0000064754  -0.0000058332   0.0000034532
       -0.0000017905  -0.0000028016   0.0000041140  -0.0000006834  -0.0000011515
       -0.0000185549  -0.0000004680  -0.0000046683  -0.0000007093   0.0000114152
       -0.0000040329  -0.0000011502   0.0000103196   0.0000088324   0.0000011462
       -0.0000013746   0.0000215796   0.0000009652  -0.0000031773   0.0000115442
        0.0000031336  -0.0000113232  -0.0000013808  -0.0000036520  -0.0015454329
        0.0047388089   0.0021669076   0.0046469548   0.0070017182  -0.0092409900
       -0.2986833066   0.0188127803   0.0468091944   0.6363053705  -0.0722754628
       -0.0554677658  -0.2227454359   0.0731094242  -0.0490217828   0.0394358967
        0.0319654641  -0.0579902603   0.0032011232  -0.0028508868   0.0068000165
        0.0006011979   0.0008545135  -0.0009146402   0.0001173290  -0.0004931188
        0.0004067426   0.0001542125   0.0003949535  -0.0000339103  -0.0002377838
       -0.0001189205  -0.0003017320  -0.0001384327  -0.0001834635   0.0003871781
       -0.0004293589   0.0005219133  -0.0001425257  -0.0003599015   0.0001828729
        0.0003672226   0.0004670811   0.0000317097   0.0004749482  -0.0002799388
       -0.0000164416   0.0000358858   0.0001775445  -0.0005444570  -0.0001205030
        0.0002255867   0.0006148168   0.0000263708  -0.0003356266  -0.0001428920
        0.0000264500   0.0000400999   0.0000715564  -0.0000471917   0.0001304403
       -0.0000629147   0.0000161089  -0.0002502606  -0.0002254258  -0.0000510018
       -0.0000130583   0.0000768412  -0.0000053520  -0.0000293780  -0.0000472745
        0.0000174377   0.0000134187   0.0000141134  -0.0000128409   0.0000043472
       -0.0000169689  -0.0000047450  -0.0000050006   0.0000068921   0.0000025384
       -0.0000046840  -0.0000042534   0.0000257095   0.0000041621   0.0000117181
       -0.0000222525   0.0000269600  -0.0000008012  -0.0000043488  -0.0000141189
        0.0000058279   0.0000074188   0.0000070746   0.0000112873  -0.0000087265
       -0.0000122894   0.0000058825  -0.0000078990   0.0000074961  -0.0000130043
        0.0000068899   0.0000002124  -0.0000037270   0.0000082966   0.0001825342
        0.0002792598   0.0000198700  -0.0001113712  -0.0003556485  -0.0000139134
        0.0002017151   0.0001290676   0.0000274643  -0.0000502091  -0.0000588824
       -0.0000217396  -0.0000390435  -0.0000822271  -0.0000121483   0.0001102463
        0.0000782915   0.0000224694   0.0001066518  -0.0001037199  -0.0000131887
       -0.0001309345   0.0000373054   0.0000021225  -0.0000204005   0.0000712596
        0.0000044757   0.0000443834   0.0000848460   0.0000106424  -0.0001216632
       -0.0000976635  -0.0000023017  -0.0002738987   0.0000887941   0.0000043689
        0.0001525480   0.0001845546  -0.0000060153   0.0002071188  -0.0000656269
        0.0000234630  -0.0557090660   0.0162577817  -0.0074449015   0.0009527856
       -0.0533557595   0.0738077529  -0.0237837153   0.0005547196   0.0060400153
       -0.0556729727  -0.0283929586   0.0466708451  -0.0241009826   0.0145280377
       -0.0118541441   0.0000374005   0.0000225313  -0.0000002878   0.0000042153
        0.0000059606   0.0000293628   0.0000355222  -0.0000195565  -0.0000296564
       -0.0000361354  -0.0000062572   0.0000028581  -0.0000118444   0.0000728372
       -0.0001545976   0.0001916254  -0.0000453376  -0.0002017885   0.0000041571
       -0.0000156225   0.0000365588  -0.0000485634   0.0000516788   0.0000449529
       -0.0000170545   0.0000006378  -0.0000030719  -0.0000043000  -0.0000037289
       -0.0000019146  -0.0000024469   0.0000083842   0.0000026636   0.0000002620
        0.0000064868  -0.0000037714   0.0000024898   0.0000008344  -0.0000089073
       -0.0000041511   0.0000022565   0.0000073705   0.0000008684  -0.0000012310
       -0.0000042347  -0.0000024504  -0.0000026985   0.0000036187  -0.0000042222
       -0.0000000630   0.0000009403  -0.0000052744   0.0000022585  -0.0000015092
        0.0000022915  -0.0000014461   0.0000012314   0.0000033441   0.0000034787
       -0.0000012593  -0.0000064965  -0.0000093539  -0.0000043563  -0.0000008233
        0.0000068592   0.0000012260   0.0000016734  -0.0000095320  -0.0000030731
       -0.0000026966   0.0000105843   0.0000032027  -0.0000001078   0.0000065764
        0.0000028937  -0.0000017106  -0.0000240743  -0.0000044817  -0.0004535513
        0.0002413008  -0.0001224444   0.0009932742   0.0002222501   0.0018824070
       -0.0275169008  -0.0654337518   0.0329089415  -0.0722754628   0.3205124600
       -0.2585187509   0.1194193827  -0.1242463987   0.0745899942  -0.0008055976
       -0.0242175188   0.0326088727   0.0003508434   0.0026373349   0.0035829401
       -0.0005312847  -0.0004677322   0.0013137820  -0.0000501384   0.0000314543
       -0.0002295359   0.0000073221  -0.0002604775   0.0000133186   0.0000737279
        0.0000691474   0.0000790633   0.0000924716   0.0000028860  -0.0001117482
        0.0002477499   0.0000704666   0.0000049108  -0.0000080233  -0.0003201461
        0.0004137101  -0.0004339794  -0.0003458921  -0.0004923421   0.0004383017
        0.0000872122  -0.0000420060  -0.0003514036   0.0001870576   0.0000603203
       -0.0000204777  -0.0001859496  -0.0000603030   0.0002327592  -0.0000508509
       -0.0001548102  -0.0001248179   0.0000716623   0.0000550353   0.0000588951
       -0.0000654624  -0.0000140490  -0.0000470630  -0.0000671567  -0.0000288053
       -0.0000199192   0.0000439508   0.0000219344  -0.0000205565  -0.0000391887
        0.0000068000   0.0000120323   0.0000027770  -0.0000153297   0.0000029830
       -0.0000167425  -0.0000070155  -0.0000039057  -0.0000073995   0.0000058445
       -0.0000053561   0.0000008731   0.0000121921  -0.0000007905   0.0000113117
        0.0000073126   0.0000389644   0.0000036687  -0.0000139499  -0.0000174450
        0.0000203151   0.0000038899   0.0000056173   0.0000170141  -0.0000206270
        0.0000093372   0.0000022560  -0.0000100987   0.0000132952  -0.0000156699
        0.0000098968  -0.0000000902  -0.0000118044   0.0000137297   0.0000533410
       -0.0000148169  -0.0000137189   0.0000426947   0.0002187355   0.0000188626
        0.0000657808  -0.0001632923  -0.0000266782   0.0000330981   0.0000287851
        0.0000119669  -0.0000484396   0.0000026468   0.0000008297   0.0000081872
        0.0000549510   0.0000005891   0.0000451047  -0.0000490249  -0.0000032249
       -0.0000732920   0.0000037631   0.0000029828   0.0000707562  -0.0000205779
       -0.0000000317  -0.0000112538  -0.0000007552   0.0000051635   0.0000041554
       -0.0000372252  -0.0000014608  -0.0000851134   0.0000625660   0.0000032075
        0.0002021140  -0.0000220113   0.0000368731  -0.0001187884   0.0000834360
       -0.0000072469   0.0147879145  -0.0062553037  -0.0018546560  -0.0198693091
        0.0079198724  -0.0033519919   0.0146724965   0.0003087254  -0.0041169265
       -0.0290851008  -0.1139116724   0.1174173028   0.0005384954   0.0006250364
       -0.0001041139  -0.0000374500  -0.0000143381  -0.0000092450  -0.0000137715
       -0.0000034711  -0.0000008318  -0.0000187546   0.0000178871   0.0000148615
        0.0000200013   0.0000155799   0.0000105739   0.0000264927  -0.0000977171
        0.0001414293  -0.0001106068   0.0000741281   0.0001128704  -0.0000054639
        0.0000109071  -0.0000345860  -0.0000133245   0.0000319395   0.0000156640
        0.0000091453   0.0000174433   0.0000051221  -0.0000055511   0.0000008476
        0.0000055002  -0.0000009892   0.0000107142   0.0000038169   0.0000026624
        0.0000101009  -0.0000051481   0.0000028552   0.0000012613  -0.0000064589
        0.0000004080  -0.0000048457  -0.0000003237   0.0000008678  -0.0000060729
       -0.0000033002  -0.0000022648  -0.0000080432   0.0000096517  -0.0000113826
       -0.0000007862   0.0000070265  -0.0000089227   0.0000057131  -0.0000014580
        0.0000010922   0.0000036406  -0.0000027199  -0.0000047371   0.0000008130
        0.0000054698   0.0000056023   0.0000008300   0.0000010150  -0.0000142063
        0.0000010789   0.0000002196  -0.0000145823  -0.0000055778  -0.0000005337
        0.0000027723  -0.0000208501  -0.0000041260   0.0000020297  -0.0000133359
       -0.0000063231   0.0000202956   0.0000129774   0.0000001442   0.0002526994
        0.0000227388  -0.0004885110  -0.0000882287   0.0030828936   0.0062193546
        0.1104850519   0.0184977067  -0.1054986955  -0.0554677658  -0.2585187509
        0.4872486740  -0.1095870705   0.0875483473  -0.1328560399  -0.0129528294
        0.0226717263  -0.0290570735   0.0040092881   0.0049134341   0.0001217260
       -0.0009124185   0.0013762505  -0.0012634090   0.0001433724   0.0001974906
        0.0000779433   0.0000706475   0.0001237738  -0.0001461170  -0.0000361595
       -0.0000574745  -0.0000138654   0.0000322567  -0.0000001231   0.0000259366
       -0.0003345670  -0.0001566188  -0.0001708900  -0.0003865212  -0.0001204291
        0.0006189237   0.0002032049   0.0000197426  -0.0000214302  -0.0002243513
       -0.0000613484  -0.0000394335   0.0002912484  -0.0000187064   0.0000023295
       -0.0000608584  -0.0000513873  -0.0000311645   0.0002344193   0.0000043017
        0.0001020666   0.0000358453   0.0000434475  -0.0000174627   0.0001166243
        0.0000098613  -0.0000096732  -0.0001733662   0.0000453849   0.0000021582
        0.0000577422  -0.0000936115  -0.0000134933   0.0000252892   0.0000366610
       -0.0000004843  -0.0000285996   0.0000004917   0.0000267262  -0.0000137242
        0.0000273930   0.0000310749   0.0000123976   0.0000117488  -0.0000172123
        0.0000142989  -0.0000089049  -0.0000338785   0.0000141222  -0.0000300025
       -0.0000027053  -0.0000381016  -0.0000090702   0.0000065077   0.0000180503
       -0.0000309653  -0.0000038114   0.0000089262  -0.0000326370   0.0000320202
       -0.0000164401  -0.0000015011   0.0000166201  -0.0000205981   0.0000302633
       -0.0000220234   0.0000039289   0.0000277181  -0.0000220150  -0.0000233110
        0.0000378197   0.0000289992  -0.0001129669  -0.0001477132  -0.0000177633
       -0.0001098528   0.0001913357   0.0000149909  -0.0000414583  -0.0000332317
       -0.0000012025   0.0000700456   0.0000263328   0.0000041719  -0.0000448815
       -0.0000794837  -0.0000089572  -0.0001019871   0.0000669605   0.0000035306
        0.0001224688  -0.0000294595  -0.0000090404  -0.0000947979   0.0000278242
        0.0000042362   0.0000113753  -0.0000254154  -0.0000104065   0.0000494353
        0.0000463308  -0.0000007086   0.0001568848  -0.0000640217  -0.0000091555
       -0.0002476381   0.0000018113  -0.0000122507   0.0001250988  -0.0001159849
        0.0000015382  -0.0040801303  -0.0026001303   0.0004388111   0.0268718040
        0.0075831614  -0.0166848805  -0.0129464010  -0.0000571617   0.0042577523
        0.0463659298   0.1174980493  -0.2103357074   0.0065999338  -0.0045586827
        0.0044122135   0.0000345179   0.0000225610   0.0000435418   0.0000110698
        0.0000251259  -0.0000008125  -0.0000071242  -0.0000086901   0.0000167741
       -0.0000042263  -0.0000072622  -0.0000155464  -0.0000338585   0.0000832669
       -0.0000521804  -0.0001828956  -0.0000277224  -0.0001597133   0.0000279705
        0.0000416363   0.0000345040   0.0000148255  -0.0000318001  -0.0000184178
       -0.0000085359  -0.0000208514  -0.0000010492   0.0000099108   0.0000007689
       -0.0000035232   0.0000033215  -0.0000202722  -0.0000069168  -0.0000056779
       -0.0000199283   0.0000102189  -0.0000069292  -0.0000022580   0.0000172070
       -0.0000016661   0.0000042099  -0.0000057271  -0.0000010408   0.0000063897
        0.0000086021   0.0000041206   0.0000126384  -0.0000147943   0.0000191984
        0.0000003623  -0.0000117466   0.0000163675  -0.0000107674   0.0000031043
       -0.0000034539  -0.0000062980   0.0000023032   0.0000072110   0.0000007526
       -0.0000046114  -0.0000041630  -0.0000012679  -0.0000004039   0.0000205615
       -0.0000066250  -0.0000010160   0.0000228013   0.0000155316   0.0000032797
       -0.0000024794   0.0000303368   0.0000053077  -0.0000013798   0.0000231429
        0.0000077444  -0.0000402802   0.0000036225   0.0000052941  -0.0002872375
       -0.0004413290   0.0004545493   0.0023061773   0.0061721736  -0.0014639721
       -0.0614566085   0.0074309628   0.0090329865  -0.2227454359   0.1194193827
       -0.1095870705   0.6625629472  -0.0877710331  -0.0466826950  -0.0999464293
       -0.0439209381   0.0749760861   0.0017348257   0.0180638087  -0.0209619442
       -0.0029539481  -0.0001361776  -0.0023965694  -0.0001109599   0.0014873280
       -0.0006969111  -0.0001545149  -0.0000994311  -0.0002971980   0.0000809900
        0.0000377329   0.0001036626   0.0000342054   0.0000172626  -0.0001639114
        0.0002708718  -0.0004213239   0.0001454765   0.0003534958   0.0025330346
       -0.0023640636  -0.0012873000  -0.0014394138  -0.0011779878   0.0004991672
        0.0001990613   0.0000036715  -0.0008762548  -0.0004908059  -0.0000070396
       -0.0003957182   0.0003969533   0.0001580885   0.0006903544   0.0000371274
       -0.0000806135  -0.0000775745   0.0004845740   0.0001391520   0.0004342804
       -0.0004179888  -0.0000292881  -0.0003918488  -0.0002615023  -0.0001259500
        0.0000096708   0.0000966248   0.0000360221  -0.0000817043  -0.0001459946
        0.0000597664   0.0000275344   0.0000159815  -0.0000349706  -0.0000039429
       -0.0000421413  -0.0000044027  -0.0000031991  -0.0000253134   0.0000023707
       -0.0000190848  -0.0000140333   0.0000468235   0.0000100718   0.0000353313
        0.0000058832   0.0001180840  -0.0000034963  -0.0000755241  -0.0000546225
        0.0000491459   0.0000123892   0.0000326174   0.0000244338  -0.0000427516
        0.0000180940   0.0000082406  -0.0000158340   0.0000297008  -0.0000232066
        0.0000178164  -0.0000088056  -0.0000218975   0.0000309645   0.0003642097
       -0.0000198263  -0.0000054060   0.0002485774   0.0007635486   0.0001043506
        0.0007819539  -0.0009903045  -0.0001282864   0.0003585931   0.0001278350
        0.0000212705  -0.0006202000  -0.0002120617  -0.0000350523   0.0004354449
        0.0007893339   0.0001251049   0.0005913877  -0.0006917747  -0.0000909732
       -0.0007286201   0.0000524812  -0.0000005361   0.0003493632  -0.0000039592
        0.0000017812   0.0003783904   0.0003568305   0.0000684439  -0.0004821041
       -0.0008073118  -0.0000995076  -0.0011509312   0.0009127603   0.0000858970
        0.0006165298   0.0001269887   0.0000879722  -0.0003804218  -0.0000223005
       -0.0000458825   0.0007048286  -0.0182582277   0.0251828602  -0.0026725828
        0.0117758727  -0.0169421094  -0.0049987861   0.0008264636   0.0027546609
        0.0035477874  -0.0020010404   0.0013590866  -0.2691298225  -0.0079064303
        0.0857634118   0.0000510448   0.0000120246   0.0000674998   0.0000242432
        0.0000742827  -0.0000560189  -0.0000222634   0.0000258809   0.0000134608
        0.0000129915   0.0000171704   0.0000098055  -0.0000507605  -0.0001474291
        0.0001175491  -0.0003123664  -0.0002777002  -0.0005801337   0.0000438623
        0.0000035279  -0.0001288186   0.0000699981  -0.0000058349  -0.0000459769
        0.0000149663   0.0000480723   0.0000027862  -0.0000132240   0.0000007431
        0.0000084676  -0.0000032395   0.0000244794   0.0000061565   0.0000028320
        0.0000203366  -0.0000110110   0.0000080551   0.0000042947  -0.0000204233
       -0.0000056702  -0.0000063982   0.0000003534  -0.0000015538  -0.0000114990
       -0.0000077437  -0.0000095707  -0.0000134817   0.0000203099  -0.0000170398
       -0.0000019564   0.0000093953  -0.0000169654   0.0000087372  -0.0000012144
        0.0000037820   0.0000028618  -0.0000031717  -0.0000056394   0.0000007369
        0.0000254396  -0.0000001570  -0.0000182229  -0.0000082738  -0.0000067769
        0.0000032173   0.0000018956  -0.0000025507  -0.0000084212  -0.0000023408
       -0.0000023162  -0.0000022727   0.0000034124   0.0000056582  -0.0000008091
       -0.0000073745   0.0000335265  -0.0000396548  -0.0000169316  -0.0050802606
        0.0002377123   0.0029595615   0.0007268378   0.0001284366  -0.0005901815
        0.0428994004   0.0125241981  -0.0280920815   0.0731094242  -0.1242463987
        0.0875483473  -0.0877710331   0.3084463662  -0.2428292588  -0.0108419093
       -0.1201213188   0.0985116629   0.0122517496  -0.0207478627   0.0268580165
        0.0029831430   0.0014010657   0.0011754042  -0.0000516936  -0.0017395876
        0.0008735290   0.0002909122   0.0004702746   0.0000708788  -0.0001979975
       -0.0001393459  -0.0002587577  -0.0000767836   0.0000496070   0.0002409932
       -0.0002900869   0.0005552069   0.0000021635  -0.0029448625  -0.0003749841
        0.0008557035  -0.0000958878  -0.0008946717  -0.0004419464  -0.0001137327
        0.0001854319  -0.0000731369  -0.0000696938  -0.0009749814  -0.0000505919
       -0.0001185773   0.0009070863   0.0000787640  -0.0001678834  -0.0002135046
       -0.0000319597  -0.0001052155   0.0003637096   0.0000120816   0.0005860160
       -0.0003000555   0.0000099349  -0.0009291158  -0.0007074316  -0.0002068320
        0.0000120383   0.0002116187   0.0000075174  -0.0000925580  -0.0001520089
        0.0000709650   0.0000135327   0.0000241889  -0.0000190140  -0.0000195075
       -0.0000264530   0.0000300317   0.0000190626  -0.0000019738  -0.0000232554
        0.0000024206  -0.0000074138   0.0000280857   0.0000207547   0.0000103664
       -0.0000031110   0.0000572206  -0.0000073668  -0.0000050309  -0.0000357195
        0.0000376060   0.0000053382   0.0000355259  -0.0000133309  -0.0000043730
       -0.0000102688   0.0000183366  -0.0000064325   0.0000059259  -0.0000017702
        0.0000076248   0.0000107336  -0.0000173733   0.0000089600   0.0005218305
        0.0006336119   0.0000335743  -0.0001556250  -0.0002801267   0.0000056971
        0.0005033785  -0.0000506919  -0.0000010811   0.0000506976  -0.0000713224
       -0.0000197336  -0.0002352242  -0.0002064911  -0.0000325114   0.0003207479
        0.0003378818   0.0000680552   0.0002916306  -0.0003226086  -0.0000471893
       -0.0003276175   0.0000898351   0.0000028015  -0.0000308609   0.0001450740
        0.0000127651   0.0003060059   0.0002935721   0.0000446044  -0.0003477728
       -0.0004421497  -0.0000646587  -0.0006791417   0.0005274034   0.0000476806
        0.0003863120   0.0001764325   0.0000347251   0.0001721430  -0.0000702432
        0.0000186936  -0.0433990935   0.0066871147   0.0059752482   0.0098104754
       -0.0247134405   0.0253373899   0.0004871465   0.0049610935   0.0029276958
        0.0117816555  -0.0092298787   0.0102860867  -0.0079142726  -0.0377153085
        0.0083386584  -0.0000120363  -0.0000169636  -0.0000925457  -0.0000195950
       -0.0000947612   0.0001151537   0.0000004557  -0.0000471199  -0.0000089577