$hessian                                                                        
        0.5226737801   0.0208944630   0.0031352481  -0.1014859135   0.0678610064
        0.0004387243  -0.0208734835   0.0279699840   0.0003423024  -0.0050545451
       -0.0011083243   0.0000600000  -0.0002703146   0.0007072392  -0.0000146683
       -0.0009821973  -0.0022451248  -0.0004656910   0.0056657053  -0.0095457626
       -0.0005423106   0.0001427138  -0.0005845908   0.0000598192   0.0000291921
        0.0000287399   0.0001619878  -0.0000093840   0.0000005003  -0.0001157768
       -0.0000296786   0.0000037360   0.0000107853   0.0000394900  -0.0000052941
        0.0000496448  -0.0000568744  -0.0000028153   0.0000382589   0.0000693948
        0.0000171565  -0.0000705127  -0.0004744639  -0.0000071978  -0.0000388332
        0.0004759350   0.0000182188   0.0000008885   0.0001086522  -0.0000041941
        0.0001492580  -0.0000453600  -0.0000028621  -0.0000790201   0.0000634972
        0.0000096116  -0.0000450866  -0.0000476084  -0.0000167008  -0.0000433950
       -0.0000169046  -0.0000096222   0.0001288985  -0.0000226140  -0.0000020148
       -0.0001591024   0.0000332178  -0.0001626397   0.0000256733   0.0000249371
       -0.0001062822   0.0000075232   0.0000323361  -0.0000131322   0.0000019769
        0.0000001398  -0.0000085749  -0.0000037098  -0.0000814921  -0.0000345570
        0.0000071262   0.0000182101   0.0000596994  -0.0000058370  -0.0001907699
       -0.0002472436  -0.0000082233   0.0003469843  -0.0001782982   0.0000397268
        0.0000958840  -0.0000097630   0.0000089674   0.0000399320   0.0000247203
       -0.0000805342   0.0000262478   0.0000118144  -0.0000111153   0.0000265065
        0.0000253079  -0.0000064678  -0.0000070620  -0.0000048018   0.0000089072
       -0.0000019214  -0.0000022787  -0.0000015132  -0.0000048881  -0.0000036172
       -0.0000051347  -0.0000046264   0.0000037641  -0.0000055980   0.0000185661
        0.0000092048   0.0000141857   0.0000588823   0.0000324249   0.0000848470
       -0.0440755793  -0.0104745601  -0.0200951930  -0.2727399215  -0.0323080266
       -0.0493748642  -0.0847941161  -0.0614334035   0.0661854773   0.0012021855
        0.0012018465  -0.0000011732  -0.0009116660   0.0012912209  -0.0000529921
        0.0011324076  -0.0016676574   0.0002699100  -0.0000124272  -0.0000219281
        0.0000352041   0.0000124776  -0.0000049136  -0.0000030299  -0.0000153769
        0.0000078226   0.0000070970  -0.0000110819  -0.0000039236  -0.0000307962
       -0.0000114969  -0.0000054155   0.0000280568  -0.0000167508  -0.0000005948
       -0.0000152320   0.0000095323  -0.0000064775  -0.0000001486  -0.0000149942
       -0.0000139807  -0.0000362880   0.0000238434   0.0000082106   0.0000002560
       -0.0000099091   0.0000217201  -0.0000117729   0.0000171673   0.0000069163
       -0.0000004686  -0.0000075187   0.0000135690   0.0000116300  -0.0000126316
        0.0000246610   0.0000109545  -0.0000291997   0.0000043728   0.0000196864
       -0.0000147433  -0.0000105171  -0.0000040725  -0.0000085047  -0.0000088791
        0.0000070052   0.0000061410  -0.0000009995   0.0000035059   0.0000015831
       -0.0000007976   0.0000028376  -0.0000175468   0.0000037516  -0.0000004750
        0.0000076056  -0.0000013551  -0.0000016130  -0.0000200561  -0.0000004204
       -0.0000145160   0.0000125313   0.0000021350   0.0000054400  -0.0000176725
        0.0000057547  -0.0000156604   0.0000059345  -0.0000004743   0.0000022954
        0.0000041266   0.0000003561  -0.0000047045  -0.0000073524   0.0000065349
       -0.0000018960  -0.0000170929  -0.0000064470   0.0000033201
        0.0208944630   0.4785158440  -0.0058230161   0.0626389163  -0.1845580495
       -0.0006864849   0.0098454827  -0.0060206412   0.0004610936  -0.0004290564
        0.0026032470   0.0002310605   0.0004624029  -0.0014382222   0.0000500439
       -0.0037134812  -0.0017669397  -0.0001115279   0.0095970238  -0.0333895871
       -0.0002259711   0.0002698232  -0.0009993242   0.0000108287   0.0004513085
        0.0000740374   0.0000314191  -0.0001024660   0.0000068938  -0.0000375065
        0.0000604242   0.0000044060   0.0000355693  -0.0001354405   0.0000281384
        0.0000489124   0.0002447961   0.0000291503  -0.0001690089  -0.0004370790
        0.0000020814   0.0001480612   0.0003946187  -0.0000614240   0.0000162463
       -0.0001801171   0.0000634359   0.0000109238  -0.0004373083  -0.0000093932
       -0.0001701893   0.0002320562   0.0000703387   0.0001946021  -0.0001280316
       -0.0000051452  -0.0000545745   0.0000712924   0.0000548088  -0.0000251617
       -0.0001215959   0.0000003135   0.0000233674   0.0004588148   0.0000650479
       -0.0000161613  -0.0000727166  -0.0002219647  -0.0000026474   0.0000785727
       -0.0002049874   0.0000122279   0.0001618314   0.0000246486  -0.0000023035
        0.0000160441  -0.0000005363  -0.0000039722  -0.0001642590   0.0000150041
       -0.0000151730  -0.0001062071   0.0000240082  -0.0000018492  -0.0001991275
       -0.0002408287  -0.0000156339  -0.0000062442   0.0005427950  -0.0000343933
       -0.0001515369  -0.0000538567  -0.0000085982   0.0000282502   0.0000182451
        0.0000136047   0.0000431636   0.0000034836   0.0000339061  -0.0000211371
       -0.0000639860  -0.0000006112  -0.0000401579  -0.0000070222  -0.0000112591
       -0.0000005167   0.0000072585  -0.0000079085  -0.0000031394  -0.0000051117
        0.0000110166  -0.0000061966   0.0000060721   0.0000182409   0.0000438173
        0.0000085184  -0.0000350548   0.0000157978   0.0000171410  -0.0000208811
       -0.0088343630  -0.0793520360  -0.0881538913  -0.0320258448  -0.0474952157
       -0.0052966104  -0.0594106619  -0.1278557320   0.0999763040  -0.0008553824
        0.0008028031  -0.0002595868  -0.0000598564   0.0000037466  -0.0000654463
        0.0015047755   0.0009561791  -0.0000872404  -0.0000238588   0.0000290708
       -0.0000181564  -0.0000195350  -0.0000048748  -0.0000413881   0.0000173612
       -0.0000345005  -0.0000800331  -0.0000213626  -0.0000207135   0.0000174036
       -0.0000175737  -0.0000094721  -0.0000094983   0.0000177470  -0.0000321640
        0.0000877362  -0.0000166701   0.0000028634   0.0000459164  -0.0000199700
        0.0000188209   0.0000158356   0.0000255594   0.0000391164   0.0000004773
        0.0000143658  -0.0000504152   0.0000349781  -0.0000320677  -0.0000041794
        0.0000029006   0.0000079172  -0.0000374310  -0.0000326641   0.0000572542
       -0.0000631549  -0.0000179006   0.0000739879  -0.0000364960  -0.0000390955
        0.0000007767   0.0000040848   0.0000167421   0.0000145499   0.0000151799
       -0.0000281516  -0.0000081501   0.0000084651   0.0000045398  -0.0000059996
        0.0000019249  -0.0000051121   0.0000348380  -0.0000054867   0.0000035273
       -0.0000129015   0.0000011475  -0.0000101903   0.0000334365   0.0000082118
        0.0000293788  -0.0000145963   0.0000137358  -0.0000013399   0.0000361150
       -0.0000088135   0.0000324039  -0.0000149221  -0.0000021697  -0.0000087254
       -0.0000130956   0.0000006565   0.0000113748   0.0000124927  -0.0000206845
        0.0000192418   0.0000025498  -0.0000103651  -0.0000149667
        0.0031352481  -0.0058230161   0.4876271500  -0.0012797127   0.0023877694
       -0.0588066472   0.0001656613   0.0006260276   0.0006440716  -0.0002868485
        0.0003024971   0.0056347945   0.0000960018  -0.0001156777   0.0000169857
       -0.0004369239   0.0003987368   0.0073990525  -0.0003510671  -0.0004909347
        0.0028181235  -0.0000968622   0.0000344231  -0.0001153437   0.0000079918
       -0.0001248310  -0.0001215788  -0.0000468968  -0.0000668674   0.0000976133
       -0.0000140056   0.0000446502  -0.0000123149  -0.0000041952   0.0000188202
       -0.0000027413   0.0000568759   0.0001171840   0.0000015899  -0.0000379629
       -0.0001227701  -0.0000277885   0.0000485330  -0.0000267336   0.0000770112
        0.0000244480   0.0000270736   0.0000002888  -0.0001837368   0.0001137209
       -0.0001212415   0.0000482839  -0.0000890709   0.0000511622  -0.0000856645
       -0.0000132310   0.0000013919   0.0000672804  -0.0000292350   0.0000335399
       -0.0000280691   0.0000628807  -0.0000022395   0.0002205301   0.0001191397
       -0.0000579933   0.0000371496   0.0000189521  -0.0003008927   0.0000034902
        0.0000214831  -0.0000040194   0.0000453350   0.0000274680   0.0000183480
       -0.0000043557  -0.0000252898   0.0000186412  -0.0000376946  -0.0000172426
        0.0000072557  -0.0000115242   0.0000383613   0.0001529362  -0.0000528580
       -0.0000542557  -0.0000519874   0.0000598799   0.0000231645  -0.0011118218
       -0.0000471144  -0.0000145284  -0.0000643583   0.0000145513   0.0000186394
        0.0000033000   0.0000105425   0.0000015367   0.0000021655  -0.0000116915
       -0.0000098296   0.0000004212   0.0000005419  -0.0000029612  -0.0000015193
       -0.0000002992   0.0000007315   0.0000004960   0.0000022914   0.0000010106
        0.0000015306   0.0000006685  -0.0000011586   0.0000040880   0.0000027341
        0.0000033194   0.0000049746  -0.0000174821  -0.0000059870  -0.0000077442
       -0.0180303695  -0.0924784616  -0.2333545192  -0.0490334131  -0.0058400798
       -0.0548145876   0.0658484825   0.1010813960  -0.1514282109   0.0001907525
        0.0000020699  -0.0019050944  -0.0000459068   0.0000647011   0.0000674758
        0.0000104476  -0.0001542076  -0.0023080132   0.0000145113   0.0000147877
       -0.0000212289   0.0000004093   0.0000020071  -0.0000068880   0.0000034840
       -0.0000548893  -0.0000160482  -0.0000015347  -0.0000041756   0.0000042505
       -0.0000053461  -0.0000058579   0.0000014884   0.0000072951   0.0000393377
        0.0000222503  -0.0000065883  -0.0000038094   0.0000121005   0.0000044444
       -0.0000128034   0.0000015430   0.0000026452   0.0000030634   0.0000000260
       -0.0000006280  -0.0000120125   0.0000075428  -0.0000032878  -0.0000003400
       -0.0000010692   0.0000026481  -0.0000031139  -0.0000100187   0.0000099272
       -0.0000098169  -0.0000334452   0.0000155152  -0.0000069955  -0.0000111814
       -0.0000053023   0.0000009086  -0.0000060898   0.0000033513   0.0000011129
       -0.0000086390  -0.0000019414   0.0000008753   0.0000008565  -0.0000013052
        0.0000018879  -0.0000015556   0.0000062805  -0.0000006675   0.0000008624
       -0.0000044271  -0.0000006190  -0.0000062427   0.0000059653   0.0000017234
        0.0000051418  -0.0000026489   0.0000035952   0.0000021959   0.0000058513
       -0.0000014914   0.0000052979  -0.0000041236  -0.0000005359  -0.0000028909
       -0.0000022936   0.0000017287   0.0000009583   0.0000007167  -0.0000018856
        0.0000023922   0.0000033154  -0.0000014017  -0.0000053598
       -0.1014859135   0.0626389163  -0.0012797127   0.6329322599   0.0115836046
        0.0049379888  -0.3012097954  -0.0346453296  -0.0029230072  -0.0357653650
        0.0837298173  -0.0004453320  -0.0399082823  -0.0305673563  -0.0004127544
        0.0501428604  -0.0352945395   0.0007451758  -0.1558167624  -0.0637934045
       -0.0016933183   0.0026546081   0.0051478916   0.0000495212  -0.0013714241
        0.0006268483  -0.0017858998   0.0001226873   0.0003263106   0.0006109173
        0.0001102829  -0.0002470877  -0.0000970655  -0.0004474953  -0.0000721417
        0.0001172669   0.0006076961  -0.0004549651  -0.0003976330  -0.0002711326
        0.0002902599   0.0007324798  -0.0002481105   0.0004700651  -0.0000279810
       -0.0001260144  -0.0000152299   0.0000161211  -0.0002401077   0.0002652793
       -0.0006821829   0.0005847180  -0.0004154121   0.0004055944  -0.0004008737
       -0.0001127639  -0.0001050948   0.0000798547  -0.0001600154   0.0001442822
        0.0001457937   0.0003123937  -0.0006446448  -0.0014250117   0.0006170492
        0.0016575303   0.0020170591   0.0004553093   0.0000007278  -0.0000464593
        0.0001677750   0.0000158342   0.0007948105   0.0002327716  -0.0000067045
        0.0000478575  -0.0001667955  -0.0000055279  -0.0008963672  -0.0003884743
       -0.0000271861  -0.0003505214   0.0012823445  -0.0000074368  -0.0014848257
       -0.0027787054  -0.0000105894   0.0000949107   0.0051236701   0.0000098820
        0.0000869566  -0.0000266158  -0.0000078401   0.0000366351   0.0000391184
       -0.0001081066   0.0001269009   0.0000209701  -0.0000552392  -0.0000109869
       -0.0001171229  -0.0000043486   0.0000121031  -0.0000241650  -0.0000183568
       -0.0000375214  -0.0000097391   0.0000105147  -0.0000435583   0.0000115502
        0.0000294876  -0.0000557408  -0.0000119511   0.0000387544   0.0000890981
        0.0000259805   0.0000613562   0.0001032070   0.0000047969   0.0001191858
        0.0014999104   0.0022014054   0.0023521809  -0.0198316662   0.0260903361
        0.0001109488   0.0063677951  -0.0075447226  -0.0005461575  -0.0180215891
       -0.0027575498  -0.0002734991  -0.0000246802   0.0023896175  -0.0001575803
       -0.0197797226  -0.0246626844  -0.0004346124   0.0001856933   0.0000377403
       -0.0000125223   0.0000439069  -0.0000052792  -0.0000192916   0.0000485888
        0.0001737654  -0.0001610913  -0.0000579083  -0.0000433027   0.0003169176
       -0.0000319026  -0.0000306196  -0.0002957650   0.0000493394   0.0001768505
        0.0001763545   0.0000516477   0.0000044702   0.0000342115   0.0002007020
        0.0000106074   0.0000265875  -0.0000165018   0.0000498020  -0.0000013480
        0.0000340331  -0.0000511455   0.0000656991  -0.0000323285  -0.0000071839
        0.0000022692   0.0000236440  -0.0000244606  -0.0000680677   0.0001039870
       -0.0001085557  -0.0000347426   0.0001738073  -0.0000843712  -0.0000663354
       -0.0000646172   0.0000166564  -0.0000846955  -0.0000140703   0.0000464280
       -0.0000669277  -0.0000096093   0.0000318570   0.0000271913  -0.0000110798
       -0.0000150772   0.0000054199   0.0000453986  -0.0000032406   0.0000054173
       -0.0000235809   0.0000136451  -0.0000545420   0.0000392582   0.0000151852
        0.0000491205  -0.0000210148   0.0000576900   0.0000070376   0.0000431564
       -0.0000008062   0.0000551079  -0.0000255249  -0.0000070829  -0.0000435036
       -0.0000236337  -0.0000174269   0.0000052274  -0.0000142571  -0.0000179537
        0.0000510951  -0.0000552112  -0.0000055018   0.0000732381
        0.0678610064  -0.1845580495   0.0023877694   0.0115836046   0.6462604243
        0.0025622423   0.0423310550  -0.0900821138   0.0007152474   0.0259167606
        0.0201795355   0.0002325185  -0.0269296309  -0.0059241990  -0.0004093444
        0.0239709021  -0.0707727788   0.0001505681  -0.1439217162  -0.2601466907
       -0.0019582921   0.0059568750  -0.0014517456   0.0002035476  -0.0017403638
        0.0006734318  -0.0008563997   0.0004482295   0.0003090874   0.0002690908
       -0.0001526153  -0.0001658797  -0.0000796037   0.0001216863  -0.0000743577
       -0.0000255511  -0.0002437640  -0.0003563646   0.0000783486   0.0010750613
        0.0002158453   0.0001093207  -0.0011511723   0.0004327098  -0.0000795659
        0.0002534723  -0.0001552192   0.0000030210   0.0010858700   0.0002097506
        0.0000116200  -0.0002385949  -0.0003605365  -0.0001388390   0.0001451561
       -0.0000471315   0.0000503454  -0.0001814129  -0.0001796342   0.0000672656
        0.0004652190   0.0003096600  -0.0002480062  -0.0017732816   0.0006614761
        0.0007095434  -0.0004902140  -0.0012426099  -0.0000066110   0.0001688828
       -0.0000567175   0.0000051346  -0.0002275648  -0.0002229520   0.0000072911
        0.0000043110   0.0000265582   0.0000043795   0.0000857765  -0.0000188152
        0.0000062990   0.0001351583   0.0000402207   0.0000022442   0.0004562441
        0.0008615616   0.0000150149   0.0018341234  -0.0032589377   0.0000822291
        0.0001783591  -0.0000533854   0.0000042740   0.0000598003  -0.0000247401
        0.0000442316  -0.0000451177  -0.0000054368  -0.0000119272   0.0000436545
        0.0000256151  -0.0000144146   0.0000170849   0.0000089331   0.0000195980
       -0.0000022034  -0.0000011462   0.0000004347  -0.0000010314   0.0000021553
       -0.0000151123   0.0000036309  -0.0000000663  -0.0000194900  -0.0000445019
       -0.0000130230   0.0000105104   0.0000336466  -0.0000237134  -0.0000402307
        0.0078253592  -0.0203235918  -0.0059703866   0.0033948312   0.0015259920
       -0.0002356576   0.0069152084  -0.0256330710   0.0022104546  -0.0261890102
       -0.0017800200  -0.0000826040   0.0033199203  -0.0042889290   0.0000708369
       -0.0023049220  -0.0008289744   0.0001749576  -0.0000026858  -0.0000496868
        0.0001341271   0.0000149396   0.0000101331   0.0001301574   0.0000100951
        0.0001572811   0.0001261122  -0.0000005329   0.0000040063   0.0001415878
        0.0000084171  -0.0000003065  -0.0001434545   0.0000155240   0.0001563089
       -0.0001359765   0.0000169587   0.0000140889  -0.0001381588   0.0000062389
       -0.0000410261  -0.0001328844  -0.0000033488  -0.0000568798  -0.0000010236
       -0.0000086056   0.0000405923  -0.0000409149   0.0000327251  -0.0000036270
       -0.0000015110  -0.0000026975   0.0000317395   0.0000414587  -0.0000561385
        0.0000573057   0.0000084354  -0.0001055137   0.0000244979   0.0000200862
        0.0000148376  -0.0000230983  -0.0000108132  -0.0000016202  -0.0000073746
        0.0000295954   0.0000133506  -0.0000079658  -0.0000072636   0.0000091507
        0.0000017554   0.0000018462  -0.0000312020   0.0000056135  -0.0000023760
        0.0000162533  -0.0000001631   0.0000087573  -0.0000313672  -0.0000057615
       -0.0000094547   0.0000194081  -0.0000159231  -0.0000008534  -0.0000299960
        0.0000093920  -0.0000093978   0.0000163525   0.0000001989   0.0000072131
        0.0000133948   0.0000011332  -0.0000086867   0.0000029833   0.0000132455
       -0.0000247168   0.0000093064  -0.0000076058   0.0000018061
        0.0004387243  -0.0006864849  -0.0588066472   0.0049379888   0.0025622423
        0.1439964270  -0.0031107595  -0.0005313580  -0.0509383442  -0.0003879586
        0.0013561898   0.0005078803  -0.0004257727  -0.0005001222  -0.0056787262
        0.0005039357  -0.0004155900  -0.0008989868  -0.0014471771  -0.0008378790
       -0.0471955725  -0.0000407574   0.0000052867   0.0064451633   0.0008387684
        0.0005054382   0.0001897553   0.0000269152   0.0000094225   0.0000435266
        0.0000442865  -0.0000127623  -0.0000690935  -0.0000656136   0.0000163238
        0.0000443377   0.0000030982  -0.0000418081  -0.0000955226  -0.0001078778
       -0.0000055168   0.0002713539  -0.0001370489   0.0000167862  -0.0001855871
        0.0001148578  -0.0000107802  -0.0000247958   0.0001934370   0.0000255119
        0.0003332615  -0.0000460012   0.0000150495  -0.0001337195   0.0001038562
       -0.0000214142   0.0000321483  -0.0000600243  -0.0000045301  -0.0000913953
       -0.0000050176   0.0000044716   0.0000963509  -0.0009304604  -0.0004624877
        0.0001015472   0.0000483864  -0.0000484590   0.0002564586   0.0000046991
       -0.0000255671  -0.0001147434   0.0000155334  -0.0000078261  -0.0000407037
        0.0000013806   0.0000017641   0.0000192131  -0.0000341528  -0.0000223851
       -0.0000007687  -0.0000041943   0.0000514341  -0.0000357181  -0.0000951898
       -0.0001627708   0.0000967103  -0.0000402868   0.0003015709   0.0000474523
        0.0000431531   0.0000168920  -0.0000742943  -0.0000160126   0.0000586386
        0.0000193954   0.0000322344   0.0000066911   0.0000005123   0.0000055483
        0.0000043713  -0.0000149189  -0.0000002985   0.0000008442   0.0000013783
       -0.0000034087   0.0000019987   0.0000017828  -0.0000006087   0.0000015379
        0.0000016948   0.0000004310  -0.0000016683  -0.0000009964  -0.0000337640
       -0.0000081049   0.0000069363   0.0000323639  -0.0000642444   0.0000467585
        0.0124394165  -0.0244234131  -0.0003883132  -0.0031076995   0.0053678812
        0.0004227320  -0.0090712035   0.0183202959   0.0003624079  -0.0002236759
       -0.0000071929   0.0015203318  -0.0000835040  -0.0000305883   0.0085926449
       -0.0003225863  -0.0003493366   0.0013701077   0.0000027142   0.0000098450
        0.0000176830   0.0000004928  -0.0000113674  -0.0000029968   0.0000011303
        0.0000109426   0.0000046095   0.0000144713   0.0000041571  -0.0000021797
       -0.0000162804  -0.0000007247   0.0000013921  -0.0000067666   0.0000012952
       -0.0000121210   0.0000032553   0.0000127998  -0.0000137939  -0.0000094708
       -0.0000092877   0.0000052687   0.0000019769  -0.0000010473   0.0000070896
       -0.0000019339   0.0000013267  -0.0000027127   0.0000027987  -0.0000002528
        0.0000002662   0.0000003725   0.0000067195   0.0000038504  -0.0000031841
        0.0000048735   0.0000107856  -0.0000067529   0.0000024180   0.0000030413
       -0.0000115683  -0.0000040284  -0.0000204257   0.0000012599  -0.0000041911
       -0.0000033717  -0.0000001748  -0.0000020942  -0.0000018957   0.0000007046
        0.0000004335  -0.0000004373  -0.0000026380  -0.0000001498  -0.0000012811
        0.0000018268  -0.0000006443  -0.0000039753  -0.0000032220  -0.0000007964
       -0.0000021965   0.0000011099  -0.0000012735   0.0000023543  -0.0000034030
        0.0000006183  -0.0000020889   0.0000013562  -0.0000010137  -0.0000016565
        0.0000009703   0.0000001010  -0.0000006370  -0.0000051824   0.0000066021
       -0.0000064608   0.0000081767   0.0000063865  -0.0000175320
       -0.0208734835   0.0098454827   0.0001656613  -0.3012097954   0.0423310550
       -0.0031107595   0.6401431094  -0.0046879348   0.0066932881  -0.1523157054
        0.0721153273  -0.0014485701   0.0482161694   0.0298754236   0.0005927644
       -0.0360047642   0.0307893951  -0.0004203801  -0.0372646447  -0.0765868668
       -0.0003105753  -0.0013603478  -0.0016144756  -0.0000684981  -0.0000169644
       -0.0006205455   0.0013148193   0.0001094591  -0.0002394460  -0.0004303071
       -0.0003259333   0.0002033052   0.0001140345   0.0006618549   0.0000329730
       -0.0001254120  -0.0007891922   0.0002731184   0.0005338101   0.0011551499
       -0.0001922889  -0.0006747860  -0.0005745992  -0.0002540687  -0.0000043122
        0.0005162841  -0.0000263755  -0.0000030292   0.0011000645  -0.0001678980
        0.0006559255  -0.0007594328   0.0002259339  -0.0005597948   0.0006021415
        0.0001038926   0.0001181935  -0.0002987121   0.0000979410  -0.0001704130
        0.0000917235  -0.0002161828   0.0004561512   0.0000699337  -0.0006005879
       -0.0012794106  -0.0017128770   0.0002643650  -0.0000085199  -0.0000032221
       -0.0001213482  -0.0000195665  -0.0009080965  -0.0000916376   0.0000126490
       -0.0000945050   0.0001703109   0.0000055923   0.0009836029   0.0003697667
        0.0000390058   0.0001907704  -0.0016324334   0.0000225914   0.0024765695
        0.0025305249   0.0000034171  -0.0016483599  -0.0116983096  -0.0001085614
       -0.0005835913   0.0005494087   0.0000101536   0.0000006140   0.0000821254
        0.0000831792  -0.0000419524   0.0000344361   0.0001193191   0.0000564397
        0.0001475086  -0.0000114679  -0.0000540584   0.0000181210   0.0000225721
        0.0000585347   0.0000086372  -0.0000387698   0.0000864970  -0.0000487911
       -0.0000412039   0.0000893094   0.0000415431  -0.0000592171  -0.0000246688
        0.0000159304  -0.0001009926  -0.0001038964   0.0001149652  -0.0000740982
       -0.0006558713  -0.0011473250  -0.0009220027  -0.0016302255   0.0025060988
       -0.0002154490  -0.0003164491  -0.0018368620   0.0007701389  -0.1161843903
       -0.1149492996  -0.0012545898  -0.0183642499   0.0265818761  -0.0002323316
       -0.0014835519  -0.0028006449  -0.0000504585  -0.0002350170  -0.0000034204
        0.0000765644  -0.0000088798   0.0000107483   0.0000444490  -0.0000750796
       -0.0000883847   0.0001891397   0.0000428390   0.0000431034  -0.0002911854
        0.0000185914   0.0000253125   0.0002634980  -0.0000784401  -0.0000858575
       -0.0002151316  -0.0000212737   0.0000027085  -0.0000613043  -0.0002450751
        0.0000354119  -0.0000983542  -0.0000205700  -0.0000732894   0.0000008676
       -0.0000623326   0.0000686815  -0.0000755501   0.0000371757   0.0000160873
       -0.0000010218  -0.0000467799   0.0000293739   0.0000813471  -0.0001507940
        0.0001055578   0.0000453454  -0.0002066062   0.0000931671   0.0000891180
       -0.0000037454   0.0000357297   0.0000492432   0.0000171473  -0.0000474055
        0.0000718636   0.0000208640  -0.0000377828  -0.0000293310   0.0000115293
        0.0000127022   0.0000024166  -0.0000563048   0.0000106189  -0.0000116207
        0.0000357246  -0.0000158705   0.0000590341  -0.0000439906  -0.0000035919
       -0.0000633708   0.0000481465  -0.0000596829  -0.0000005743  -0.0000526925
        0.0000017365  -0.0000698562   0.0000386050   0.0000096503   0.0000562403
        0.0000343895   0.0000170342  -0.0000077196   0.0000106758   0.0000397431
       -0.0000546356  -0.0000127935   0.0000617743  -0.0000392604
        0.0279699840  -0.0060206412   0.0006260276  -0.0346453296  -0.0900821138
       -0.0005313580  -0.0046879348   0.6853597886   0.0002738115   0.1471938774
       -0.2959612839   0.0016649115  -0.0241976069  -0.0673933960  -0.0003128209
        0.0254952300  -0.0142241916   0.0003210861  -0.0250546587   0.0268235276
       -0.0004872946   0.0003238769   0.0003550747   0.0000090567  -0.0003074363
        0.0000957912  -0.0005329122  -0.0000846971   0.0001882578   0.0001988379
        0.0000409641  -0.0001092138   0.0000047927  -0.0001726240  -0.0000189372
        0.0000671175   0.0002963344  -0.0001536894  -0.0002929287  -0.0001290953
        0.0000681413   0.0002891553   0.0004185362   0.0001918518   0.0000187887
       -0.0006637485  -0.0000027440  -0.0000023531  -0.0001156907   0.0000601375
       -0.0002577952   0.0002835366  -0.0001129599   0.0003158122  -0.0001481164
       -0.0000908248  -0.0000570872   0.0000565024  -0.0000407006   0.0000105672
       -0.0000943188   0.0001771211  -0.0001996787  -0.0002944757   0.0001002076
        0.0004805905   0.0011399236   0.0003213138  -0.0000133858  -0.0000464198
       -0.0000840152   0.0000031121   0.0004002602  -0.0000174902  -0.0000097090
        0.0000412268   0.0000135433   0.0000000843  -0.0003742438  -0.0002524004
       -0.0000239754  -0.0004248458   0.0005421932  -0.0000045593  -0.0006217985
       -0.0033695027  -0.0000082738  -0.0034446578   0.0022652461  -0.0000154494
        0.0000801742  -0.0001667220  -0.0000066472  -0.0000941286   0.0001296747
       -0.0002125546   0.0001157116   0.0000069701  -0.0001037372   0.0000956823
       -0.0001150632  -0.0000191079   0.0000555376  -0.0000080075   0.0000022774
       -0.0000739027   0.0000180805   0.0000317638  -0.0001063672   0.0000402287
        0.0000311247  -0.0000965326  -0.0000374500   0.0000329105   0.0000722297
        0.0000184709   0.0000981372  -0.0000024616   0.0000744855   0.0002328420
        0.0015443403   0.0000414226   0.0002994935   0.0032002415  -0.0046172701
        0.0000309203   0.0018883516   0.0007268016  -0.0004643974  -0.1152083809
       -0.2281568552  -0.0014786430   0.0031806489  -0.0021863581   0.0000404811
       -0.0032091956  -0.0041236725  -0.0000446681   0.0001235974  -0.0000470162
        0.0000254948  -0.0000175532  -0.0000101063   0.0000038518   0.0000483444
        0.0000606588  -0.0000454423  -0.0000309349  -0.0000105600   0.0001570150
       -0.0000150057   0.0000058411  -0.0001367385   0.0000564201   0.0000596726
        0.0000637207  -0.0000062186  -0.0000046060   0.0000061825   0.0001286866
       -0.0000744497  -0.0000060156   0.0000328216   0.0000435673   0.0000018526
        0.0000378343  -0.0000447719   0.0000187432  -0.0000367765  -0.0000169723
        0.0000012863   0.0000288724  -0.0000180002  -0.0000194040   0.0000666892
       -0.0000786607  -0.0000332249   0.0000546261  -0.0000692975  -0.0000633876
       -0.0000130782  -0.0000456588  -0.0000248025  -0.0000350449   0.0000380276
       -0.0000288456   0.0000080956   0.0000335121   0.0000185404   0.0000044418
       -0.0000279912   0.0000093091   0.0000165577  -0.0000049771   0.0000085475
       -0.0000005025   0.0000215260  -0.0000508474   0.0000012759  -0.0000025133
        0.0000517836  -0.0000065028   0.0000553739  -0.0000141079   0.0000158731
        0.0000062267   0.0000538113  -0.0000109253  -0.0000155127  -0.0000536100
       -0.0000155835  -0.0000347539   0.0000234785  -0.0000209900  -0.0000219812
        0.0000211615  -0.0000095228  -0.0000694041   0.0000072818
        0.0003423024   0.0004610936   0.0006440716  -0.0029230072   0.0007152474
       -0.0509383442   0.0066932881   0.0002738115   0.1132146373  -0.0013722820
        0.0005039681  -0.0414943648   0.0008047357   0.0003949906  -0.0009399826
       -0.0005630301   0.0005439100  -0.0036686344  -0.0004648463  -0.0012923076
        0.0015416824  -0.0000144331  -0.0000286010  -0.0004285036   0.0000493625
       -0.0000023851   0.0002243913   0.0000480136   0.0000424217  -0.0000883892
       -0.0000007516  -0.0000045333   0.0000386878   0.0000121022   0.0000070639
       -0.0000346618  -0.0000260544  -0.0000356707   0.0000425160  -0.0000736929
        0.0000260209  -0.0001373652   0.0000155429  -0.0000102704   0.0001600406
       -0.0000194834   0.0000019562  -0.0000396867   0.0001045220  -0.0000356509
       -0.0001162821   0.0000070268   0.0000528538   0.0000310657   0.0000048946
       -0.0000053798  -0.0000305786  -0.0000082332   0.0000125183   0.0000333523
       -0.0000387616  -0.0000601186  -0.0000745451  -0.0000507690  -0.0000199026
        0.0001841767  -0.0000326200   0.0000104371   0.0001172365   0.0000006949
       -0.0000034006  -0.0000477275  -0.0000166885  -0.0000010200  -0.0000010715
       -0.0000008509   0.0000042593   0.0000105140   0.0000225282   0.0000084482
       -0.0001399697  -0.0000010249  -0.0000360139  -0.0002280715   0.0000501856
        0.0000390470   0.0010947603  -0.0001402483  -0.0001335238   0.0046681573