$hessian                                                                        
        0.6500410535  -0.0276278041   0.0562654611  -0.1894349931  -0.0629380329
       -0.0276985554   0.0471811404  -0.0540620985  -0.0045696012  -0.0503629692
       -0.0104715388  -0.0070939263  -0.0251859162   0.0827898551   0.0122656430
       -0.3303122457   0.0134520901  -0.0303652428   0.0130398594  -0.0095502593
       -0.0009514104   0.0032656787   0.0098692629   0.0020519700  -0.0007058393
        0.0040324249   0.0007182942   0.0007104046   0.0001958558   0.0001086039
       -0.0001000442  -0.0001213678  -0.0000286064   0.0001252114  -0.0000566676
        0.0000048091  -0.0000586880   0.0000426427  -0.0000014959   0.0000364188
       -0.0000087100   0.0000052799  -0.0000188255  -0.0000078983  -0.0000024907
        0.0000005459  -0.0000003184   0.0000015690   0.0000306047  -0.0000073628
        0.0000050272  -0.0000384139  -0.0000155127   0.0000057767   0.0000005219
        0.0000148247  -0.0000078066   0.0000018468  -0.0000009699   0.0000002457
       -0.0000014097  -0.0000008043   0.0000010592   0.0000010561   0.0000015240
        0.0000001435  -0.0000038620   0.0000068408  -0.0000038853   0.0000040197
        0.0000005391  -0.0000011342  -0.0000024252   0.0000037416  -0.0000064453
       -0.0000075483   0.0000079355  -0.0000035606   0.0000370482  -0.0000064347
       -0.0000113959  -0.0002411026   0.0001930804   0.0000154480  -0.0020024216
       -0.0027120918  -0.0007042327   0.0005155733   0.0015789850   0.0003524414
       -0.0013979135  -0.0004776775  -0.0002530969   0.0009546275  -0.0008135869
       -0.0000397776   0.0000241667   0.0007686497   0.0001459212  -0.0002638494
       -0.0003135223  -0.0000676969  -0.0028760242  -0.0043893652  -0.0011000627
       -0.0689557976   0.0758719174   0.0097403795  -0.0234023881  -0.0198103427
       -0.0063252848   0.0008787006   0.0025559922  -0.0003552428  -0.0214253657
        0.0018649240  -0.0021245948  -0.0001327753   0.0000850960   0.0000014915
       -0.0000184663  -0.0000074966  -0.0000005882   0.0000029056  -0.0000016635
        0.0000014079  -0.0000037927  -0.0000003590  -0.0000017313  -0.0000010965
       -0.0000009941  -0.0000005848  -0.0000006663   0.0000001074   0.0000022722
       -0.0000020281  -0.0000014627   0.0000027597   0.0000021001  -0.0000009371
        0.0000024875   0.0000021650  -0.0000009216   0.0000007174  -0.0000125436
        0.0000024270  -0.0000028633  -0.0000208409  -0.0000145005  -0.0000024013
        0.0000167188   0.0000252354  -0.0000018521   0.0000212934  -0.0000067856
       -0.0000012323   0.0000965911   0.0000635358   0.0000275908
       -0.0276278041   0.6389877568   0.0925047950  -0.1398871110  -0.2005805476
       -0.0438608468   0.0016999398  -0.0579436430  -0.0105581279  -0.0197992790
        0.0003414656  -0.0012363978   0.0336774142  -0.0013997170   0.0036739227
        0.0868870161  -0.1026263017  -0.0008259456   0.0020587905  -0.0048897665
       -0.0017650383   0.0008521761  -0.0021865525  -0.0004566266  -0.0011440264
        0.0012895328   0.0001831146   0.0005341328   0.0000622035   0.0000783279
       -0.0001384402  -0.0000529978  -0.0000154654   0.0001693745  -0.0000888177
        0.0000075660  -0.0000191006   0.0000762436   0.0000094639   0.0000169082
       -0.0000042138   0.0000066950  -0.0000103898  -0.0000081174  -0.0000063767
       -0.0000049959  -0.0000095068   0.0000110924   0.0000773960  -0.0000143436
        0.0000106428  -0.0000806478  -0.0000126018   0.0000043680   0.0000040758
        0.0000160894  -0.0000088603   0.0000057950  -0.0000007328   0.0000004196
        0.0000064191  -0.0000028470   0.0000014694  -0.0000017227   0.0000065509
       -0.0000039112  -0.0000019376   0.0000095139  -0.0000052333   0.0000129773
       -0.0000006821  -0.0000010264  -0.0000013016   0.0000166011  -0.0000160253
       -0.0000050873   0.0000056956   0.0000071821   0.0000413689  -0.0000190121
       -0.0000117149  -0.0001281079   0.0001831088   0.0000159417  -0.0005766682
       -0.0006674006  -0.0001715045   0.0000221951   0.0002136849   0.0000414548
       -0.0002237851  -0.0000869544  -0.0000491804   0.0002919778  -0.0001393952
        0.0000034468  -0.0001379034   0.0000678247  -0.0000033290  -0.0000830123
        0.0001997768   0.0000434382   0.0025534079  -0.0030382189  -0.0002643233
        0.0759055358  -0.2705641862  -0.0346198424   0.0037080638   0.0040773036
        0.0011285730   0.0019399565  -0.0046842744  -0.0021261912  -0.0206531061
        0.0034470109  -0.0017517840  -0.0000524114  -0.0000913961  -0.0000180022
       -0.0000071370  -0.0000052317  -0.0000069069   0.0000028776  -0.0000022559
        0.0000039678  -0.0000003989   0.0000042931  -0.0000023488  -0.0000017475
        0.0000016980  -0.0000006770  -0.0000045760  -0.0000011710   0.0000008082
       -0.0000005992  -0.0000047604   0.0000026475   0.0000038997  -0.0000005479
       -0.0000001783   0.0000052705   0.0000006386  -0.0000045848  -0.0000113375
        0.0000026378   0.0000052827   0.0000017752   0.0000018309  -0.0000000844
        0.0000124910  -0.0000097736   0.0000068889   0.0000019934   0.0000113341
        0.0000095464   0.0001094062   0.0001131721   0.0000294781
        0.0562654611   0.0925047950   0.1379474803  -0.0417257136  -0.0350619064
       -0.0591466112   0.0056027557  -0.0169400344  -0.0014039789  -0.0087735112
       -0.0001703732  -0.0063427102   0.0033025108   0.0092888941   0.0016424738
       -0.0169773214  -0.0092192243  -0.0471897919   0.0011837722  -0.0030917960
        0.0056918603   0.0004175435   0.0005417637   0.0010168277  -0.0002360751
        0.0007815295  -0.0003200556   0.0001733038   0.0000323956   0.0000162066
       -0.0000305747  -0.0000168059  -0.0000533218   0.0000380106  -0.0000245064
        0.0000363177  -0.0000047645   0.0000163186  -0.0000020700   0.0000053408
       -0.0000008556  -0.0000080113  -0.0000032659  -0.0000022686  -0.0000008728
       -0.0000015708   0.0000003043   0.0000025779   0.0000188544  -0.0000049515
        0.0000021831  -0.0000196427  -0.0000038238   0.0000032069   0.0000011215
        0.0000041275  -0.0000033893   0.0000004999   0.0000000173   0.0000002463
        0.0000005679  -0.0000012665   0.0000009585   0.0000005489   0.0000018195
       -0.0000008177  -0.0000022464   0.0000051881  -0.0000025300   0.0000042336
       -0.0000011320   0.0000002560  -0.0000007422   0.0000032128  -0.0000024097
       -0.0000016172   0.0000064659  -0.0000003964   0.0000067924  -0.0000066973
        0.0000012409  -0.0000511764   0.0000508322   0.0000419199  -0.0003210662
       -0.0003995568  -0.0002556068   0.0000699614   0.0002262352   0.0000302116
       -0.0002043730  -0.0000832556  -0.0000024751   0.0001549266  -0.0001178084
        0.0000130005  -0.0000148776   0.0001066579   0.0000057279  -0.0000288733
        0.0000320744  -0.0001471854   0.0001417732  -0.0010639681  -0.0001377369
        0.0097578904  -0.0346058355  -0.0384571543  -0.0020361035  -0.0015731571
       -0.0002697467  -0.0004881458  -0.0020567561   0.0077815266  -0.0062325449
        0.0008225501  -0.0004568989  -0.0000239113  -0.0000021682  -0.0000245247
       -0.0000034688  -0.0000029879   0.0000011851   0.0000002666  -0.0000017838
        0.0000007772  -0.0000005258   0.0000004503  -0.0000008422  -0.0000000502
       -0.0000002595  -0.0000001301  -0.0000008080  -0.0000003891   0.0000003216
       -0.0000010062  -0.0000019133   0.0000010622   0.0000014811  -0.0000008747
        0.0000001259   0.0000012129  -0.0000014503  -0.0000011104  -0.0000030607
        0.0000014845   0.0000005698  -0.0000005494   0.0000005570  -0.0000138627
        0.0000039601   0.0000011866   0.0000046656   0.0000044779   0.0000014003
       -0.0000042319   0.0000303198   0.0000275458   0.0000055433
       -0.1894349931  -0.1398871110  -0.0417257136   0.6524872453  -0.0274177405
        0.0568666355  -0.1097646088   0.1011572027   0.0107608531  -0.0114594859
        0.0342476403   0.0049942452   0.0040449065  -0.0155161237  -0.0017645241
       -0.0555314837  -0.0047443050  -0.0073510794  -0.0034597386   0.0045488691
        0.0004727015  -0.0026980732  -0.0027927420  -0.0008936440  -0.0003957993
       -0.0004157438  -0.0001119885  -0.0001314866   0.0000234307  -0.0000107383
        0.0000911056  -0.0000658388  -0.0000030131  -0.0000883775   0.0000862201
       -0.0000013961   0.0000137917  -0.0000153549  -0.0000008500   0.0000107092
        0.0000062940  -0.0000009432  -0.0000018097  -0.0000116575   0.0000093054
       -0.0000025765   0.0000041133  -0.0000036306  -0.0000224138   0.0000053899
       -0.0000034884   0.0000165895   0.0000006466   0.0000007406  -0.0000044884
       -0.0000021286   0.0000015950  -0.0000004948  -0.0000008504   0.0000009875
       -0.0000066426   0.0000044452  -0.0000023880  -0.0000026499  -0.0000033766
        0.0000021709   0.0000006473  -0.0000040069   0.0000027418  -0.0000102212
        0.0000023738  -0.0000008502  -0.0000047033  -0.0000014055   0.0000032093
        0.0000042282   0.0000060011  -0.0000036215  -0.0000750103  -0.0000411393
       -0.0000083844   0.0000529895   0.0000039818   0.0000052986   0.0004124425
        0.0004501389   0.0001657010  -0.0001249928  -0.0002423792  -0.0000401599
        0.0004432285  -0.0000051152   0.0000516107  -0.0002533361   0.0003816127
        0.0000553923  -0.0003279835  -0.0006063870  -0.0001571599  -0.0002231700
        0.0010701277   0.0000898878  -0.0037852687   0.0000358647  -0.0010863641
        0.0049792036   0.0055920882   0.0015788284  -0.2847078984   0.0616982649
       -0.0177163469   0.0048329335  -0.0193442283  -0.0029733600  -0.0050059030
        0.0015843978  -0.0012365845   0.0000642370   0.0000389866   0.0000115821
        0.0000236582  -0.0000040866   0.0000053938  -0.0000000158   0.0000031474
       -0.0000018806  -0.0000050112   0.0000002149   0.0000008487  -0.0000016697
       -0.0000004497   0.0000005752   0.0000007726   0.0000000639  -0.0000001628
       -0.0000010496   0.0000021693  -0.0000013114  -0.0000017620   0.0000012343
       -0.0000013137  -0.0000002850  -0.0000019494   0.0000006625   0.0000053632
        0.0000090862  -0.0000023211  -0.0000017160  -0.0000242004  -0.0000008537
        0.0000118683  -0.0000026250  -0.0000092697   0.0000096498  -0.0000011486
       -0.0000066526   0.0000295487   0.0001880874   0.0000390277
       -0.0629380329  -0.2005805476  -0.0350619064  -0.0274177405   0.6347970277
        0.0919008856   0.0267766123  -0.3149021870  -0.0464711232   0.0874736859
       -0.0128851132   0.0077809889  -0.0050582175  -0.0513621124  -0.0090119452
       -0.0614925204   0.0431692339   0.0006248282  -0.0070167312   0.0036227358
       -0.0000536461  -0.0012331230  -0.0027938422  -0.0007728946   0.0014555359
       -0.0049199466  -0.0007012124  -0.0008823381  -0.0001761963  -0.0001226405
        0.0001203359   0.0001068511   0.0000294873  -0.0001415903   0.0000222309
       -0.0000168426   0.0000068115  -0.0000854847  -0.0000069438  -0.0000337563
        0.0000091755  -0.0000059180   0.0000154125   0.0000282022  -0.0000026390
        0.0000133220   0.0000075974  -0.0000126948  -0.0000811095   0.0000157290
       -0.0000115517   0.0000929755   0.0000153740  -0.0000075115  -0.0000000962
       -0.0000198121   0.0000104682  -0.0000082248   0.0000057350  -0.0000040946
       -0.0000021202   0.0000001392   0.0000002675   0.0000039611  -0.0000029624
        0.0000025339   0.0000059509  -0.0000083137   0.0000052568  -0.0000075331
       -0.0000014250   0.0000027119   0.0000123194  -0.0000184513   0.0000167308
        0.0000086193  -0.0000266059   0.0000009841   0.0000679067   0.0001030904
        0.0000332192   0.0001583412  -0.0002095855  -0.0000279687   0.0022240393
        0.0028303931   0.0008118488  -0.0004049522  -0.0014175583  -0.0002878549
        0.0013109388   0.0003609213   0.0002121501  -0.0010019507   0.0007225658
        0.0000468308  -0.0001289077  -0.0007651695  -0.0001786321   0.0001827344
       -0.0000490766  -0.0001177925  -0.0014732077   0.0094679096   0.0005193538
       -0.0180192862  -0.0241431281  -0.0065058964   0.0620819719  -0.0593315881
        0.0022153843   0.0033816150  -0.0227424430  -0.0037605631   0.0019857525
        0.0012319532  -0.0010494030   0.0000706601  -0.0001069477  -0.0000036522
        0.0000155208   0.0000112284   0.0000064983  -0.0000082383  -0.0000004294
       -0.0000043816   0.0000083000  -0.0000070052   0.0000015744   0.0000049895
       -0.0000017826   0.0000004471   0.0000048533   0.0000036412  -0.0000010674
        0.0000025811   0.0000059005  -0.0000016372  -0.0000024759  -0.0000000399
        0.0000013273  -0.0000041782   0.0000005919   0.0000037320   0.0000234563
       -0.0000163910  -0.0000026167   0.0000086307   0.0000396633   0.0000049293
       -0.0000044301  -0.0000042885  -0.0000124369  -0.0000028869  -0.0000049567
        0.0000043538  -0.0001541857   0.0000054997  -0.0000193256
       -0.0276985554  -0.0438608468  -0.0591466112   0.0568666355   0.0919008856
        0.1364509314  -0.0027828261  -0.0379535486  -0.0501146894   0.0146922267
        0.0016760936   0.0014139567   0.0001384940  -0.0101864822  -0.0071084357
       -0.0176985808   0.0071300745   0.0003960121  -0.0016209143   0.0012640476
       -0.0003594046  -0.0006223877  -0.0009592994   0.0003891643   0.0002304087
       -0.0009200166  -0.0002411201  -0.0001659342  -0.0000223849  -0.0000619273
        0.0000275978   0.0000117754   0.0000127759  -0.0000292643   0.0000083811
       -0.0000003471   0.0000024696  -0.0000151273  -0.0000023195  -0.0000071286
        0.0000020428  -0.0000011166   0.0000032553   0.0000070403  -0.0000004546
        0.0000017028   0.0000022792  -0.0000020686  -0.0000168221   0.0000026162
       -0.0000031662   0.0000193051   0.0000028697   0.0000004603  -0.0000000030
       -0.0000036485   0.0000009849  -0.0000023063   0.0000009815  -0.0000003430
       -0.0000014392   0.0000002452   0.0000001390   0.0000011313  -0.0000005847
        0.0000006982  -0.0000002823  -0.0000000520   0.0000005876  -0.0000010006
       -0.0000009349   0.0000008708   0.0000008450  -0.0000040092   0.0000036561
       -0.0000004961  -0.0000027570  -0.0000000701   0.0000044925   0.0000164119
        0.0000055079   0.0000360050  -0.0000403465   0.0000039135   0.0004730330
        0.0006072801  -0.0000540607  -0.0000710400  -0.0002673999  -0.0001801288
        0.0002853013   0.0000625311   0.0000499309  -0.0001967832   0.0002050727
       -0.0001119179  -0.0000679894  -0.0002312345   0.0000527636  -0.0000866971
       -0.0000238984   0.0007678812  -0.0013415662   0.0007040878   0.0056359335
       -0.0027404961  -0.0038036075  -0.0007898705  -0.0176364877   0.0021701199
       -0.0340233820   0.0011682713  -0.0063611423  -0.0010190067  -0.0011640657
       -0.0011132134   0.0079846971   0.0000210643  -0.0000131641  -0.0000116642
        0.0000049287   0.0000023558   0.0000009356  -0.0000019167  -0.0000013906
       -0.0000006887   0.0000015488  -0.0000017399   0.0000002986   0.0000010802
       -0.0000006984   0.0000001210   0.0000010079   0.0000004890  -0.0000003183
       -0.0000000830   0.0000006208  -0.0000003062  -0.0000000775  -0.0000005963
        0.0000000008  -0.0000007270  -0.0000010877   0.0000005145   0.0000042096
       -0.0000024128  -0.0000001697   0.0000007983   0.0000040466   0.0000062612
       -0.0000024695  -0.0000076723   0.0000325789   0.0000009966  -0.0000014174
       -0.0000043393  -0.0000284692   0.0000183654   0.0000263515
        0.0471811404   0.0016999398   0.0056027557  -0.1097646088   0.0267766123
       -0.0027828261   0.6587913820   0.0087235455   0.0647927756  -0.3278482475
        0.0631294126  -0.0215035622  -0.0400100215  -0.0473777672  -0.0130109714
       -0.0285304049   0.0263339644   0.0017456370  -0.0058105477  -0.0014477383
       -0.0014295006  -0.0014885705   0.0037537847   0.0002699369   0.0017012753
       -0.0051316322  -0.0008339971  -0.0014122150  -0.0000767680  -0.0002026953
        0.0002282330   0.0001512857   0.0000563880  -0.0002367002   0.0000216844
       -0.0000308482  -0.0000233433  -0.0001195897  -0.0000121386  -0.0000353011
        0.0000104985  -0.0000078584   0.0000275323   0.0000437422   0.0000012153
        0.0000245105   0.0000153306  -0.0000182222  -0.0001362731   0.0000287833
       -0.0000202037   0.0001536528   0.0000315859  -0.0000136803  -0.0000031663
       -0.0000393879   0.0000213547  -0.0000106499   0.0000071635  -0.0000051741
       -0.0000067118   0.0000019125  -0.0000022524   0.0000082769  -0.0000092229
        0.0000040960   0.0000096904  -0.0000163682   0.0000084375  -0.0000152754
       -0.0000003667   0.0000024619   0.0000185368  -0.0000348481   0.0000297535
        0.0000107404  -0.0000407385  -0.0000002835   0.0000656798   0.0001670489
        0.0000600853   0.0001442835  -0.0002745089  -0.0000487088   0.0019870023
        0.0022792125   0.0006286413  -0.0003810969  -0.0007849930  -0.0001894715
        0.0008076063   0.0003905692   0.0001667878  -0.0010025327   0.0004952711
       -0.0000325421   0.0003209261  -0.0005867462  -0.0000669947   0.0000935775
        0.0002388829   0.0000800603  -0.0196854646   0.0186525429   0.0015716497
       -0.0019033159  -0.0031831756  -0.0015402581  -0.0114794669   0.0284912114
        0.0039148027  -0.1616752771  -0.1226279606  -0.0372752922   0.0001236496
        0.0007944893   0.0001665878   0.0000310153  -0.0000812712  -0.0000017212
        0.0000210036   0.0000215359   0.0000092466  -0.0000077409  -0.0000017719
       -0.0000029615   0.0000108770  -0.0000100747   0.0000059399   0.0000083315
       -0.0000026067   0.0000013992   0.0000101541   0.0000038423  -0.0000039057
        0.0000042321   0.0000081474  -0.0000064764  -0.0000027987  -0.0000011636
       -0.0000011560  -0.0000064133   0.0000015884   0.0000032253   0.0000215657
       -0.0000273891  -0.0000049166   0.0000195956   0.0000535125   0.0000061598
       -0.0000488193  -0.0000394230   0.0000003991  -0.0000497057  -0.0000286881
       -0.0000102344  -0.0002498019  -0.0003829005  -0.0000909434
       -0.0540620985  -0.0579436430  -0.0169400344   0.1011572027  -0.3149021870
       -0.0379535486   0.0087235455   0.6439055652   0.0988255573   0.0069022600
       -0.0833881489  -0.0072426862  -0.0076639850   0.0377176544   0.0063476906
        0.0332093860  -0.0238827989  -0.0002135550  -0.0028731584  -0.0017296082
       -0.0014769348   0.0005422671  -0.0047802103  -0.0012051647   0.0011042182
        0.0026632590   0.0004726913   0.0001852790  -0.0001846734  -0.0000835893
        0.0000064014   0.0000065796   0.0000108984   0.0000214955   0.0000445126
        0.0000010225   0.0000331042   0.0000321828   0.0000089883  -0.0000206844
        0.0000074436   0.0000010737  -0.0000027626  -0.0000088970   0.0000024835
       -0.0000167270  -0.0000007998   0.0000027562   0.0000090971  -0.0000016189
        0.0000013624  -0.0000080061   0.0000031091  -0.0000007962   0.0000017125
       -0.0000006611   0.0000007647  -0.0000001528  -0.0000002708   0.0000005836
       -0.0000021903  -0.0000006036  -0.0000000293  -0.0000006158  -0.0000015409
        0.0000003411  -0.0000014693   0.0000008195  -0.0000006432  -0.0000009691
        0.0000003695  -0.0000007602  -0.0000036292   0.0000053501  -0.0000036682
       -0.0000100333   0.0000055646   0.0000028875  -0.0001194494  -0.0000728834
       -0.0000088006   0.0002148856   0.0000042464   0.0000191227  -0.0009695165
       -0.0027897370  -0.0006186131   0.0004321799   0.0010164190   0.0002450936
       -0.0009906357  -0.0003171864  -0.0001671667   0.0008099268  -0.0004630928
       -0.0000091780   0.0000672018   0.0009048456   0.0001941624   0.0010735681
        0.0015084488   0.0004441264   0.0327405051  -0.0134634638   0.0020025452
       -0.0029533749  -0.0024931839  -0.0019569680   0.0047956033  -0.0095832818
       -0.0011571167  -0.1231529884  -0.1711867694  -0.0395480719   0.0006027416
       -0.0001491775   0.0000629720   0.0000785979   0.0000478018   0.0000132099
        0.0000095339  -0.0000001902   0.0000008184   0.0000001768   0.0000033119
       -0.0000009654  -0.0000031693   0.0000023070   0.0000006890  -0.0000029481
       -0.0000001195   0.0000003277  -0.0000010179  -0.0000015222  -0.0000003424
       -0.0000009581  -0.0000005931  -0.0000011171  -0.0000010710  -0.0000001700
       -0.0000014173   0.0000013763   0.0000005314  -0.0000017981  -0.0000029173
        0.0000105053  -0.0000011392  -0.0000183621  -0.0000848035  -0.0000179395
        0.0000008304   0.0000079717   0.0000006278  -0.0000021484  -0.0000326821
       -0.0000163884   0.0001619423  -0.0004342801  -0.0000343635
       -0.0045696012  -0.0105581279  -0.0014039789   0.0107608531  -0.0464711232
       -0.0501146894   0.0647927756   0.0988255573   0.1324134136  -0.0317890367
       -0.0007922557  -0.0431502502  -0.0057617660   0.0017898288  -0.0020976355
        0.0029990006  -0.0010145736  -0.0016732199  -0.0017044805  -0.0013082680
        0.0040560421  -0.0003051532  -0.0008270398   0.0020278325   0.0003204106
       -0.0002392581   0.0006874957  -0.0001730575  -0.0001088496   0.0003337958
        0.0000392614   0.0000235924  -0.0000368619  -0.0000389999   0.0000141458
        0.0000107671   0.0000099160  -0.0000102912  -0.0000052149  -0.0000101410
        0.0000024992  -0.0000007670   0.0000040644   0.0000044403   0.0000014637
        0.0000011916   0.0000020116  -0.0000004155  -0.0000170553   0.0000039517
       -0.0000041162   0.0000195530   0.0000010311   0.0000019019  -0.0000006276
       -0.0000023161  -0.0000000722  -0.0000008504  -0.0000002306   0.0000006535
       -0.0000013067   0.0000015057  -0.0000006926   0.0000007018  -0.0000013003
        0.0000009605  -0.0000005411  -0.0000010075   0.0000012169  -0.0000016713
        0.0000000116   0.0000003317  -0.0000015146  -0.0000044401   0.0000036991
        0.0000007379   0.0000005975  -0.0000002699  -0.0000060194   0.0000153934
       -0.0000585303   0.0000479744  -0.0000311764   0.0000211529   0.0000527470
       -0.0002554945  -0.0000082452   0.0000286515   0.0000993854   0.0000066261
       -0.0000833245  -0.0000030662  -0.0000180938   0.0000301013  -0.0000482297
        0.0000696096   0.0000527493   0.0001101858  -0.0000465799   0.0002408261
        0.0003444716  -0.0001710022   0.0041584691   0.0003885237  -0.0033570134
       -0.0014944414  -0.0019954857   0.0059025899  -0.0004166486   0.0015645010
        0.0000034148  -0.0373489438  -0.0394849182  -0.0431098483   0.0001429451
        0.0000945491  -0.0001397574   0.0000164104   0.0000018375  -0.0000040402
        0.0000054238   0.0000017049   0.0000048450  -0.0000008264  -0.0000014736
       -0.0000008141   0.0000008037  -0.0000014264   0.0000006308   0.0000007928
       -0.0000006137   0.0000001271   0.0000011069  -0.0000002898  -0.0000003837
        0.0000001601   0.0000000421  -0.0000007404   0.0000000859  -0.0000010427
       -0.0000006004  -0.0000013186  -0.0000018817  -0.0000001526   0.0000026613
       -0.0000009887  -0.0000015154  -0.0000033762  -0.0000144140   0.0000218942
       -0.0000050372  -0.0000032998  -0.0000109863  -0.0000098449  -0.0000113059
        0.0000064324   0.0000152092  -0.0000955786  -0.0001604095
       -0.0503629692  -0.0197992790  -0.0087735112  -0.0114594859   0.0874736859
        0.0146922267  -0.3278482475   0.0069022600  -0.0317890367   0.7775920996
       -0.0866211646   0.0597305846  -0.1476779060  -0.0535897268  -0.0196285306
        0.0427162303  -0.0410354680  -0.0023911581  -0.0631704651   0.0099421843
       -0.0066916792  -0.0539032976   0.0076975078  -0.0052301942  -0.0106966434
        0.0085967700   0.0001092969   0.0003412984   0.0012138103   0.0002067935
       -0.0005101705  -0.0001099114  -0.0000716459   0.0001427626   0.0002014074
        0.0000658265  -0.0000059718   0.0002368987   0.0000399622   0.0000134687
        0.0000168285   0.0000116666  -0.0000396109  -0.0000432832   0.0000010851
       -0.0000341248  -0.0000075529   0.0000123870   0.0001083600  -0.0000192801
        0.0000098247  -0.0001350236  -0.0000165488   0.0000081154  -0.0000047617
        0.0000204703  -0.0000136362   0.0000063114  -0.0000027981   0.0000032083
       -0.0000004691  -0.0000031400   0.0000035079  -0.0000067814   0.0000075968
       -0.0000017050  -0.0000053043   0.0000131373  -0.0000039903   0.0000056162
        0.0000014879  -0.0000026667  -0.0000116710   0.0000316477  -0.0000284405
       -0.0000114771   0.0000319066   0.0000094622  -0.0003946599  -0.0002178919
       -0.0000959155  -0.0002504972   0.0004905372   0.0000835994  -0.0032000068
       -0.0037384776  -0.0013306183   0.0005880269   0.0013601475   0.0001893499
       -0.0011072227  -0.0004554893  -0.0001990611   0.0008102372  -0.0003780235
       -0.0000680584   0.0008221278  -0.0011934942  -0.0000844828   0.0062182989
        0.0012225664   0.0019876486  -0.1357444127   0.0775424609   0.0029652721
       -0.0005999675  -0.0005548611  -0.0002296423   0.0008307730   0.0014149985
       -0.0005132539  -0.0239658991   0.0015998476  -0.0025686898   0.0002131393
        0.0021163386  -0.0004794170   0.0008105552   0.0002452666   0.0001184659
        0.0000066363   0.0000180190   0.0000031506   0.0000066675  -0.0000129117
        0.0000086517  -0.0000177325   0.0000069435  -0.0000070157  -0.0000082572
        0.0000009915  -0.0000019257  -0.0000085286  -0.0000023972   0.0000027416
       -0.0000056690  -0.0000050461   0.0000043400   0.0000016574   0.0000052924
       -0.0000030634   0.0000163126   0.0000182659  -0.0000197302  -0.0000565878
        0.0000370673   0.0000028228  -0.0000299538  -0.0003015521  -0.0000545990
        0.0000134453  -0.0000380567   0.0000154817  -0.0000179690  -0.0001927240
       -0.0000423435   0.0000277201  -0.0001272640   0.0000385392
       -0.0104715388   0.0003414656  -0.0001703732   0.0342476403  -0.0128851132
        0.0016760936   0.0631294126  -0.0833881489  -0.0007922557  -0.0866211646
        0.5379152513   0.0668796190  -0.0973690570  -0.1582395081  -0.0287924290
       -0.0027676581  -0.0449069546  -0.0081818509  -0.0275166038  -0.0014709527
       -0.0055096633   0.0379406449   0.0102996451   0.0054894974   0.0017914779
       -0.0096141808  -0.0019560758   0.0001704734  -0.0002079425  -0.0001020285
       -0.0001173887   0.0000974962   0.0000232189  -0.0000671995   0.0000748324
        0.0000124423   0.0001141376   0.0000080686  -0.0000008275  -0.0000274808
       -0.0000111048  -0.0000020421  -0.0000105059  -0.0000219319  -0.0000182632
       -0.0000191413  -0.0000172330   0.0000085666   0.0001236722  -0.0000213339
        0.0000217902  -0.0001359058  -0.0000500696   0.0000194902   0.0000041484
        0.0000521605  -0.0000242976   0.0000123914  -0.0000075836   0.0000030436
        0.0000076080  -0.0000028647   0.0000013881  -0.0000060476   0.0000102749
       -0.0000068560  -0.0000101733   0.0000191424  -0.0000138476   0.0000217652
       -0.0000017943  -0.0000005292  -0.0000232416   0.0000348458  -0.0000221904
        0.0000024894   0.0000330836  -0.0000002125  -0.0000252449  -0.0000371976
        0.0000005813  -0.0000850061  -0.0005274876  -0.0000966989   0.0030909364
        0.0005843652   0.0000229904   0.0008454392  -0.0018616231  -0.0004514597
        0.0013936063   0.0006699539   0.0002993514  -0.0016386064   0.0003918540
       -0.0002549879  -0.0007334153   0.0001167185  -0.0000169833   0.0114460326
       -0.0161746558   0.0000236141   0.0915473836  -0.2178156940  -0.0224065964
       -0.0002465324   0.0008160707   0.0000350585   0.0022785944  -0.0048707750
       -0.0020008794  -0.0220923310   0.0035857511  -0.0020634687   0.0017133332
       -0.0035737206  -0.0019046914   0.0004617826   0.0000175426   0.0000407905
       -0.0000830343  -0.0000441246  -0.0000242106   0.0000077093  -0.0000064974
        0.0000134011  -0.0000044858   0.0000084805  -0.0000001813  -0.0000049315
        0.0000031056   0.0000001848  -0.0000088357  -0.0000034003   0.0000047411
       -0.0000049003  -0.0000106519   0.0000090977   0.0000075136   0.0000007170
        0.0000035857   0.0000093275  -0.0000009428   0.0000012364  -0.0000261061
        0.0000247359   0.0000116399   0.0000454078  -0.0000378314   0.0000078829
       -0.0000421912   0.0001787995   0.0000490199   0.0001270756   0.0002394694
        0.0000490867  -0.0003812759   0.0002874885   0.0001064874
       -0.0070939263  -0.0012363978  -0.0063427102   0.0049942452   0.0077809889
        0.0014139567  -0.0215035622  -0.0072426862  -0.0431502502   0.0597305846
        0.0668796190   0.1356779472  -0.0276415731  -0.0237511973  -0.0687835527
        0.0046144433  -0.0125754562  -0.0035248855  -0.0134982120  -0.0012684536
        0.0098751901   0.0003250758   0.0020197908   0.0044006714  -0.0011426256
       -0.0011887824   0.0018886991   0.0000160392   0.0000228749   0.0004098948
       -0.0000755681   0.0000157555  -0.0000657707   0.0000052078   0.0000490769
       -0.0000156844   0.0000116406   0.0000229102   0.0000182544   0.0000048578
        0.0000000239   0.0000107429  -0.0000041538  -0.0000180106  -0.0000010680
       -0.0000092525  -0.0000023456  -0.0000004359   0.0000381488  -0.0000060859
        0.0000070283  -0.0000456263  -0.0000037986  -0.0000017542   0.0000000194
        0.0000057436  -0.0000005615   0.0000027200  -0.0000006143  -0.0000003854
        0.0000014200  -0.0000020660   0.0000012660  -0.0000016981   0.0000030182
       -0.0000018380   0.0000009885   0.0000037727  -0.0000030570   0.0000011078
       -0.0000018582   0.0000002558   0.0000007070   0.0000099909  -0.0000078017
       -0.0000004440   0.0000046263   0.0000008796  -0.0000504950  -0.0000285647
       -0.0000507509  -0.0000401066  -0.0000196126  -0.0000696810  -0.0000727732
       -0.0007622921   0.0022970841   0.0001031011  -0.0003816088   0.0010586152
        0.0001425852   0.0000791558  -0.0000705035  -0.0003072018  -0.0001098940