$hessian                                                                        
        0.4899957265  -0.0325893970   0.0293268904  -0.0977211223  -0.0448354891
        0.0393673695   0.0059661589   0.0060751006  -0.0053555612  -0.0213335930
       -0.0176589890   0.0021495578  -0.0006041661   0.0002808015   0.0015588746
       -0.0004488521   0.0006285497  -0.0006322536   0.0000542752   0.0000948740
        0.0000150429  -0.0003800534   0.0005899359  -0.0007969250   0.0001302652
       -0.0021861334  -0.0014546293  -0.0004578078   0.0002574010   0.0002924026
        0.0002360512  -0.0002525658   0.0000732631   0.0004304405   0.0001296945
       -0.0000263637   0.0001885547   0.0001659456  -0.0000619865  -0.0000945346
       -0.0000850200   0.0000177987  -0.0000321443  -0.0001312340   0.0000890301
        0.0000448267  -0.0000433262  -0.0000459805   0.0000105606  -0.0000138217
       -0.0000068442  -0.0000054088  -0.0000187897   0.0000144429  -0.0000243143
       -0.0000424698   0.0000152289   0.0000207433  -0.0000175910   0.0000105721
       -0.0000179705   0.0000172914   0.0000461698  -0.0000275769  -0.0000090061
        0.0000120333   0.0000027105   0.0000300636   0.0000334681  -0.0000072368
        0.0000243420  -0.0000085962  -0.0000368812  -0.0000013368  -0.0000043422
       -0.0000184342   0.0000166005  -0.0000259224  -0.0000323291   0.0000184533
       -0.0000125657   0.0000243942  -0.0000071863  -0.0000791717  -0.0001523151
        0.0000178118  -0.0000656429   0.0000247172   0.0000286144   0.0000012781
        0.0000256067  -0.0000552137   0.0000207913  -0.0000701360   0.0001084368
       -0.0000018403   0.0001038406  -0.0000277948  -0.0000523897   0.0000856362
        0.0000657775   0.0000985732  -0.0001642330  -0.0000746067   0.0000475999
        0.0000771216  -0.0000861408  -0.0000607134   0.0001716145   0.0005513941
        0.0015141159  -0.0003802649   0.0007182042  -0.0002009879   0.0002937816
        0.0000432312   0.0000037743  -0.0007054040   0.0009489997   0.0000453847
       -0.0007005725  -0.0015415484  -0.0010124014  -0.0142509061  -0.0020923344
        0.0169105130  -0.1585063025  -0.0654722651  -0.1022327229  -0.1102482910
        0.0943852944  -0.0543351912  -0.0914991959   0.0595345991   0.0768785125
       -0.0005684626   0.0024307541  -0.0017205972   0.0006473528   0.0004869782
       -0.0003353928   0.0006122135   0.0002571019  -0.0003618304  -0.0002196774
       -0.0000621885   0.0003392832   0.0000080107  -0.0000440154   0.0000343851
       -0.0000595733  -0.0001336015   0.0000745684  -0.0001396025  -0.0000625514
       -0.0001076356   0.0000024456   0.0000402848  -0.0000090240  -0.0000133831
        0.0000068044   0.0000290462  -0.0000111564   0.0000193481   0.0000033225
        0.0000030123   0.0000230876   0.0000038964   0.0000073882   0.0000059717
       -0.0000118420  -0.0000001311   0.0000039274  -0.0000176626   0.0000008266
        0.0000030803   0.0000055972   0.0000089121  -0.0000071532  -0.0000012379
       -0.0000097568  -0.0000087247   0.0000024369  -0.0000041717   0.0000074491
       -0.0000160162   0.0000022156  -0.0000146115   0.0000000972   0.0000189278
       -0.0000051089  -0.0000091622   0.0000265171  -0.0000071614   0.0000134014
        0.0000010567  -0.0000057010   0.0000166009  -0.0000233211   0.0000003945
        0.0000266887  -0.0000185003   0.0000084570  -0.0000014435  -0.0000956237
        0.0000056833   0.0001325000  -0.0000236224  -0.0000759358   0.0000898776
        0.0000145190  -0.0000291150   0.0000082660  -0.0001333952  -0.0003326114
       -0.0002577789
       -0.0325893970   0.4915089921   0.0324877973  -0.0367544463  -0.0954888434
        0.0319582247  -0.0112822488  -0.0184132501   0.0165579661  -0.0152823859
       -0.0101449999   0.0020657304  -0.0004941953  -0.0000508877  -0.0000798034
        0.0000029576   0.0005503322  -0.0000008694  -0.0002213086   0.0001349459
        0.0000030505  -0.0001901853   0.0003426318  -0.0005953879   0.0005071515
       -0.0020142814  -0.0006419651  -0.0003769993   0.0005691628   0.0007695343
        0.0003045079  -0.0000570271   0.0000281117   0.0000654173  -0.0000273858
       -0.0000032881   0.0000852445  -0.0001942274  -0.0000124134  -0.0000096599
        0.0000510683  -0.0000131096  -0.0000076120  -0.0000991223   0.0000457523
        0.0000322075  -0.0000050330  -0.0000211366   0.0000108242  -0.0000157669
       -0.0000090796  -0.0000048233   0.0000008283   0.0000063874  -0.0000070888
       -0.0000283416   0.0000247276   0.0000091780   0.0000143333  -0.0000088779
       -0.0000153922   0.0000032970   0.0000161617  -0.0000162306  -0.0000031065
        0.0000053526   0.0000033512   0.0000139278   0.0000226618  -0.0000302731
       -0.0000065882   0.0000209070  -0.0000206866  -0.0000045560   0.0000233461
       -0.0000155314   0.0000170096  -0.0000211799   0.0000031043   0.0000154747
       -0.0000195304   0.0000347791   0.0000296022  -0.0000504098  -0.0000043923
       -0.0000044657  -0.0000025246  -0.0002190358   0.0001348432  -0.0000236941
        0.0001375240  -0.0000980751  -0.0000137798  -0.0001128016   0.0000912562
        0.0000243546   0.0002434225   0.0000974788  -0.0000375370  -0.0003125856
       -0.0000211785   0.0000812442   0.0004893447   0.0001733452  -0.0001889955
       -0.0003499560   0.0000932993   0.0001550225   0.0010000543  -0.0016640177
       -0.0016612827   0.0002490761  -0.0004249446   0.0002712006   0.0005021313
       -0.0000156509  -0.0000239761  -0.0006329121   0.0001844568   0.0008319323
        0.0002637428  -0.0008151566  -0.0017639454   0.0067431008   0.0081127141
       -0.0043285460  -0.0653710216  -0.0808655812  -0.0587928183   0.0941130931
       -0.1758221304   0.0743746631   0.0598844424  -0.1128730567  -0.0932641385
        0.0017196628  -0.0038125691   0.0030664506  -0.0005711843   0.0006830183
       -0.0007103766  -0.0010492895   0.0007593565   0.0001032948  -0.0005586716
       -0.0005921439   0.0000914017  -0.0000061416  -0.0000604004   0.0000271108
       -0.0000568974  -0.0000816954   0.0000506279  -0.0000691477  -0.0000435050
       -0.0001017039   0.0000115118   0.0000116417  -0.0000224723  -0.0000055612
       -0.0000025843   0.0000115205  -0.0000058961   0.0000185259   0.0000018475
       -0.0000010027   0.0000124073  -0.0000024571   0.0000038300   0.0000078329
       -0.0000063234   0.0000011986   0.0000056466  -0.0000111666   0.0000036778
        0.0000026469   0.0000032521   0.0000042856  -0.0000016723   0.0000004521
       -0.0000012814   0.0000003043   0.0000007047  -0.0000031785   0.0000060738
       -0.0000161937   0.0000027963  -0.0000051667   0.0000007253   0.0000143299
       -0.0000019564  -0.0000031619   0.0000124803  -0.0000071974   0.0000046158
        0.0000033106  -0.0000079892   0.0000116775  -0.0000117055  -0.0000078367
        0.0000068350  -0.0000117101  -0.0000048883  -0.0000011554   0.0000011481
       -0.0000898998  -0.0001078985   0.0000194481   0.0001038982  -0.0000387668
        0.0000017782   0.0000214394   0.0000081811   0.0001887239   0.0001053885
       -0.0005628606
        0.0293268904   0.0324877973   0.4993785696   0.0331105356   0.0330257530
       -0.0900400176   0.0078343882   0.0139658446  -0.0100900989  -0.0081632787
       -0.0063510697   0.0085820345  -0.0008669242  -0.0015196395  -0.0015105352
        0.0008703645   0.0007008374   0.0004107308  -0.0005315130   0.0000666021
        0.0000672926  -0.0001514553   0.0005888823  -0.0003482641  -0.0010365059
       -0.0014367946  -0.0019814796   0.0002705684   0.0007369904   0.0008161295
       -0.0001002124   0.0000612818   0.0000013287  -0.0002787976   0.0000204358
        0.0000320083   0.0000641347   0.0001551953   0.0000211456  -0.0000325302
       -0.0000446618   0.0000171958   0.0000118204   0.0000710225  -0.0000356869
       -0.0000247315   0.0000179446   0.0000123459  -0.0000175697   0.0000122017
        0.0000180825   0.0000023519   0.0000093597  -0.0000076685   0.0000074131
        0.0000131929  -0.0000190920   0.0000065186  -0.0000099970   0.0000008789
        0.0000120514  -0.0000012012  -0.0000140754   0.0000179897   0.0000073522
       -0.0000038140  -0.0000067763  -0.0000137281  -0.0000197126   0.0000347892
        0.0000076427  -0.0000242680   0.0000160762   0.0000085970  -0.0000278753
        0.0000155192  -0.0000188115   0.0000243861  -0.0000076512  -0.0000113304
        0.0000218905  -0.0000284537  -0.0000292816   0.0000541150   0.0000050748
        0.0000085752  -0.0000129397   0.0001991052  -0.0001916918   0.0000380279
       -0.0001431435   0.0000950451  -0.0000029589   0.0001148732  -0.0000834774
       -0.0000113659  -0.0001831745  -0.0000503828   0.0000222506   0.0002354659
        0.0000663654  -0.0000345885  -0.0005055122  -0.0002023874   0.0001040510
        0.0003979566  -0.0000325038  -0.0000253126  -0.0004141757  -0.0006488730
       -0.0026782054   0.0003267474  -0.0009908229   0.0002168744   0.0003471931
       -0.0000908068   0.0000201478   0.0000310525  -0.0003013457   0.0007937851
        0.0005874961  -0.0001466496  -0.0004847355   0.0185755978   0.0060038762
       -0.0164369905  -0.1026900124  -0.0589415292  -0.1318260259  -0.0543545342
        0.0747823866  -0.0873492072   0.0768212578  -0.0931047352  -0.1658729442
       -0.0011469385   0.0028495940  -0.0014877992   0.0008369862  -0.0000934064
        0.0003191338   0.0002642638  -0.0009074093   0.0005852967  -0.0003658082
       -0.0007817042   0.0000010899   0.0000094482   0.0000025980   0.0000005542
       -0.0000316514  -0.0000745145   0.0000889495  -0.0000436635  -0.0000315863
       -0.0001191742   0.0000063054  -0.0000051078  -0.0000039005   0.0000138707
        0.0000031066  -0.0000115778   0.0000079473  -0.0000131444  -0.0000053403
       -0.0000024106  -0.0000141188   0.0000043796  -0.0000069534  -0.0000079720
        0.0000075228  -0.0000018956  -0.0000075798   0.0000126660  -0.0000007438
       -0.0000019695  -0.0000017324  -0.0000070372   0.0000052120  -0.0000006092
        0.0000030144  -0.0000025307  -0.0000087276   0.0000010508  -0.0000076545
        0.0000184433  -0.0000033869   0.0000078114   0.0000000758  -0.0000156978
        0.0000021727   0.0000033163  -0.0000137466   0.0000068642  -0.0000045455
       -0.0000026481   0.0000069310  -0.0000110086   0.0000118615   0.0000034883
       -0.0000056470   0.0000092047   0.0000061629  -0.0000083491   0.0000984419
       -0.0000934532  -0.0001359952   0.0000544790   0.0001253244  -0.0001043222
        0.0000067247   0.0000593702  -0.0000607734   0.0006127038   0.0002720547
       -0.0008673342
       -0.0977211223  -0.0367544463   0.0331105356   0.4518490221  -0.0062460686
        0.0103633203  -0.0838687938   0.0377784704  -0.0256629956  -0.1145836432
       -0.0297059077  -0.0497606130   0.0071589142  -0.0033136106  -0.0019969171
        0.0013181349   0.0029890375   0.0023984741  -0.0009857825   0.0001430843
       -0.0001052535  -0.0037782967   0.0024788939   0.0003049224  -0.0242428780
       -0.0081564740  -0.0167140029   0.0045095655  -0.0019986747   0.0000435200
       -0.0002226447   0.0011600803  -0.0006832490  -0.0008676280  -0.0002266732
        0.0000916207   0.0004461129   0.0006098733  -0.0000104253   0.0001374808
       -0.0001445803   0.0000911212   0.0000145012   0.0001847013  -0.0001391129
       -0.0000269159   0.0000460338   0.0000203333  -0.0000263887  -0.0000039074
        0.0000000243   0.0000183381  -0.0000300727  -0.0000036890   0.0000010306
        0.0000401624  -0.0000473910   0.0000849851  -0.0000553048  -0.0000089332
       -0.0000112773   0.0000214676   0.0000685901  -0.0000037240  -0.0000076300
        0.0000268668  -0.0000020071   0.0000399424  -0.0000268025   0.0001698330
        0.0000674090  -0.0001068249  -0.0000199158  -0.0000625133  -0.0000923128
        0.0000192765   0.0000292655   0.0000200449  -0.0000705756  -0.0000096585
        0.0000351503   0.0000065439  -0.0002017939   0.0000912906  -0.0001721370
        0.0000532744  -0.0000949870   0.0003655812  -0.0006347433   0.0000505597
       -0.0003110250   0.0001358249   0.0000459402   0.0001873550  -0.0001842868
       -0.0001051820  -0.0002394966  -0.0002824834   0.0000862720   0.0005572591
       -0.0004235713  -0.0000081058  -0.0007515544  -0.0003218838   0.0001490350
        0.0006956946   0.0001838279  -0.0000327400  -0.0187237214   0.0163344548
        0.0183415301  -0.0042883181   0.0008580671  -0.0013778501  -0.0010678330
       -0.0000280677   0.0000613967   0.0000127886  -0.0017743913  -0.0043760116
        0.0094336438  -0.0038448100  -0.0037976096  -0.0894629658   0.0325808284
        0.0347070691  -0.0166027059  -0.0145010744   0.0094752129   0.0076396089
        0.0063260689  -0.0057317448  -0.0113833063  -0.0072063174   0.0103836442
        0.0081930822  -0.0112351912   0.0072844256  -0.0126000780   0.0129232240
       -0.0118417060  -0.0096804344   0.0131635765  -0.0055081321  -0.0002022925
        0.0001242064   0.0008374845   0.0003992425   0.0003219585   0.0005121881
       -0.0000369178  -0.0001409523   0.0001944705  -0.0007414800  -0.0003322303
       -0.0007699956  -0.0001606708  -0.0000010684   0.0000208891  -0.0000242406
        0.0000569448   0.0000245179  -0.0000355346  -0.0000202831   0.0000227047
        0.0000240320   0.0000685708   0.0000414877   0.0000133259  -0.0000202956
       -0.0000115402  -0.0000196795  -0.0000198625  -0.0000414385  -0.0000297487
        0.0000064058   0.0000314045   0.0000117050  -0.0000153580  -0.0000080848
       -0.0000794059  -0.0000363072   0.0000073396  -0.0000168502  -0.0000099683
        0.0000325068  -0.0000125204  -0.0000125033  -0.0000102309   0.0000420703
        0.0000054371  -0.0000500898   0.0001229587  -0.0000170327   0.0000667420
       -0.0000196685   0.0000056445   0.0000624667  -0.0000510179   0.0000361292
        0.0000983960   0.0000477522  -0.0000582389  -0.0000241699  -0.0005862878
        0.0007192989   0.0007696985  -0.0000450553  -0.0002481092   0.0001271429
        0.0003595664  -0.0005991535  -0.0008057466  -0.0000628649  -0.0006066644
       -0.0001464516
       -0.0448354891  -0.0954888434   0.0330257530  -0.0062460686   0.4492640850
        0.0399360907   0.0436151358  -0.1174208982   0.0354927592  -0.0333647371
       -0.0799768051  -0.0391792052  -0.0107471719  -0.0116719736  -0.0161872154
        0.0028446294   0.0019918072  -0.0046643273  -0.0001678195  -0.0002704575
        0.0000674669   0.0026795176   0.0031010901  -0.0022365550   0.0006563606
        0.0052356747   0.0022116341  -0.0017219156  -0.0027439677   0.0004081920
       -0.0001662431  -0.0006169590   0.0002854276  -0.0002675756   0.0001409292
        0.0001076398  -0.0001341312  -0.0001188548   0.0000956337   0.0000252969
        0.0000493379  -0.0000035902   0.0000188834   0.0000820960  -0.0000364800
       -0.0000075119  -0.0000164373   0.0000275464  -0.0000033880   0.0000289918
        0.0000003856   0.0000009072   0.0000015230  -0.0000015061   0.0000099922
        0.0000148230  -0.0000094338  -0.0000347230  -0.0000004166   0.0000086013
        0.0000122178  -0.0000055283  -0.0000157259   0.0000063539   0.0000006420
       -0.0000057136  -0.0000024435  -0.0000104015  -0.0000072166  -0.0000109081
       -0.0000267151   0.0000055888   0.0000205643   0.0000097900   0.0000109254
        0.0000096373  -0.0000058476   0.0000011285   0.0000231359  -0.0000051047
        0.0000080103  -0.0000124636   0.0000236720   0.0000061029   0.0000713455
       -0.0000461883  -0.0000113610  -0.0002878654  -0.0000298500   0.0000322326
        0.0001491141  -0.0000853700   0.0000532413  -0.0000714551   0.0000319311
       -0.0000014980   0.0003477975  -0.0000615909  -0.0000913733  -0.0001723263
        0.0001116141  -0.0000567201   0.0005751929   0.0002309064   0.0000098993
       -0.0004528349   0.0000397152  -0.0000712233   0.0085935212  -0.0013121417
       -0.0043400315   0.0007048127   0.0039112725  -0.0021855983   0.0004130130
       -0.0001672950   0.0003941441  -0.0014901625   0.0043050309  -0.0036974877
        0.0026230767  -0.0116276369  -0.0147611991   0.0371912135  -0.0990013709
       -0.0550282206  -0.0108533771  -0.0093921226   0.0060040652  -0.0128019808
       -0.0156538868   0.0135005086   0.0075389952   0.0074656883  -0.0070078146
        0.0079001940  -0.0161354094   0.0111091379  -0.0033716499   0.0068012350
       -0.0037882482   0.0116633243  -0.0157677672   0.0066812386  -0.0008771915
       -0.0013495865   0.0015876627  -0.0004458437  -0.0002714655  -0.0006679737
       -0.0002174602  -0.0007939978   0.0006973127   0.0004532352   0.0001193613
        0.0002596662  -0.0000137897  -0.0000140409  -0.0000175788   0.0000012508
       -0.0000002296  -0.0000211569   0.0000065833  -0.0000186622  -0.0000068703
       -0.0000050198  -0.0000160680  -0.0000011752  -0.0000037120  -0.0000006296
        0.0000035781   0.0000013973  -0.0000006880   0.0000089018   0.0000016886
       -0.0000021626  -0.0000043478  -0.0000007800   0.0000032298  -0.0000007454
        0.0000078782   0.0000059592  -0.0000028873   0.0000020484  -0.0000007363
        0.0000050502   0.0000045069   0.0000019115  -0.0000003782  -0.0000062548
        0.0000024593   0.0000073337  -0.0000158832   0.0000006608  -0.0000087672
        0.0000021144   0.0000011485  -0.0000090707   0.0000115420  -0.0000055919
       -0.0000113196   0.0000249745  -0.0000180999  -0.0000222107   0.0001130626
       -0.0000719389   0.0000124554  -0.0001345122  -0.0009077111   0.0006926548
        0.0002273675  -0.0002170470  -0.0003740226   0.0003928067  -0.0016280895
        0.0017782800
        0.0393673695   0.0319582247  -0.0900400176   0.0103633203   0.0399360907
        0.4714786348  -0.0303139803   0.0365336270  -0.0858777362  -0.0539482890
       -0.0390882447  -0.1107995337  -0.0111316803  -0.0137071976  -0.0194455792
        0.0014536162  -0.0052985580   0.0010891960  -0.0001177286   0.0001454221
       -0.0003292298   0.0000582678  -0.0027966700   0.0028326441  -0.0083999179
        0.0009204918   0.0016332757   0.0002425779   0.0004287624  -0.0031556910
       -0.0000161785   0.0001409155  -0.0001712435   0.0003291300  -0.0001342532
       -0.0001557720  -0.0001234626  -0.0001300581  -0.0000672292  -0.0000134527
        0.0000315050  -0.0000192336   0.0000071787  -0.0000224219   0.0000091950
        0.0000140993  -0.0000016291  -0.0000062944   0.0000050385  -0.0000094536
       -0.0000098473  -0.0000006220   0.0000026962  -0.0000038871   0.0000001848
        0.0000018063   0.0000079630  -0.0000115058   0.0000132570  -0.0000035653
       -0.0000042726  -0.0000071423  -0.0000163910   0.0000015501   0.0000015086
       -0.0000044882   0.0000015828  -0.0000053672  -0.0000028754  -0.0000450360
       -0.0000059360   0.0000275227   0.0000102105  -0.0000066227   0.0000234448
       -0.0000027055   0.0000025556  -0.0000047963   0.0000200382  -0.0000065374
       -0.0000077860   0.0000084452   0.0000363071  -0.0000178306   0.0000693295
       -0.0000051512   0.0000734631   0.0001504217   0.0001964891  -0.0000591894
       -0.0000523133   0.0000606751  -0.0000471477   0.0000453534  -0.0000353151
        0.0000086178  -0.0003036865   0.0000897168   0.0000783881   0.0000849152
       -0.0000353424  -0.0000034117  -0.0002049235  -0.0001199011   0.0000372172
        0.0001640588  -0.0000171650  -0.0000723514   0.0083290074  -0.0026833134
        0.0021519466  -0.0013342686  -0.0022074004   0.0024462053   0.0003536373
        0.0000237516  -0.0004482663  -0.0037128193  -0.0038690106   0.0007233844
        0.0060153360  -0.0164618716  -0.0215827399   0.0385128326  -0.0546382847
       -0.1188348963  -0.0091416826  -0.0089118014   0.0075247533   0.0077328669
        0.0100968625  -0.0086204766   0.0156399567   0.0113769058  -0.0143803411
       -0.0066705698   0.0130908601  -0.0089024534  -0.0125026677   0.0136438215
       -0.0118551940   0.0085056684  -0.0126382185   0.0077864143  -0.0004227518
        0.0018941851  -0.0006381363  -0.0005288638  -0.0003794257  -0.0005890855
        0.0002490705   0.0007584292  -0.0005099505   0.0001362793  -0.0000371691
        0.0001404840   0.0000259547   0.0000176189   0.0000208527   0.0000018382
       -0.0000052718   0.0000025187  -0.0000020259   0.0000087551   0.0000016625
       -0.0000024358  -0.0000017119  -0.0000051305   0.0000011950   0.0000029577
        0.0000005789   0.0000026637   0.0000025417   0.0000012911   0.0000032094
       -0.0000012290  -0.0000019415  -0.0000011974   0.0000020929   0.0000020614
        0.0000106639   0.0000003713   0.0000067366   0.0000041661   0.0000012551
       -0.0000061783   0.0000005364   0.0000028860   0.0000028465  -0.0000016427
        0.0000000319   0.0000027277  -0.0000075951   0.0000018330  -0.0000055393
        0.0000022843  -0.0000017832  -0.0000063226   0.0000087972  -0.0000061796
       -0.0000118366  -0.0000156732   0.0000222439   0.0000318759  -0.0003681760
        0.0000162583   0.0000839224   0.0000793406   0.0007523287  -0.0004231059
        0.0003547056  -0.0005580187  -0.0006118650   0.0010354263   0.0016176152
       -0.0004752377
        0.0059661589  -0.0112822488   0.0078343882  -0.0838687938   0.0436151358
       -0.0303139803   0.5046078266   0.0302619349  -0.0194895926  -0.0169625742
        0.0095185453  -0.0164665476  -0.0004214013   0.0013027520   0.0000010626
       -0.0006873686  -0.0003616873   0.0003006142  -0.0000305035  -0.0000036628
        0.0000865512  -0.0009005196  -0.0005501637   0.0001831649  -0.0005996634
       -0.0012041272  -0.0025860463  -0.0001924013   0.0002538719  -0.0000353896
        0.0002612803  -0.0000913027   0.0000872906   0.0003517876   0.0000739398
       -0.0001026597   0.0001559380   0.0000483325  -0.0000528481   0.0000160987
       -0.0000607950   0.0000138157  -0.0000397760  -0.0001147515   0.0000669037
        0.0000328747  -0.0000420211  -0.0000330540   0.0000032430   0.0000007609
        0.0000019089  -0.0000029541  -0.0000226242   0.0000147199  -0.0000220035
       -0.0000289097   0.0000048903   0.0000261710  -0.0000254939   0.0000146743
       -0.0000164050   0.0000147721   0.0000440842  -0.0000201996  -0.0000080219
        0.0000094345   0.0000029919   0.0000190228   0.0000267658   0.0000173096
        0.0000380395  -0.0000257828  -0.0000410754  -0.0000092201  -0.0000054346
       -0.0000119090   0.0000151965  -0.0000309543  -0.0000505428   0.0000178382
       -0.0000079920   0.0000359803  -0.0000264873  -0.0000640191  -0.0001941751
        0.0000408127  -0.0000431976  -0.0000951272   0.0000682272   0.0000068211
        0.0001456059  -0.0001419070  -0.0000216456  -0.0001522560   0.0001639329
        0.0000251890   0.0002179898  -0.0000010015  -0.0000455467  -0.0000798292
       -0.0000599222   0.0001672314   0.0001364710   0.0000280674  -0.0000610763
       -0.0001381776  -0.0000988321   0.0000352914   0.0005207292   0.0015495163
        0.0013043048  -0.0006084969  -0.0001740794   0.0005278640   0.0000566666
       -0.0001191491  -0.0000727907  -0.0005779465  -0.0001793889   0.0004652569
       -0.0006200331   0.0000561540  -0.0015220588  -0.0120993183   0.0171181080
        0.0000401478   0.0008117975  -0.0003621913   0.0003828300  -0.0014222576
       -0.0025775974   0.0022854932   0.0006060312  -0.0004315552   0.0001010862
       -0.1432429342  -0.0907215643   0.0768201911  -0.1439164610  -0.0644878965
       -0.1019427545  -0.1064900102   0.0684659034   0.0827059364  -0.0000939884
        0.0004874730   0.0000320075   0.0000264027   0.0000290081  -0.0000258147
       -0.0000065808   0.0000834975  -0.0000994433  -0.0002062101  -0.0000455023
       -0.0001557913  -0.0000252585   0.0000223161  -0.0000047096  -0.0000148882
        0.0000129820   0.0000154758  -0.0000066769  -0.0000003703   0.0000000266
        0.0000005634   0.0000118468   0.0000072241   0.0000037124   0.0000014166
       -0.0000083438  -0.0000016252   0.0000018793  -0.0000109815  -0.0000000772
        0.0000025151   0.0000041883   0.0000068619  -0.0000052765  -0.0000020124
       -0.0000101921  -0.0000023029  -0.0000026092  -0.0000048591   0.0000058690
       -0.0000086715   0.0000046337  -0.0000112997  -0.0000022111   0.0000136479
       -0.0000051340  -0.0000090707   0.0000220234  -0.0000040069   0.0000129672
        0.0000016502  -0.0000035480   0.0000168735  -0.0000227724   0.0000054564
        0.0000257830  -0.0000149973  -0.0000019886   0.0000063824  -0.0001682157
        0.0000727394   0.0000768354  -0.0000017582   0.0001035761  -0.0000269515
        0.0000204435   0.0000299486  -0.0000314111   0.0000103228  -0.0002753571
       -0.0004442833
        0.0060751006  -0.0184132501   0.0139658446   0.0377784704  -0.1174208982
        0.0365336270   0.0302619349   0.4761106044   0.0360866125  -0.0014358478
        0.0076240837  -0.0003274866  -0.0002222275  -0.0008405369  -0.0016208123
        0.0006889123   0.0001870119   0.0006140372  -0.0003872037   0.0001216126
       -0.0000239323  -0.0002874130  -0.0001091400   0.0001740782  -0.0015406550
       -0.0010416600  -0.0009715591   0.0004980272   0.0002451273   0.0006473336
       -0.0000469712   0.0003892584  -0.0001646911  -0.0001505466  -0.0000420849
        0.0000101182  -0.0000096533   0.0001443167   0.0000284076   0.0000599490
       -0.0000295757   0.0000120997   0.0000026801   0.0000509354  -0.0000347588
       -0.0000266230   0.0000116264   0.0000157986  -0.0000145799   0.0000094021
        0.0000215904   0.0000033236   0.0000051180  -0.0000077216   0.0000062631
        0.0000195235  -0.0000202653  -0.0000011970  -0.0000083415   0.0000067138
        0.0000128265  -0.0000022901  -0.0000159817   0.0000173858   0.0000070476
       -0.0000063088  -0.0000049606  -0.0000193150  -0.0000172038   0.0000456405
        0.0000132412  -0.0000263497   0.0000112535   0.0000091843  -0.0000235550
        0.0000135728  -0.0000198591   0.0000185015  -0.0000088137  -0.0000138125
        0.0000173324  -0.0000271520  -0.0000321833   0.0000571743  -0.0000287987
        0.0000295478   0.0000010226   0.0001333079  -0.0001184787   0.0000312563
       -0.0000627788   0.0000455723  -0.0000305530   0.0000784685  -0.0000522164
        0.0000008206  -0.0001646951  -0.0000331285   0.0000492512   0.0001420939
       -0.0000857333  -0.0000402518  -0.0003118638  -0.0001162878   0.0000430220
        0.0002228980   0.0000326921  -0.0000192906  -0.0010573178  -0.0022663590
       -0.0014658243   0.0006432963   0.0002920915  -0.0006203731   0.0002159952
        0.0000513200  -0.0000181478   0.0004851326   0.0004992334   0.0000017185
        0.0002157889  -0.0002950218   0.0000815682   0.0154721991  -0.0184408475
        0.0018961124   0.0010142250   0.0005246224  -0.0000441631  -0.0020648583
       -0.0025011478   0.0026192000   0.0004605341   0.0006346017  -0.0007776250
       -0.0902052348  -0.1244609541   0.0677404782  -0.0648923464  -0.0815775598
       -0.0643665898   0.0681374563  -0.1174705627  -0.0889047806  -0.0005051585
       -0.0000179277  -0.0009403105  -0.0000070282   0.0000103885   0.0000199495
       -0.0000031621   0.0000522139  -0.0000078201  -0.0000692260  -0.0000688531
       -0.0000577342   0.0000087994  -0.0000278819   0.0000014314   0.0000107110
        0.0000003294  -0.0000165508   0.0000109838  -0.0000187902  -0.0000065701
       -0.0000045438  -0.0000207361   0.0000014342  -0.0000095779  -0.0000059421
        0.0000077199  -0.0000006806  -0.0000053527   0.0000159963   0.0000000342
       -0.0000017312  -0.0000055492  -0.0000073509   0.0000063758  -0.0000012439
        0.0000051041   0.0000027843  -0.0000092809   0.0000031260  -0.0000068883
        0.0000170740  -0.0000002051   0.0000079640  -0.0000022106  -0.0000184553
        0.0000023150   0.0000052566  -0.0000207386   0.0000111358  -0.0000088258
       -0.0000011267   0.0000085967  -0.0000148724   0.0000132155   0.0000050070
       -0.0000106680   0.0000050844   0.0000114175   0.0000027012   0.0001235160
       -0.0000822322  -0.0001334084   0.0000334337  -0.0001124206   0.0000455194
       -0.0000298640  -0.0000594121   0.0000448160   0.0007181114  -0.0013368894
       -0.0000723481
       -0.0053555612   0.0165579661  -0.0100900989  -0.0256629956   0.0354927592
       -0.0858777362  -0.0194895926   0.0360866125   0.5048107440  -0.0156220600
        0.0106245914  -0.0126423369  -0.0001503451  -0.0003636310  -0.0007836638
       -0.0002085649   0.0000502797   0.0007306277  -0.0004026169   0.0001038978
        0.0000586971  -0.0007373670  -0.0005830908   0.0001605168  -0.0003169649
       -0.0009744744  -0.0026168584   0.0000706396   0.0006361115   0.0006461059
       -0.0000815590  -0.0002198680   0.0001614552   0.0004047866   0.0000577553
        0.0000046114  -0.0000279614   0.0000363331  -0.0000317136  -0.0000102731
        0.0000143953   0.0000015374  -0.0000165968  -0.0001063748   0.0000535654
        0.0000468855  -0.0000346869  -0.0000349348   0.0000194747  -0.0000102363
       -0.0000211095  -0.0000059901  -0.0000122279   0.0000127739  -0.0000160620
       -0.0000243598   0.0000225854  -0.0000050699   0.0000030483   0.0000059333
       -0.0000151596   0.0000094449   0.0000234246  -0.0000195805  -0.0000060416
        0.0000085910   0.0000061356   0.0000193054   0.0000260391  -0.0000314800
       -0.0000006319   0.0000188673  -0.0000216633  -0.0000067339   0.0000240722
       -0.0000210033   0.0000182357  -0.0000261267   0.0000003151   0.0000112947
       -0.0000163506   0.0000310286   0.0000312834  -0.0000792841  -0.0000514168
       -0.0000104196  -0.0000228541  -0.0000953531   0.0001154560  -0.0000227827
        0.0000989468  -0.0000834584  -0.0000021222  -0.0000812197   0.0000883403
        0.0000155152   0.0001114896  -0.0000004093  -0.0000314577  -0.0000626670
       -0.0000658021   0.0000510603   0.0001475902   0.0000719837  -0.0000820558
       -0.0001636553  -0.0000553710   0.0000810122   0.0006016913  -0.0017579941
       -0.0024936823   0.0004883345   0.0003732796  -0.0003399407   0.0004614410