$hessian                                                                        
        0.1130128140   0.0909935251  -0.1570417827  -0.1244817159  -0.0805108006
        0.1467573584   0.0148037653   0.0039786292  -0.0054285508   0.0056982461
       -0.0004971759  -0.0029016247  -0.0012120123  -0.0004319732   0.0000421803
        0.0004971719  -0.0004432249   0.0001495692   0.0000040995   0.0002742113
       -0.0000401995   0.0006068223   0.0000354439   0.0001966041  -0.0007313891
        0.0020378070   0.0009112283  -0.0045537569   0.0007081310   0.0002601213
       -0.0016269384  -0.0009847927  -0.0016943356   0.0038607042   0.0009684653
        0.0001036358  -0.0032270684  -0.0010309254  -0.0001511533   0.0006322744
       -0.0007095043   0.0002571459  -0.0000992050   0.0000981434  -0.0000359718
        0.0000625067  -0.0000940455   0.0000449403  -0.0000048631   0.0000600383
       -0.0000421480   0.0000153207  -0.0001525772  -0.0000114599  -0.0002426541
        0.0003085689  -0.0001005185   0.0000530451   0.0000033636   0.0000212135
       -0.0000413712  -0.0003784409  -0.0001180710  -0.0000907474   0.0001361144
       -0.0000025393   0.0000085033  -0.0000430480  -0.0000393604   0.0000074286
        0.0001225366   0.0000490050  -0.0000755931  -0.0001525004  -0.0000389361
        0.0001390090   0.0009668565   0.0002966662  -0.0007399260  -0.0009161205
       -0.0018026047   0.0002114522  -0.0017104085   0.0003685526  -0.0031309095
       -0.0118822555   0.0192751121   0.0007485973  -0.0004505979   0.0003199945
        0.0001208272  -0.0000913091  -0.0000447933   0.0001325148  -0.0000020497
        0.0000215880   0.0001027227   0.0002607221   0.0000599916  -0.0004608609
       -0.0002057313  -0.0002582649   0.0000343194  -0.0000123384   0.0000771648
       -0.0000256544   0.0000529716  -0.0000271707  -0.0000329469   0.0000441835
        0.0000159255  -0.0000331787   0.0000255613   0.0000266694  -0.0000131023
       -0.0000469067   0.0000222264  -0.0000013462  -0.0000569289   0.0000104019
        0.0000037146  -0.0000639924  -0.0000385270   0.0000131525   0.0000313618
        0.0000774789  -0.0001914336   0.0000142834  -0.0000857215   0.0002476617
       -0.0002532703   0.0005389598
        0.0909935251   0.1413482377  -0.1805681378  -0.0806006206  -0.1496018580
        0.1706955935   0.0052198126   0.0179365515  -0.0101895983  -0.0109229350
       -0.0043432411   0.0195699163  -0.0013953758  -0.0014631111  -0.0000485950
        0.0001916815   0.0003541556  -0.0019454419  -0.0001878876   0.0002859050
        0.0000756070  -0.0008364187  -0.0004054855  -0.0019025197   0.0012707073
       -0.0052125466   0.0001819572   0.0005360641  -0.0003138194   0.0010825915
       -0.0004531431   0.0006359803  -0.0003103455   0.0016960866   0.0003621852
        0.0000555005  -0.0013534705  -0.0000285072  -0.0001202008   0.0004126608
       -0.0004510113   0.0000586701  -0.0000869766   0.0000490068   0.0000622169
        0.0000399522  -0.0000316906   0.0000357472  -0.0000071147   0.0000389109
       -0.0000084688   0.0000150378  -0.0000342126  -0.0000151587  -0.0001572229
        0.0000275820   0.0000444081  -0.0000126040   0.0000812630  -0.0000120706
        0.0000894997  -0.0001931548  -0.0001253551  -0.0000580266   0.0001004276
        0.0000164648   0.0000176518   0.0000043421  -0.0000510940  -0.0000227088
        0.0000483007   0.0000009819  -0.0000484863  -0.0000044394  -0.0000292450
        0.0000286693   0.0002523159   0.0001799386  -0.0009703844  -0.0000398718
       -0.0004709652   0.0002686034  -0.0017404962   0.0003302892  -0.0029471366
        0.0025832020   0.0020281220  -0.0001596827   0.0000998488   0.0006518266
        0.0001249109  -0.0002998575   0.0000327170  -0.0000296795  -0.0001714153
        0.0004472235  -0.0000794147  -0.0005760061  -0.0001111973   0.0001452958
        0.0001188387  -0.0000054770   0.0000135521  -0.0000308958  -0.0000066567
       -0.0000362729   0.0000514811  -0.0000354636  -0.0000176632   0.0000270545
       -0.0000055436  -0.0000017432   0.0000148879   0.0000008255  -0.0000071263
       -0.0000231504   0.0000199446   0.0000058991  -0.0000166912   0.0000145949
        0.0000166951  -0.0000038428   0.0000130055   0.0000330660  -0.0000262133
        0.0000628295  -0.0001434458   0.0000893444  -0.0000768516  -0.0005838306
        0.0005016963   0.0003774144
       -0.1570417827  -0.1805681378   0.3965775150   0.1390156167   0.1610729261
       -0.3610766551   0.0126689277   0.0132603140  -0.0348059222   0.0033397595
        0.0017501447  -0.0003987972   0.0015175901   0.0009062267   0.0002036363
       -0.0003173209   0.0001094078   0.0003148548  -0.0000369903  -0.0003997925
       -0.0000076996   0.0007413781  -0.0000526760   0.0003354202  -0.0022326447
        0.0011139708  -0.0008838413   0.0008660024  -0.0021447436  -0.0009678890
        0.0005703091   0.0003379281   0.0003340195  -0.0026277424  -0.0007697153
       -0.0003862987   0.0021074729   0.0005037019   0.0003858814  -0.0004986764
        0.0005578259  -0.0001474996   0.0001405736  -0.0000052035  -0.0001224692
       -0.0000297448   0.0000486817  -0.0000371669  -0.0000175408  -0.0000485577
        0.0000477430  -0.0000293758   0.0000823289   0.0000166040   0.0001651138
       -0.0000813385  -0.0000288233   0.0000189911  -0.0000286160   0.0000520826
        0.0000130419   0.0002057043   0.0000439174   0.0000507459  -0.0001138740
        0.0000061981  -0.0000286547  -0.0000056677   0.0000624842   0.0000164877
       -0.0000541849  -0.0000246573   0.0001490017   0.0000719691  -0.0000845984
       -0.0000732525  -0.0006133129  -0.0002205603   0.0009603796   0.0004209947
        0.0004445418  -0.0003340645   0.0017921572  -0.0000661803   0.0010376114
        0.0024371640   0.0014106370  -0.0001255426  -0.0002563159  -0.0004717896
       -0.0001377408   0.0002345268  -0.0000167346  -0.0000159788   0.0001111757
       -0.0001380972   0.0000612460   0.0003408891  -0.0000116539   0.0001699559
        0.0000775274   0.0000052465  -0.0000248400  -0.0000170402   0.0000283726
        0.0000293675  -0.0000683725   0.0000305201   0.0000008456  -0.0000297177
        0.0000038056  -0.0000075990  -0.0000239899  -0.0000042749  -0.0000152146
        0.0000245492  -0.0000113116  -0.0000218434   0.0000224766   0.0000000247
       -0.0000209431   0.0000548700   0.0000186400  -0.0000424887   0.0000177504
        0.0000039395   0.0001625906  -0.0000619456   0.0000137073  -0.0001230274
       -0.0002120090  -0.0004268714
       -0.1244817159  -0.0806006206   0.1390156167   0.4360887281   0.1272072431
       -0.0247313206  -0.0892058896  -0.0511952410  -0.1031235772  -0.0512718403
        0.0316116576   0.0002361116   0.0015508549   0.0136805514   0.0006313481
       -0.0041485893   0.0025220536  -0.0007547151  -0.0003718004  -0.0005603567
       -0.0000362569  -0.0044406958  -0.0018857238  -0.0008142068   0.0016345427
       -0.0187626264  -0.0004859767  -0.0114621138  -0.0211711658  -0.0014932116
        0.0059530324  -0.0002144529   0.0003421710  -0.0130992897  -0.0040417320
       -0.0005498999   0.0110713818   0.0036496008   0.0011228910  -0.0020034673
        0.0022657824  -0.0006243448   0.0002444337  -0.0003521701  -0.0000377132
       -0.0001261629   0.0002386034  -0.0002071321  -0.0000676799  -0.0002328865
        0.0002292854  -0.0001223055   0.0005456642   0.0000110173   0.0008571916
       -0.0010142709   0.0003294779  -0.0001926762   0.0000067378  -0.0001846290
        0.0003445235   0.0012857445   0.0002848778   0.0002389905  -0.0005053367
       -0.0000138158  -0.0001170370   0.0001050978   0.0002191614  -0.0000054358
       -0.0002202971  -0.0002434830   0.0000699650   0.0005255990  -0.0000266904
       -0.0004444224  -0.0032666041  -0.0006963658   0.0039005000   0.0067459528
        0.0005034548  -0.0190738835   0.0051910683  -0.0007967487  -0.1409626125
       -0.0109299142  -0.0080104348  -0.0011828983   0.0007090315   0.0000355241
       -0.0002321592   0.0007706097   0.0000037538  -0.0004123155  -0.0001275025
        0.0000628102  -0.0005442257  -0.0017723498  -0.0001172879   0.0006339109
        0.0004462130   0.0000054739  -0.0001359602   0.0000114465  -0.0001315479
        0.0000615363  -0.0001622004   0.0000844448   0.0000830460  -0.0001195760
       -0.0000361657   0.0001010387  -0.0000864857  -0.0000828214   0.0000260065
        0.0001454906  -0.0000627494   0.0000023424   0.0001574113  -0.0000097422
       -0.0000240520   0.0001974765   0.0001383321  -0.0000936699  -0.0001179525
       -0.0001017017   0.0002342528  -0.0002888306  -0.0000224520   0.0011266209
       -0.0003907395   0.0001392387
       -0.0805108006  -0.1496018580   0.1610729261   0.1272072431   0.4991279505
        0.0028874610  -0.0520117657  -0.1347187420  -0.1599381818   0.0156122651
       -0.1335777845  -0.0014196442   0.0098000599  -0.0088843270   0.0005727731
        0.0021320727   0.0019211201  -0.0000377727  -0.0003473683  -0.0013816177
       -0.0000749170  -0.0011859411  -0.0003235212  -0.0002550271  -0.0159392574
       -0.0171633476  -0.0016630243  -0.0199583345  -0.0089539953  -0.0017673990
       -0.0010006476  -0.0056915074  -0.0003786529  -0.0023110304  -0.0010599858
       -0.0002061106   0.0017528555  -0.0004997071   0.0001489695  -0.0006760836
        0.0007800084   0.0000570542   0.0001390790  -0.0001149543  -0.0001008803
       -0.0000740056   0.0000509410  -0.0000842892  -0.0000153751  -0.0000622736
        0.0000000295  -0.0000382309   0.0000009681   0.0000275995   0.0003002927
        0.0000064326  -0.0001148939   0.0000431212  -0.0002009613  -0.0000645999
       -0.0002146260   0.0003910944   0.0002698990   0.0001007002  -0.0001785350
       -0.0000455404  -0.0000481963  -0.0000454962   0.0001214912   0.0000518038
       -0.0000723488   0.0000131716   0.0000484547   0.0000030130   0.0000626126
       -0.0000174238  -0.0001700783  -0.0002858843   0.0043381876  -0.0019534148
       -0.0000594428   0.0079462233   0.0073432176   0.0011346290   0.0053740421
       -0.0459333758   0.0001617608  -0.0011053313   0.0012846014  -0.0000328037
       -0.0005731913   0.0006770713  -0.0000080852  -0.0000058826   0.0005044952
        0.0000388397   0.0003039560   0.0005220944   0.0000465898  -0.0014171486
       -0.0008086932  -0.0000875548  -0.0000287855   0.0000745870   0.0000218461
        0.0000614735  -0.0000894402   0.0000705615   0.0000397092  -0.0000472823
        0.0000152613   0.0000083470  -0.0000222029   0.0000002193   0.0000115878
        0.0000379127  -0.0000387240  -0.0000119417   0.0000121639  -0.0000341937
       -0.0000413615  -0.0000258712  -0.0000502765  -0.0000973029   0.0000553363
       -0.0001036059   0.0009438475  -0.0001040701   0.0000430912   0.0014147103
       -0.0011076165   0.0000847181
        0.1467573584   0.1706955935  -0.3610766551  -0.0247313206   0.0028874610
        0.8463793258  -0.1106347965  -0.1695141040  -0.4132307975  -0.0002119953
       -0.0000077946  -0.0433908012   0.0004594402   0.0008359069  -0.0012934906
       -0.0007250833   0.0000252495   0.0060678116  -0.0000129641  -0.0000549808
       -0.0001766364  -0.0008303736  -0.0003521613   0.0053407176  -0.0004026072
       -0.0020135203   0.0005223460  -0.0016502508  -0.0019212273  -0.0006195466
        0.0000176443  -0.0003862330   0.0041838517  -0.0010192479  -0.0003934963
        0.0010051273   0.0006332681   0.0001926279  -0.0010518440  -0.0000473009
        0.0000353893  -0.0001286846  -0.0000153034  -0.0001373591   0.0002418766
       -0.0001291536   0.0000877645   0.0000186123   0.0000395878  -0.0000052848
       -0.0000643605   0.0000551890   0.0000109742  -0.0000165769   0.0001005208
       -0.0003732713   0.0002216534  -0.0001079661  -0.0000346782  -0.0003419673
       -0.0001250009   0.0003687249   0.0002492582   0.0000547821   0.0000152903
       -0.0000169327   0.0000370332   0.0000204310  -0.0000651025  -0.0000583687
       -0.0001426485   0.0000201751  -0.0000877633   0.0000937580   0.0002737998
       -0.0000237949  -0.0000263583  -0.0001453862   0.0001917298   0.0000428894
        0.0049761041  -0.0007976077   0.0009535249  -0.0022753677  -0.0071282455
       -0.0009374595  -0.0427111044  -0.0000229311   0.0001414420  -0.0013512182
       -0.0000458229   0.0000661058   0.0001526883   0.0000674049   0.0000417179
       -0.0012794287  -0.0000475203  -0.0001357769   0.0001435990  -0.0000829541
       -0.0000259718   0.0004573374   0.0000016000   0.0000483185  -0.0001011273
       -0.0000129632   0.0000548501  -0.0000011642   0.0000390774   0.0000000980
       -0.0000243371   0.0000709134   0.0000173542  -0.0000196639   0.0000675423
        0.0000255091  -0.0000200437   0.0000332708   0.0000214248  -0.0000235672
        0.0000180447  -0.0000626818  -0.0000085141   0.0000223891  -0.0000298138
       -0.0001131502   0.0000037018  -0.0000692185   0.0004622618   0.0002808376
       -0.0000583659  -0.0011690772
        0.0148037653   0.0052198126   0.0126689277  -0.0892058896  -0.0520117657
       -0.1106347965   0.0745946879   0.0596361637   0.1141022435   0.0055664928
       -0.0003679083   0.0037973819  -0.0009467279  -0.0002993363  -0.0002406261
        0.0004730416  -0.0003935976  -0.0001204901  -0.0000318147   0.0002200710
        0.0000537484   0.0007587530   0.0000165207  -0.0001348137  -0.0009520308
        0.0022559581  -0.0008111311  -0.0045711857   0.0002660968  -0.0008081776
       -0.0017135468  -0.0010432029   0.0012664132   0.0033465896   0.0007545536
        0.0001355545  -0.0029292360  -0.0009461940  -0.0004424649   0.0006233789
       -0.0007061950   0.0001050306  -0.0000298068   0.0001072311   0.0000039598
        0.0000186375  -0.0000546274   0.0000673754   0.0000145446   0.0000732782
       -0.0000725235   0.0000382072  -0.0001606902   0.0000082074  -0.0002390106
        0.0002430006  -0.0000772926   0.0000479123   0.0000045522   0.0000003457
       -0.0000929465  -0.0003167855  -0.0000828313  -0.0000703503   0.0001557463
        0.0000228443   0.0000400452  -0.0000457359  -0.0000761438  -0.0000095091
        0.0000467101   0.0000738193   0.0000215888  -0.0001076833   0.0000015965
        0.0001278900   0.0009835808   0.0001119190  -0.0006253395  -0.0010278414
        0.0014491319   0.0001967029  -0.0012992678  -0.0004709239   0.0000531464
       -0.0105147630  -0.0197101480   0.0007624182  -0.0004782034  -0.0001598837
        0.0000948141  -0.0000580835   0.0000504439   0.0001280295   0.0000119308
        0.0000224773   0.0001143607   0.0003122392  -0.0000157160  -0.0005261620
       -0.0002409996   0.0001678789   0.0000366766  -0.0000227765   0.0000662884
       -0.0000199236   0.0000469746  -0.0000194757  -0.0000313266   0.0000366687
        0.0000126051  -0.0000293188   0.0000243071   0.0000289910  -0.0000106983
       -0.0000413684   0.0000250681  -0.0000074138  -0.0000511306   0.0000064390
        0.0000065082  -0.0000529124  -0.0000299139   0.0000176882   0.0000429706
        0.0000706482  -0.0001979282   0.0000099287   0.0000271272   0.0003542863
       -0.0002272268  -0.0004391141
        0.0039786292   0.0179365515   0.0132603140  -0.0511952410  -0.1347187420
       -0.1695141040   0.0596361637   0.1250252945   0.1784624555  -0.0079474691
       -0.0029433488  -0.0207545949  -0.0012701678  -0.0014238863  -0.0002581150
       -0.0001169901   0.0002439906   0.0019756198  -0.0001622795   0.0002797105
       -0.0000814424  -0.0011348424  -0.0005202975   0.0016710351   0.0011719219
       -0.0052969718  -0.0003543590   0.0006611693  -0.0003226921  -0.0009718385
       -0.0004669662   0.0006130925   0.0002720010   0.0015339008   0.0003251458
        0.0000987451  -0.0012528991  -0.0000121729  -0.0000910727   0.0003994160
       -0.0004248479  -0.0000342639  -0.0000281968   0.0000750168   0.0000257780
        0.0000360043  -0.0000174555   0.0000405297  -0.0000029218   0.0000496634
       -0.0000146838   0.0000156589  -0.0000348427   0.0000004060  -0.0001674101
        0.0000441463   0.0000208189   0.0000056317   0.0000747348   0.0000373324
        0.0000915565  -0.0002149869  -0.0001461775  -0.0000549310   0.0001027404
        0.0000248807   0.0000190321   0.0000013292  -0.0000498082  -0.0000214708
        0.0000439850   0.0000097806  -0.0000049894  -0.0000080306  -0.0000507000
        0.0000352355   0.0002456213   0.0001180027  -0.0009370588  -0.0000765669
        0.0002658007   0.0003537449  -0.0016156077  -0.0004821263  -0.0025247927
        0.0026669597  -0.0022694466  -0.0000750607   0.0001368150  -0.0006140599
        0.0001242583  -0.0002874051  -0.0000448589   0.0000376165  -0.0001384107
       -0.0004332504  -0.0000864903  -0.0005765586   0.0000595905   0.0001401378
        0.0001116296  -0.0000053287   0.0000161237  -0.0000355024   0.0000121217
       -0.0000265054   0.0000340064  -0.0000293073  -0.0000258434   0.0000222120
       -0.0000033178  -0.0000120415   0.0000084759   0.0000055200  -0.0000144961
       -0.0000239027   0.0000246518   0.0000002725  -0.0000154343   0.0000179143
        0.0000141699   0.0000082291   0.0000177100   0.0000286744  -0.0000112753
        0.0000740796  -0.0001676842   0.0000830398   0.0000632256  -0.0006025698
        0.0005865487  -0.0003554580
       -0.0054285508  -0.0101895983  -0.0348059222  -0.1031235772  -0.1599381818
       -0.4132307975   0.1141022435   0.1784624555   0.4530707967  -0.0029032947
       -0.0018008059  -0.0012763827  -0.0017223094  -0.0010414469  -0.0001534389
        0.0003294819  -0.0001633145   0.0004850025   0.0000325958   0.0004444022
        0.0000345282  -0.0007435169   0.0000300881   0.0002639356   0.0022721945
       -0.0010427577  -0.0007887046  -0.0014287110   0.0022740553  -0.0011175461
       -0.0008062666  -0.0004490377   0.0004539003   0.0031469878   0.0009022467
       -0.0001658608  -0.0025383731  -0.0006202669  -0.0000458538   0.0005807797
       -0.0006546274   0.0000284599  -0.0000243722   0.0001417665  -0.0000271322
        0.0000739664  -0.0000578782   0.0000560061   0.0000167784   0.0000746317
       -0.0000425751   0.0000349719  -0.0001245407   0.0000218793  -0.0002880912
        0.0003149922  -0.0001117153   0.0000799643   0.0000584949   0.0001831025
        0.0000333051  -0.0004622373  -0.0002139109  -0.0000752483   0.0001583556
        0.0000389628   0.0000412399  -0.0000141120  -0.0000668272   0.0000098419
        0.0000892910   0.0000457335   0.0000172088  -0.0001103329  -0.0000769426
        0.0000878674   0.0007305080   0.0001108894  -0.0011081317  -0.0006137894
        0.0004490510   0.0004777721  -0.0021466636  -0.0002935640  -0.0012143283
       -0.0040728858  -0.0017750607   0.0003172545   0.0002192240  -0.0004767675
        0.0001654770  -0.0002574761  -0.0000178630   0.0000596828  -0.0001081181
       -0.0001454229  -0.0000398173  -0.0003260309  -0.0000504078  -0.0002606302
       -0.0001361181  -0.0000399429   0.0000270870  -0.0000288422   0.0000468475
       -0.0000127541   0.0000222758  -0.0000223962  -0.0000350425   0.0000237892
        0.0000087659  -0.0000412077   0.0000072386   0.0000207154  -0.0000346224
       -0.0000416643   0.0000300194  -0.0000101534  -0.0000347788   0.0000146347
        0.0000104478  -0.0000030999  -0.0000049348   0.0000225242   0.0000187208
        0.0000816678  -0.0002385298   0.0000914093  -0.0000158408   0.0001378563
        0.0003746602  -0.0004790877
        0.0056982461  -0.0109229350   0.0033397595  -0.0512718403   0.0156122651
       -0.0002119953   0.0055664928  -0.0079474691  -0.0029032947   0.6887113261
       -0.0455612170   0.0430571622  -0.2965509215   0.0750466478  -0.0172024156
        0.0234613327   0.0889871857   0.0043320370  -0.0638992840  -0.0009756293
       -0.0045839251   0.0229518074  -0.0760044225  -0.0007708698  -0.2462449132
       -0.0733680827  -0.0175737766  -0.0490901397   0.0076417419  -0.0037222868
        0.0036264268   0.0034336627   0.0002680426  -0.0012448671   0.0029622497
        0.0000089911  -0.0009104874  -0.0002794502  -0.0000877707   0.0001292722
       -0.0002283871   0.0000449136  -0.0000359011   0.0000280533  -0.0000518205
        0.0000244783  -0.0000547005   0.0000200394   0.0000031023   0.0000031040
       -0.0000057065  -0.0000062811  -0.0000379848   0.0000036945  -0.0000397666
        0.0001126899  -0.0000555508   0.0000298694  -0.0000154295  -0.0000202411
       -0.0001229401  -0.0001261259   0.0000415527  -0.0000166514   0.0000315934
        0.0000040859   0.0000137137  -0.0000080171  -0.0000199501   0.0000113075
       -0.0000168813   0.0000272521   0.0000221231  -0.0000819186   0.0000118563
        0.0000790156   0.0004569588   0.0000380664  -0.0014701157  -0.0005950506
       -0.0000561539  -0.0051859199  -0.0022627439  -0.0005212152  -0.0082763165
        0.0136663293  -0.0005061366  -0.0269857647   0.0109007632  -0.0017340613
        0.0010055349   0.0005922478  -0.0005036110  -0.0007439200  -0.0000915232
       -0.0000686644   0.0009213009  -0.0001437880  -0.0005230664   0.0000812279
       -0.0001512233  -0.0000085683   0.0000068479  -0.0000187388   0.0000711370
       -0.0000007880   0.0000081381  -0.0000020212  -0.0000083215   0.0000105936
        0.0000083347  -0.0000115056   0.0000080545   0.0000099089   0.0000052867
       -0.0000048944   0.0000005984   0.0000007031  -0.0000128333  -0.0000038089
        0.0000048828  -0.0000304897  -0.0000150898  -0.0000107834   0.0000419537
        0.0000035618  -0.0003219946  -0.0001865619  -0.0000818138   0.0000951254
       -0.0004177348  -0.0000571798
       -0.0004971759  -0.0043432411   0.0017501447   0.0316116576  -0.1335777845
       -0.0000077946  -0.0003679083  -0.0029433488  -0.0018008059  -0.0455612170
        0.4846856093   0.0074793663   0.1349238052  -0.1365619090   0.0075528810
        0.0265509892  -0.0394617732   0.0007099829   0.0000133235   0.0034611034
        0.0002952405  -0.0257971387  -0.0361873049  -0.0032246999  -0.1173806434
       -0.1369807247  -0.0118972260   0.0071318594   0.0121640839   0.0008770020
        0.0034337148  -0.0023969585   0.0001838092  -0.0002230620  -0.0001678306
        0.0000521113   0.0010121380   0.0002111331   0.0001148677  -0.0000568964
        0.0001735647  -0.0000578427   0.0000148428  -0.0000319625   0.0000316715
       -0.0000074682   0.0000220783  -0.0000196609  -0.0000026437  -0.0000103672
        0.0000126687  -0.0000034756   0.0000391080  -0.0000083437   0.0000482544
       -0.0001037134   0.0000359754  -0.0000351330   0.0000359878   0.0000357128
        0.0000809448   0.0000396420  -0.0000344207   0.0000061526  -0.0000126795
        0.0000075595   0.0000011552   0.0000262621  -0.0000044495  -0.0000015469
       -0.0000129097  -0.0000503508  -0.0000106193   0.0000449760   0.0000227489
       -0.0000766797  -0.0003797921  -0.0000154758   0.0008863544   0.0001303981
        0.0000426889  -0.0001952257   0.0009529685   0.0000940172  -0.0041813249
       -0.0055706477  -0.0006282737  -0.0115072508   0.0077131122  -0.0006797014
        0.0005135080  -0.0062311295  -0.0003805352  -0.0000174077   0.0011596578
        0.0000372673  -0.0001806120  -0.0060731834  -0.0004832347  -0.0001094898
       -0.0001172885  -0.0000228159  -0.0000033608   0.0000134708  -0.0000387568
       -0.0000010967  -0.0000038439  -0.0000035091   0.0000039137  -0.0000060725
       -0.0000091868   0.0000110303  -0.0000063421  -0.0000104332  -0.0000001551
        0.0000051608   0.0000006990   0.0000105834   0.0000194787   0.0000030177
        0.0000093910   0.0000257557   0.0000342260  -0.0000058837  -0.0000435965
       -0.0000178619   0.0001357148   0.0000653851   0.0000033667  -0.0001759179
        0.0002354674   0.0000183540
       -0.0029016247   0.0195699163  -0.0003987972   0.0002361116  -0.0014196442
       -0.0433908012   0.0037973819  -0.0207545949  -0.0012763827   0.0430571622
        0.0074793663   0.1207562569  -0.0153469232   0.0028990817  -0.0445506539
        0.0023422514   0.0055435866   0.0038181525  -0.0044562207   0.0002242358
       -0.0062969611   0.0007489992  -0.0071228534   0.0025407420  -0.0188953131
       -0.0085258284  -0.0516425254  -0.0038519148   0.0010031088   0.0013128826
        0.0002612996   0.0001388101   0.0015114155  -0.0001144643   0.0002274359
        0.0001238275  -0.0000122248  -0.0000205990  -0.0000183512   0.0000013128
       -0.0000022572  -0.0000199997  -0.0000062943   0.0000155902  -0.0000238610
        0.0000141068  -0.0000098044  -0.0000009440  -0.0000042648  -0.0000031231
        0.0000075516  -0.0000035169   0.0000019415  -0.0000005439   0.0000032476
        0.0000285308  -0.0000184065   0.0000103852   0.0000021697   0.0000239613
        0.0000019449  -0.0000334099  -0.0000125954  -0.0000018438  -0.0000008909
        0.0000007291  -0.0000014148   0.0000014581   0.0000058089   0.0000022844
        0.0000039177   0.0000018017   0.0000119536  -0.0000098267  -0.0000251568
       -0.0000057827   0.0000141258   0.0000138286  -0.0000568607  -0.0000224539
       -0.0003539197  -0.0003729777  -0.0001304388  -0.0001285349  -0.0008827675
        0.0006838177   0.0028627628  -0.0024807856   0.0010790927   0.0001486534
       -0.0005010302  -0.0003736915   0.0075142332  -0.0000410265   0.0000400106
       -0.0002416858  -0.0005389979  -0.0004531308   0.0077719606   0.0000246397
       -0.0000129438  -0.0002249988   0.0000019271  -0.0000034578   0.0000101304
        0.0000016655  -0.0000052402  -0.0000005178  -0.0000028353  -0.0000001490
        0.0000019607  -0.0000051327  -0.0000021136   0.0000008316  -0.0000049364
       -0.0000007077   0.0000009876  -0.0000019198  -0.0000009152   0.0000013716
       -0.0000003263   0.0000055391   0.0000007387  -0.0000017215   0.0000022423
        0.0000048024  -0.0000184958  -0.0000266515   0.0001133736  -0.0000050566
       -0.0000292516   0.0000768727
       -0.0012120123  -0.0013953758   0.0015175901   0.0015508549   0.0098000599
        0.0004594402  -0.0009467279  -0.0012701678  -0.0017223094  -0.2965509215
        0.1349238052  -0.0153469232   0.6791570092   0.0183206801   0.0443900033
       -0.0934593541  -0.0427844466  -0.0049364374   0.0293636068  -0.0246183853
        0.0014334013  -0.0135829972   0.0287135175   0.0001858547  -0.0648965693
       -0.0238596878  -0.0058274853  -0.0009152351  -0.0048505082  -0.0007206624
       -0.0025474604   0.0008441196  -0.0002009592  -0.0005702142  -0.0011417302
       -0.0000387399   0.0004643163   0.0002995045   0.0000435054  -0.0000869154
        0.0000751226  -0.0000313354   0.0000136082  -0.0000136932   0.0000077961
       -0.0000081838   0.0000246067  -0.0000145222  -0.0000145550  -0.0000022208
        0.0000073767  -0.0000123434   0.0000200650   0.0000076852   0.0000238116
       -0.0000435565   0.0000120419  -0.0000030998   0.0000081815  -0.0000218987
        0.0000598476   0.0000667929  -0.0000215549   0.0000058950  -0.0000195582
        0.0000032714  -0.0000096674  -0.0000051246   0.0000141137  -0.0000079704
        0.0000053430  -0.0000138434   0.0000035065   0.0000468395  -0.0000192624
        0.0000003567  -0.0001658967  -0.0000263527   0.0004728182   0.0005156361
        0.0000708926  -0.0006669592   0.0003597121  -0.0000825533   0.0011232252
       -0.0002704123   0.0001199131  -0.2319022100  -0.1167694399  -0.0190109971
       -0.0015860460   0.0256528045   0.0006230615  -0.0039789512  -0.0031989421
       -0.0010185809   0.0004350412   0.0005720091   0.0000675043   0.0002388306
        0.0002207680   0.0000155376  -0.0000078144  -0.0000069981  -0.0000032729
       -0.0000038231  -0.0000070531   0.0000021983   0.0000001314  -0.0000069002
       -0.0000054522   0.0000042794  -0.0000044494  -0.0000067614  -0.0000029985
       -0.0000004861   0.0000008272   0.0000010608   0.0000061320   0.0000033522
       -0.0000037659   0.0000155411   0.0000177737  -0.0000119588  -0.0000097057
        0.0000415707   0.0000325249   0.0000029163   0.0000300600   0.0000380299
       -0.0000494184  -0.0000048669
       -0.0004319732  -0.0014631111   0.0009062267   0.0136805514  -0.0088843270
        0.0008359069  -0.0002993363  -0.0014238863  -0.0010414469   0.0750466478
       -0.1365619090   0.0028990817   0.0183206801   0.6327153063   0.0175435308
        0.0387449152  -0.3180033226  -0.0053280523  -0.0828269657  -0.0363456616
       -0.0076707727   0.0300172164  -0.0445897608   0.0011141434   0.0275298237
        0.0523919303   0.0038049067  -0.0077672893   0.0002308414  -0.0008210002
        0.0017472011   0.0002203877   0.0001292390  -0.0010842682   0.0009139281
        0.0000178293   0.0003506328   0.0001279782   0.0000413246  -0.0001239028
        0.0001081522  -0.0000238915   0.0000124126   0.0000074887   0.0000047061
       -0.0000014261   0.0000091869  -0.0000089703   0.0000031244  -0.0000106335
        0.0000154763  -0.0000032853   0.0000429692   0.0000021539   0.0000191315
       -0.0000559711   0.0000383535  -0.0000077724   0.0000069812  -0.0000043745
        0.0000071192   0.0000505050   0.0000267817   0.0000173616  -0.0000266387
       -0.0000030129  -0.0000015867   0.0000160087   0.0000033066   0.0000034193
       -0.0000256970  -0.0000199525   0.0000040371   0.0000059159   0.0000099414
       -0.0000379168  -0.0001671173  -0.0000360677   0.0000409216  -0.0006887745
       -0.0000490969   0.0020253664   0.0002156827   0.0001205309   0.0020328171
       -0.0053435476  -0.0000119295  -0.1169466850  -0.1144532648  -0.0115517989
        0.0025166578  -0.0178157128  -0.0004157138  -0.0030257712  -0.0010187160
       -0.0005098087   0.0004801598  -0.0002396070   0.0000497726  -0.0000920789
       -0.0001192029  -0.0000367750  -0.0000060943  -0.0000013094  -0.0000159595
        0.0000029949  -0.0000055219   0.0000023473   0.0000053551  -0.0000048355
       -0.0000014132   0.0000067469  -0.0000049584  -0.0000045049   0.0000021692
        0.0000063484  -0.0000027150   0.0000067837   0.0000145392  -0.0000069152
        0.0000062632   0.0000164008   0.0000105054   0.0000040092  -0.0000013165