$hessian                                                                        
        0.6393746995   0.0018623548  -0.0815988426  -0.2540461642  -0.0031711846
        0.1829549261   0.0018447165  -0.0000667811   0.0090385068   0.0015242557
       -0.0000145137  -0.0000942318  -0.0184394237   0.0003118632  -0.0212611875
       -0.2354929763   0.0007199743  -0.0539596230  -0.0589981064  -0.0002019382
        0.0070368496   0.0095952202  -0.0002768182   0.0152061672   0.0074002466
        0.0001158056  -0.0058074191   0.0000285602   0.0000160536  -0.0003988576
       -0.0002150736   0.0000050124  -0.0004532717   0.0007963235  -0.0000016448
        0.0003132241  -0.0001203765   0.0000059469  -0.0003923294   0.0004845625
        0.0000036561  -0.0000731640  -0.0002942916  -0.0000102794   0.0005711687
       -0.0005435653   0.0000074160  -0.0004909813   0.0003224902  -0.0000219998
        0.0014028171  -0.0019702228   0.0000060844  -0.0008632813   0.0027513157
       -0.0000149587   0.0016172632  -0.0054244876  -0.0000032128  -0.0010697687
        0.0000080528   0.0000347983  -0.0001015349   0.0000278668  -0.0000241452
       -0.0000230112  -0.0000112937   0.0000132264   0.0000184199  -0.0000172610
       -0.0000038261   0.0000137193   0.0000218957  -0.0000147617   0.0000123354
        0.0000583993  -0.0000493144  -0.0000630214  -0.0000745438  -0.0000120176
        0.0000918542   0.0000586807   0.0000512748  -0.0000598633   0.0000223227
        0.0000150790   0.0000128184  -0.0000163802   0.0000039960   0.0000162253
       -0.0000119158  -0.0000129459   0.0000189712   0.0000282160   0.0000263177
       -0.0000242825   0.0000086879  -0.0000313676  -0.0001015765   0.0004613987
        0.0007938208  -0.0015220925  -0.0003941107   0.0004559214   0.0001076011
        0.0002750673  -0.0000698276   0.0002390769   0.0000157032   0.0001407992
       -0.0000160182  -0.0000252221  -0.0000013308  -0.0000201609  -0.0001046786
        0.0000903880  -0.0000876457   0.0000322709  -0.0000063221   0.0001484378
       -0.0000954438  -0.0000801470  -0.0000838188  -0.0000287688   0.0000042123
       -0.0000238527   0.0000163463  -0.0001404531  -0.0000193866   0.0002735177
        0.0000632072   0.0002420568  -0.0003968437  -0.0004636709   0.0000953306
        0.0004462555  -0.0007701164  -0.0015245965  -0.0649333741   0.0010973080
       -0.0709589821  -0.0257581962  -0.0004038916   0.0225805913   0.0000161101
       -0.0000047055   0.0003404283   0.0009097055   0.0000103664  -0.0005072372
       -0.0000177985  -0.0000010700   0.0000358545   0.0000220275  -0.0000002150
        0.0000277281   0.0000234032   0.0000000016   0.0000182043   0.0000277989
        0.0000010704  -0.0000210340   0.0000269302   0.0000019224  -0.0000398337
        0.0001238826   0.0000054059  -0.0001237477  -0.0000257843   0.0000497865
        0.0000250772   0.0000024874   0.0000044534  -0.0000068129  -0.0000022220
       -0.0000266952   0.0000040055   0.0000028315  -0.0000080660   0.0000497228
        0.0000029128   0.0000069327   0.0000509723  -0.0000018196   0.0000275206
        0.0000040375   0.0000025578  -0.0000035835  -0.0000058576  -0.0000251013
       -0.0000501604   0.0000226025   0.0002408354   0.0001295750  -0.0002216174
       -0.0000435637  -0.0000703544  -0.0000282363   0.0000396666  -0.0000079553
       -0.0000037466  -0.0000121766  -0.0000443417  -0.0000045899  -0.0000121297
        0.0000459047  -0.0000047835   0.0000397093   0.0000099429  -0.0000018836
       -0.0000433348   0.0000720541  -0.0000277643   0.0002387202  -0.0001248368
       -0.0002270477
        0.0018623548   0.1075926629  -0.0099212316  -0.0037037875  -0.0339987196
        0.0045616379  -0.0002571707   0.0034569994   0.0006485373  -0.0000058162
       -0.0003110509  -0.0000588535   0.0004516560  -0.0000064645   0.0001536933
        0.0009246525  -0.0489788694   0.0004917964  -0.0004944872  -0.0019990052
       -0.0000919187  -0.0000189032   0.0090759607   0.0002760068   0.0000854733
        0.0008144879   0.0000738277   0.0000204468   0.0006904179   0.0000016779
       -0.0000033440   0.0000957084   0.0000088658   0.0000056427  -0.0000568199
        0.0000002292  -0.0000026805  -0.0000080760  -0.0000012786   0.0000041574
        0.0000080937   0.0000026389  -0.0000003261  -0.0000101428   0.0000054890
       -0.0000022055   0.0000433737  -0.0000056766   0.0000031217   0.0000664959
        0.0000136378  -0.0000132031  -0.0001557055  -0.0000146791   0.0000152860
       -0.0006009810  -0.0000049535  -0.0000346178   0.0006240402  -0.0000015365
       -0.0000622867  -0.0000072089  -0.0000378471   0.0000114435   0.0000295811
       -0.0000286872   0.0000010955  -0.0000006231   0.0000084770   0.0000058507
        0.0000014485  -0.0000168067   0.0000029213   0.0000138359   0.0000101899
        0.0000092171  -0.0000209051  -0.0000284867  -0.0000015713   0.0000220216
        0.0000017646  -0.0000073094  -0.0000231810   0.0000222934  -0.0000029383
        0.0000136233  -0.0000064364  -0.0000050879   0.0000040118   0.0000157303
       -0.0000003566  -0.0000004479  -0.0000086481  -0.0000122993   0.0000247370
        0.0000287123   0.0000609299  -0.0000091407   0.0000280407   0.0000922445
       -0.0005605053   0.0004281997   0.0001611545  -0.0001586934  -0.0000268151
       -0.0000296806   0.0000385335  -0.0000899001  -0.0000108018  -0.0000608512
        0.0000108324   0.0000670185   0.0000498821  -0.0000038020  -0.0001820797
        0.0000480472   0.0000169241   0.0000019445  -0.0000896431  -0.0000073876
        0.0001729767   0.0000641688  -0.0000070226  -0.0000660795   0.0000488235
       -0.0000021168   0.0000166260  -0.0000610695  -0.0000130426   0.0000258217
        0.0000424678   0.0000865534  -0.0001681535  -0.0001456933   0.0000289282
       -0.0000614550  -0.0005786080  -0.0003520582   0.0011409012  -0.0339723740
        0.0038556955   0.0000108324   0.0007728153  -0.0000119523  -0.0000045721
       -0.0004729278  -0.0000098952  -0.0000071256  -0.0015655893  -0.0000369025
        0.0000008309  -0.0000057709  -0.0000010414  -0.0000001459   0.0000049596
       -0.0000008086  -0.0000007940  -0.0000051352  -0.0000005484  -0.0000006652
       -0.0000142442   0.0000003558  -0.0000001094   0.0000204931   0.0000010779
        0.0000011941   0.0001222365   0.0000012739  -0.0000231528   0.0000005510
        0.0000140035  -0.0000023116   0.0000072568   0.0000028097  -0.0000023779
        0.0000009456   0.0000026978  -0.0000027960  -0.0000006929   0.0000039341
        0.0000030718  -0.0000008374  -0.0000042391   0.0000021124   0.0000006334
       -0.0000028947   0.0000015956   0.0000069848  -0.0000021342   0.0000227131
        0.0000019723  -0.0000120261  -0.0000337277  -0.0000162080   0.0000159923
        0.0000073939   0.0000235167   0.0000070167  -0.0000030709   0.0000088954
       -0.0000007221   0.0000085223   0.0000210355  -0.0000002539  -0.0000072596
        0.0000208748   0.0000006256   0.0000046466   0.0000069500   0.0000019266
       -0.0000080348   0.0000235152  -0.0000072209   0.0000369347  -0.0000168736
       -0.0000122692
       -0.0815988426  -0.0099212316   0.7115639498   0.2153366199   0.0046013522
       -0.3047410359   0.0165735215   0.0006258601  -0.0363494459   0.0017709296
       -0.0000580583   0.0030382879  -0.0270926316   0.0001432850  -0.0095132841
       -0.0685555942   0.0004821944  -0.0827779866   0.0232321008  -0.0000708704
        0.0039790448   0.0003991805   0.0002538228  -0.0049765850  -0.0038760888
        0.0000811202  -0.0038031474  -0.0013390630  -0.0000015911   0.0003707530
       -0.0000657823   0.0000145974  -0.0006825687  -0.0000240545  -0.0000013590
        0.0000726246   0.0000106402   0.0000005782  -0.0000825443  -0.0000206702
        0.0000017405  -0.0000575107   0.0000301589   0.0000027325  -0.0001142729
        0.0000597163  -0.0000043381   0.0002060232  -0.0001105995   0.0000073098
       -0.0003750993   0.0005421162  -0.0000083190   0.0004489345  -0.0004456821
       -0.0000148574   0.0001461300   0.0010630718  -0.0000000446   0.0007884825
        0.0000712353   0.0000811963   0.0000337946   0.0000040594  -0.0000248143
        0.0000494467  -0.0000053699   0.0000362847  -0.0000130971  -0.0000018288
        0.0000129647  -0.0000104096  -0.0000252600   0.0000217911  -0.0000282403
        0.0000099571  -0.0000982795   0.0000186758   0.0000070390   0.0000022195
        0.0000634837   0.0000081443   0.0000976797   0.0000248490  -0.0000251522
       -0.0000204787  -0.0000289701  -0.0000025621  -0.0000130891  -0.0000112686
       -0.0000046703  -0.0000359551  -0.0000155337   0.0000031102   0.0000236912
        0.0000507408   0.0000742385  -0.0000807460   0.0000298193  -0.0013311585
       -0.0011642706  -0.0027549148   0.0003262232   0.0002139114  -0.0002050114
        0.0000820999   0.0001806819   0.0001684239  -0.0001871470   0.0000818789
       -0.0000095479  -0.0000113105  -0.0001907645   0.0002415635   0.0000802290
        0.0006004018  -0.0002697133  -0.0001072489  -0.0000073112   0.0003984162
        0.0000785327  -0.0005884926  -0.0002869002  -0.0000127070   0.0001843232
        0.0002459567  -0.0001875831  -0.0000822592  -0.0000123075   0.0000835952
       -0.0001849608   0.0001642018   0.0003199069  -0.0002067377  -0.0002081436
       -0.0013177115   0.0012348696  -0.0027172986  -0.0724262031   0.0038580640
       -0.2751429787  -0.0018913720  -0.0000249259   0.0028364699   0.0002054872
       -0.0000086046   0.0000672171   0.0006335731  -0.0000328281   0.0003630119
       -0.0000203998  -0.0000009927   0.0000307168   0.0000097961  -0.0000013900
        0.0000306653   0.0000170561  -0.0000007297   0.0000164200   0.0000256081
        0.0000003233  -0.0000142170   0.0000178535   0.0000015367  -0.0000296852
       -0.0000209670   0.0000008513  -0.0000149271  -0.0000043436   0.0000070408
       -0.0000155978   0.0000079249  -0.0000202825   0.0000015522   0.0000023399
       -0.0000153993   0.0000182292  -0.0000084031  -0.0000173592   0.0000221801
       -0.0000083256   0.0000154494   0.0000227631   0.0000021282   0.0000145549
        0.0000193200   0.0000080789   0.0000204748   0.0000016480  -0.0000034440
       -0.0000065438  -0.0000157468  -0.0001551322  -0.0000129215  -0.0001019008
        0.0000153319   0.0000382741   0.0000101898  -0.0000330616  -0.0000272082
       -0.0000345849  -0.0000094007   0.0000146508  -0.0000019136  -0.0000097226
       -0.0000141920  -0.0000014887  -0.0000327139   0.0000278938  -0.0000336932
        0.0000148668  -0.0000382023   0.0000095591  -0.0001542634   0.0000148077
       -0.0001019736
       -0.2540461642  -0.0037037875   0.2153366199   0.6864647466   0.0026891075
       -0.1330874383  -0.0712869152   0.0004179762  -0.0293482647  -0.0153371027
        0.0004336398  -0.0281174256   0.0067821482  -0.0000128042   0.0026420938
       -0.0642433492  -0.0004621607   0.0229153643   0.0091215375   0.0001108892
       -0.0054734571  -0.0068797102   0.0000894532  -0.0056882309  -0.0044379786
       -0.0000526938   0.0026585942  -0.0000128010  -0.0000140382   0.0004003514
        0.0002472285  -0.0000021902   0.0001677685  -0.0004549752   0.0000045732
       -0.0002318470   0.0001206211  -0.0000058799   0.0002489790  -0.0003549523
       -0.0000014867   0.0000164908   0.0001942620   0.0000091809  -0.0004251676
        0.0003369851  -0.0000072165   0.0003759266  -0.0002584417   0.0000153676
       -0.0009682825   0.0012063093  -0.0000056949   0.0006046136  -0.0018318966
        0.0000047927  -0.0007742996   0.0022478872   0.0000124293   0.0000140139
        0.0000182518  -0.0000687148   0.0000730980  -0.0000149667  -0.0000284261
        0.0000455200   0.0000178721   0.0000152161  -0.0000175372   0.0000239196
        0.0000171783  -0.0000008091  -0.0000137480  -0.0000182216  -0.0000179819
        0.0000006740  -0.0000585225  -0.0000076538  -0.0001238658   0.0000049504
        0.0000912298  -0.0000014315   0.0000645193  -0.0000070385  -0.0000152253
        0.0000193090  -0.0000165826   0.0000231902  -0.0000182942  -0.0000041781
        0.0000188777  -0.0000154810  -0.0000190092  -0.0000126370   0.0000262900
        0.0000455727   0.0000168046   0.0000666756   0.0000749938   0.0036793081
       -0.0005370243   0.0081486292   0.0000311467  -0.0009156355   0.0005294168
       -0.0003476594  -0.0002028355  -0.0005829441   0.0001565559  -0.0003918213
        0.0000352461  -0.0000548806   0.0005903599  -0.0003022114  -0.0005285010
       -0.0021453335   0.0014920311  -0.0011082248   0.0000090038  -0.0002458515
       -0.0005259340   0.0021019903   0.0015510787  -0.0000546855  -0.0005868153
       -0.0003108437   0.0001586235   0.0003890317   0.0000449779  -0.0003455226
        0.0002144244  -0.0005745449   0.0000420843   0.0008971887   0.0005509459
        0.0036861468   0.0002729921   0.0080294053   0.0045138122   0.0000689297
       -0.0034844522  -0.2908493692   0.0006978792  -0.0552274750  -0.0053475497
        0.0000271972  -0.0014315014   0.0000563237   0.0000035198  -0.0001337477
        0.0000032789  -0.0000002499  -0.0000086503  -0.0000086758  -0.0000014040
       -0.0000182894  -0.0000190498  -0.0000007203  -0.0000110719  -0.0000091299
       -0.0000000959   0.0000059096   0.0000067258   0.0000001167  -0.0000034957
        0.0000508959  -0.0000028423  -0.0000719219   0.0000212249  -0.0000483036
        0.0000020809  -0.0000045312   0.0000005390   0.0000141094   0.0000012149
        0.0000402655  -0.0000037084  -0.0000081022  -0.0000077258  -0.0000350081
       -0.0000081426   0.0000073697  -0.0000349210   0.0000009768  -0.0000414316
       -0.0000043441  -0.0000045252  -0.0000022893   0.0000122654   0.0000201699
        0.0000472110   0.0000048477  -0.0002906810   0.0002010265   0.0001091671
       -0.0000178712  -0.0000389320   0.0000389500  -0.0000448416   0.0000270826
        0.0000441557  -0.0000042865  -0.0000092023   0.0000899819  -0.0000046097
        0.0000056466   0.0000910675  -0.0000455033  -0.0000296412   0.0000412914
       -0.0000177706   0.0000365575   0.0000406543  -0.0002935954  -0.0002019637
        0.0001027446
       -0.0031711846  -0.0339987196   0.0046013522   0.0026891075   0.1164269145
       -0.0079139921   0.0006407525  -0.0428453635   0.0019320402   0.0001750033
        0.0019362257   0.0002504940   0.0000197332  -0.0015899074   0.0000480210
       -0.0006847846   0.0007365000  -0.0000640095   0.0002558961   0.0024049587
       -0.0000492675  -0.0000990801   0.0005239138  -0.0000892222  -0.0000564202
       -0.0000264763   0.0000409532  -0.0000066689  -0.0000894882   0.0000174895
        0.0000102058   0.0000111129  -0.0000035226  -0.0000059098  -0.0000049634
       -0.0000056303   0.0000038001   0.0000004730   0.0000072271  -0.0000105015
        0.0000021282  -0.0000041703   0.0000053149   0.0000015413  -0.0000127693
        0.0000078251  -0.0000076382   0.0000124273  -0.0000061482  -0.0000006470
       -0.0000323137   0.0000314905   0.0000474642   0.0000272833  -0.0000355187
       -0.0000181868  -0.0000146391   0.0000513496  -0.0002276544   0.0000033146
       -0.0000082421  -0.0000055172   0.0000625782   0.0000040422  -0.0000107424
        0.0000025306  -0.0000006715   0.0000129087   0.0000135537   0.0000108198
        0.0000038541  -0.0000028725   0.0000061004   0.0000313112   0.0000078080
        0.0000091193  -0.0000706761  -0.0000488459   0.0000038448   0.0000325396
       -0.0000041751  -0.0000131509  -0.0000725770   0.0000551609  -0.0000054166
        0.0000321079  -0.0000082064  -0.0000128740  -0.0000019127   0.0000040905
       -0.0000004091   0.0000157049  -0.0000127079  -0.0000030064  -0.0000054515
       -0.0000027309   0.0000059447  -0.0000030064  -0.0000512903   0.0005376474
       -0.0050721942   0.0207023528  -0.0009926558  -0.0009487326   0.0009527843
       -0.0003214404  -0.0006619289  -0.0010889727   0.0002338292  -0.0002270843
        0.0000503604  -0.0001881217   0.0003007875  -0.0009067902   0.0008973043
       -0.0013943027   0.0006829218   0.0000068138   0.0008809837   0.0000230738
       -0.0008619676  -0.0014110434  -0.0007446599   0.0001866600   0.0002947094
        0.0009033776  -0.0002347713  -0.0002229362  -0.0000548019   0.0002994986
       -0.0006668106   0.0010566041   0.0009864825  -0.0009772241  -0.0009985689
       -0.0007086637  -0.0040370203  -0.0201456392  -0.0003065023  -0.0007806633
        0.0004408911   0.0006349885  -0.0301803496   0.0003171032   0.0000131340
        0.0013339770   0.0000180124   0.0000057852  -0.0000070738   0.0000054000
       -0.0000007388  -0.0000018860   0.0000002966  -0.0000002408  -0.0000008175
        0.0000012200   0.0000007176   0.0000014154   0.0000003324   0.0000007899
       -0.0000007319  -0.0000007420  -0.0000005259  -0.0000014726  -0.0000006708
       -0.0000016389  -0.0000039539   0.0000026076  -0.0000063447   0.0000021630
       -0.0000030972  -0.0000067503   0.0000051229  -0.0000022048  -0.0000059513
        0.0000113674  -0.0000046243  -0.0000075237  -0.0000034634  -0.0000067948
        0.0000078717  -0.0000039861   0.0000076235   0.0000065202   0.0000135638
        0.0000047197   0.0000074447   0.0000045597   0.0000009576   0.0000062415
        0.0000021910   0.0000017464   0.0001363653   0.0002382151   0.0003985537
       -0.0000211179  -0.0000630697   0.0000253006   0.0000417941   0.0001102496
        0.0002094619  -0.0000055967  -0.0000339740   0.0000302492   0.0000065158
       -0.0000350467  -0.0000315811  -0.0000398347   0.0001121334  -0.0002026936
        0.0000204133  -0.0000674202  -0.0000277896  -0.0001367933   0.0002510164
       -0.0003822780
        0.1829549261   0.0045616379  -0.3047410359  -0.1330874383  -0.0079139921
        0.6054017724  -0.0436218021   0.0021112903  -0.1721785038  -0.0105763241
        0.0001893272  -0.0102686579  -0.0014407310   0.0000870974  -0.0052768408
        0.0369195335  -0.0000886105   0.0077321310  -0.0150617782  -0.0000332896
        0.0042651669   0.0055445114  -0.0000623636   0.0056468902   0.0028490527
        0.0000428128  -0.0025222970   0.0001520385   0.0000174953  -0.0006445922
        0.0000075596  -0.0000075648   0.0001387078   0.0002610749   0.0000047568
        0.0000310680  -0.0000327965  -0.0000056375  -0.0000327537   0.0001628944
        0.0000018464   0.0000173502  -0.0000748855  -0.0000037544   0.0002799330
       -0.0002724502   0.0000003303  -0.0002881620   0.0001888710  -0.0000149395
        0.0007422764  -0.0010645582   0.0000055187  -0.0005062356   0.0013924734
       -0.0000019497   0.0002152742  -0.0016691164   0.0000059468  -0.0004660788
       -0.0001851290  -0.0002803384   0.0000454758  -0.0000089680   0.0000291136
       -0.0000745345   0.0000121632  -0.0000147710   0.0000268851   0.0000519114
       -0.0000276086   0.0000218573   0.0000246612  -0.0000535646  -0.0000258588
       -0.0000227612   0.0002274961   0.0000459776  -0.0000444398   0.0000223914
        0.0000035118  -0.0000211824  -0.0002093928   0.0000350733   0.0000215553
        0.0000505319  -0.0000211649   0.0000512014   0.0000247831   0.0000153426
        0.0000126187   0.0000116026   0.0000270086  -0.0000044794  -0.0000294016
       -0.0000753256  -0.0001853907   0.0002754965   0.0000623763   0.0052264338
        0.0162876775  -0.0232293085  -0.0003243071  -0.0009294955   0.0003740250
        0.0006770330   0.0008143030   0.0005466329  -0.0000362271   0.0000727175
       -0.0000618096  -0.0000032915   0.0005969606   0.0003596099  -0.0005278302
       -0.0011476450   0.0005433698  -0.0000751496   0.0000238072  -0.0009419522
       -0.0005282271   0.0011050783   0.0005511652  -0.0000035340  -0.0005978518
        0.0003717042  -0.0000384993  -0.0000839406  -0.0000665197   0.0006779228
       -0.0008518473   0.0005571499  -0.0002995612   0.0008732270   0.0003728539
        0.0051338637  -0.0158349459  -0.0242888136   0.0194334654   0.0004625186
       -0.0285431344  -0.0523300192   0.0003229208  -0.0533995142   0.0000373017
       -0.0000161888   0.0005823849  -0.0002406164  -0.0000050307  -0.0003371228
        0.0000107625  -0.0000012177  -0.0000005552  -0.0000062748  -0.0000025416
       -0.0000673252  -0.0000343608  -0.0000020738  -0.0000099936  -0.0000417002
       -0.0000010821   0.0000271050  -0.0000144353  -0.0000003703   0.0000358444
        0.0000389709  -0.0000084224  -0.0000536641   0.0000319939  -0.0000045589
        0.0000136236  -0.0000087906   0.0000021498   0.0000317952  -0.0000122113
        0.0000926160  -0.0000062141  -0.0000017342   0.0000112708  -0.0000887735
       -0.0000017668  -0.0000115603  -0.0000892057  -0.0000124570  -0.0000957470
       -0.0000070527  -0.0000087996  -0.0000051366   0.0000280310   0.0000321754
        0.0000020894   0.0000145499   0.0001421052   0.0000561078  -0.0003738252
        0.0000188895  -0.0002501066   0.0000456715  -0.0000677870  -0.0001806314
       -0.0001118987  -0.0000832059  -0.0001142028   0.0000161306  -0.0000838187
        0.0001134267   0.0000218339  -0.0000677555   0.0001815902  -0.0001150303
        0.0000198542   0.0002461630   0.0000519665   0.0001387728  -0.0000423236
       -0.0003857712
        0.0018447165  -0.0002571707   0.0165735215  -0.0712869152   0.0006407525
       -0.0436218021   0.4937424741  -0.0001292764   0.0223164747  -0.1959889897
        0.0007589079  -0.0320944397  -0.0383883728  -0.0001798846   0.0112826159
        0.0044462801   0.0000561243  -0.0036988705  -0.0045672546  -0.0000073407
        0.0006712826   0.0011100119  -0.0000644041   0.0042991313   0.0064393667
        0.0000223221  -0.0000043816   0.0000678588   0.0000187542  -0.0008624539
        0.0000300156  -0.0000127598   0.0004466360  -0.0000784787   0.0000024729
       -0.0000006385  -0.0000121036  -0.0000054033   0.0001653176  -0.0000545002
        0.0000054988   0.0000712790   0.0001018386  -0.0000001406   0.0000213225
       -0.0000245564  -0.0000031892  -0.0001070089   0.0001093454  -0.0000058446
        0.0000800406  -0.0003546413   0.0000035028  -0.0001899146   0.0006127595
        0.0000085942  -0.0003613908  -0.0000013542  -0.0000010455   0.0001280881
       -0.0002132498  -0.0003881761   0.0001102856  -0.0000271622  -0.0000006365
       -0.0000504410   0.0000338505  -0.0000236523   0.0000148426   0.0000461403
        0.0000180568   0.0000104557   0.0000119791  -0.0000992223  -0.0000022808
       -0.0001058898   0.0003647666   0.0000606324   0.0000917735   0.0000184214
        0.0000165110  -0.0001037855  -0.0003543198   0.0000416989   0.0000082207
        0.0000954696   0.0000060935   0.0000457815  -0.0000213380   0.0000033073
        0.0000340121   0.0000213262   0.0000155020  -0.0000326389  -0.0000014205
       -0.0000492627  -0.0002186079   0.0003756743   0.0001313011  -0.0741569619
       -0.0373337827   0.0171484719   0.0059511120   0.0088041158  -0.0046130543
       -0.0006717490   0.0025962869   0.0004391101  -0.0002624865   0.0002040435
       -0.0001307722  -0.0045623415   0.0010172525   0.0019926270  -0.0156474041
       -0.0226416156   0.0114303702   0.0023927172  -0.0000135996   0.0000248104
       -0.0154669042   0.0223850491   0.0120263685  -0.0045737435  -0.0010473781
        0.0019525789  -0.0002557268  -0.0002037636  -0.0001400572  -0.0007096231
       -0.0026026724   0.0003564637   0.0059473554  -0.0088263782  -0.0049050644
       -0.0736376667   0.0363827291   0.0179341840  -0.0016424020  -0.0000608673
        0.0033942939  -0.0088305008   0.0003719775  -0.0251878424  -0.0106492495
        0.0001077715  -0.0051458366   0.0000980265   0.0000012811  -0.0001882542
       -0.0000005233   0.0000001697  -0.0000142982  -0.0000238649  -0.0000013023
       -0.0000812606  -0.0000525300  -0.0000015805  -0.0000192889  -0.0000566914
       -0.0000018809   0.0000296170  -0.0000494707  -0.0000015380   0.0000676471
       -0.0001020424  -0.0000087641   0.0000315336   0.0000373495  -0.0000589380
       -0.0000123984  -0.0000144917   0.0000217614   0.0000193179  -0.0000091209
        0.0000955751  -0.0000084933   0.0000003883   0.0000343875  -0.0001260373
        0.0000002241  -0.0000325931  -0.0001281387  -0.0000095713  -0.0000979719
       -0.0000094765  -0.0000141488  -0.0000240659   0.0000142643   0.0000362257
        0.0000570142  -0.0000096560   0.0002895187   0.0006853373  -0.0008200852
        0.0001625047   0.0005777865  -0.0001483043   0.0000496298  -0.0001758547
       -0.0002899681  -0.0006916698  -0.0013162898   0.0004627449  -0.0006869896
        0.0013048221   0.0005001787   0.0000502912   0.0001785635  -0.0002833724
        0.0001604558  -0.0005792273  -0.0001649054   0.0002841512  -0.0006512801
       -0.0008214724
       -0.0000667811   0.0034569994   0.0006258601   0.0004179762  -0.0428453635
        0.0021112903  -0.0001292764   0.3932413267  -0.0008731689   0.0007133382
       -0.0552508556   0.0002835828  -0.0003559310   0.0073302584   0.0000727849
        0.0000806549  -0.0092050724  -0.0001807743  -0.0000146956   0.0000262281
        0.0000141543   0.0000046554  -0.0016173598  -0.0000191640  -0.0000439977
        0.0115875084   0.0002473882  -0.0000209488   0.0003059657   0.0000025311
       -0.0000033642  -0.0001895923  -0.0000394939   0.0000150154  -0.0002994464
        0.0000017127  -0.0000051001   0.0000030355   0.0000000304   0.0000034401
        0.0000516672   0.0000014601   0.0000055936   0.0000111997   0.0000019657
        0.0000050997   0.0000653930   0.0000045483  -0.0000000375  -0.0000934780
       -0.0000124722   0.0000097594   0.0002224630   0.0000143799  -0.0000127162
       -0.0000695658   0.0000179990  -0.0000091882  -0.0012766731  -0.0000212081
        0.0002124685  -0.0001635786   0.0000401211   0.0000091651   0.0000264502
        0.0000346764  -0.0000238864  -0.0000018999   0.0000376069   0.0000239879
       -0.0000038903   0.0000036830  -0.0000059366  -0.0000112201  -0.0000309251
        0.0000267130   0.0000219777  -0.0000968270   0.0000039261   0.0000397869
       -0.0000046998  -0.0000290093   0.0000163059   0.0001035408   0.0000083828
       -0.0000189182   0.0000324717  -0.0000230079  -0.0000006074  -0.0000066313
        0.0000239493   0.0000018046  -0.0000364007  -0.0000108743   0.0000211068
       -0.0000328410  -0.0002215746  -0.0001626344  -0.0000472346  -0.0376179529
       -0.1249148411   0.0433753388  -0.0062928461  -0.0280501255   0.0125778503
        0.0040877667  -0.0006274942   0.0020413516  -0.0003563024  -0.0004533456
        0.0002499976   0.0000221222   0.0022097962   0.0012007037  -0.0112334219
       -0.0071335414   0.0037568510  -0.0000027421  -0.0008145606   0.0000031066
        0.0110843037  -0.0070334955  -0.0039051426  -0.0000118468   0.0022421049
       -0.0012868026   0.0003701079  -0.0004225722  -0.0002503563  -0.0040871092
       -0.0004725981  -0.0022197295   0.0061023534  -0.0273740378  -0.0132264941
        0.0368864658  -0.1227138455  -0.0450982046  -0.0000608124   0.0107393558
        0.0001957297   0.0000714203  -0.0008395218   0.0001143302   0.0004405697
        0.0006283131   0.0001356307  -0.0000004507   0.0003533461   0.0000021723
        0.0000011008  -0.0000301094  -0.0000020872  -0.0000003700   0.0000005377
       -0.0000016069  -0.0000014271  -0.0000147571  -0.0000010243  -0.0000015943
       -0.0000124073   0.0000005172  -0.0000002603  -0.0000013378   0.0000012813
        0.0000005395   0.0001689355   0.0000024977   0.0000120930  -0.0000213679
       -0.0000184877  -0.0000128530   0.0000087031  -0.0000028674  -0.0000043268
        0.0000351580  -0.0000147453  -0.0000020270  -0.0000036911  -0.0000198790
        0.0000024136  -0.0000034509   0.0000190846   0.0000039555   0.0000350603
        0.0000165822   0.0000137416   0.0000101672   0.0000031673  -0.0000115094
       -0.0000208692   0.0000167648  -0.0011572522   0.0012638094  -0.0009747991
       -0.0004625604  -0.0010647976   0.0003962660  -0.0000597934  -0.0001257577
       -0.0004935992   0.0000211669  -0.0003772356   0.0000025862  -0.0000163163
       -0.0003810644  -0.0000129779   0.0000644707  -0.0001534527   0.0005214244
        0.0004526567  -0.0010470522  -0.0004202467   0.0011687269   0.0011927218
        0.0010658688
        0.0090385068   0.0006485373  -0.0363494459  -0.0293482647   0.0019320402
       -0.1721785038   0.0223164747  -0.0008731689   0.4176480774  -0.0378860233
        0.0003237474  -0.0683696689   0.0231186102   0.0000246579   0.0030286853
       -0.0073633781  -0.0001846961   0.0018222301   0.0039693655   0.0000086935
       -0.0005577299  -0.0015387526   0.0000164090  -0.0028750992  -0.0005062107
        0.0002263836  -0.0015656304   0.0000624367  -0.0000154219   0.0005813617
        0.0001034439   0.0000200645  -0.0009035447   0.0002073459  -0.0000120435
        0.0001038869   0.0000012418   0.0000129588  -0.0003107315   0.0001069950
        0.0000032768  -0.0001089174  -0.0000640894  -0.0000018622  -0.0000654309
        0.0000639693  -0.0000013459   0.0002281196  -0.0002205112   0.0000013561
       -0.0002764248   0.0007229962   0.0000011663   0.0004238397  -0.0011010530
       -0.0000182655   0.0006909662   0.0002609985  -0.0000278236   0.0000802874
        0.0002708322   0.0004048701  -0.0003058118   0.0000208388  -0.0001149145
        0.0000064822  -0.0000126290   0.0000871412  -0.0000545379  -0.0000571397
        0.0000571839   0.0000119951  -0.0000767254  -0.0000275715   0.0000544655
        0.0001157660  -0.0003957354  -0.0002573632  -0.0003301493  -0.0000246399
        0.0004572417   0.0001055729   0.0003833101  -0.0002365352  -0.0000764636
        0.0000325151   0.0000566536  -0.0000586196  -0.0000569522   0.0000164708
       -0.0000109503  -0.0000832869  -0.0000623093   0.0000183026   0.0001197232
        0.0000101139   0.0002628281  -0.0003977132  -0.0003326496   0.0146808943
        0.0379548307  -0.0612890658   0.0013370942   0.0088987356  -0.0022014273
        0.0002448950   0.0021482791   0.0058265496  -0.0006257583   0.0008412661
       -0.0002843404   0.0011312344  -0.0004188950   0.0049930122   0.0065592273