100
 energy: -160.070629022286 gnorm: 0.000073279904 xtb: 6.7.1 (edcfbbe)
N           12.22690338920901        4.02953782301225        0.94972368461885
C           11.24092517576433        3.46047116115933        0.81639104340431
C           10.02363636107303        2.75908008332697        0.65193046711567
C            8.80532710138040        3.43564808657909        0.79334945325875
C            7.63553994216351        2.73741434698412        0.63070757951238
C            7.64838411273308        1.37121421490476        0.32811955322672
C            8.86888494920238        0.68001969848060        0.18223613131284
C           10.05098274435076        1.40416240648335        0.35132170571095
C            8.86463518484264       -0.74278895832801       -0.13437302367142
C           10.04241212335399       -1.47541959607936       -0.29689621780406
C           10.00699349816451       -2.83015450996246       -0.59749267700275
C           11.22006151209622       -3.54027175658825       -0.75557978656356
N           12.20250978309648       -4.11652690063181       -0.88402211422405
C            8.78464986728734       -3.49801005493422       -0.74533473100445
C            7.61902487015798       -2.79134123977811       -0.58932811500971
C            7.64000788981472       -1.42518114090865       -0.28702129972243
C            6.38758403542929       -0.71852860597034       -0.13392202955390
N            5.25623299956704       -1.38531682723937       -0.27853818164012
C            4.10813656996113       -0.71379381135648       -0.13697993219221
C            2.87620417532329       -1.39125201984316       -0.26689154571801
C            1.70232715394701       -0.70859048576405       -0.12407635370599
C            0.37255210008560       -1.35214411663464       -0.18819804500295
C           -0.23390482566946       -1.65491295950755       -1.40092619800658
C           -1.55212055450023       -2.06144731339719       -1.44307532249857
C           -2.29546407824655       -2.18125256653071       -0.26852037949573
N           -3.65837477832293       -2.48420332797338       -0.32232343309096
C           -4.24455067559304       -3.27271789956360        0.67419548170206
C           -3.55601881193482       -4.36720172469466        1.19696969081800
C           -4.12948840241046       -5.14254754835463        2.18584113575251
C           -5.39603790846538       -4.84717717467233        2.66320105001293
C           -6.08549329246905       -3.76357119712483        2.14400261124256
C           -5.51784986356104       -2.97722123679208        1.16025402562054
C           -4.45537900849848       -1.89573718573676       -1.31302243456824
C           -5.52626869797045       -2.59685201792884       -1.86569453430808
C           -6.31611840817321       -2.00865765139131       -2.83450469545772
C           -6.04837304518818       -0.72242591066282       -3.27387291552652
C           -4.98027780887953       -0.02487199204867       -2.73414946551871
C           -4.19121957683608       -0.60085839605804       -1.75799945608584
C           -1.65986618939288       -1.95962782161279        0.95399527722722
C           -0.34755996097829       -1.53993114545393        0.98744360341982
C            1.70666683219434        0.69799606821538        0.13094024758518
C            0.38106530294576        1.35079114159690        0.18826975449827
C           -0.22947588469407        1.65723875625083        1.39803858196047
C           -1.54521170043334        2.07234079121378        1.43373783713663
C           -2.28183796168388        2.19725428075455        0.25551056380186
N           -3.64312406136612        2.50888222944792        0.30234730972599
C           -4.44931272855223        1.92425592511140        1.28776143276622
C           -5.52003874884909        2.63055991998535        1.83416702560477
C           -6.31863147914133        2.04609818066496        2.79805097747049
C           -6.05991061491142        0.75851089843648        3.23885385917515
C           -4.99209056194268        0.05576946427202        2.70538391501118
C           -4.19442691968191        0.62794497224510        1.73401048025984
C           -4.21809171764783        3.30380457454032       -0.69563152709002
C           -5.49018154516781        3.01782224272013       -1.19046547341512
C           -6.04684910785900        3.81094093143907       -2.17505248245661
C           -5.34746743266680        4.89192544636088       -2.68640800298759
C           -4.08192697288340        5.17761217931464       -2.20057094489622
C           -3.51935341657645        4.39538183429320       -1.21085872094294
C           -1.64157341550098        1.97196825369597       -0.96387761001088
C           -0.33187507203584        1.54369373402195       -0.99091690441090
C            2.88467288212716        1.37211586199497        0.28019104931769
C            4.11236194356650        0.68567141883137        0.15724610243692
N            5.26449339762285        1.34877634103031        0.30554342901579
C            6.39176861719683        0.67371273714130        0.16762586219227
H            8.80130106474820        4.48953033396143        1.02714066207096
H            6.67619480609893        3.21977052470182        0.73146465167834
H           11.01421139265710        0.92892602332787        0.25324547055223
H           11.00846705029155       -1.00706866267111       -0.19362867283402
H            8.77434397763794       -4.55191077266408       -0.97884971596522
H            6.65683098741590       -3.26685325484001       -0.69532264303888
H            2.88953004769036       -2.45203707372354       -0.46565300833098
H            0.32468542163369       -1.54544687829709       -2.31909421869523
H           -2.02610791924732       -2.26606679314748       -2.39165191657767
H           -2.57183501226309       -4.60419202518877        0.81967128569664
H           -3.58631003239391       -5.98845922484422        2.58082858953174
H           -5.84211972624917       -5.45702498798546        3.43398481821690
H           -7.07058917086304       -3.52070533085594        2.51449137172412
H           -6.05223694925741       -2.12404133762592        0.76892686241055
H           -5.73186816919628       -3.60320593538319       -1.53126138330387
H           -7.14229803883736       -2.56285357330598       -3.25516491257207
H           -6.66640075441036       -0.26720318865510       -4.03270993711176
H           -4.76747655165379        0.98084342377718       -3.06660510849532
H           -3.36431087199182       -0.05131275298212       -1.33378290714571
H           -2.20993969715239       -2.08634646184018        1.87487161627526
H            0.12277673635046       -1.33178965014818        1.93729483515114
H            0.32378055538931        1.54385076756741        2.31895773874262
H           -2.02263052794912        2.27972196585888        2.37999111833725
H           -5.71861597738134        3.63803292574868        1.49886983214866
H           -7.14458083384523        2.60431791484056        3.21381847814655
H           -6.68464730903151        0.30627515942002        3.99397108442774
H           -4.78621012531076       -0.95099962153213        3.03898796940731
H           -3.36781750022668        0.07426847182181        1.31462337962990
H           -6.03229764779096        2.16679873077254       -0.80510308854195
H           -7.03117781276683        3.57555020871709       -2.55235034200017
H           -5.78514020706853        5.50726801129296       -3.45764684053271
H           -3.53104408043546        6.02136866360514       -2.58944847875942
H           -2.53593060487724        4.62477055448934       -0.82693053020024
H           -2.18627671074193        2.10262485244484       -1.88740407255181
H            0.14183264286856        1.33275013903179       -1.93847176202606
H            2.90471026215175        2.43276894319200        0.47910340621095
