100
 energy: -160.031527969159 gnorm: 0.000093344394 xtb: 6.7.1 (edcfbbe)
N           11.18023271038157        4.38570879468491        0.14272407579648
C           10.21479053784164        3.76639928880056        0.12047683607186
C            9.02358272023602        3.00924751503453        0.09322905004833
C            7.77919593748166        3.66583363351073        0.10266903328483
C            6.63359339842652        2.92127585682605        0.07819096089066
C            6.68046929854450        1.51523545335463        0.04391989268000
C            7.92922353957098        0.84550520909559        0.03209354178284
C            9.08877792002420        1.62557920058277        0.05811389573391
C            7.95899904299711       -0.59924394803443       -0.00495432820409
C            9.14983994481258       -1.33088577846023       -0.02579074591281
C            9.14190106868703       -2.71606436649597       -0.06034770822054
C           10.36346415160387       -3.42342303008566       -0.08159342713143
N           11.35381088575938       -4.00224365764611       -0.09967820521609
C            7.92572773463597       -3.42339937984054       -0.07469126614671
C            6.75030079964639       -2.72662887732234       -0.05549332780574
C            6.73902306740623       -1.31991056564900       -0.02165564824553
C            5.48354655041567       -0.64060105607519       -0.00603188198138
N            4.34173267599503       -1.31021955462558       -0.01867319524058
C            3.15753793413777       -0.69848565745861       -0.00514200503676
C            1.95210827211075       -1.39179066452025        0.00060429481879
C            0.73321344068036       -0.72885017173912        0.01891970948864
C           -0.52942981187694       -1.47527270620198        0.09948259378120
C           -0.82168969290207       -2.51807500137237       -0.77558294486890
C           -2.06004690405538       -3.12803318867876       -0.76236181282092
C           -3.03703759081812       -2.71358139867742        0.14214179276847
N           -4.33089501363729       -3.24257207781520        0.11589547725576
C           -4.54695701176068       -4.59960225625020       -0.12524900809158
C           -5.67939338211026       -5.02652524539358       -0.82007874262395
C           -5.88609974469437       -6.37207321640982       -1.05164887536471
C           -4.97026889648809       -7.31116487018577       -0.60546490812102
C           -3.84214401252815       -6.89214721033574        0.08114180444853
C           -3.62942795718467       -5.54982741379592        0.32529903962226
C           -5.40494228041081       -2.36431858837792        0.31113367986736
C           -5.36325990237658       -1.08194510327055       -0.23761711903422
C           -6.40855281864453       -0.20375361579949       -0.03439531449557
C           -7.50739185945741       -0.58489656111480        0.71830526185943
C           -7.55629584038018       -1.85902382064528        1.26024743130832
C           -6.51627851213368       -2.74677442466140        1.06085880329849
C           -2.71895590326199       -1.72433841391673        1.07443539005394
C           -1.48603047695042       -1.11597829952558        1.05005643722226
C            0.70551397007769        0.67800210853514       -0.00191806312065
C           -0.58561283437297        1.38243320942202       -0.07756159173879
C           -0.95227466762523        2.32269379496216        0.88123364146686
C           -2.20591677207112        2.89853822073766        0.85854278928176
C           -3.11448197597067        2.56937113025162       -0.14636215502726
N           -4.40415240338839        3.12026937211156       -0.13541042376120
C           -5.11226927197535        3.13350072817445        1.07143512417813
C           -5.94822528992673        4.20031036993882        1.39956612328250
C           -6.65164386017713        4.18933670367206        2.58830050743726
C           -6.52974408370370        3.12490400892862        3.46689704782753
C           -5.69146771956905        2.06832621532218        3.14991099798989
C           -4.98571254668401        2.06783110209346        1.96335032295889
C           -4.97609413006266        3.58820450799839       -1.31816994503467
C           -6.35403174433829        3.51467455534812       -1.53059271421751
C           -6.90328276450635        3.97901478270407       -2.70949068602808
C           -6.09606463365426        4.51758295635248       -3.69803362938666
C           -4.72761116952432        4.59176690253881       -3.49431206425575
C           -4.16872714152657        4.13617043156006       -2.31698576732015
C           -2.72845734707088        1.67587790360899       -1.14464862465408
C           -1.48439594772622        1.08501630117405       -1.10106739462924
C            1.89463952643259        1.39051872201007        0.01368916764923
C            3.12830920964096        0.74719147679061        0.01860808805179
N            4.28562591415175        1.40694437467087        0.03376342975925
C            5.45436894483598        0.78478636621080        0.02339405313707
H            7.74581381461284        4.74452919165038        0.12960157141900
H            5.66284167969289        3.39266791004854        0.08524541146504
H           10.06437559171136        1.16530076564430        0.05238154821392
H           10.10557982862726       -0.83074268176572       -0.01615142486408
H            7.93695230752316       -4.50256518181470       -0.10103207837836
H            5.79985041021458       -3.23764752208732       -0.06633318107799
H            1.98421930197421       -2.47039920587201        0.01991679866571
H           -0.08557708274954       -2.82034810921621       -1.50619293660085
H           -2.28974101346541       -3.90816846042027       -1.47324520702395
H           -6.38799938148692       -4.29609277359618       -1.18194569235370
H           -6.76524075458518       -6.68902958379461       -1.59292251266809
H           -5.13440499061384       -8.36140327859473       -0.79150864840079
H           -3.12563050855462       -7.61731779871322        0.43752753388393
H           -2.75646871745270       -5.22690007799446        0.87331808272370
H           -4.50640196882677       -0.78344654812074       -0.82399742004841
H           -6.36754427180940        0.78015932496997       -0.47566112939272
H           -8.31984260235988        0.10659093770291        0.88127984451951
H           -8.40816923882110       -2.16291604500586        1.85036000956870
H           -6.55173734372063       -3.73691511796811        1.49117603440274
H           -3.45553803472527       -1.43508619268012        1.80980148705783
H           -1.25194304537026       -0.35671221832539        1.78063419235087
H           -0.25736001814544        2.57812546553442        1.66812585821071
H           -2.49652754404138        3.60391009285796        1.62338671726490
H           -6.03619845444413        5.03567498392635        0.72043927700546
H           -7.29444548549128        5.02186267204697        2.83333515715364
H           -7.08295347759294        3.12030472273728        4.39356804640881
H           -5.59374267375306        1.23275647449278        3.82703725334618
H           -4.34119436128813        1.23882143143063        1.71043996941825
H           -6.99198876257695        3.09110681358253       -0.76855337013938
H           -7.97074976246333        3.91213437011822       -2.85951997914804
H           -6.52973136631788        4.87751823049900       -4.61828350694673
H           -4.08979119201513        5.01626629183940       -4.25540463050654
H           -3.10289869885044        4.20783178750972       -2.15772223775055
H           -3.41918061348807        1.43717506119467       -1.94042896802081
H           -1.20207381996412        0.37553065217651       -1.86486536037159
H            1.88144735683971        2.46966757752553       -0.00285241534310
