100
 energy: -160.031470763277 gnorm: 0.000133153077 xtb: 6.7.1 (edcfbbe)
N           11.15020261968914        4.16628601828474       -0.43883352202352
C           10.17146425867828        3.57097249371102       -0.37683702805208
C            8.96433311814630        2.84303265684031       -0.29967117366222
C            7.73418911203416        3.52185435439876       -0.37264074521204
C            6.57307331826446        2.80518626658161       -0.29657290840227
C            6.59021254662591        1.40612175419291       -0.14720220556719
C            7.82444954793042        0.71403864277998       -0.07316916173400
C            9.00024254210449        1.46560143184017       -0.15287112513027
C            7.82384709618202       -0.72348668993724        0.08013239377370
C            8.99906060566854       -1.47599394356072        0.15951207609944
C            8.96207007040728       -2.85338347258818        0.30631183615958
C           10.16855293450619       -3.58249267593983        0.38252470850997
N           11.14675795204445       -4.17855367719503        0.44560249021226
C            7.73137878538480       -3.53117990491196        0.37970802987826
C            6.57081828198950       -2.81358241403941        0.30391992329130
C            6.58904511424314       -1.41454671382053        0.15443748878046
C            5.34812939125827       -0.71264921987710        0.07937167458901
N            4.19270663128922       -1.35615841607901        0.14640555698425
C            3.02306389020314       -0.72136474254903        0.07781837114261
C            1.80154801838235       -1.38037137092553        0.14400192518336
C            0.58996095600361       -0.70223305717314        0.07589617752957
C           -0.65896959502637       -1.47334868548973        0.14100106097889
C           -0.79895332089129       -2.62135084848559       -0.63846102987211
C           -1.99133197785737       -3.31194379479018       -0.67947223422582
C           -3.08646773168036       -2.86053291672036        0.05450591980800
N           -4.32984655735995       -3.50167331243664       -0.05409627808810
C           -4.37545757838339       -4.89794788951355       -0.04530793107774
C           -5.26356114625944       -5.60075170870011       -0.86009260458208
C           -5.28683317421267       -6.98136433189062       -0.83243057681937
C           -4.42477077721792       -7.68351263702146       -0.00571360339624
C           -3.53296825478924       -6.99069496989055        0.79693575906843
C           -3.50646628362345       -5.61027084129302        0.78272491340533
C           -5.46483262465694       -2.73675891969374       -0.32904044932834
C           -5.35923733809115       -1.56191221317027       -1.07627013620193
C           -6.48836921262617       -0.83303152283706       -1.38971827401391
C           -7.73757794551806       -1.25693032240370       -0.96708496853422
C           -7.84521628641445       -2.40512869535554       -0.19971029436080
C           -6.72137833391046       -3.13935813346790        0.12475742777461
C           -2.93629622192766       -1.75053802820840        0.88512589640508
C           -1.73496252183022       -1.07703949815967        0.93723222471460
C            0.59067122774244        0.69874939290602       -0.07018658500128
C           -0.65727524166187        1.47143311138519       -0.13618090855554
C           -0.79704852370957        2.61814909508863        0.64516536597014
C           -1.98833754341570        3.31063829091155        0.68483815757841
C           -3.08251127267072        2.86289754950390       -0.05291228776709
N           -4.32434737177707        3.50705234228420        0.05320281974821
C           -5.46381737333474        2.74492537951140        0.31727226978536
C           -5.36723527093170        1.56505151588443        1.05773723111414
C           -6.50110260321056        0.83895795027513        1.36037501450822
C           -7.74617382880985        1.27067545552916        0.93343391733949
C           -7.84482910844146        2.42417538763005        0.17285285338542
C           -6.71617382361061        3.15574947633238       -0.14069912969068
C           -4.36552746601245        4.90367832294942        0.05252413399905
C           -5.25322921095009        5.60421898575289        0.86963742313557
C           -5.27186103748442        6.98506243566573        0.85066121807236
C           -4.40562618446027        7.68949705208721        0.03027913012920
C           -3.51446880213447        6.99880437493291       -0.77491546696389
C           -3.49251532732020        5.61822699357027       -0.76927377017554
C           -2.93237328560130        1.75398551165079       -0.88507309249758
C           -1.73222194530150        1.07822676035257       -0.93530127332264
C            1.80280477759123        1.37587886910218       -0.13758757738751
C            3.02372410282341        0.71583169553361       -0.07098009239657
N            4.19385803598981        1.34969200208693       -0.13925012998488
C            5.34875323692936        0.70522216592225       -0.07210405917034
H            7.72357417303687        4.59525662009093       -0.48723588245610
H            5.61247343856467        3.29413624259627       -0.34924388248377
H            9.96593569360157        0.98761458250996       -0.10147191714228
H            9.96510846942178       -0.99876214457873        0.10775570901332
H            7.71994048710950       -4.60457304546905        0.49431528273715
H            5.60983709597248       -3.30175620654366        0.35684082207472
H            1.81399857769307       -2.45097218646846        0.28008775830973
H            0.02585553460650       -2.94787815356689       -1.25445779151214
H           -2.09563574051046       -4.18594787045039       -1.30569189752330
H           -5.92454116402718       -5.05901280247179       -1.52042750636927
H           -5.97736204793876       -7.51338755850851       -1.46999718972909
H           -4.44593443196477       -8.76234230960542        0.01063289561496
H           -2.85751512947990       -7.52915279929229        1.44504039475570
H           -2.81680494353489       -5.07091575328233        1.41545520547465
H           -4.38851481582546       -1.23968078334807       -1.42299990084436
H           -6.39730824116667        0.06799232683305       -1.97811629565011
H           -8.61856259359267       -0.69349282865124       -1.23207780949167
H           -8.81267678938122       -2.73279415260030        0.15143943512841
H           -6.80783243925526       -4.03153693095202        0.72746472995681
H           -3.77502259287325       -1.42234873097912        1.48121186651602
H           -1.62368106570572       -0.23428313634166        1.60291235947227
H            0.02696487308942        2.94208365978685        1.26359898516445
H           -2.09254382817121        4.18344695120195        1.31272876112111
H           -4.39977448570383        1.23658263056984        1.40770413383404
H           -6.41701745175783       -0.06618455376436        1.94345736770008
H           -8.63095390478137        0.70925877201160        1.18994076848779
H           -8.80897551416571        2.75818767584280       -0.18141585899009
H           -6.79560105814718        4.05218400335434       -0.73803169573409
H           -5.91754869103016        5.06042837111871        1.52492362197457
H           -5.96205210365852        7.51537192920467        1.49001457452091
H           -4.42310124994781        8.76847559421804        0.02076024392409
H           -2.83585614568156        7.53909380797806       -1.41817345682834
H           -2.80325765315162        5.08051299339836       -1.40383713767313
H           -3.77017125194469        1.42840589896012       -1.48388089621848
H           -1.62093979118784        0.23618900714218       -1.60191042725869
H            1.81617968254339        2.44649336767346       -0.27348393912971
