74
 energy: -122.957516882142 gnorm: 0.000046121590 xtb: 6.7.1 (edcfbbe)
N            0.00236278976444        1.00803153372738        0.50418610498794
C            0.00052298687643       -0.15119493751710        0.56862545217936
C           -0.00172772290063       -1.52971445127642        0.63698910059965
C           -1.23744532576407       -2.25924803160103        0.76687790880911
C           -2.51957945242434       -1.62973667267179        0.51072267717900
C           -2.66434227643437       -0.68943952837659       -0.51871891028555
C           -3.86688296116363       -0.05920169820634       -0.73944778192165
C           -4.96752200351105       -0.35257970905785        0.06412164838197
N           -6.19548339170412        0.32310992970293       -0.13915552972760
C           -6.28474433886152        1.69419271383033        0.07169100512449
C           -5.20224401364472        2.45099060921632        0.51387489745391
C           -5.33020205216658        3.81440830370825        0.71085367967042
C           -6.53906621545024        4.44766831645867        0.48117267815994
C           -7.63389896961516        3.70666116985673        0.06743620071683
C           -7.51464037676084        2.34195699540584       -0.13098627505364
O           -8.64240950152958        1.66601397988331       -0.51264035726000
C           -8.53738805000571        0.31760776213522       -0.71493418274236
C           -9.68083333079973       -0.35363981739765       -1.11220834440607
C           -9.63791540014961       -1.71595031998024       -1.36068638227615
C           -8.44242761678744       -2.39957518168382       -1.22644064851943
C           -7.29548954041670       -1.73639464659025       -0.82774010179829
C           -7.32532780463994       -0.37271418867496       -0.54549044109498
C           -4.84837420184917       -1.30473768477468        1.07534461856596
C           -3.64386326309467       -1.93398062367414        1.29137572083613
C           -1.15609741591918       -3.58884889681497        1.12134881219586
N           -0.00588183678825       -4.23502453918409        1.28378619720691
C            1.14634074823640       -3.59249479324444        1.12078758941856
C            1.23168443695535       -2.26315792238543        0.76634841492259
C            2.51571377430967       -1.63757394986100        0.50988118324571
C            2.66320970517477       -0.69788348340244       -0.51969990550824
C            3.86763314234713       -0.07128455986938       -0.74058985189684
C            4.96741872031600       -0.36784858639777        0.06296387836291
N            6.19739383358253        0.30413264743980       -0.14045484130235
C            6.29080034326496        1.67494765552591        0.07031864588115
C            5.21062542748469        2.43501648388696        0.51257102607364
C            5.34270410548787        3.79805397745550        0.70945973701959
C            6.55344030232261        4.42766409163019        0.47960819245376
C            7.64599892836870        3.68334791597525        0.06580545766476
C            7.52262082229233        2.31899633730947       -0.13251540347433
O            8.64831564385553        1.63963834702467       -0.51422948936642
C            8.53920953313779        0.29154871258330       -0.71646858916751
C            9.68058329803492       -0.38315634398038       -1.11384197952411
C            9.63352929588347       -1.74533831417474       -1.36227433116839
C            8.43600147482030       -2.42535296021507       -1.22787196281756
C            7.29111227310966       -1.75870619318597       -0.82906221618001
C            7.32509153661426       -0.39511188898338       -0.54687402579712
C            4.84548693161487       -1.31949624432950        1.07432299560412
C            3.63909900288421       -1.94509240170219        1.29050882097534
H           -1.82355911022732       -0.46350193456359       -1.15568244698141
H           -3.96784949848571        0.66199883152086       -1.53735180344364
H           -4.25833924102761        1.96752718053493        0.70777580083239
H           -4.47540264936780        4.37868122355202        1.04889989787771
H           -6.63799404905087        5.51098875064026        0.63111520895710
H           -8.59421438544270        4.16600463322800       -0.10374940441965
H          -10.59206657035679        0.21143312311392       -1.22506498070943
H          -10.53314709271647       -2.23291320363104       -1.66751455826032
H           -8.39480356904017       -3.45685407474956       -1.43595773749574
H           -6.36441417687441       -2.27307478710249       -0.73982392416497
H           -5.70165721048096       -1.52464178304903        1.70097495559487
H           -3.55248104176795       -2.64432370010980        2.09926541006025
H           -2.04645543203432       -4.19517889993389        1.21603094790062
H            2.03481604399472       -4.20164428845671        1.21502194106323
H            1.82305491430135       -0.46948733762595       -1.15661715120687
H            3.97070846054887        0.64953152891110       -1.53857161717256
H            4.26529047279690        1.95440327368930        0.70659809489458
H            4.48964088047739        4.36491272926935        1.04757043357039
H            6.65557810814736        5.49069296270133        0.62946720079765
H            8.60767093883540        4.13979614842615       -0.10551301481842
H           10.59350604289735        0.17916078893605       -1.22680599991484
H           10.52716873654931       -2.26501030179870       -1.66916578653542
H            8.38517188046945       -3.48249560569198       -1.43732376953167
H            6.35843613331266       -2.29257879730532       -0.74101434907616
H            5.69814605161979       -1.54188308775031        1.69992478931779
H            3.54561290463233       -2.65506198760232        2.09848643113780
