$hessian                                                                        
        0.0180647625   0.0001893651  -0.0013897469  -0.0305163383  -0.0001809996
       -0.0010738464   0.0183960450  -0.0000076689   0.0001980903  -0.0019378958
        0.0033683239   0.0000504786  -0.0005969060   0.0000118281   0.0000473873
        0.0003069378   0.0001387941   0.0001418718  -0.0001507262   0.0001541096
        0.0000826133   0.0002562434  -0.0001448081  -0.0002277770  -0.0003356575
       -0.0000743981  -0.0000222557  -0.0000403171   0.0001082717  -0.0000318897
        0.0002368657  -0.0000807402  -0.0000371864  -0.0000295326  -0.0000602104
        0.0000109796  -0.0000083667  -0.0000018050   0.0000029211  -0.0000122508
       -0.0000090492   0.0000037999   0.0001972959   0.0000714208  -0.0000201213
       -0.0002148177  -0.0001013287   0.0000294585  -0.0000650594   0.0000343422
        0.0000016176   0.0000218603   0.0000266440  -0.0000076557   0.0000038857
       -0.0000303125   0.0000057624  -0.0000163719   0.0000421462  -0.0000067279
       -0.0000142419  -0.0000836109   0.0000221019   0.0002703060   0.0001571686
       -0.0000361886   0.0001852273  -0.0003995386   0.0000341050  -0.0011104765
       -0.0005105712   0.0012304361   0.0012486130   0.0005320727   0.0000741796
        0.0000271230   0.0000000128  -0.0001194315   0.0012492435  -0.0005322761
        0.0000741301  -0.0019408154  -0.0033687540   0.0000497092  -0.0005970931
       -0.0000109103   0.0000476168  -0.0011108154   0.0005106341   0.0012292566
        0.0001858128   0.0003994864   0.0000342870   0.0002560913   0.0001447634
       -0.0002279692  -0.0003354870   0.0000746508  -0.0000221911  -0.0000403297
       -0.0001084332  -0.0000318002   0.0002369760   0.0000807234  -0.0000372874
       -0.0000294975   0.0000602816   0.0000109382  -0.0000084162   0.0000018121
        0.0000029315  -0.0000122357   0.0000090099   0.0000037813   0.0001973649
       -0.0000714255  -0.0000200640  -0.0002148717   0.0001015057   0.0000294024
       -0.0000650699  -0.0000344738   0.0000016361   0.0000218333  -0.0000266401
       -0.0000076428   0.0000038769   0.0000303002   0.0000057389  -0.0000163628
       -0.0000421446  -0.0000067117  -0.0000142488   0.0000836581   0.0000220633
        0.0002704018  -0.0001572493  -0.0000361972  -0.0001507392  -0.0001540456
        0.0000827403   0.0003068330  -0.0001386151   0.0001422356  -0.0000425418
       -0.0000139366  -0.0000633349  -0.0000326195  -0.0000292657  -0.0000077226
       -0.0000203688   0.0000105871   0.0000522084  -0.0000142978  -0.0000420334
        0.0000135208  -0.0000306190   0.0000392707  -0.0000040087  -0.0000269392
        0.0000129152  -0.0000011208  -0.0000161480   0.0000009433   0.0000001162
       -0.0000229724  -0.0000087862   0.0000020470  -0.0000057271  -0.0000183997
        0.0000036943   0.0000119370   0.0000417038  -0.0000109850   0.0000495245
       -0.0000492049  -0.0000820426  -0.0010702348  -0.0005394409  -0.0001128808
        0.0000407194   0.0003867913   0.0000559694   0.0000407498  -0.0003870211
        0.0000559563  -0.0010683701   0.0005385967  -0.0001133956   0.0000495189
        0.0000491058  -0.0000820518  -0.0000204049  -0.0000105905   0.0000522548
       -0.0000142984   0.0000420549   0.0000134899  -0.0000306318  -0.0000392819
       -0.0000039734  -0.0000269471  -0.0000129173  -0.0000011107  -0.0000161470
       -0.0000009433   0.0000001244  -0.0000229742   0.0000087878   0.0000020488
       -0.0000057274   0.0000184028   0.0000036887   0.0000119371  -0.0000417207
       -0.0000109599  -0.0000325794   0.0000292315  -0.0000077478  -0.0000424961
        0.0000138350  -0.0000633637
        0.0001893651   1.3045203135   0.0000554533  -0.0001784681  -1.2488745676
       -0.0000532214  -0.0000092609  -0.0580318801  -0.0000029256   0.0101769200
        0.0021849437   0.0004116890  -0.0012601880   0.0008827401  -0.0002869136
        0.0008495165   0.0005809440   0.0000223907  -0.0002325302   0.0006468961
        0.0001457772   0.0009986825  -0.0006184878   0.0000820410  -0.0006283895
        0.0009369453  -0.0000331067   0.0000741977  -0.0007084999  -0.0000701279
       -0.0001798480   0.0000253208   0.0000301233  -0.0001758658   0.0000630856
        0.0000317575   0.0002305301   0.0000669826  -0.0000380718  -0.0000673161
       -0.0001801250   0.0000728174  -0.0001456907   0.0001171841  -0.0000455408
        0.0000764384   0.0004889599  -0.0000611170  -0.0000072560  -0.0005206212
        0.0000770114   0.0001203220   0.0001052856  -0.0000520325   0.0000308471
       -0.0001075694   0.0000347382  -0.0000817549   0.0000302061   0.0000033143
        0.0000680175   0.0000798493  -0.0000076910  -0.0001156418  -0.0000055240
        0.0001624135  -0.0008067136  -0.0001001717  -0.0001174508  -0.0004590974
       -0.0010247242  -0.0002019902  -0.0005758750  -0.0017519016   0.0003178726
        0.0000006182   0.0013237511   0.0000000478   0.0005749103  -0.0017525631
       -0.0003178773  -0.0101760934   0.0021890674  -0.0004117646   0.0012587759
        0.0008819228   0.0002867114   0.0004598386  -0.0010244156   0.0002022097
        0.0008060768  -0.0000999219   0.0001175296  -0.0009980660  -0.0006180889
       -0.0000819990   0.0006280452   0.0009365472   0.0000327496  -0.0000742523
       -0.0007082518   0.0000704868   0.0001798001   0.0000253298  -0.0000301127
        0.0001757785   0.0000629340  -0.0000317911  -0.0002303776   0.0000670138
        0.0000380469   0.0000672676  -0.0001800481  -0.0000726062   0.0001458538
        0.0001170545   0.0000453374  -0.0000765641   0.0004888487   0.0000610237
        0.0000072157  -0.0005203862  -0.0000768388  -0.0001202093   0.0001052178
        0.0000519646  -0.0000307988  -0.0001074614  -0.0000346390   0.0000816279
        0.0000301424  -0.0000033263  -0.0000680227   0.0000797538   0.0000076859
        0.0001156537  -0.0000056361  -0.0001623639   0.0002325181   0.0006463051
       -0.0001458533  -0.0008488330   0.0005807751  -0.0000224590   0.0000772076
       -0.0000426453   0.0001954157  -0.0000653537  -0.0000286954   0.0000303358
       -0.0000301281  -0.0001517038  -0.0000170701   0.0000254540   0.0001331782
       -0.0000322438   0.0000167591   0.0000133161  -0.0000072825   0.0000161639
        0.0000067874  -0.0000073145  -0.0000190650  -0.0000013832   0.0000042171
       -0.0000071640  -0.0000031410   0.0000017028   0.0000021292  -0.0000048256
       -0.0000052553   0.0000210147  -0.0000034998  -0.0000184692  -0.0001097931
        0.0000545485   0.0000997656  -0.0006441569  -0.0001473127   0.0005419035
       -0.0000243984  -0.0004864804   0.0000434276   0.0000243534  -0.0004863646
       -0.0000434747   0.0006424450  -0.0001472018  -0.0005412766   0.0001097890
        0.0000544998  -0.0000997691   0.0000301677  -0.0001516369   0.0000171347
       -0.0000254252   0.0001332057   0.0000321533  -0.0000167567   0.0000133010
        0.0000072739  -0.0000161703   0.0000067799   0.0000072973   0.0000190555
       -0.0000013981  -0.0000042191   0.0000071439  -0.0000031360  -0.0000016920
       -0.0000021350  -0.0000048031   0.0000052661  -0.0000210125  -0.0000034972
        0.0000184360   0.0000653568  -0.0000287206  -0.0000302727  -0.0000771847
       -0.0000426459  -0.0001953623
       -0.0013897469   0.0000554533   0.0169441544  -0.0013880650  -0.0000523627
       -0.0315599422  -0.0001111161  -0.0000037508   0.0159436155   0.0001015862
        0.0000338556   0.0002642913   0.0003159163  -0.0000284532   0.0008425129
       -0.0000379905  -0.0001234777   0.0000740328   0.0001611577  -0.0001040814
        0.0000116161  -0.0001542082   0.0000939678   0.0000279433   0.0002380427
       -0.0002025842   0.0001258931  -0.0000085497   0.0002221303  -0.0000286695
        0.0000389778  -0.0000203298   0.0000690969   0.0000400418   0.0000044449
        0.0000176934  -0.0000386829  -0.0000163973   0.0000116995   0.0000153280
        0.0000404118  -0.0000037962   0.0000302676  -0.0000372024  -0.0000108391
       -0.0000133527  -0.0000815040   0.0000299324   0.0000034792   0.0000879688
       -0.0000277190  -0.0000162823  -0.0000301606   0.0000160052  -0.0000026241
        0.0000258751  -0.0000012533  -0.0000043689  -0.0000166483   0.0000096599
       -0.0000046410   0.0000070544   0.0000115806  -0.0000456367  -0.0000428094
       -0.0000442087   0.0002524561   0.0002041956   0.0001146518  -0.0000514278
        0.0000757623  -0.0010341859   0.0000688266  -0.0000915757  -0.0022551557
       -0.0001879133  -0.0000000839   0.0015676500   0.0000689726   0.0000918403
       -0.0022551332   0.0001004632  -0.0000336602   0.0002636708   0.0003160085
        0.0000285173   0.0008425806  -0.0000510438  -0.0000763749  -0.0010339051
        0.0002521472  -0.0002040977   0.0001145759  -0.0001542509  -0.0000940387
        0.0000280435   0.0002380483   0.0002024893   0.0001257778  -0.0000085555
       -0.0002219328  -0.0000284969   0.0000390160   0.0000203534   0.0000690871
        0.0000399795  -0.0000043867   0.0000177172  -0.0000386730   0.0000163716
        0.0000116857   0.0000153102  -0.0000404154  -0.0000037672   0.0000301785
        0.0000372181  -0.0000108734  -0.0000132731   0.0000814456   0.0000298928
        0.0000034753  -0.0000879376  -0.0000276898  -0.0000162841   0.0000301563
        0.0000159928  -0.0000026414  -0.0000258822  -0.0000012487  -0.0000043552
        0.0000166558   0.0000096513  -0.0000046252  -0.0000070328   0.0000115896
       -0.0000456262   0.0000427636  -0.0000442475   0.0001612635   0.0001041735
        0.0000116034  -0.0000381063   0.0001237454   0.0000739140   0.0000400360
        0.0000932349   0.0000737931   0.0000496312   0.0000424566   0.0000166994
        0.0000099009   0.0000187864  -0.0000893512  -0.0000128954  -0.0000365648
       -0.0000205496  -0.0000037895  -0.0000059413  -0.0000066186  -0.0000020972
       -0.0000059468  -0.0000050230   0.0000063909  -0.0000024847  -0.0000037315
        0.0000074045   0.0000009946  -0.0000012089   0.0000015553   0.0000039390
       -0.0000015439   0.0000034417  -0.0000117058  -0.0000065771  -0.0000853102
        0.0000889485   0.0000299656   0.0006356271   0.0003437406   0.0002464762
        0.0000011532  -0.0000152800   0.0000992820   0.0000011308   0.0000152015
        0.0000992733   0.0006346256  -0.0003432125   0.0002466071  -0.0000852935
       -0.0000889179   0.0000299960   0.0000098717  -0.0000187728  -0.0000893568
       -0.0000128744   0.0000364903  -0.0000206051  -0.0000037913   0.0000059269
       -0.0000066294  -0.0000020870   0.0000059362  -0.0000050370   0.0000063869
        0.0000024824  -0.0000037402   0.0000074042  -0.0000009987  -0.0000012161
        0.0000015550  -0.0000039461  -0.0000015482   0.0000034382   0.0000116981
       -0.0000065896   0.0000496694  -0.0000424665   0.0000167185   0.0000400136
       -0.0000932679   0.0000738350
       -0.0305163383  -0.0001784681  -0.0013880650   0.1017126507   0.0001884840
        0.0000989721  -0.0602255939  -0.0000105504  -0.0005486598   0.0011523099
       -0.0269072172  -0.0000835362   0.0001101825  -0.0014035634  -0.0001769308
       -0.0002482352  -0.0001719993  -0.0001764396   0.0001715580  -0.0001391616
       -0.0001010409  -0.0002800735   0.0003227312   0.0001838173   0.0004127019
       -0.0001400485   0.0000599192   0.0000422929   0.0001122889   0.0000250564
       -0.0001613829   0.0000072030   0.0000249057   0.0000653194   0.0000357924
       -0.0000167680  -0.0000079673  -0.0000111126   0.0000005655   0.0000098756
        0.0000178309  -0.0000089671  -0.0000888771  -0.0000766978   0.0000203451
        0.0001189398   0.0000077659  -0.0000109214   0.0000590513   0.0000417234
       -0.0000112418  -0.0000187249  -0.0000275128   0.0000073729  -0.0000015965
        0.0000243321  -0.0000048333   0.0000149814  -0.0000459978   0.0000067621
        0.0000042407   0.0000878442  -0.0000228172  -0.0002057092  -0.0001544572
        0.0000162657  -0.0003061945   0.0005459138  -0.0000824526  -0.0004604298
       -0.0004077832  -0.0002617235  -0.0050773791  -0.0035085819  -0.0002372624
       -0.0008160809  -0.0000001202   0.0001865451  -0.0050777480   0.0035093126
       -0.0002368733   0.0011562328   0.0269074280  -0.0000787262   0.0001089141
        0.0014033601  -0.0001774564  -0.0004599333   0.0004073323  -0.0002607973
       -0.0003062442  -0.0005455006  -0.0000823042  -0.0002799532  -0.0003224796
        0.0001839344   0.0004125501   0.0001398080   0.0000597986   0.0000422702
       -0.0001121809   0.0000251027  -0.0001613963  -0.0000071483   0.0000249568
        0.0000652591  -0.0000358471  -0.0000167343  -0.0000079178   0.0000110939
        0.0000005459   0.0000098540  -0.0000177963  -0.0000089424  -0.0000889148
        0.0000767016   0.0000202731   0.0001189636  -0.0000079180  -0.0000109081
        0.0000590506  -0.0000416027  -0.0000112353  -0.0000186945   0.0000275048
        0.0000073553  -0.0000015917  -0.0000243144  -0.0000048191   0.0000149756
        0.0000459929   0.0000067410   0.0000042337  -0.0000878790  -0.0000227743
       -0.0002057645   0.0001545091   0.0000162395   0.0001714179   0.0001389239
       -0.0001010906  -0.0002479711   0.0001717098  -0.0001766237   0.0001166928
        0.0000213599   0.0001236985   0.0000718639   0.0000183686   0.0000109288
        0.0000617570   0.0000598760  -0.0000266940   0.0000055562  -0.0000020065
        0.0000006785   0.0000191669  -0.0000279338   0.0000041767   0.0000148020
       -0.0000125817   0.0000022625   0.0000157479  -0.0000017556  -0.0000001952
        0.0000224359   0.0000058077  -0.0000013274   0.0000072888   0.0000153609
       -0.0000033677  -0.0000067766  -0.0000533922   0.0000136076   0.0000472443
       -0.0000010873   0.0000475606  -0.0005944842  -0.0001608402   0.0015874243
       -0.0001652133  -0.0016258225  -0.0000852785  -0.0001652854   0.0016259751
       -0.0000851148  -0.0005936582   0.0001607382   0.0015859128   0.0000472619
        0.0000011534   0.0000475304   0.0000617922  -0.0000598249  -0.0000266990
        0.0000055557   0.0000019914   0.0000006677   0.0000191704   0.0000279331
        0.0000041462   0.0000148058   0.0000125818   0.0000022434   0.0000157434
        0.0000017560  -0.0000002078   0.0000224351  -0.0000058070  -0.0000013356
        0.0000072878  -0.0000153611  -0.0000033667  -0.0000067727   0.0000534105
        0.0000135765   0.0000718366  -0.0000183297   0.0000109504   0.0001166324
       -0.0000212180   0.0001236924
       -0.0001809996  -1.2488745676  -0.0000523627   0.0001884840   1.5752685500
        0.0000689825  -0.0000125369  -0.2550423023  -0.0000116370  -0.0295730869
       -0.0365243017  -0.0007345543   0.0036534545  -0.0012916916   0.0005155184
       -0.0014020639  -0.0010013605  -0.0004012440   0.0004579885  -0.0010542015
       -0.0001336670  -0.0015389240   0.0009672456  -0.0001656909   0.0009447181
       -0.0013418222  -0.0000104393  -0.0001306074   0.0008909370   0.0001235516
        0.0003322691  -0.0000799514  -0.0000425099   0.0002488216  -0.0001070911
       -0.0000410031  -0.0003450112  -0.0000802234   0.0000553351   0.0000735331
        0.0002488876  -0.0001055854   0.0001660015  -0.0001877244   0.0000752368
       -0.0000747141  -0.0007136037   0.0000741843   0.0000486376   0.0007797177
       -0.0001157813  -0.0001972263  -0.0001131372   0.0000806979  -0.0000648231
        0.0001433864  -0.0000516162   0.0001511912  -0.0000455361  -0.0000032380
       -0.0000878632  -0.0001197131   0.0000163977   0.0002939954   0.0000764002
       -0.0002655666   0.0013526307  -0.0001815445   0.0003037533  -0.0003178325
        0.0017162472   0.0012718553  -0.0047753003   0.0038460890  -0.0006914150
       -0.0000012314  -0.0024862719   0.0000001402   0.0047763416   0.0038478807
        0.0006905899   0.0295754616  -0.0365336166   0.0007303717  -0.0036500589
       -0.0012911707  -0.0005150615   0.0003173939   0.0017149729  -0.0012713807
       -0.0013519394  -0.0001819063  -0.0003039633   0.0015379586   0.0009664711
        0.0001658380  -0.0009442134  -0.0013411889   0.0000109887   0.0001306741
        0.0008905476  -0.0001240079  -0.0003322425  -0.0000800110   0.0000425332
       -0.0002486535  -0.0001068649   0.0000410683   0.0003447783  -0.0000802695
       -0.0000553049  -0.0000734588   0.0002487516   0.0001052711  -0.0001662725
       -0.0001875239  -0.0000749122   0.0000749431  -0.0007134205  -0.0000740972
       -0.0000485847   0.0007793258   0.0001155416   0.0001970512  -0.0001130227
       -0.0000806079   0.0000647400   0.0001432034   0.0000514487  -0.0001509831
       -0.0000454330   0.0000032525   0.0000878712  -0.0001195620  -0.0000163783
       -0.0002940146   0.0000766030   0.0002654489  -0.0004578049  -0.0010531945
        0.0001336436   0.0014007016  -0.0010009044   0.0004010842  -0.0000694541
        0.0000645504  -0.0002800190   0.0001140383  -0.0000310080  -0.0000157591
        0.0000074590   0.0002550195   0.0000194109  -0.0000302477  -0.0001848810
        0.0000324000  -0.0000350823  -0.0000190907   0.0000089436  -0.0000174482
       -0.0000056787   0.0000103320   0.0000283316   0.0000016960  -0.0000069786
        0.0000064032   0.0000062466  -0.0000043988  -0.0000067923   0.0000102788
        0.0000084087  -0.0000667642   0.0000197694   0.0000245980   0.0002467262
       -0.0001226475  -0.0001734016  -0.0002148984   0.0002557723  -0.0004498313
        0.0000123147  -0.0005060157  -0.0000971804  -0.0000122022  -0.0005059592
        0.0000971339   0.0002156740   0.0002556051   0.0004492773  -0.0002467193
       -0.0001225567   0.0001734227  -0.0000075447   0.0002549016  -0.0000195231
        0.0000301999  -0.0001849253  -0.0000322940   0.0000350883  -0.0000190663
       -0.0000089338   0.0000174593  -0.0000056664  -0.0000102993  -0.0000283162
        0.0000017188   0.0000069753  -0.0000063671   0.0000062354   0.0000043716
        0.0000068009   0.0000102432  -0.0000084432   0.0000667635   0.0000197733
       -0.0000245666  -0.0001140536  -0.0000309659   0.0000156566   0.0000694384
        0.0000645673   0.0002799892
       -0.0010738464  -0.0000532214  -0.0315599422   0.0000989721   0.0000689825
        0.0759248919   0.0005970644  -0.0000105000  -0.0546538532  -0.0007568122
       -0.0000215134   0.0025959956   0.0001772594  -0.0001146112  -0.0033239823
       -0.0003669115   0.0003189696  -0.0000804108  -0.0002633830   0.0000128789
        0.0000582551   0.0001798070  -0.0001542123   0.0000118611  -0.0003159453
        0.0002499843  -0.0001266701  -0.0000063224  -0.0002415465  -0.0000095735
       -0.0000192478   0.0000038765  -0.0000337706  -0.0000339276   0.0000076708
       -0.0000048380   0.0000506416   0.0000199757  -0.0000106325  -0.0000278622
       -0.0000597095   0.0000166190  -0.0000022075   0.0000575204  -0.0000043301
       -0.0000218018   0.0000725664  -0.0000178030  -0.0000143643  -0.0000940530
        0.0000249016   0.0000306070   0.0000500298  -0.0000187014   0.0000058296
       -0.0000445168   0.0000070820  -0.0000040087   0.0000228644  -0.0000074181
        0.0000024474  -0.0000063370  -0.0000037114   0.0001139263   0.0000758154
        0.0000385118  -0.0001947718  -0.0005084334  -0.0001293763   0.0010940826
        0.0003249473   0.0007159228  -0.0001255980  -0.0001019624   0.0101125905
        0.0003021994   0.0000003768  -0.0062142689  -0.0001255773   0.0001006939
        0.0101126892  -0.0007528099   0.0000168558   0.0025993130   0.0001768491
        0.0001145262  -0.0033241760   0.0010929158  -0.0003237538   0.0007156982
       -0.0001945299   0.0005082513  -0.0001295093   0.0001798732   0.0001543647
        0.0000116459  -0.0003160110  -0.0002500170  -0.0001265297  -0.0000062884
        0.0002414571  -0.0000097672  -0.0000192817  -0.0000038715  -0.0000337456
       -0.0000339230  -0.0000077103  -0.0000048371   0.0000506593  -0.0000199856
       -0.0000106291  -0.0000278554   0.0000597491   0.0000165830  -0.0000021746
       -0.0000575315  -0.0000042880  -0.0000218300  -0.0000725747  -0.0000177939
       -0.0000143574   0.0000940802   0.0000248755   0.0000306177  -0.0000500459
       -0.0000186975   0.0000058444   0.0000445368   0.0000070644  -0.0000040245
       -0.0000228659  -0.0000074114   0.0000024417   0.0000063071  -0.0000037286
        0.0001138894  -0.0000757709   0.0000385686  -0.0002635730  -0.0000130061
        0.0000581574  -0.0003668584  -0.0003194440  -0.0000802524  -0.0000447872
       -0.0000419567  -0.0001112700  -0.0000610569  -0.0000239283  -0.0000190668
        0.0000049824  -0.0000125759   0.0000371716   0.0000151987   0.0000204604
        0.0000059759   0.0000006283   0.0000119100   0.0000017466  -0.0000039988
        0.0000081504   0.0000015585  -0.0000101562   0.0000029098   0.0000027643
       -0.0000117999  -0.0000035866   0.0000015859  -0.0000034775  -0.0000092403
        0.0000024723  -0.0000016403   0.0000119585   0.0000024161   0.0000765569
       -0.0000792053  -0.0000318364   0.0005995112   0.0000488176  -0.0009167004
       -0.0000247709   0.0000453823  -0.0005372938  -0.0000246895  -0.0000452658
       -0.0005373647   0.0005993213  -0.0000490306  -0.0009162225   0.0000765059
        0.0000791347  -0.0000318234   0.0000049913   0.0000125831   0.0000371370
        0.0000151815  -0.0000204412   0.0000059936   0.0000006319  -0.0000118999
        0.0000017544  -0.0000039970  -0.0000081460   0.0000015661  -0.0000101546
       -0.0000029064   0.0000027670  -0.0000117975   0.0000035889   0.0000015843
       -0.0000034777   0.0000092441   0.0000024668  -0.0000016360  -0.0000119527
        0.0000024220  -0.0000611148   0.0000239065  -0.0000190874  -0.0000447769
        0.0000420022  -0.0001112957
        0.0183960450  -0.0000092609  -0.0001111161  -0.0602255939  -0.0000125369
        0.0005970644   0.5947034365   0.0000181512   0.0056260345  -0.2332555723
       -0.0671823622  -0.0019173248  -0.0386604616  -0.0049174811  -0.0004468347
        0.0005511942   0.0021756253   0.0023428493  -0.0011704430   0.0016242240
       -0.0011447821   0.0011674539  -0.0006923751  -0.0002698737  -0.0005170926
        0.0000537450   0.0001715023   0.0000647666  -0.0001110439  -0.0001965890
       -0.0000829954  -0.0000354783   0.0000006890  -0.0001281502   0.0001097435
       -0.0000075731   0.0001159249  -0.0000189160  -0.0000166086   0.0000117313
       -0.0001301070   0.0000432566   0.0001367169   0.0001098041  -0.0000409742
       -0.0001198595   0.0001013818  -0.0000170772   0.0000028761  -0.0002326201
        0.0000599346   0.0000786202   0.0000961946  -0.0000456178   0.0000852069
       -0.0001211497   0.0000227389  -0.0001509612   0.0000529995  -0.0000084738
       -0.0000045695   0.0001056472  -0.0000088922   0.0000081716   0.0000294057
        0.0002448083  -0.0008599213   0.0006468216  -0.0008158672   0.0005869098
       -0.0041233321  -0.0015052877   0.0276937561  -0.0737250612   0.0011239028
       -0.0643428745  -0.0000001703  -0.0010760344   0.0276916311   0.0737281554
        0.0011341605  -0.2332607333   0.0671826696  -0.0019161203  -0.0386562775
        0.0049181906  -0.0004464636   0.0005865206   0.0041220489  -0.0015057303
       -0.0008592378  -0.0006474940  -0.0008157166   0.0011671436   0.0006918660
       -0.0002693624  -0.0005169872  -0.0000534609   0.0001707113   0.0000646982
        0.0001108821  -0.0001962778  -0.0000829633   0.0000353845   0.0000006541
       -0.0001280662  -0.0001096416  -0.0000074832   0.0001157846   0.0000189031
       -0.0000166049   0.0000117701   0.0001300223   0.0000431462   0.0001366337
       -0.0001097712  -0.0000407989  -0.0001197775  -0.0001012346  -0.0000171089
        0.0000028488   0.0002324174   0.0000598654   0.0000785264  -0.0000961701
       -0.0000455566   0.0000851658   0.0001210604   0.0000226668  -0.0001508257
       -0.0000529682  -0.0000084044  -0.0000045766  -0.0001055222  -0.0000088239
        0.0000083517  -0.0000294371   0.0002447610  -0.0011692323  -0.0016238922
       -0.0011448067   0.0005501069  -0.0021743328   0.0023427970  -0.0002428198
       -0.0005048424   0.0000672606  -0.0002253633   0.0000763823   0.0000467191
       -0.0000278014  -0.0000179438   0.0000091879   0.0000222486   0.0000192275
        0.0000007018   0.0000045055   0.0000184754   0.0000010759  -0.0000071557
        0.0000002190   0.0000029357  -0.0000030243   0.0000094139   0.0000030303
       -0.0000195644  -0.0000087467   0.0000028173  -0.0000081621  -0.0000235478
       -0.0000035978  -0.0000139817   0.0000405878  -0.0000111823   0.0000720096
        0.0000166337  -0.0001066696  -0.0000297656  -0.0001790765   0.0003407024
        0.0006612970   0.0002131248  -0.0004448407   0.0006613108  -0.0002127337
       -0.0004443812  -0.0000294784   0.0001792429   0.0003405889   0.0000720014
       -0.0000167318  -0.0001066463  -0.0000278130   0.0000179405   0.0000091794
        0.0000222369  -0.0000192102   0.0000007250   0.0000045022  -0.0000184657
        0.0000011019  -0.0000071552  -0.0000002196   0.0000029760  -0.0000030216
       -0.0000094127   0.0000030507  -0.0000195585   0.0000087418   0.0000028328
       -0.0000081575   0.0000235326  -0.0000035871  -0.0000139935  -0.0000406156
       -0.0000111621  -0.0002252953  -0.0000763710   0.0000466975  -0.0002428195
        0.0005048712   0.0000671260
       -0.0000076689  -0.0580318801  -0.0000037508  -0.0000105504  -0.2550423023
       -0.0000105000   0.0000181512   0.6329403969   0.0000296141  -0.1042391792
       -0.1286976901  -0.0031881233   0.0028962755   0.0109126388  -0.0004214940
        0.0041443861  -0.0001366383   0.0002395792  -0.0002341024   0.0004665669
        0.0007000330   0.0007585468  -0.0003874733   0.0001711012  -0.0001670969
        0.0004386543  -0.0000929013   0.0000436540  -0.0000270910  -0.0001551359
       -0.0001707808  -0.0000596126   0.0000324949  -0.0001555639   0.0001072394
        0.0000093706   0.0001748039   0.0000162460  -0.0000294945  -0.0000163323
       -0.0001290277   0.0000521104   0.0000593272   0.0000834769  -0.0000497606
       -0.0000598874   0.0002632117  -0.0000182002   0.0000264557  -0.0003508541
        0.0000570550   0.0001112981   0.0000658175  -0.0000414105   0.0000711638
       -0.0001054227   0.0000300454  -0.0001427885   0.0000072149   0.0000122977
        0.0000311216   0.0001544286  -0.0000230548  -0.0002708802  -0.0001675994
        0.0001738110  -0.0012704132  -0.0003354588  -0.0000304230   0.0016577951
       -0.0023174274   0.0000743377  -0.0228003283  -0.0387922529   0.0002149475
        0.0000018676   0.0101158489   0.0000015775   0.0227999882  -0.0387953767
       -0.0002201587   0.1042387151  -0.1286928217   0.0031788146  -0.0029005793
        0.0109122330   0.0004221805  -0.0016566133  -0.0023168582  -0.0000748821
        0.0012694500  -0.0003355486   0.0000304673  -0.0007576232  -0.0003869678
       -0.0001712810   0.0001665183   0.0004382584   0.0000932441  -0.0000436416
       -0.0000268194   0.0001548887   0.0001707734  -0.0000595370  -0.0000324499
        0.0001554326   0.0001070954  -0.0000094524  -0.0001746198   0.0000162701
        0.0000294808   0.0000162750  -0.0001288850  -0.0000519417  -0.0000591215
        0.0000833282   0.0000495532   0.0000596711   0.0002630517   0.0000182251
       -0.0000264937  -0.0003505305  -0.0000569328  -0.0001111637   0.0000657197
        0.0000413427  -0.0000710893  -0.0001052677  -0.0000299367   0.0001426001
        0.0000071321  -0.0000123283  -0.0000311060   0.0001543170   0.0000229817
        0.0002708549  -0.0001677322  -0.0001737021   0.0002341178   0.0004652956
       -0.0007000027  -0.0041425152  -0.0001367879  -0.0002401346  -0.0000203435
       -0.0001474134  -0.0001224842   0.0001189910  -0.0001424924   0.0001036605
        0.0000307622  -0.0000849470  -0.0000091488   0.0000186715   0.0000619360
       -0.0000085826   0.0000144959   0.0000134780  -0.0000035757   0.0000043013
       -0.0000032522  -0.0000055684  -0.0000060741   0.0000023425   0.0000004551
       -0.0000010432  -0.0000077556  -0.0000012069  -0.0000001288  -0.0000087933
       -0.0000067122  -0.0000089852  -0.0000374339   0.0000014145   0.0000263718
        0.0000306637  -0.0000190596   0.0005678919   0.0002279352  -0.0002361109
        0.0000699502  -0.0059047313  -0.0000571415  -0.0000698002  -0.0059048271
        0.0000552476  -0.0005671921   0.0002281742   0.0002357350  -0.0000264017
        0.0000306687   0.0000190220  -0.0000307104  -0.0000849316   0.0000091877
       -0.0000186437   0.0000619631   0.0000085518  -0.0000145055   0.0000134483
        0.0000035739  -0.0000043191  -0.0000032582   0.0000055517   0.0000060593
        0.0000023330  -0.0000004541   0.0000010149  -0.0000077404   0.0000012162
        0.0000001196  -0.0000087594   0.0000067169   0.0000090031  -0.0000374561
       -0.0000014153  -0.0001189127  -0.0001424973  -0.0001036201   0.0000203233
       -0.0001472321   0.0001226453
        0.0001980903  -0.0000029256   0.0159436155  -0.0005486598  -0.0000116370
       -0.0546538532   0.0056260345   0.0000296141   0.1174629969   0.0015998944
       -0.0028128475  -0.0473610446  -0.0041314891   0.0021509970   0.0013595941
        0.0000807037   0.0000715898   0.0006158562  -0.0002819872   0.0004965308
        0.0000835860   0.0003984979  -0.0001402090   0.0001460120  -0.0001287472
        0.0000767920   0.0000023202   0.0000182199  -0.0000002832  -0.0000575548
       -0.0000364796  -0.0000201810  -0.0000002539  -0.0000257150   0.0000271555
       -0.0000051800   0.0000341172   0.0000081869  -0.0000076186  -0.0000073869
       -0.0000326497   0.0000133301   0.0000358496   0.0000213644  -0.0000105766
       -0.0000272245   0.0000195038  -0.0000038479  -0.0000009083  -0.0000454908
        0.0000159554   0.0000254684   0.0000293696  -0.0000152266   0.0000140317
       -0.0000352907   0.0000072474  -0.0000408028  -0.0000002364  -0.0000001997
        0.0000115117   0.0000366893  -0.0000127803   0.0000076834  -0.0000105681