$hessian                                                                        
        0.1525227394   0.0003641564  -0.1333795707  -0.1126991726  -0.0002851899
        0.1013604435  -0.0410608742  -0.0001106058   0.0418780497  -0.0001142419
       -0.0000058366  -0.0024042491  -0.0033923061  -0.0000063364   0.0016389504
        0.0021813278  -0.0015758183  -0.0000665591   0.0001358860   0.0005442215
        0.0001224542   0.0014914408  -0.0004469995  -0.0002584925  -0.0015489623
       -0.0003155459   0.0003570855   0.0001252869   0.0008202233   0.0000097562
       -0.0021110539  -0.0006963804   0.0001251148   0.0010925962  -0.0000022236
       -0.0001196940  -0.0021132393   0.0006956749   0.0001197911   0.0001247274
       -0.0008162533   0.0000143422  -0.0015461228   0.0003163045   0.0003562828
        0.0014896943   0.0004455286  -0.0002637015   0.0001374856  -0.0005408101
        0.0001230166   0.0021738631   0.0015787480  -0.0000717392  -0.0047039851
        0.0000168023  -0.0053050352  -0.0009065117  -0.0000060877   0.0017495441
        0.0051206532   0.0000182621  -0.0041391819  -0.0010241328   0.0000118486
       -0.0005369717   0.0012384048  -0.0000219473  -0.0026553237  -0.0007052878
        0.0012096230   0.0006665019   0.0001665911  -0.0002333790  -0.0003499293
       -0.0008551536   0.0001206660   0.0001109538   0.0009321654  -0.0000442398
       -0.0002313340  -0.0002876451   0.0002084346   0.0000395612   0.0010548421
        0.0003440932   0.0000974948   0.0006579475  -0.0000071692  -0.0004547602
        0.0010500332  -0.0003429176   0.0000981869  -0.0002893321  -0.0002065962
        0.0000411435   0.0009381828   0.0000467716  -0.0002302912  -0.0008600988
       -0.0001119692   0.0001095554   0.0001734685   0.0002323662  -0.0003452224
       -0.0007161463  -0.0011966925   0.0006903246   0.0026835784  -0.0000018024
        0.0005469128  -0.0001482087  -0.0001355908   0.0000761070  -0.0000126348
        0.0000460407  -0.0000138564  -0.0000424897   0.0000330018  -0.0000079123
       -0.0000418001   0.0000190571   0.0000143120  -0.0000417920  -0.0000190928
        0.0000149147  -0.0000422614  -0.0000330741  -0.0000080997  -0.0000123219
       -0.0000462054  -0.0000140142  -0.0001454637   0.0001350976   0.0000754713
       -0.0000157040   0.0000000925  -0.0000902180  -0.0000696214   0.0001015725
        0.0001793962  -0.0000281229   0.0000344986   0.0000280181   0.0000299595
        0.0000404520   0.0000393017   0.0000386778  -0.0000114270   0.0000108360
        0.0000403953   0.0000104314   0.0000102567   0.0000305729  -0.0000405662
        0.0000390248  -0.0000284514  -0.0000350511   0.0000268415  -0.0000673815
       -0.0000981610   0.0001762105
        0.0003641564   0.0190328875  -0.0006277799  -0.0002735096  -0.0303267134
        0.0004450924  -0.0000232917   0.0023193934   0.0000140994   0.0000092408
        0.0072366942   0.0000291461   0.0000127733   0.0001075915   0.0000002882
       -0.0001087804   0.0001173484  -0.0000939172   0.0000334889  -0.0000934108
       -0.0000146306  -0.0000839511   0.0000744542  -0.0000021593   0.0000473172
        0.0000006840  -0.0000138670  -0.0000099580   0.0000657221   0.0000124237
        0.0000495142  -0.0000383381  -0.0000223830  -0.0000135129  -0.0000063359
        0.0000054929  -0.0000483680  -0.0000560257   0.0000195076   0.0000098279
        0.0000693241  -0.0000150479  -0.0000528065  -0.0000073434   0.0000147359
        0.0000886089   0.0000636578  -0.0000006672  -0.0000333246  -0.0000810682
        0.0000162729   0.0001138722   0.0000928470   0.0000901973  -0.0000114268
        0.0006283912  -0.0000158087  -0.0000063892  -0.0014505566   0.0000021778
        0.0000330563   0.0058543705   0.0000255937  -0.0000938710   0.0027539904
        0.0001572650   0.0000134155  -0.0025348530  -0.0000206848  -0.0005190803
       -0.0001068197   0.0000867293  -0.0001721735   0.0001175479  -0.0001116003
       -0.0000304698   0.0001045147   0.0000156613   0.0000819449   0.0000693846
       -0.0000305738  -0.0000180553   0.0000894723  -0.0000150741   0.0001301236
       -0.0001689195  -0.0000134717  -0.0000175591  -0.0001785443   0.0000101009
       -0.0001024799  -0.0001515762   0.0000127695   0.0000135489   0.0000939651
        0.0000123352  -0.0000774330   0.0000736802   0.0000282440   0.0000240526
        0.0001147647  -0.0000173546   0.0001677113   0.0000882129   0.0001030166
        0.0005140771  -0.0000735002  -0.0000869620  -0.0000019327  -0.0035483717
       -0.0000124830  -0.0000467834  -0.0000002133   0.0000704374  -0.0000149772
        0.0000061403   0.0000078300  -0.0000038368  -0.0000008116   0.0000011349
        0.0000060454  -0.0000023037   0.0000035692  -0.0000060270  -0.0000015619
       -0.0000025786   0.0000042831  -0.0000001627  -0.0000011473   0.0000142308
        0.0000066459  -0.0000082530   0.0000440750  -0.0000010093  -0.0000688903
       -0.0000048450  -0.0002828875   0.0000046643   0.0000083146  -0.0000003212
        0.0000547525   0.0000073420  -0.0000065113   0.0000207186   0.0000050723
       -0.0000022307   0.0000082327  -0.0000211687  -0.0000258114   0.0000097248
        0.0000223561  -0.0000251286  -0.0000096033  -0.0000043468  -0.0000037782
       -0.0000078484  -0.0000081737  -0.0000076729  -0.0000182920  -0.0000099172
        0.0000010959  -0.0000511355
       -0.1333795707  -0.0006277799   0.2385734805   0.0911973581   0.0004341082
       -0.1862422138   0.0183482548   0.0000260517  -0.0086904735  -0.0048823144
        0.0000365376   0.0010644902   0.0016301429   0.0000012147  -0.0000563622
       -0.0024583387   0.0009693876   0.0000925884   0.0001446424  -0.0002147174
       -0.0000506109  -0.0015998346   0.0003441594   0.0003110038   0.0016222187
        0.0002725565  -0.0003547588  -0.0003139341  -0.0007260945   0.0000418191
        0.0021419278   0.0004496120  -0.0001197089  -0.0007260372   0.0000020492
       -0.0000501387   0.0021435229  -0.0004466384  -0.0001181799  -0.0003129790
        0.0007181724   0.0000379973   0.0016168486  -0.0002718918  -0.0003544441
       -0.0015970009  -0.0003436444   0.0003144187   0.0001414866   0.0002142331
       -0.0000492096  -0.0024504651  -0.0009730753   0.0000885872   0.0038540987
       -0.0000120775   0.0061614228   0.0017487636   0.0000021000  -0.0025082554
       -0.0114568397   0.0000207344  -0.0006665826   0.0304641211   0.0001257140
       -0.0488201365   0.0014801115   0.0000055500   0.0036977836   0.0019703626
        0.0001508701  -0.0006122332  -0.0001357712  -0.0000892986   0.0004688414
        0.0014132156   0.0001309798  -0.0001954081  -0.0015200383   0.0001853182
        0.0003655990   0.0003455270  -0.0004401018  -0.0000350229  -0.0018232426
        0.0001959181   0.0000030048   0.0000809543   0.0000034351   0.0002691849
       -0.0018203484  -0.0002002052   0.0000012474   0.0003474260   0.0004423427
       -0.0000386757  -0.0015274325  -0.0001866998   0.0003635719   0.0014160457
       -0.0001372254  -0.0001909844  -0.0001405243   0.0001002668   0.0004610523
        0.0019811001  -0.0001492167  -0.0006166467   0.0000554822  -0.0000138129
        0.0006804564   0.0001107952   0.0000122262  -0.0001969241  -0.0000003006
       -0.0001075572   0.0000085054   0.0000558181  -0.0000642792   0.0000094024
        0.0000626411  -0.0000022147  -0.0000172480   0.0000627273   0.0000025234
       -0.0000179878   0.0000555883   0.0000645601   0.0000084839  -0.0000006977
        0.0001072314   0.0000079510   0.0001070857  -0.0000140831  -0.0001958707
        0.0015526980   0.0000066425  -0.0020647705   0.0000812608   0.0000426820
       -0.0002425534   0.0000478959  -0.0000919930  -0.0000646152  -0.0000552449
       -0.0000964366  -0.0000583709  -0.0000731057  -0.0000211694  -0.0000207097
       -0.0000749120   0.0000217391  -0.0000207997  -0.0000558847   0.0000961614
       -0.0000592395   0.0000481262   0.0000915143  -0.0000640887   0.0000765693
       -0.0000463794  -0.0002376682
       -0.1126991726  -0.0002735096   0.0911973581   0.5945281806   0.0000062957
       -0.0115701433  -0.3179500195   0.0002121990  -0.0520278379  -0.0575718434
        0.0001186451  -0.0054331981   0.0018216544  -0.0000256459   0.0007217185
       -0.0081487433   0.0004052432   0.0006920481  -0.0002990498  -0.0002056549
       -0.0009034008  -0.0047371285   0.0004439570   0.0006377582   0.0056807809
        0.0014743260  -0.0010633010  -0.0004914798  -0.0039800241   0.0002067544
        0.0059263656   0.0038385548  -0.0003879138  -0.0031212391   0.0000037030
       -0.0001585988   0.0059110863  -0.0038611577  -0.0003519634  -0.0004917754
        0.0040050673   0.0001793263   0.0056720742  -0.0014870602  -0.0010778834
       -0.0047275058  -0.0004171323   0.0006470198  -0.0003098131   0.0001545658
       -0.0008850719  -0.0081423577  -0.0003786763   0.0006754607   0.0401789238
       -0.0001339078   0.0314606513  -0.0046888742  -0.0000171040   0.0038472585
       -0.0021123046   0.0000926461  -0.0209471317  -0.0832916584  -0.0000842070
       -0.0055205535  -0.0352874741   0.0002150492  -0.0258007939   0.0016113398
       -0.0022369751  -0.0014044745  -0.0000202369   0.0026413544   0.0001227513
        0.0019097765  -0.0008289220   0.0000273006  -0.0021881091   0.0001959655
        0.0001726688   0.0006776033  -0.0005571152  -0.0006616204  -0.0025096456
        0.0002881387   0.0003406510  -0.0001638317   0.0000048303   0.0009796283
       -0.0026536724  -0.0001780913   0.0003776289   0.0006948468   0.0004692307
       -0.0006549998  -0.0022678821  -0.0001761261   0.0001644346   0.0020328616
        0.0007294080   0.0000061958   0.0001794664  -0.0025352863   0.0003766573
        0.0016539672   0.0020609902  -0.0015003341  -0.0145267455   0.0000332770
       -0.0055247239  -0.0000466645   0.0001956243   0.0004773060   0.0000168344
        0.0000292736  -0.0000775259   0.0000606172   0.0000255758   0.0001688710
        0.0000048552  -0.0000568209   0.0000317400   0.0000017942   0.0000599706
        0.0000241310   0.0000562285  -0.0000215247   0.0001570875   0.0000148215
       -0.0000272883  -0.0000817795  -0.0000337470  -0.0001564230   0.0004600763
       -0.0014367626  -0.0000197093   0.0035144421   0.0004407838  -0.0009648236
       -0.0007032353   0.0001109901   0.0000475101   0.0002096073   0.0000074472
       -0.0000015667  -0.0001905809   0.0000811386   0.0001274678  -0.0001075292
        0.0000730672  -0.0001280097  -0.0001154723   0.0000038305  -0.0000033200
       -0.0002020751   0.0001092491  -0.0000436949   0.0002065744   0.0004571519
        0.0009209075  -0.0007309635
       -0.0002851899  -0.0303267134   0.0004341082   0.0000062957   0.1006207077
       -0.0011985165  -0.0000335117  -0.0360936370   0.0000728285   0.0000320203
       -0.0032805000   0.0001112222  -0.0000371275   0.0041841907   0.0000151094
       -0.0007838744  -0.0001947535   0.0004628826   0.0001000519   0.0001857183
        0.0000571447   0.0002017439  -0.0002854444  -0.0000417894  -0.0000079225
        0.0000837450   0.0000218810  -0.0000564158  -0.0002906506  -0.0000892482
       -0.0001404498   0.0003927411  -0.0001546148   0.0000105483  -0.0001070565
        0.0000018161   0.0000774539   0.0004182614   0.0001565142   0.0000561949
       -0.0003220917   0.0000931556  -0.0000509746   0.0000914350  -0.0000094882
       -0.0001454973  -0.0002785743   0.0000345650  -0.0000924353   0.0001804626
       -0.0000537969   0.0008521429  -0.0001818518  -0.0004728356  -0.0001375937
       -0.0015716809  -0.0001225908   0.0000171845   0.0006276421  -0.0000139960
        0.0000266186  -0.0033521351   0.0001858425   0.0002491176  -0.0322867104
        0.0004867134   0.0001031150  -0.0023792147   0.0000431017   0.0004980499
        0.0021466692  -0.0003561554  -0.0004230997  -0.0026037944  -0.0000224487
        0.0016232048   0.0012582327  -0.0002270497  -0.0011121829  -0.0006180750
        0.0002013914   0.0003140383   0.0011995264   0.0001756328  -0.0023844217
       -0.0014017032   0.0007603209  -0.0000044648   0.0000088308  -0.0000006745
        0.0023583778  -0.0013873039  -0.0007279453  -0.0003271496   0.0011562794
       -0.0001858657   0.0011194202  -0.0005880723  -0.0001911765  -0.0016165116
        0.0012448970   0.0002068128   0.0004244785  -0.0025338200   0.0000132916
       -0.0005186582   0.0020878390   0.0003270956   0.0000863371   0.0007575444
        0.0000217702   0.0001127238  -0.0000498835  -0.0000451902   0.0000012537
       -0.0000260355  -0.0000220270  -0.0000119584  -0.0000010771   0.0000213996
       -0.0000300901   0.0000002284  -0.0000252951   0.0000309508   0.0000009377
        0.0000244765   0.0000117903  -0.0000003825  -0.0000233705  -0.0000015719
       -0.0000234282   0.0000214180  -0.0000923744   0.0000240603   0.0000366252
       -0.0000020751   0.0045420515   0.0000172881  -0.0001038301  -0.0005082596
       -0.0005677078   0.0000347219  -0.0000267374  -0.0000465616   0.0000145205
        0.0000052752  -0.0000404128  -0.0000057736  -0.0000138415  -0.0000146408
        0.0000052103  -0.0000134995   0.0000137418  -0.0000161379   0.0000072976
        0.0000406971  -0.0000341376  -0.0000243696   0.0000455858   0.0000878651
       -0.0004532761   0.0005489655
        0.1013604435   0.0004450924  -0.1862422138  -0.0115701433  -0.0011985165
        0.5336172301   0.0070302811   0.0000224786  -0.0553193867   0.0111461536
        0.0001256383  -0.0370353684   0.0037937380   0.0000224837  -0.0036728098
       -0.0015948659  -0.0003773890  -0.0002065557  -0.0004961827   0.0003817850
       -0.0005555470  -0.0010194654  -0.0001958281   0.0000070040   0.0015282863
        0.0008079913  -0.0001868254   0.0002723961  -0.0019980772   0.0000903021
        0.0011255306   0.0022671423   0.0000306207  -0.0017710132   0.0000009225
        0.0001190505   0.0011154775  -0.0022830779   0.0000567620   0.0002710610
        0.0020324597   0.0000756649   0.0015354684  -0.0008198497  -0.0002006951
       -0.0010213659   0.0002115488   0.0000098376  -0.0004904992  -0.0004133372
       -0.0005397461  -0.0015920534   0.0004017973  -0.0002214730   0.0314672629
       -0.0001222893   0.0257122202  -0.0052915001  -0.0000203702   0.0061544410
        0.0072369227   0.0002492690  -0.0738912899  -0.1057653111   0.0005117715
       -0.1961698098  -0.0143983530   0.0000440067  -0.0052722521  -0.0009073735
       -0.0033782381   0.0022114656  -0.0002071445   0.0031024025  -0.0002615041
       -0.0020578780  -0.0013248024   0.0005253275   0.0021825970  -0.0002169297
       -0.0008569990  -0.0000307388   0.0008644168  -0.0007989747   0.0030586469
        0.0001862970  -0.0003830145  -0.0005556683  -0.0000036681   0.0004329583
        0.0029424633  -0.0001069606  -0.0003465859  -0.0000172081  -0.0009585726
       -0.0007819283   0.0021395115   0.0002436876  -0.0008589077  -0.0019763469
        0.0012559790   0.0004948640  -0.0000026355  -0.0030054215  -0.0000238654
       -0.0008556369   0.0032448625   0.0021368080  -0.0296297638   0.0000482178
       -0.0068038014  -0.0000259443  -0.0002178717   0.0005426126  -0.0000048207
        0.0002005034  -0.0000735620  -0.0000944419   0.0001466207   0.0001250802
       -0.0001342848  -0.0000368760   0.0000421973  -0.0001366822   0.0000400457
        0.0000379238  -0.0000978617  -0.0001434400   0.0001172741  -0.0000057496
       -0.0001988091  -0.0000750661  -0.0000193299   0.0002197663   0.0005291407
        0.0020902288   0.0000079941  -0.0013845098   0.0002083894  -0.0012537343
       -0.0006311273   0.0000398665   0.0001940839   0.0002963943   0.0002008859
        0.0001968087  -0.0000405947   0.0002808044   0.0001700992  -0.0000493042
        0.0002783000  -0.0001743909  -0.0000547097   0.0001980626  -0.0002006429
       -0.0000472606   0.0000377973  -0.0001921782   0.0002927947   0.0002296872
        0.0011950992  -0.0006722862
       -0.0410608742  -0.0000232917   0.0183482548  -0.3179500195  -0.0000335117
        0.0070302811   0.6506219147  -0.0004015228   0.0367992536  -0.1202003503
       -0.0003191330   0.0870680118  -0.0327460490  -0.0000690982   0.0209534956
        0.0071068314   0.0001614148   0.0005527651  -0.0003668536  -0.0007274067
        0.0013025840   0.0057911301  -0.0002403967  -0.0009703728  -0.0067195988
       -0.0015428547   0.0013701314   0.0006772428   0.0042088132  -0.0002820025
       -0.0079433084  -0.0033187591   0.0002003099   0.0038579864  -0.0000045793
        0.0000847709  -0.0079466030   0.0033098214   0.0001684624   0.0006743011
       -0.0042030518  -0.0002548308  -0.0066972863   0.0015452703   0.0013702328
        0.0057792801   0.0002282940  -0.0009842455  -0.0003340209   0.0007800767
        0.0012826441   0.0070358033  -0.0001547524   0.0005623752  -0.0020389599
        0.0000163814   0.0072991230   0.0051039711   0.0000368401  -0.0114473698
       -0.0113130156  -0.0000880849   0.0209118576  -0.0388899058   0.0003378776
       -0.0894554086  -0.0026427065  -0.0000116984  -0.0013986704  -0.0045816495
        0.0045875246   0.0001185553   0.0007464707  -0.0016415403  -0.0003621162
       -0.0036080874   0.0003121852   0.0006047152   0.0039776662  -0.0006713883
       -0.0007662250  -0.0009065078   0.0019039059   0.0004744410   0.0043386130
       -0.0018419823  -0.0002489233  -0.0013716642   0.0000019511  -0.0004898085
        0.0043969170   0.0018228513  -0.0002822226  -0.0009163807  -0.0018946013
        0.0004917330   0.0040311884   0.0006752960  -0.0007745563  -0.0036730494
       -0.0002796397   0.0006081575   0.0007504010   0.0016074058  -0.0004080315
       -0.0046617141  -0.0045265592   0.0002045245  -0.0867328372   0.0002934857
       -0.0996389970  -0.0003435767   0.0025721409  -0.0001181251   0.0000290028
       -0.0000112788   0.0000165384   0.0000414792  -0.0000439777  -0.0001845047
        0.0000244388   0.0000354885  -0.0000316256   0.0000263900  -0.0000392694
       -0.0000283214   0.0000445908   0.0000409663  -0.0001818745   0.0000303634
        0.0000099747   0.0000137221  -0.0003808395  -0.0024158925  -0.0001338526
       -0.0000849291  -0.0000010728   0.0000321049  -0.0003662646   0.0008784610
        0.0001789705  -0.0000211162  -0.0000230913  -0.0000742024  -0.0000738621
       -0.0000322960   0.0001230450  -0.0000208526  -0.0000454704   0.0000531601
       -0.0000175263   0.0000480886   0.0000577324  -0.0000725069   0.0000352361
        0.0001235732  -0.0000196045   0.0000230005  -0.0000757706  -0.0003834620
       -0.0008665503   0.0001865312
       -0.0001106058   0.0023193934   0.0000260517   0.0002121990  -0.0360936370
        0.0000224786  -0.0004015228   0.0813548939  -0.0015876458  -0.0002545576
       -0.0259093611   0.0003415040  -0.0000642538   0.0009437734  -0.0000130196
        0.0014255627  -0.0022582090   0.0007527638  -0.0000597545   0.0005286884
       -0.0002791790   0.0009907628  -0.0004797495  -0.0002925267  -0.0004431751
        0.0002422864   0.0003157622   0.0001665962  -0.0006362602  -0.0000999967
       -0.0011488948   0.0006146947   0.0002204374   0.0000058835   0.0000708675
       -0.0000080860   0.0011544209   0.0006104086  -0.0002218445  -0.0001570527
       -0.0006390350   0.0000997932   0.0004493887   0.0002502132  -0.0003151737
       -0.0009934337  -0.0004824523   0.0002957105   0.0000757163   0.0005783659
        0.0002608341  -0.0014338801  -0.0022734878  -0.0007453513   0.0000730702
       -0.0033609149   0.0002301011   0.0000188204   0.0058601178   0.0000210608
       -0.0000746566  -0.0000132130  -0.0000366963   0.0001229199   0.0011373022
        0.0001323509   0.0000274200   0.0042024409   0.0000268340   0.0008044494
        0.0002911825   0.0000984915   0.0001679627  -0.0005380405  -0.0002061053
        0.0003101479   0.0003570553  -0.0000106895  -0.0001609985  -0.0001373157
       -0.0000104272   0.0001054369   0.0003144938   0.0000301167  -0.0002842295
       -0.0001473423   0.0001917582  -0.0000122767   0.0000079728   0.0000030052
        0.0003640532  -0.0001258522  -0.0001963267  -0.0001154170   0.0002786840
       -0.0000383281   0.0002303961  -0.0001247534  -0.0000031578  -0.0003757288
        0.0003661875   0.0000198795  -0.0001608836  -0.0005477342   0.0002051287
       -0.0008831684   0.0002942564  -0.0000699479   0.0002931684  -0.0239568635
        0.0007063700   0.0012348530  -0.0011135953   0.0000749056  -0.0000108526
        0.0000224285  -0.0001228478   0.0000873338  -0.0000146276   0.0000683517
        0.0000078912   0.0000002370  -0.0000489990  -0.0000087791  -0.0000000827
        0.0000459739  -0.0000847811  -0.0000140766  -0.0000699752   0.0000111070
        0.0000225569   0.0001190905  -0.0011007881  -0.0015147337   0.0000525664
        0.0000001374  -0.0003028403   0.0000010381  -0.0000481479  -0.0000300202
        0.0000778628   0.0000006902   0.0000244684   0.0000243395  -0.0000184594
        0.0000047216  -0.0000125874  -0.0000095865   0.0000112265   0.0000010372
        0.0000093680   0.0000118850   0.0000011680   0.0000184291   0.0000045906
        0.0000158428  -0.0000006437   0.0000244069  -0.0000209246   0.0000483435
       -0.0000356021  -0.0000727728
        0.0418780497   0.0000140994  -0.0086904735  -0.0520278379   0.0000728285
       -0.0553193867   0.0367992536  -0.0015876458   0.6035028664   0.1149383970
        0.0004347877  -0.1761498038   0.0032279684  -0.0000283235   0.0043688334
       -0.0045848359  -0.0042447322   0.0010955667   0.0012497250   0.0011404528
       -0.0006581290  -0.0036030071  -0.0000991641   0.0006824909   0.0037460551
        0.0004018034  -0.0008516729  -0.0010619502  -0.0013140435   0.0001182607
        0.0044647428   0.0011535404  -0.0007417576  -0.0012512792  -0.0000009732
       -0.0000972089   0.0044700720  -0.0011446257  -0.0007391110  -0.0010587148
        0.0012830707   0.0001093251   0.0037306229  -0.0003929827  -0.0008442677
       -0.0035989317   0.0000958453   0.0006863012   0.0012368971  -0.0011427926
       -0.0006588254  -0.0045693270   0.0042229114   0.0010675084  -0.0209756415
        0.0001957300  -0.0739160557  -0.0041376115   0.0000273801  -0.0006694725
        0.0209503903  -0.0000447599   0.0106177446  -0.0393659693   0.0001123709
       -0.0296773477  -0.0017575942  -0.0000031434  -0.0044815823   0.0061191700
       -0.0002746447  -0.0026674569  -0.0008172839  -0.0009495471   0.0005596127
        0.0059820411   0.0010400425  -0.0012021609  -0.0061959899   0.0010453085
        0.0015913252   0.0008168200  -0.0030964923   0.0005049749  -0.0078659520
        0.0026128302   0.0011126779   0.0034984743  -0.0000062959  -0.0005910831
       -0.0077893158  -0.0026784598   0.0011134267   0.0008048779   0.0032077764
        0.0004585008  -0.0061940357  -0.0010839013   0.0016019794   0.0059431338
       -0.0009778450  -0.0011750297  -0.0008291245   0.0008365803   0.0005433109
        0.0061103213   0.0003577515  -0.0026596166  -0.0984954299   0.0006993411
       -0.2682518854   0.0003369907  -0.0022135353   0.0003561291  -0.0000174958
       -0.0000466080   0.0000166121  -0.0001487022   0.0000670854   0.0000681570
       -0.0000530054   0.0000729161   0.0000410374  -0.0000526766  -0.0000741674
        0.0000403628  -0.0001474145  -0.0000682302   0.0000690749  -0.0000166115
        0.0000476753   0.0000156322   0.0002862709   0.0023151625   0.0003056463
        0.0000777984   0.0000084260   0.0002023500   0.0000177493  -0.0008802819
       -0.0001580025  -0.0000311419  -0.0000056940  -0.0001548099   0.0000691947
        0.0000203235  -0.0000850589  -0.0000801620  -0.0000857884  -0.0000055997
       -0.0000794034   0.0000878640  -0.0000086528   0.0000712846  -0.0000182422
       -0.0000824576  -0.0000306531   0.0000028815  -0.0001557992   0.0000107978
        0.0008861346  -0.0001569997
       -0.0001142419   0.0000092408  -0.0048823144  -0.0575718434   0.0000320203
        0.0111461536  -0.1202003503  -0.0002545576   0.1149383970   0.5826763235
        0.0000312266   0.0020860333  -0.2317701557  -0.0000888752  -0.0138542713
       -0.0287008891   0.0128992441  -0.0047936928   0.0000805944   0.0014802081
        0.0000438401  -0.0005522992  -0.0009429919   0.0001960573   0.0003971144
       -0.0002122838   0.0001634256  -0.0010619015   0.0007020541   0.0018626044
        0.0004638514   0.0011898450  -0.0004395942   0.0002770746   0.0000001495
       -0.0005395739   0.0003011636  -0.0013059952  -0.0003798410  -0.0010436572
       -0.0005990663   0.0018706915   0.0003084325   0.0001712045   0.0001792802
       -0.0004151264   0.0010568698   0.0001733738   0.0000841006  -0.0016741454
        0.0000467545  -0.0286278996  -0.0127186867  -0.0046480758  -0.0833985170
        0.0002768699  -0.1058652219  -0.0010086715  -0.0000936788   0.0304725039
       -0.0388797833   0.0001330701  -0.0393243964   0.0007520907  -0.0000706621
        0.0214612773   0.0016221817  -0.0000251527   0.0005348916   0.0074194825
       -0.0012239895  -0.0020504494  -0.0006614623  -0.0000014973   0.0008393401
        0.0059641102   0.0005992851  -0.0011034289  -0.0065111265   0.0014125899
        0.0015240158   0.0007936883  -0.0039998089   0.0002580189  -0.0073118840
        0.0034341949   0.0006989764   0.0034903747  -0.0000063652  -0.0001768867
       -0.0072605573  -0.0034773230   0.0007249099   0.0007832602   0.0040619679
        0.0002059288  -0.0065067274  -0.0014333066   0.0015221486   0.0059368824
       -0.0005617116  -0.0010745533  -0.0006589339  -0.0000619697   0.0008551040
        0.0074287893   0.0012677076  -0.0020583197   0.0067524983   0.0000174109
       -0.0085849047   0.0007186459  -0.0010370619  -0.0002454726  -0.0000092632
       -0.0002091506  -0.0002603936  -0.0001174483   0.0000122545  -0.0001064448
       -0.0000207575   0.0001957739   0.0001367844  -0.0000252085  -0.0001968431
        0.0001332082  -0.0001182436  -0.0000129064  -0.0001070707  -0.0000086792
        0.0002072323  -0.0002642538   0.0007127174   0.0010269444  -0.0002497872
       -0.0042944405   0.0000028192   0.0001338131  -0.0000467822  -0.0007578528
       -0.0003418202  -0.0000135519  -0.0000279719  -0.0000876745   0.0000070805
       -0.0000043837  -0.0001523703  -0.0000027430   0.0000090989  -0.0000119460
       -0.0000035198  -0.0000096071  -0.0000148400   0.0000064845   0.0000035639
       -0.0001543208  -0.0000137554   0.0000256620  -0.0000845728  -0.0000465212
        0.0007493367  -0.0003510408
       -0.0000058366   0.0072366942   0.0000365376   0.0001186451  -0.0032805000
        0.0001256383  -0.0003191330  -0.0259093611   0.0004347877   0.0000312266
        0.1214773710  -0.0015220385   0.0000367032  -0.0521935832   0.0001730469
        0.0228886160  -0.0010247071  -0.0003906243   0.0026922279  -0.0023342181
        0.0012733987   0.0005886041  -0.0004967361   0.0006254461   0.0009725640
        0.0005755636  -0.0008161407   0.0013193632  -0.0018122051  -0.0000221570
        0.0004764580  -0.0027304073   0.0013676423  -0.0000187579   0.0002923422
        0.0000055913  -0.0004331284  -0.0027532065  -0.0013559875  -0.0013129422
       -0.0017978253   0.0000228956  -0.0009473888   0.0005785482   0.0008062051
       -0.0006213770  -0.0005284812  -0.0006209819  -0.0027584670  -0.0023271575
       -0.0012630075  -0.0228986832  -0.0010801637   0.0004333553  -0.0000335013
       -0.0322835115   0.0005312788   0.0000088749   0.0027524878   0.0001285159
        0.0003154152   0.0011319607   0.0001077228  -0.0000663454  -0.0019553841
       -0.0001553202   0.0000123217  -0.0003688623  -0.0000025031  -0.0000786926
        0.0000088550  -0.0000576209   0.0000739904  -0.0000705432  -0.0000611362
        0.0000316764   0.0000661935  -0.0000063542  -0.0000101408  -0.0000223631
       -0.0000001577  -0.0000061275   0.0000510827   0.0000211994  -0.0000112545
       -0.0000780006   0.0000360180  -0.0000217581   0.0000209917   0.0000020358
        0.0000822633  -0.0000329590  -0.0000404671   0.0000042599   0.0000014955
       -0.0000235975   0.0000772969  -0.0000041440  -0.0000142699  -0.0000912035
        0.0000745293   0.0000154439  -0.0000742909  -0.0000754134   0.0000544003
       -0.0000097298   0.0000378222   0.0000710122  -0.0000376320   0.0001373545
        0.0000713372   0.0019816471  -0.0030297340   0.0005107936   0.0000174891
        0.0000820086   0.0000393909   0.0000314586  -0.0000393412  -0.0003131429
        0.0001840809  -0.0002931319  -0.0000206119  -0.0001824370  -0.0002913927
        0.0000239732  -0.0000307260  -0.0000377551   0.0003149802  -0.0000172420
        0.0000814024  -0.0000363091  -0.0019569759  -0.0030083814  -0.0005187142
       -0.0000021823   0.0050930707   0.0000046300   0.0000543169   0.0000561511
        0.0000458978  -0.0000014689   0.0000216516   0.0000014494  -0.0000106891
        0.0000011486   0.0000003533  -0.0000098573   0.0000022302   0.0000023538
        0.0000087979   0.0000008435  -0.0000023163   0.0000104560   0.0000022268
        0.0000012090   0.0000021259   0.0000220552  -0.0000013973  -0.0000529105
        0.0000533887  -0.0000436845
       -0.0024042491   0.0000291461   0.0010644902  -0.0054331981   0.0001112222
       -0.0370353684   0.0870680118   0.0003415040  -0.1761498038   0.0020860333
       -0.0015220385   0.5210362692  -0.0154771919   0.0001758808  -0.0473194952
        0.0015600758   0.0019398155  -0.0037008210  -0.0017943105   0.0012065683
       -0.0006446640   0.0024704011  -0.0002087071  -0.0005634327  -0.0024396148
        0.0003629352   0.0007258964   0.0009705381  -0.0002014855   0.0009257351
       -0.0035702480  -0.0000502060   0.0031306627   0.0002336165   0.0000005770
       -0.0004494207  -0.0035756423   0.0000524419   0.0031550037   0.0009816855
        0.0002810732   0.0009238303  -0.0024232746  -0.0003913184   0.0007148060
        0.0024827577   0.0002434205  -0.0005634616  -0.0017627513  -0.0012567209
       -0.0005942103   0.0017236908  -0.0019014287  -0.0036702055  -0.0054805867
        0.0004896191  -0.1962233920  -0.0005363880   0.0001494164  -0.0488131711