$hessian                                                                        
        0.6656582283  -0.0597998069   0.0320979561  -0.1045693154   0.0540381484
        0.0667511335   0.0019730445   0.0189078760   0.0279357318  -0.0003849640
       -0.0124799765  -0.0170780676  -0.0022759376   0.0011731626   0.0004158778
        0.0004924224  -0.0007398259  -0.0005566487  -0.0002259273  -0.0001994348
        0.0000222499   0.0000890666   0.0002464558   0.0000314135  -0.0000623475
       -0.0000134542  -0.0000114533   0.0000171725   0.0000131243   0.0000077189
       -0.0000172233  -0.0000006607  -0.0000002740  -0.0000007987   0.0000030684
        0.0000003578   0.0000015683   0.0000006291   0.0000013427   0.0000022548
        0.0000024028   0.0000008493   0.0000007194  -0.0000008521  -0.0000013861
        0.0000002840  -0.0000001021   0.0000000444   0.0000003278   0.0000003167
        0.0000003771  -0.0000014601  -0.0000014351   0.0000005847   0.0000004008
       -0.0000002623   0.0000001845  -0.0000000404   0.0000002633   0.0000001534
       -0.0000005196  -0.0000005956   0.0000004008   0.0000000940   0.0000004002
        0.0000005928   0.0000003517  -0.0000006388   0.0000007114  -0.0000005242
       -0.0000007945   0.0000004470  -0.0000007706  -0.0000004760   0.0000002078
       -0.0000003739  -0.0000001565  -0.0000001098  -0.0000007435  -0.0000010562
        0.0000000418  -0.0000007405  -0.0000009395  -0.0000002630  -0.0000002750
       -0.0000006816  -0.0000002701  -0.0000005662  -0.0000011870  -0.0000003742
        0.0000002201  -0.0000009078   0.0000002285   0.0000006896   0.0000028400
       -0.0000001631  -0.0000048759   0.0000001649  -0.0000008904  -0.0000004994
       -0.0000017536  -0.0000006691  -0.0000006781  -0.0000000217  -0.0000008499
       -0.0000005482   0.0000002490  -0.0000013689  -0.0000006025  -0.0000011418
       -0.0000011283  -0.0000011537  -0.0000006753  -0.0000001113  -0.0000002970
       -0.0000001477  -0.0000008722   0.0000000694   0.0000010523   0.0000005928
        0.0000013519  -0.0000029079  -0.0000020657  -0.0000072175  -0.0000063907
       -0.0000024490   0.0000150302  -0.0000086059  -0.0000037790   0.0005308641
        0.0000572633   0.0003088983  -0.0000559306  -0.0000337214  -0.0000973521
       -0.0000132244  -0.0000107502  -0.0000258796  -0.0000112854  -0.0000164861
       -0.0000075647  -0.0000071425   0.0000352300  -0.0000190727   0.0000228147
       -0.0000373157   0.0000375008   0.0000494659   0.0000256263   0.0000416812
       -0.0620848262   0.0088497366  -0.0014703671  -0.2227241995  -0.0695591705
       -0.1407520950  -0.2731718639   0.0664679590   0.0459279512   0.0032415130
       -0.0126300225  -0.0178257483  -0.0049696065   0.0025281119   0.0009575870
       -0.0000014711   0.0000172301  -0.0000059456  -0.0000056192   0.0000021348
       -0.0000005017   0.0000001864   0.0000009190   0.0000000654  -0.0000029923
       -0.0000007329  -0.0000000977   0.0000004394  -0.0000000028   0.0000006709
        0.0000000291  -0.0000012331   0.0000010746  -0.0000006602  -0.0000010101
        0.0000007724  -0.0000008570  -0.0000005461   0.0000002908  -0.0000009455
       -0.0000009733   0.0000000314  -0.0000014867  -0.0000007143  -0.0000004727
       -0.0000012522   0.0000000611  -0.0000008396  -0.0000003224   0.0000000828
       -0.0000003457  -0.0000016541  -0.0000002235   0.0000006276  -0.0000018424
        0.0000010346   0.0000002609  -0.0000011326   0.0000016333  -0.0000008756
       -0.0000003920   0.0000002518  -0.0000015213  -0.0000005876  -0.0000005864
       -0.0000003927  -0.0000035169   0.0000012412   0.0000003418   0.0000007206
        0.0000021674   0.0000002714  -0.0000046226   0.0000002530   0.0000008061
        0.0000006134  -0.0000079117   0.0000034444  -0.0001076288  -0.0000153625
        0.0000233400  -0.0000086868  -0.0000326365   0.0000042500   0.0000069580
       -0.0000113676   0.0000103268  -0.0000057777  -0.0000107123   0.0000121498
        0.0000272192  -0.0000294451   0.0000490017  -0.0050851782   0.0023818772
        0.0006665583   0.0036989856   0.0009028467   0.0025551653
       -0.0597998069   0.2941082769   0.2450421857   0.0094561697  -0.1422189364
       -0.1328029857   0.0523599120  -0.0095598138  -0.0054545427  -0.0124320705
       -0.0203424707  -0.0229813794   0.0006368851  -0.0007301611  -0.0000865475
       -0.0000824150   0.0000864533   0.0003166029   0.0001138381   0.0001957275
       -0.0000854576   0.0000727884  -0.0001665422  -0.0000620492  -0.0000071602
        0.0000077632   0.0000496275   0.0000127376  -0.0000127357   0.0000013653
        0.0000055701  -0.0000039697  -0.0000025821   0.0000010460   0.0000001978
       -0.0000011740  -0.0000060451   0.0000011127   0.0000016014   0.0000043719
       -0.0000066249  -0.0000021083   0.0000004671  -0.0000007498  -0.0000001362
       -0.0000001648  -0.0000000699  -0.0000014158   0.0000002630  -0.0000016868
        0.0000004956  -0.0000019276   0.0000028876  -0.0000018486   0.0000028879
       -0.0000013655   0.0000000317  -0.0000004246  -0.0000012143  -0.0000029006
        0.0000002509   0.0000002489  -0.0000017671  -0.0000000162   0.0000005991
       -0.0000024566  -0.0000001309   0.0000008288  -0.0000016576  -0.0000001312
        0.0000002303  -0.0000026070  -0.0000001430   0.0000004972  -0.0000009527
       -0.0000003562  -0.0000009081  -0.0000023647   0.0000001377   0.0000006696
        0.0000002718  -0.0000003336   0.0000008192  -0.0000009894   0.0000003567
        0.0000001430   0.0000003152   0.0000000997   0.0000006949  -0.0000008606
       -0.0000006048   0.0000003509   0.0000001888  -0.0000015487  -0.0000012635
       -0.0000006337   0.0000015273   0.0000021788  -0.0000002537  -0.0000002636
       -0.0000001642   0.0000003697  -0.0000015133   0.0000005752   0.0000013213
        0.0000021642  -0.0000012001   0.0000029100  -0.0000007703  -0.0000005276
        0.0000017619   0.0000013030   0.0000000758   0.0000011706   0.0000000714
        0.0000004407  -0.0000014212  -0.0000006423   0.0000000924   0.0000026545
        0.0000004833   0.0000013613  -0.0000005327  -0.0000049864   0.0000036662
       -0.0000066989   0.0000098203   0.0000048113   0.0000068518  -0.0003005126
        0.0000365260  -0.0000332244   0.0000393487  -0.0000094741  -0.0000539664
        0.0000184172   0.0000389229   0.0000337925   0.0000052360  -0.0000074727
        0.0000001268   0.0000023807  -0.0000110218  -0.0000242849  -0.0000229294
       -0.0000241443  -0.0000204870   0.0000641019   0.0000546208   0.0000001415
       -0.0248218279   0.0196913317   0.0221586073  -0.0256268804  -0.0845524993
       -0.0599141162   0.0664515171  -0.0561521710  -0.0176289439   0.0008722615
       -0.0055640821  -0.0093431478   0.0022986568   0.0054874634  -0.0037095605
        0.0000005587   0.0000043305  -0.0000032424   0.0000035999   0.0000033956
       -0.0000016951  -0.0000017371   0.0000026802   0.0000008513   0.0000012012
        0.0000017716  -0.0000000016  -0.0000003659  -0.0000007367  -0.0000021266
       -0.0000005192   0.0000002538  -0.0000035916   0.0000000564  -0.0000006454
       -0.0000031670  -0.0000006788   0.0000001379  -0.0000021817   0.0000008794
        0.0000003591  -0.0000012896   0.0000002356   0.0000003315  -0.0000001043
       -0.0000000358   0.0000008611   0.0000011168  -0.0000009577   0.0000011052
        0.0000009908   0.0000003451  -0.0000009586   0.0000005494   0.0000000322
       -0.0000006516   0.0000021678  -0.0000003934   0.0000001634   0.0000030586
       -0.0000004047   0.0000008654   0.0000023007  -0.0000004834   0.0000015392
        0.0000013614   0.0000001018  -0.0000009801   0.0000005759  -0.0000023817
       -0.0000010212   0.0000015672   0.0000034869  -0.0000004661   0.0000017974
       -0.0000053116   0.0000044909  -0.0000002344   0.0000034962  -0.0000153988
       -0.0000258683  -0.0000018060   0.0000038268   0.0000035535   0.0000028218
        0.0000059982  -0.0000046824  -0.0000031685  -0.0000000969   0.0000095114
        0.0000065030  -0.0000086845   0.0000015399   0.0027188938   0.0054843115
       -0.0033411383  -0.0120454342  -0.0058450803  -0.0120279582
        0.0320979561   0.2450421857   0.4799538667   0.0011771671  -0.1237766774
       -0.2253576822   0.0767303888  -0.0118157973  -0.0006044830  -0.0166854851
       -0.0233935754  -0.0438797477   0.0003225716  -0.0004193446  -0.0004095150
        0.0000675083  -0.0000845188   0.0003359115   0.0000591811   0.0002433925
       -0.0000707957   0.0001631282  -0.0001541354  -0.0000578074  -0.0000235223
        0.0000038447   0.0000722467   0.0000202932  -0.0000157028   0.0000052303
        0.0000063086  -0.0000036546  -0.0000059888   0.0000014171   0.0000017115
       -0.0000003153  -0.0000092948   0.0000029607   0.0000030222   0.0000105114
       -0.0000075312  -0.0000038386  -0.0000018521  -0.0000005579  -0.0000015448
        0.0000019871  -0.0000006890  -0.0000010859  -0.0000011970   0.0000012660
        0.0000028854  -0.0000022803   0.0000009898   0.0000011597   0.0000023207
       -0.0000019773   0.0000002187  -0.0000003008  -0.0000011140  -0.0000027576
        0.0000010979  -0.0000005527  -0.0000015381   0.0000017552  -0.0000005635
        0.0000013419  -0.0000005754  -0.0000005964   0.0000001502  -0.0000002637
        0.0000010879   0.0000019252  -0.0000012511  -0.0000013220  -0.0000001494
       -0.0000008140  -0.0000003904  -0.0000025179  -0.0000000939   0.0000001701
        0.0000031675  -0.0000008795  -0.0000006175  -0.0000002759  -0.0000001649
        0.0000006403   0.0000028604  -0.0000024715  -0.0000024860  -0.0000022153
       -0.0000009176   0.0000010676   0.0000015524   0.0000016540   0.0000013254
       -0.0000011260  -0.0000012846   0.0000001312   0.0000006319   0.0000001195
        0.0000003913  -0.0000005605  -0.0000016012  -0.0000013151  -0.0000011151
       -0.0000029947   0.0000002961  -0.0000008139   0.0000036323  -0.0000007851
        0.0000022020   0.0000001175  -0.0000001207   0.0000000698   0.0000013339
       -0.0000030528   0.0000001963  -0.0000036288   0.0000024083   0.0000009231
        0.0000038200   0.0000009448  -0.0000010315  -0.0000081184   0.0000043113
       -0.0000116561   0.0000202396   0.0000038647   0.0000094758  -0.0002739017
        0.0000383405   0.0000207673  -0.0001005671  -0.0001056935  -0.0000772366
       -0.0001578873  -0.0000625243   0.0000271202  -0.0000000425   0.0000679845
        0.0000647033  -0.0000413065   0.0000201724  -0.0000833971   0.0000040297
       -0.0001128595  -0.0000103847   0.0001391713   0.0001232556   0.0000997963
       -0.0505156533   0.0294734707   0.0336889489  -0.0748051413  -0.0689369173
       -0.1670980421   0.0458866531  -0.0176527485  -0.0500323915   0.0016852146
       -0.0119145193  -0.0161628811   0.0006299492  -0.0033135377   0.0031729228
        0.0000014916   0.0000149278  -0.0000057076   0.0000039512   0.0000065400
       -0.0000023388  -0.0000022914   0.0000042275   0.0000013331   0.0000010353
        0.0000019912   0.0000006844  -0.0000007341  -0.0000003136   0.0000001340
       -0.0000005777  -0.0000000005  -0.0000001634  -0.0000001051  -0.0000001047
       -0.0000004616  -0.0000002719  -0.0000003327  -0.0000003852  -0.0000002227
       -0.0000002521  -0.0000003206  -0.0000002887  -0.0000000204   0.0000003686
       -0.0000004614  -0.0000005251  -0.0000003140  -0.0000024007  -0.0000001298
        0.0000015542   0.0000026164   0.0000020163   0.0000005860  -0.0000002287
        0.0000000409   0.0000003650  -0.0000008309  -0.0000002893   0.0000006697
       -0.0000021899  -0.0000008484  -0.0000007770  -0.0000006857  -0.0000000075
        0.0000016439   0.0000004726  -0.0000004767  -0.0000001795  -0.0000022409
        0.0000001419   0.0000003052   0.0000043378  -0.0000021191   0.0000009938
       -0.0000078755   0.0000048933  -0.0000021982  -0.0000343755  -0.0000252097
       -0.0000112870  -0.0000118380  -0.0000178222   0.0000112690   0.0000047780
        0.0000036942  -0.0000070923  -0.0000078211  -0.0000062831   0.0000175994
        0.0000095798  -0.0000201960   0.0000128527   0.0011099660  -0.0036032261
        0.0031161051  -0.0174588245  -0.0096106518  -0.0167256404
       -0.1045693154   0.0094561697   0.0011771671   0.6597249639  -0.0446823559
        0.0463343019  -0.3115488603   0.0881613976   0.0718829260  -0.0619974220
       -0.0228499353  -0.0462122305   0.0007684076  -0.0029278080  -0.0041407130
       -0.0008297243   0.0008566203   0.0010625883   0.0011707550   0.0002345061
       -0.0001783143  -0.0001944266  -0.0005578259   0.0000028197  -0.0000287660
        0.0000134289   0.0001558980   0.0000014989  -0.0000892044   0.0000089389
        0.0000223946  -0.0000141796  -0.0000032222  -0.0000147662   0.0000087702
       -0.0000062785   0.0000027162   0.0000050050   0.0000056621   0.0000113571
       -0.0000049049   0.0000023487   0.0000042927  -0.0000031047  -0.0000038478
       -0.0000000964   0.0000005390   0.0000007025  -0.0000008963   0.0000048433
       -0.0000003200  -0.0000037499  -0.0000042427  -0.0000002764   0.0000051621
       -0.0000035932   0.0000030833  -0.0000003404  -0.0000002766   0.0000024892
        0.0000003431   0.0000011041   0.0000028782   0.0000010675   0.0000009332
        0.0000035747   0.0000012283  -0.0000006256   0.0000037768   0.0000002542
        0.0000004303   0.0000024539   0.0000005678  -0.0000010988   0.0000021776
        0.0000007588   0.0000011859   0.0000011144   0.0000001845  -0.0000016827
        0.0000008806   0.0000002890  -0.0000002251  -0.0000000510   0.0000011778
       -0.0000003168  -0.0000008886   0.0000015209  -0.0000018678   0.0000000330
       -0.0000004262  -0.0000006655  -0.0000000975   0.0000066545   0.0000066442
        0.0000000324  -0.0000074090  -0.0000036875  -0.0000000110  -0.0000002409
        0.0000027662  -0.0000023633   0.0000003513  -0.0000008851  -0.0000009612
        0.0000008300   0.0000018704  -0.0000024640   0.0000009381  -0.0000002231
       -0.0000037884   0.0000009447  -0.0000010426  -0.0000020190   0.0000014617
       -0.0000018798  -0.0000012516   0.0000035618   0.0000072106   0.0000050359
        0.0000048842   0.0000085987  -0.0000022113   0.0000082669   0.0000084032
       -0.0000315990   0.0000017729   0.0000781649   0.0000160094  -0.0016169593
        0.0003234042  -0.0002512122  -0.0000287696  -0.0000132394  -0.0001201466
       -0.0000890273  -0.0000296569   0.0000180077   0.0000006101   0.0000500373
        0.0000595596  -0.0000273953   0.0000372788  -0.0000516985   0.0000149673
       -0.0000893008   0.0000187154   0.0000763258   0.0000630592   0.0000502900
       -0.0271069967   0.0206765127   0.0259673060   0.0475231324  -0.0091695269
       -0.0037501662  -0.0082040716   0.0168093436   0.0224627666  -0.1834409480
       -0.0584577042  -0.1141748887  -0.0071297442   0.0031825826   0.0028775729
       -0.0000148171   0.0000380318  -0.0000066855   0.0000016671   0.0000094313
       -0.0000003838  -0.0000022141  -0.0000013260  -0.0000010501  -0.0000017597
       -0.0000007720   0.0000011056   0.0000000767  -0.0000002644   0.0000031168
        0.0000000211  -0.0000006854   0.0000046070  -0.0000004228  -0.0000004240
        0.0000042817  -0.0000003530  -0.0000005121   0.0000027562  -0.0000006035
       -0.0000006691   0.0000014889  -0.0000008535  -0.0000010433  -0.0000001332
       -0.0000008659  -0.0000007420  -0.0000015011  -0.0000004183  -0.0000002661
       -0.0000013089  -0.0000009790   0.0000009978  -0.0000006721  -0.0000005868
        0.0000013353  -0.0000024384  -0.0000005597   0.0000007646  -0.0000036181
       -0.0000001768  -0.0000008830  -0.0000034529  -0.0000006565  -0.0000017619
       -0.0000021509  -0.0000018166  -0.0000001555  -0.0000017584  -0.0000041604
        0.0000000414  -0.0000010084   0.0000061099  -0.0000039779  -0.0000008084
       -0.0000184244  -0.0000064659  -0.0000043521  -0.0001339094  -0.0000646946
       -0.0000423576  -0.0000122887  -0.0000248997   0.0000033030   0.0000076982
       -0.0000133566   0.0000030229  -0.0000082896  -0.0000142648   0.0000077573
        0.0000310465  -0.0000385730   0.0000378749   0.0002197454   0.0002525855
        0.0006653016  -0.0025854989  -0.0012172002  -0.0038510266
        0.0540381484  -0.1422189364  -0.1237766774  -0.0446823559   0.2964475447
        0.2500143918   0.0436370071  -0.0807234558  -0.0386346008   0.0092261827
        0.0186871843   0.0276285523  -0.0032392760   0.0055336780  -0.0037044889
       -0.0000931381  -0.0005730345  -0.0005003972  -0.0007444529  -0.0002348276
        0.0003664421  -0.0000339354   0.0004969208   0.0004710305   0.0000248715
       -0.0000574412   0.0000823042  -0.0000050554   0.0000346376  -0.0000078114
       -0.0000174592   0.0000060136  -0.0000106093   0.0000042940  -0.0000061871
        0.0000035938   0.0000018132  -0.0000001276   0.0000024520  -0.0000038615
        0.0000049097  -0.0000004180  -0.0000015146   0.0000022621   0.0000006692
       -0.0000005638   0.0000006171  -0.0000005754   0.0000007793  -0.0000052335
        0.0000003169   0.0000011356   0.0000031402   0.0000003871  -0.0000001226
        0.0000019130  -0.0000004792  -0.0000002860   0.0000003189   0.0000004899
       -0.0000001369   0.0000006823  -0.0000009715  -0.0000012659   0.0000006259
       -0.0000013416  -0.0000003572   0.0000008852  -0.0000008526  -0.0000016256
        0.0000004380  -0.0000007813   0.0000002666   0.0000016724  -0.0000001221
       -0.0000010198   0.0000001376   0.0000003650  -0.0000004946   0.0000011682
        0.0000004702  -0.0000006312   0.0000011601   0.0000010610  -0.0000006691
        0.0000006947   0.0000014539   0.0000002892   0.0000019726   0.0000004632
       -0.0000007990   0.0000007364   0.0000006506  -0.0000037063  -0.0000029146
        0.0000007682   0.0000036591   0.0000035140   0.0000001938  -0.0000001124
       -0.0000027767   0.0000012538  -0.0000013843   0.0000019156   0.0000008249
        0.0000026406  -0.0000006279   0.0000016738  -0.0000005837  -0.0000005307
        0.0000013325  -0.0000005579   0.0000000777   0.0000008858  -0.0000008075
        0.0000025041  -0.0000012594   0.0000010391  -0.0000025890  -0.0000011764
       -0.0000023514  -0.0000071314  -0.0000023505   0.0000113892  -0.0000188533
       -0.0000029845   0.0000213659  -0.0000215398  -0.0000137289   0.0010830035
        0.0001776906  -0.0000735223   0.0000515452  -0.0000723417  -0.0000062375
        0.0000581281   0.0000144672  -0.0000457916  -0.0000033442  -0.0000483691
       -0.0000538605   0.0000183411   0.0000068403   0.0000475771   0.0000156834
        0.0000365779   0.0000254066  -0.0000711676  -0.0000267739  -0.0000396731
        0.0216311143  -0.0183055062  -0.0142075312  -0.0417406632  -0.0122452140
       -0.0285555983   0.0033422866  -0.0047227556  -0.0075928946  -0.0584935174
       -0.0626953693  -0.0522048321   0.0163997787  -0.0046613037  -0.0050561725
        0.0000004474  -0.0000155132   0.0000070410  -0.0000012298  -0.0000033400
       -0.0000002250   0.0000018743  -0.0000005609  -0.0000004686  -0.0000001797
        0.0000002632  -0.0000002281   0.0000008290   0.0000000241  -0.0000003626
       -0.0000004075   0.0000007228  -0.0000007121   0.0000001052   0.0000003223
       -0.0000001030  -0.0000006601   0.0000009844   0.0000002657   0.0000008623
        0.0000007148   0.0000002547   0.0000001293   0.0000007750   0.0000010486
        0.0000001672   0.0000009821   0.0000005301  -0.0000001655   0.0000017368
        0.0000007181  -0.0000005571   0.0000005048  -0.0000000567   0.0000004008
        0.0000007360   0.0000011759   0.0000001878   0.0000014192   0.0000010017
        0.0000006195   0.0000010897   0.0000001331   0.0000011534   0.0000016914
        0.0000008282  -0.0000005926   0.0000009646   0.0000007822   0.0000017753
        0.0000021459   0.0000014560   0.0000006882   0.0000044726   0.0000018119
        0.0000073292   0.0000010310   0.0000058123   0.0000430177   0.0000390915
        0.0000355796   0.0000008334   0.0000168709  -0.0000066205  -0.0000031485
        0.0000043534   0.0000090616   0.0000064373   0.0000127173  -0.0000016200
       -0.0000070825   0.0000139897   0.0000043857   0.0003491840  -0.0001558234
        0.0001728784  -0.0008295639   0.0052485742  -0.0043916383
        0.0667511335  -0.1328029857  -0.2253576822   0.0463343019   0.2500143918
        0.4867856894   0.0086844655  -0.0306256236  -0.0885733888  -0.0000008678
        0.0224771029   0.0326955622  -0.0046261849  -0.0037354560   0.0007699979
        0.0008484415  -0.0006740530  -0.0004855535   0.0001286427  -0.0001403802
       -0.0000742634   0.0000287273  -0.0002574570  -0.0001734897  -0.0001318902
        0.0000591867  -0.0000442691   0.0000296866   0.0000126412  -0.0000022362
       -0.0000043243  -0.0000046372   0.0000138332   0.0000010406   0.0000130746
       -0.0000004351  -0.0000111507  -0.0000002982  -0.0000007309   0.0000110479
       -0.0000036997   0.0000011721  -0.0000026418  -0.0000011878  -0.0000021179
        0.0000025505  -0.0000005739  -0.0000021029  -0.0000047511   0.0000046288
        0.0000017727  -0.0000007278  -0.0000012289  -0.0000004524   0.0000050085
       -0.0000014400   0.0000022925  -0.0000019299  -0.0000043572  -0.0000025728
        0.0000003301   0.0000011378   0.0000004868   0.0000004769  -0.0000007241
        0.0000042062   0.0000001895  -0.0000006189   0.0000035580  -0.0000000777
        0.0000016040   0.0000031843  -0.0000007303  -0.0000029088   0.0000016833
        0.0000008550   0.0000004346  -0.0000035259  -0.0000009511  -0.0000012513
        0.0000037553  -0.0000002745  -0.0000009484  -0.0000019089  -0.0000018569
       -0.0000003455   0.0000005115  -0.0000017455  -0.0000043542  -0.0000036191
       -0.0000053671   0.0000022013  -0.0000001508   0.0000079336   0.0000028422
       -0.0000016242  -0.0000043183   0.0000000185   0.0000004112  -0.0000007017
        0.0000007095  -0.0000015940  -0.0000015034  -0.0000001517  -0.0000017507
       -0.0000033912   0.0000007931  -0.0000025839   0.0000030245  -0.0000004972
       -0.0000004094   0.0000001722   0.0000001104  -0.0000008611   0.0000016023
       -0.0000035346  -0.0000008675  -0.0000025200   0.0000027748   0.0000018853
        0.0000089229   0.0000040008  -0.0000038382  -0.0000166005  -0.0000008135
       -0.0000088575   0.0000160595  -0.0000123993  -0.0000018056  -0.0012484996
        0.0006376552   0.0006010662   0.0000063482  -0.0000394293   0.0000116099
        0.0000826670   0.0000523373  -0.0000437386  -0.0000041638  -0.0000693503
       -0.0000739707   0.0000274996   0.0000134953   0.0000727984   0.0000302090
        0.0000578181   0.0000307820  -0.0000955078  -0.0000546339  -0.0000539162
        0.0272375763  -0.0145068444  -0.0212556081  -0.0519765400  -0.0216618489
       -0.0411605468   0.0029388649  -0.0047248461  -0.0054099988  -0.1141827669
       -0.0523267592  -0.1333846269   0.0220136413  -0.0075978722  -0.0056265989
       -0.0000000480   0.0000008643   0.0000024418   0.0000053744   0.0000077634
       -0.0000012775  -0.0000005130  -0.0000010258  -0.0000018639   0.0000006975
        0.0000005216   0.0000009295   0.0000005776  -0.0000005277   0.0000025332
        0.0000000773  -0.0000003238   0.0000028649   0.0000005997  -0.0000001451
        0.0000020419   0.0000004437  -0.0000005336   0.0000008503   0.0000001889
       -0.0000008317   0.0000002832   0.0000001147  -0.0000010067  -0.0000004879
       -0.0000004999  -0.0000008443  -0.0000016182  -0.0000021323   0.0000000505
        0.0000000219   0.0000029473   0.0000020477  -0.0000007229  -0.0000006272
        0.0000009657  -0.0000026179  -0.0000011771   0.0000005528  -0.0000030031
       -0.0000017076  -0.0000008173  -0.0000058975  -0.0000013252  -0.0000037898
       -0.0000021316   0.0000013347   0.0000008536  -0.0000019827  -0.0000011210
        0.0000035561  -0.0000003226   0.0000028745  -0.0000011005   0.0000021453
       -0.0000039911   0.0000057876  -0.0000034607  -0.0000115931   0.0000213981
        0.0000447569  -0.0000031069   0.0000169285  -0.0000083206  -0.0000023044
        0.0000054181   0.0000219345   0.0000109824   0.0000144363   0.0000036008
        0.0000042647   0.0000068298   0.0000091599   0.0006077376   0.0001710196
        0.0001138229  -0.0034775027  -0.0043434959   0.0005817584
        0.0019730445   0.0523599120   0.0767303888  -0.3115488603   0.0436370071
        0.0086844655   0.6515535618  -0.0637606580   0.0168031633  -0.2004400813
       -0.0305207422  -0.0739166935  -0.0416725851  -0.0014666538  -0.0122757032
        0.0016369172  -0.0041857809  -0.0045054862  -0.0017500704  -0.0015919024
        0.0005796795  -0.0014359721   0.0008648217   0.0008924209  -0.0002334839
        0.0001090713   0.0001501126  -0.0000189316   0.0001562395  -0.0000095280
       -0.0000607946   0.0000280870  -0.0000334931   0.0000401203  -0.0000156369
        0.0000121089   0.0000124791  -0.0000025612   0.0000013804  -0.0000187599
        0.0000177649  -0.0000030643  -0.0000036171   0.0000027625   0.0000065262
        0.0000025139  -0.0000002315   0.0000000734   0.0000088299  -0.0000054440
        0.0000026364   0.0000054285   0.0000023364   0.0000050638  -0.0000134228
        0.0000052753  -0.0000060977   0.0000064402   0.0000073618  -0.0000021134
       -0.0000008398  -0.0000056643  -0.0000005097   0.0000031033   0.0000011436
       -0.0000017069  -0.0000009298   0.0000005900  -0.0000022496   0.0000014648
       -0.0000036627  -0.0000007703  -0.0000026262   0.0000031049  -0.0000023303
       -0.0000012368  -0.0000045535   0.0000000466   0.0000006664   0.0000012340
       -0.0000015739  -0.0000008730  -0.0000025365  -0.0000000928   0.0000032910
       -0.0000008986   0.0000003388  -0.0000024474   0.0000017947  -0.0000009916
        0.0000116787  -0.0000044085   0.0000034589  -0.0000146116  -0.0000062047
        0.0000000724   0.0000069845   0.0000021051  -0.0000037474   0.0000021958
       -0.0000060651   0.0000013363   0.0000009377   0.0000001927  -0.0000025485
        0.0000004525  -0.0000014353  -0.0000009403  -0.0000005547  -0.0000015711
        0.0000008014  -0.0000007905  -0.0000009500   0.0000003421  -0.0000019411
        0.0000012457  -0.0000005546  -0.0000006732  -0.0000065370  -0.0000089773
       -0.0000119157  -0.0000233446   0.0000026994  -0.0000306335  -0.0000363117
        0.0000059371  -0.0000429363  -0.0001116320  -0.0000455930  -0.0015852282
        0.0032048716   0.0012715444  -0.0000025524   0.0000763266   0.0001124391
        0.0001624880   0.0002948419  -0.0002364603   0.0000353921  -0.0001161364
       -0.0000830699   0.0000699458  -0.0000700623   0.0001245915  -0.0000024785
        0.0001275501  -0.0000519452  -0.0000917043  -0.0000363134  -0.0000841285
        0.0436872983  -0.0377849019  -0.0473079586  -0.0612702275  -0.0023565453
       -0.0152749952   0.0009622922   0.0014646559   0.0006434037  -0.0247330064
        0.0049703447   0.0023587065  -0.0557145074   0.0332950063   0.0444668038
       -0.0000052286   0.0000089693   0.0000061281  -0.0000258249  -0.0000246602
        0.0000024334   0.0000041202   0.0000034523   0.0000049614  -0.0000045100
       -0.0000035417  -0.0000028493   0.0000006564   0.0000011915  -0.0000018340
        0.0000008993  -0.0000014496  -0.0000018758  -0.0000003401  -0.0000015862
       -0.0000020251  -0.0000004471  -0.0000004496  -0.0000015541  -0.0000004126
       -0.0000011365  -0.0000010382  -0.0000007753  -0.0000001421  -0.0000007233
        0.0000004203   0.0000003907   0.0000000907   0.0000020347  -0.0000012104
        0.0000007043   0.0000002299  -0.0000017893   0.0000014640   0.0000001427
       -0.0000004505   0.0000022031   0.0000010788  -0.0000004990   0.0000018800
        0.0000012618  -0.0000007973   0.0000030800   0.0000016293   0.0000009910
        0.0000031625  -0.0000061319   0.0000015566   0.0000031800   0.0000074237
       -0.0000017792  -0.0000034014  -0.0000302187   0.0000071025   0.0000004242
        0.0000251825  -0.0000531049   0.0000209437   0.0000320267  -0.0000734036
        0.0001389688   0.0000274850  -0.0000009835  -0.0000037200  -0.0000040460
        0.0000144614   0.0000222729   0.0000270195   0.0000044193   0.0000098614
        0.0000297437  -0.0000084931   0.0000511741   0.0009248304   0.0016216396
        0.0011357967  -0.0004864831   0.0000050009  -0.0003869260
        0.0189078760  -0.0095598138  -0.0118157973   0.0881613976  -0.0807234558
       -0.0306256236  -0.0637606580   0.3027688122   0.2544449380  -0.0631738964
       -0.0881505041  -0.0669198502  -0.0008233080   0.0058374471   0.0058314281
        0.0019699519  -0.0013465991  -0.0013051790  -0.0001792886  -0.0000699703
       -0.0000540326   0.0008458699   0.0000570419  -0.0000188251  -0.0002857191
       -0.0001336103  -0.0001015393   0.0001068978  -0.0000237222   0.0000067245
       -0.0000186098  -0.0000269140   0.0000282530   0.0000153003   0.0000169495
       -0.0000013382  -0.0000400739  -0.0000064035  -0.0000010758   0.0000317990
       -0.0000174599  -0.0000013597   0.0000011487  -0.0000071934  -0.0000118368
        0.0000029878  -0.0000025811  -0.0000004941  -0.0000071580   0.0000033139
       -0.0000023139  -0.0000107460  -0.0000065967  -0.0000075613   0.0000173154
       -0.0000115850   0.0000056083  -0.0000044938  -0.0000070027   0.0000006643
        0.0000041619   0.0000028890  -0.0000041187   0.0000001327  -0.0000019239
       -0.0000045662   0.0000030140  -0.0000032964  -0.0000033718  -0.0000009461
        0.0000015021  -0.0000033557   0.0000040312  -0.0000039105  -0.0000004044
        0.0000011044   0.0000032510   0.0000000351   0.0000008963  -0.0000026498
        0.0000008058   0.0000007963   0.0000018449   0.0000018176  -0.0000005154
        0.0000005681   0.0000027053   0.0000051956  -0.0000015231   0.0000031137
       -0.0000093433   0.0000019991  -0.0000023798   0.0000159863   0.0000102845
        0.0000005572  -0.0000100058  -0.0000067853   0.0000034440  -0.0000008978