$hessian                                                                        
        0.4793151972   0.0269576516   0.0349737572  -0.1342862896   0.0310589953
        0.0436651803  -0.0311526693   0.0086331442   0.0088010669  -0.0059731812
        0.0011736811   0.0068169214   0.0009993998   0.0077201388   0.0014963687
       -0.0013861648  -0.0011028666  -0.0006523719  -0.0000230958   0.0007336453
       -0.0001664378  -0.0000155597  -0.0003681862  -0.0000596374   0.0001938958
        0.0002449913   0.0001467719   0.0003319936  -0.0011062497   0.0005504806
       -0.0000810532   0.0000225328  -0.0000830669   0.0000360877  -0.0000232537
        0.0000150418  -0.0000602859  -0.0001203998  -0.0000226462  -0.0000189645
       -0.0000251927  -0.0000073109   0.0000184258  -0.0000001561   0.0000176376
        0.0000187734   0.0000032097   0.0000094543   0.0000220847  -0.0000186280
        0.0000189818   0.0002982533   0.0000299387   0.0001688714  -0.0002728567
        0.0002086556  -0.0001584983   0.0001757345  -0.0002226783   0.0001104516
       -0.0000943107   0.0002377853  -0.0000917816  -0.0000429755   0.0000520540
        0.0000950830   0.0000265563  -0.0000179577   0.0000112896  -0.0000418776
       -0.0000047006  -0.0000124402  -0.0000268882  -0.0000063496  -0.0000004213
        0.0001791963  -0.0001141255  -0.0001076913  -0.0002009999   0.0001126472
        0.0001034833   0.0000998765   0.0000565740   0.0000419120   0.0000769805
        0.0000997590  -0.0000105470   0.0002700049  -0.0001013931  -0.0000632105
       -0.0001604228   0.0001036195   0.0000997592  -0.0000849682  -0.0000829317
       -0.0000036943  -0.0000227199   0.0001961703   0.0000221399   0.0000359799
       -0.0001700805  -0.0000110593  -0.0000670608  -0.0000556281   0.0000361806
        0.0000222657   0.0000243424   0.0000020094   0.0000248239   0.0000033484
        0.0000079499   0.0000605937  -0.0000090408   0.0000087235   0.0000318171
        0.0000091886  -0.0000133333   0.0001009123  -0.0000116948  -0.0000588346
        0.0000442725   0.0000943994  -0.0000281534  -0.0000311490  -0.0000892079
        0.0000199106   0.0000349987  -0.0000937088  -0.0000256674   0.0000403798
        0.0000840415  -0.0000249228   0.0000037428  -0.0000166891   0.0000021600
       -0.0000165906   0.0000113713   0.0000005992  -0.0000076220   0.0000109524
        0.0000149242  -0.0000024935  -0.0000036796   0.0000034752   0.0000925425
        0.0000754157  -0.0000591538  -0.0001140653  -0.0000077058   0.0000695915
        0.0000611259   0.0001098267   0.0000116816  -0.0001828888  -0.0000900660
       -0.0000011408   0.0000185234  -0.0000589056  -0.0000524023  -0.0001019460
       -0.0000493022  -0.0000607593   0.0001036999   0.0000681624   0.0000098186
       -0.0447729146  -0.0094149885   0.0164615483  -0.2135013118  -0.0312380597
       -0.1058836792  -0.0467796175  -0.0332468458  -0.0048771568   0.0006799844
        0.0001922786   0.0010539658   0.0004825949   0.0010540738   0.0008113925
       -0.0055430421  -0.0006609501  -0.0022527491   0.0002264790  -0.0002999572
        0.0008032406   0.0008110349   0.0000554910  -0.0009797241   0.0001469211
        0.0003002691  -0.0004085265   0.0000731600  -0.0007600455  -0.0004342022
       -0.0000117016  -0.0000184041   0.0000281767   0.0000701837  -0.0000564288
        0.0000808620   0.0000149053   0.0000192373   0.0000110765  -0.0000053860
        0.0000133835   0.0000012242   0.0000058641  -0.0000038836  -0.0000007363
       -0.0000007890  -0.0000013552  -0.0000073411  -0.0000003579   0.0000139731
       -0.0000073629  -0.0000036463  -0.0000009987  -0.0000031495   0.0000024999
       -0.0000028257   0.0000038153   0.0000022797   0.0000014070  -0.0000099760
        0.0000017066   0.0000021963   0.0000003035  -0.0000068468  -0.0000002293
        0.0000024467   0.0000073445  -0.0000017528   0.0000000276  -0.0000097931
       -0.0000038946   0.0000033536   0.0000284943  -0.0000042115  -0.0000120684
        0.0000092538  -0.0000138576  -0.0000087467   0.0000043865   0.0000280275
        0.0000231560   0.0000005036  -0.0000340588  -0.0000054520  -0.0000181005
       -0.0000115266  -0.0000008915  -0.0000030265  -0.0000222725   0.0000001332
       -0.0000217560   0.0000014520   0.0000055281  -0.0000072631  -0.0000038570
       -0.0000132724  -0.0000101081   0.0000113403   0.0000006392  -0.0000174566
       -0.0000056191  -0.0000006666  -0.0000199950  -0.0000037536  -0.0000139634
       -0.0000073189   0.0000047034   0.0000015499  -0.0000417561  -0.0000044470
        0.0000145393  -0.0000090987   0.0000002087  -0.0000031223  -0.0000058202
        0.0000080562   0.0000078590  -0.0000130337  -0.0000060327   0.0000088234
       -0.0000179466  -0.0000020997   0.0000098974  -0.0000068377   0.0000054179
        0.0000043962   0.0000031676  -0.0000015847  -0.0000031111  -0.0000056101
       -0.0000061679   0.0000095540   0.0000022808   0.0000010122  -0.0000021803
        0.0000044039  -0.0000013788  -0.0000012662  -0.0000105644  -0.0000059485
        0.0000006601   0.0000023342   0.0000010361  -0.0000024446  -0.0000078261
       -0.0000017473   0.0000055594   0.0000038452  -0.0000005924  -0.0000022872
        0.0000035189  -0.0000012530  -0.0000026706  -0.0000043615  -0.0000171648
        0.0000031298   0.0000071066  -0.0000091692  -0.0000026555  -0.0000041855
        0.0000039730  -0.0000038656   0.0000041800  -0.0000156391   0.0000099160
        0.0269576516   0.5081366940  -0.0165758695   0.0379954128  -0.0770253896
       -0.0249258682  -0.0017099592   0.0010406518   0.0010688278  -0.0068262138
        0.0036397316   0.0052529819   0.0209977892  -0.0211190252  -0.0139372476
        0.0004172557  -0.0010310434  -0.0007539584  -0.0001359148   0.0008367808
        0.0006834653   0.0004341680  -0.0001450797   0.0003962603  -0.0005538990
       -0.0007270654   0.0012766855  -0.0009802423  -0.0024405156  -0.0014145528
        0.0000526795  -0.0003954581   0.0001581852  -0.0002171682   0.0000708990
       -0.0001116469  -0.0000137446  -0.0001111877  -0.0000096792   0.0000027286
       -0.0000067400  -0.0000027755   0.0000001860   0.0000128419   0.0000114571
        0.0000053817   0.0000108693   0.0000010266  -0.0000084685   0.0000197449
       -0.0000044588  -0.0000409291   0.0000806147  -0.0000326912   0.0001166172
       -0.0000584186   0.0000447735   0.0000281932   0.0000431661  -0.0000809814
        0.0001273333  -0.0001598579  -0.0001254792   0.0000568145   0.0000563997
        0.0000529510   0.0001408321   0.0000520876   0.0001059821  -0.0001639714
       -0.0000863181  -0.0000653624   0.0000791501  -0.0000302661  -0.0000294250
        0.0001152885  -0.0000843302  -0.0000775960  -0.0002405554   0.0000307745
        0.0000280893   0.0002181732  -0.0000294618  -0.0000251562  -0.0000707013
        0.0001075790   0.0000520549   0.0001520713  -0.0000260934  -0.0000194499
       -0.0000580491   0.0000377597   0.0000434438   0.0000406832   0.0000381354
       -0.0000552269  -0.0000283892  -0.0001203086   0.0000224970  -0.0000408537
        0.0000749691   0.0000377658  -0.0000220556  -0.0000997663   0.0000036850
       -0.0000177892  -0.0000309931   0.0000114038   0.0000288349   0.0000285548
        0.0000020389   0.0000005556   0.0000159844  -0.0000046270   0.0000098121
        0.0000286029  -0.0000165502   0.0000533897   0.0001798819  -0.0000220618
       -0.0000548755  -0.0002321544   0.0000267330   0.0001482533   0.0001543226
       -0.0000834664  -0.0001087799  -0.0001180842   0.0000619849   0.0000520539
        0.0000803960  -0.0000284323   0.0000211222  -0.0000143292  -0.0000079788
       -0.0000238713   0.0000031318   0.0000043326  -0.0000133878   0.0000050164
        0.0000221158  -0.0000180452  -0.0000141935   0.0000139566  -0.0000744334
        0.0000136226   0.0000434814   0.0000742857   0.0001057874  -0.0000402186
        0.0000092164  -0.0000717165   0.0000135763  -0.0002046342   0.0000248873
        0.0000503857   0.0002496317  -0.0000710462  -0.0000577172  -0.0002982094
       -0.0000779595  -0.0000719280   0.0001299623   0.0001613427   0.0000811659
       -0.0094585153  -0.0903429905   0.0943080336  -0.0311428278  -0.0486306470
       -0.0181841500  -0.0327528367  -0.2727766354  -0.0289394376   0.0000561793
        0.0001324053  -0.0001190030  -0.0012522612   0.0007128837   0.0001936147
       -0.0012405461   0.0002493069  -0.0003070445  -0.0008854940  -0.0002569933
        0.0026133740  -0.0001438131   0.0002296044  -0.0000337263  -0.0006361507
        0.0008427131   0.0005307556   0.0005621118  -0.0007740080  -0.0005740223
        0.0000489100   0.0000009042  -0.0000450066   0.0001250293   0.0000030693
       -0.0004067843  -0.0000012835  -0.0000141320  -0.0000141606   0.0000017663
       -0.0000008351  -0.0000055594   0.0000131044  -0.0000094011  -0.0000013056
       -0.0000006641  -0.0000021386  -0.0000012807  -0.0000039276  -0.0000004364
       -0.0000025507  -0.0000015055  -0.0000021268   0.0000010233   0.0000016810
       -0.0000083158   0.0000103001   0.0000009594  -0.0000071609  -0.0000043318
        0.0000020807  -0.0000090930   0.0000054665   0.0000017072  -0.0000080220
        0.0000030395   0.0000054197  -0.0000182514   0.0000038313  -0.0000133347
       -0.0000267814   0.0000092742   0.0000085698  -0.0000005561  -0.0000130262
        0.0000003240  -0.0000089170  -0.0000197773  -0.0000029435   0.0000148920
        0.0000168938  -0.0000055357  -0.0000287119  -0.0000095527  -0.0000207911
       -0.0000019320  -0.0000040987  -0.0000045372  -0.0000086416   0.0000026060
        0.0000058843   0.0000006927  -0.0000043105   0.0000002050  -0.0000137798
       -0.0000026858  -0.0000150430   0.0000197671  -0.0000018656   0.0000072664
       -0.0000024053  -0.0000031728  -0.0000016441  -0.0000107574   0.0000037635
       -0.0000066458   0.0000246480   0.0000011262  -0.0000083466  -0.0000103580
       -0.0000021192  -0.0000033719  -0.0000103942  -0.0000045094  -0.0000067644
        0.0000212032   0.0000136222   0.0000048989  -0.0000005495  -0.0000087498
       -0.0000221187   0.0000042972   0.0000127675  -0.0000084603   0.0000160334
       -0.0000032433   0.0000040626   0.0000037795  -0.0000116749  -0.0000117485
       -0.0000082312   0.0000109408   0.0000040400   0.0000027604  -0.0000055565
        0.0000122541   0.0000034329   0.0000000064  -0.0000129513  -0.0000086644
        0.0000047155   0.0000091013   0.0000008012  -0.0000026321  -0.0000134950
        0.0000044463   0.0000103094   0.0000139212  -0.0000047115   0.0000003616
        0.0000037844   0.0000005526  -0.0000071137  -0.0000073277  -0.0000213405
        0.0000030171   0.0000124490  -0.0000053331  -0.0000049966  -0.0000104332
        0.0000060596  -0.0000005027  -0.0000007781  -0.0000254284  -0.0000017932
        0.0349737572  -0.0165758695   0.5001272593   0.0446116156  -0.0208375366
       -0.0888075042  -0.0099587158   0.0036205577   0.0044554404   0.0230971588
       -0.0069489961  -0.0210036585   0.0037578076  -0.0062971679  -0.0019002766
       -0.0003233459   0.0000725606   0.0001063815   0.0001116150   0.0001586921
        0.0001535273   0.0000780284  -0.0001088960   0.0000715430  -0.0001449223
       -0.0002730047   0.0001095059  -0.0000325256   0.0004631957  -0.0007471554
       -0.0000233829  -0.0000089073   0.0000589389  -0.0000238480   0.0000024224
       -0.0000312654   0.0000030984  -0.0000083851  -0.0000013052   0.0000011191
       -0.0000010369  -0.0000045575   0.0000032942   0.0000022554  -0.0000073419
        0.0000054228  -0.0000023830  -0.0000078460   0.0000069694   0.0000026867
       -0.0000115865  -0.0000272025   0.0000116973  -0.0000138038   0.0000367152
       -0.0000199143   0.0000213407  -0.0000185880   0.0000124852  -0.0000323928
        0.0000458581  -0.0000253689   0.0000099593   0.0000360629   0.0000013523
        0.0000096347  -0.0000468911  -0.0000404559  -0.0000279155   0.0000753983
        0.0000339956   0.0000264232  -0.0000548093   0.0000008854   0.0000074194
        0.0000106173   0.0000233086   0.0000139541   0.0000389960   0.0000122738
        0.0000130945  -0.0000543628   0.0000235841   0.0000192620   0.0000447315
       -0.0000177631  -0.0000229907  -0.0000061272  -0.0000132056  -0.0000063741
        0.0000096999  -0.0000065964  -0.0000052302   0.0000554832   0.0000438432
       -0.0000333032   0.0000122440  -0.0001222940  -0.0000021196  -0.0000053774
        0.0001056629   0.0000187252  -0.0000024497  -0.0000210412  -0.0000025965
       -0.0000005039   0.0000019285  -0.0000120981   0.0000116069   0.0000074559
       -0.0000036664   0.0000139776   0.0000093294  -0.0000229342  -0.0000042159
        0.0000089204  -0.0000158182  -0.0000157263   0.0001183394   0.0000147311
       -0.0000428224  -0.0001686028   0.0000239410   0.0001006130   0.0001190160
       -0.0000635110  -0.0000920734  -0.0000289859   0.0000533250   0.0000055102
        0.0000248534   0.0000004849   0.0000015914  -0.0000021525  -0.0000035678
       -0.0000039346  -0.0000008655  -0.0000022286  -0.0000025771  -0.0000001964
        0.0000012790  -0.0000049566  -0.0000015436   0.0000009061  -0.0000758497
       -0.0000333054   0.0000478053   0.0000917479   0.0000560480  -0.0000572178
       -0.0000097375  -0.0000820007   0.0000043463   0.0000454652  -0.0000289164
       -0.0000341100  -0.0000847342   0.0000151125   0.0000128454   0.0000914548
        0.0000300905   0.0000219023  -0.0000685880  -0.0000240261  -0.0000447097
        0.0167696860   0.0940436210  -0.2332267785  -0.1062232516  -0.0183037928
       -0.1081392338  -0.0049451889  -0.0286005523  -0.0473486121  -0.0009595344
        0.0000060234   0.0008651915  -0.0004563131   0.0004119213   0.0003010597
       -0.0033221256  -0.0003922726  -0.0006822204   0.0016518641   0.0020314591
       -0.0056803853   0.0009351860  -0.0005882192   0.0009587110   0.0000399047
       -0.0009151568   0.0007480421   0.0003141700  -0.0007888876  -0.0004085056
        0.0000354327  -0.0000040255  -0.0000068639  -0.0000140385  -0.0001368647
        0.0000102434  -0.0000054004  -0.0000104177   0.0000069219  -0.0000000422
        0.0000040635   0.0000023034  -0.0000001058  -0.0000004430   0.0000023508
       -0.0000029480  -0.0000032001   0.0000061381  -0.0000010756   0.0000023163
        0.0000011207  -0.0000038629  -0.0000003023   0.0000053606  -0.0000011673
       -0.0000005439   0.0000039253  -0.0000022294  -0.0000070625   0.0000012013
       -0.0000022935  -0.0000017957   0.0000032799  -0.0000044143   0.0000023070
        0.0000061622   0.0000019498  -0.0000004948   0.0000032401   0.0000034697
       -0.0000016941   0.0000020558  -0.0000058407   0.0000007765   0.0000040876
       -0.0000005604   0.0000021611   0.0000002647   0.0000003935  -0.0000029745
       -0.0000039417  -0.0000012732  -0.0000015625   0.0000010134  -0.0000029348
       -0.0000020921   0.0000019778  -0.0000097884  -0.0000079921   0.0000036566
       -0.0000156613  -0.0000035970  -0.0000041338   0.0000003522  -0.0000032322
        0.0000037034  -0.0000047654   0.0000022385   0.0000014341   0.0000010942
        0.0000014010   0.0000001681  -0.0000069079  -0.0000046893   0.0000080012
       -0.0000029630   0.0000014410   0.0000035133  -0.0000146498  -0.0000051155
        0.0000121845   0.0000011843  -0.0000058885   0.0000143317  -0.0000031459
        0.0000034581   0.0000088416   0.0000049402   0.0000070086   0.0000042824
       -0.0000043617  -0.0000014496   0.0000045297  -0.0000012734   0.0000019480
       -0.0000001888   0.0000001245   0.0000005947  -0.0000006539  -0.0000005014
       -0.0000014135   0.0000016245   0.0000008994  -0.0000030292   0.0000023412
        0.0000014296   0.0000014348   0.0000009885   0.0000001485  -0.0000010356
        0.0000005558   0.0000017179  -0.0000025950   0.0000014317  -0.0000002531
        0.0000014892   0.0000009943   0.0000024696  -0.0000009673  -0.0000000300
        0.0000000090   0.0000001499   0.0000002748  -0.0000011789  -0.0000004711
        0.0000000946   0.0000006904   0.0000012178   0.0000008397  -0.0000003272
       -0.0000012104   0.0000063816   0.0000038701  -0.0000051247   0.0000118327
       -0.1342862896   0.0379954128   0.0446116156   0.4769038088   0.0114887814
        0.0140384667  -0.1465245243  -0.0226943366  -0.0523890068  -0.0623072167
       -0.0053001557   0.0069430115  -0.0644112309  -0.0186221539  -0.0063596433
       -0.0041297274  -0.0215738284  -0.0025317747  -0.0016929553  -0.0018479898
       -0.0044391914  -0.0003928508   0.0007576587  -0.0004131376  -0.0005997624
        0.0021037302  -0.0043912883   0.0032402074   0.0161202394   0.0010708626
        0.0001950965   0.0008160677   0.0000352377   0.0001268896  -0.0001188192
        0.0000636242   0.0000281709   0.0002406367  -0.0000165215  -0.0000064949
       -0.0000130633   0.0000105926  -0.0000079651  -0.0000145973  -0.0000116468
       -0.0000112927  -0.0000162579   0.0000037280  -0.0000036260  -0.0000446874
       -0.0000007809  -0.0002424000  -0.0000782517  -0.0001189765   0.0001890850
       -0.0001145862   0.0001569095  -0.0003613436   0.0003057717  -0.0000319484
       -0.0002338993  -0.0003649436   0.0005324781  -0.0000405214  -0.0001050194
       -0.0000411532   0.0000283927   0.0000834596  -0.0000368140  -0.0000405533
       -0.0000307176  -0.0000203649   0.0000965337   0.0000152303   0.0000069780
       -0.0002455019   0.0001010261   0.0000971426   0.0002284319  -0.0001270080
       -0.0001108340  -0.0001433277  -0.0000364837  -0.0000275746  -0.0000682819
       -0.0001417664   0.0000104824  -0.0003900112   0.0001665196   0.0001195593
        0.0001765125  -0.0001452434  -0.0001045809   0.0000302318  -0.0000295797
        0.0000500711   0.0000579325   0.0000077009  -0.0000314404   0.0000243618
        0.0000451722  -0.0000014664   0.0000893809   0.0001383568  -0.0000525862
        0.0000354907   0.0000053719  -0.0000131340  -0.0000036498  -0.0000324427
        0.0000026369   0.0000374673  -0.0000120052   0.0000039113   0.0000153103
       -0.0000281047   0.0000167962  -0.0001079249  -0.0001942520   0.0000535590
        0.0000174329   0.0001801053  -0.0000035702  -0.0001346238  -0.0000791517
        0.0000758137   0.0001099524   0.0001727545  -0.0000558797  -0.0000606063
       -0.0001458587   0.0000327810   0.0000029333   0.0000257710  -0.0000049602
        0.0000257243  -0.0000025028  -0.0000037948   0.0000161708  -0.0000044750
       -0.0000180416   0.0000145815   0.0000126158  -0.0000082337  -0.0000109922
       -0.0000413553   0.0000113062   0.0000162467  -0.0000576688  -0.0000117939
        0.0000036092   0.0000044754  -0.0000737090   0.0002461724   0.0001290460
       -0.0000179400  -0.0000434718   0.0000942215   0.0000760967   0.0000723368
        0.0000243822   0.0000433923  -0.0000431997  -0.0000416759   0.0000644699
       -0.0040281797   0.0011034540   0.0046382985  -0.0245343672   0.0091181332
        0.0100993469   0.0003103812   0.0018044264  -0.0002316726  -0.0006289411
        0.0008792757  -0.0024620027  -0.0047818014  -0.0042200554  -0.0030265035
       -0.0253150607  -0.0042757201  -0.0108456663  -0.0041027138  -0.0087878809
        0.0216354080  -0.0003797470   0.0096940611  -0.0226258712  -0.0004207597
       -0.0029678162   0.0043595825  -0.0004545403  -0.0003754077   0.0010932641
       -0.0003428707  -0.0011027237  -0.0003020095  -0.0007594528   0.0000438649
        0.0009596664  -0.0000233003   0.0000358190   0.0000061835   0.0000002604
        0.0000005587   0.0000051121  -0.0000074758   0.0000091398  -0.0000018272
        0.0000025804   0.0000055018   0.0000055104   0.0000071746   0.0000004004
       -0.0000013830   0.0000103298   0.0000051772  -0.0000018189  -0.0000034678
        0.0000068469  -0.0000055665  -0.0000030520   0.0000229824   0.0000072782
        0.0000036526   0.0000097610  -0.0000018491   0.0000063086   0.0000225898
       -0.0000071911   0.0000007674   0.0000149791   0.0000009292   0.0000312383
        0.0000330742  -0.0000189100  -0.0000139824  -0.0000008319   0.0000068469
       -0.0000018992  -0.0000020688   0.0000180038   0.0000013773  -0.0000256160
       -0.0000230252  -0.0000008958   0.0000270161  -0.0000065231   0.0000103085
        0.0000030709  -0.0000073846   0.0000001265  -0.0000039753  -0.0000057957
       -0.0000192514  -0.0000067363   0.0000033319  -0.0000071437   0.0000077557
       -0.0000050173   0.0000047891  -0.0000095496   0.0000004938  -0.0000131541
        0.0000054597  -0.0000014611  -0.0000097025   0.0000079718  -0.0000063845
       -0.0000028157  -0.0000138713  -0.0000040256  -0.0000160033   0.0000023540
        0.0000080152  -0.0000081056   0.0000048745  -0.0000004262  -0.0000019412
       -0.0000131698  -0.0000101512  -0.0000069601   0.0000066917   0.0000068120
        0.0000084718  -0.0000051303  -0.0000087731   0.0000030129  -0.0000114950
        0.0000020325  -0.0000034342  -0.0000040042   0.0000072285   0.0000061477
        0.0000049509  -0.0000084989  -0.0000043045  -0.0000023850   0.0000037367
       -0.0000082049  -0.0000040602  -0.0000004519   0.0000084671   0.0000049336
       -0.0000022877  -0.0000072330  -0.0000013185   0.0000006846   0.0000071189
        0.0000001774  -0.0000062062  -0.0000104791   0.0000012719   0.0000004518
       -0.0000047399  -0.0000019600   0.0000054235   0.0000026528   0.0000127971
       -0.0000017884  -0.0000094893  -0.0000002183   0.0000039036   0.0000069345
       -0.0000273086   0.0000042679   0.0000191500  -0.0000115934  -0.0000410756
        0.0310589953  -0.0770253896  -0.0208375366   0.0114887814   0.4716222320
        0.0076419085  -0.0209497409  -0.0697018023  -0.0132119394  -0.0047387837
       -0.0805288393   0.0402854553  -0.0136976599  -0.1741848076  -0.0114971984
       -0.0111852469  -0.0150093107  -0.0072493779  -0.0008684452   0.0008714151
       -0.0006896919  -0.0007688429  -0.0015050795  -0.0004354801   0.0032984349
       -0.0017631834   0.0016657325   0.0039424031  -0.0243578741   0.0016581302
       -0.0011516880   0.0004958653  -0.0006833114   0.0006619029   0.0001267384
        0.0003885924  -0.0000627783  -0.0002712838  -0.0000166447  -0.0000511371
        0.0000213601  -0.0000266297   0.0000012979  -0.0000167319  -0.0000080376
       -0.0000071435  -0.0000156302   0.0000102128   0.0000039796  -0.0000097112
        0.0000046601   0.0010216011  -0.0001970176   0.0006103411  -0.0011586049
        0.0006103292  -0.0006833715   0.0006987779  -0.0011712204   0.0003770445
       -0.0005371683   0.0011798076  -0.0003228841   0.0002054074   0.0002898609
        0.0002702714  -0.0003072179  -0.0004204608  -0.0002824325   0.0006188824
        0.0002291680   0.0001578774  -0.0005813782  -0.0000141524   0.0000122420
        0.0004044707  -0.0000793230  -0.0000840835   0.0000094284   0.0003006114
        0.0002532812  -0.0002965451   0.0002763913   0.0002208620   0.0004764652
        0.0000062509  -0.0002297655   0.0005726287  -0.0002575036  -0.0001834896
       -0.0004039276   0.0003018095   0.0002540820  -0.0003980297  -0.0003299665
        0.0001156482  -0.0000207781   0.0008083531   0.0000319010   0.0000986076
       -0.0007778051  -0.0000742580  -0.0001585821  -0.0000850250   0.0001089924
       -0.0000363034   0.0000292826   0.0000197750   0.0000237499   0.0000095948
       -0.0000206285  -0.0000149152  -0.0000347220  -0.0000156071   0.0000089473
        0.0000062872  -0.0000304867   0.0002584757  -0.0004063766  -0.0001556388
        0.0002827829   0.0008124379  -0.0001644814  -0.0004885711  -0.0006743639
        0.0002858010   0.0004187391  -0.0000496105  -0.0002516864   0.0000068147
        0.0000958176  -0.0000161207  -0.0000307043  -0.0000249154   0.0000217292
       -0.0000022865  -0.0000027751  -0.0000139343   0.0000107604   0.0000011606
        0.0000094077   0.0000056375   0.0000052822   0.0000091306   0.0005812414
        0.0002474932  -0.0003495341  -0.0006492676  -0.0003147048   0.0003847799
        0.0001474348   0.0005884378   0.0000284657  -0.0000369734  -0.0004607093
       -0.0001455965  -0.0007952866   0.0000229182   0.0000257354   0.0006627905
        0.0001542123   0.0000720724  -0.0003409263  -0.0001211088  -0.0001420644
       -0.0086593762   0.0043438246   0.0052872192  -0.0022315695   0.0012374919
        0.0022442452   0.0231212634  -0.0164759772  -0.0155800157   0.0092678608
        0.0024487327   0.0061411821  -0.0253323491  -0.0117673656  -0.0160598861
        0.0083080700   0.0022365714   0.0050147870   0.0005118405   0.0043501119
       -0.0087979248   0.0010469280   0.0013291360  -0.0026773076  -0.0032820834
       -0.0178265190   0.0271549637   0.0010916961   0.0001341544   0.0007222172
        0.0000836127  -0.0001284802   0.0000579426  -0.0011927247   0.0008165554
       -0.0006023265  -0.0000335741  -0.0000146551  -0.0000240552  -0.0000051827
        0.0000199756  -0.0000139414   0.0000168211  -0.0000079022  -0.0000027516
        0.0000034396  -0.0000040190   0.0000079027  -0.0000124557   0.0000192674
       -0.0000304593   0.0000025933   0.0000009122  -0.0000059506  -0.0000083601
       -0.0000031938   0.0000075933  -0.0000019498   0.0000025821  -0.0000027398
       -0.0000157877  -0.0000271046   0.0000085061   0.0000068533   0.0000048824
       -0.0000051849   0.0000042747  -0.0000053731  -0.0000080305   0.0000102838
       -0.0000518724   0.0000114114  -0.0000319664   0.0000036527   0.0000061497
        0.0000028624   0.0000389933   0.0000208280   0.0000071403   0.0000041797
       -0.0000079574   0.0000143887  -0.0000333685   0.0000421884   0.0000075167
       -0.0000219849   0.0000055439  -0.0000371412   0.0000194725   0.0000274867
        0.0000020347   0.0000117166   0.0000339458   0.0000107165  -0.0000170796
       -0.0000131973   0.0000026713  -0.0000023366  -0.0000038759  -0.0000056410
        0.0000222674  -0.0000003149   0.0000082065  -0.0000089522   0.0000074733
        0.0000270228   0.0000044003   0.0000027057   0.0000108261   0.0000297780
       -0.0000252129   0.0000045703   0.0000172110  -0.0000135474   0.0000188197
       -0.0000014240   0.0000136943  -0.0000067149   0.0000219978   0.0000060208
        0.0000018168   0.0000175630  -0.0000077115  -0.0000071152  -0.0000043806
       -0.0000089561  -0.0000057951  -0.0000092900  -0.0000137127  -0.0000030533
       -0.0000129804  -0.0000002559  -0.0000007831  -0.0000044354   0.0000004017
        0.0000104550  -0.0000094866   0.0000100268   0.0000116749  -0.0000145913
        0.0000017601   0.0000120691  -0.0000077355  -0.0000025055  -0.0000005223
        0.0000367813   0.0000204742   0.0000245946  -0.0000320168   0.0000089797
       -0.0000115684  -0.0000073278   0.0000016436  -0.0000085211   0.0000045243
        0.0000066952   0.0000115899   0.0000303279   0.0000107486  -0.0000055827
        0.0000272350  -0.0000466338   0.0000047986  -0.0000361593  -0.0000325019
        0.0436651803  -0.0249258682  -0.0888075042   0.0140384667   0.0076419085
        0.4632101563  -0.0523405350  -0.0143373394  -0.0958615622   0.0077799119
        0.0484653387  -0.1570453836  -0.0061767676  -0.0148395758  -0.0590612604
       -0.0024867841  -0.0135343181  -0.0024882516  -0.0043818003  -0.0012159153
        0.0025940290  -0.0003754804   0.0003320699   0.0000016415  -0.0042510697
        0.0011907079   0.0042570750   0.0007756255   0.0089201956   0.0026993750
        0.0000448445   0.0003877756   0.0001954087   0.0000199442   0.0000009389
        0.0000305289  -0.0000065310   0.0000823049   0.0000509069   0.0000074248
       -0.0000029582  -0.0000208827  -0.0000003366  -0.0000107841  -0.0000102736
       -0.0000132733  -0.0000103394  -0.0000055128  -0.0000007297  -0.0000255930
       -0.0000048384  -0.0001243121  -0.0000361649  -0.0001108832   0.0001911204
       -0.0000722093   0.0000155768  -0.0000799097   0.0002764769  -0.0002517683
        0.0006179720  -0.0000661041  -0.0006072602  -0.0000537877  -0.0000950076
       -0.0002421928  -0.0000362554   0.0000661625   0.0000913918  -0.0000062739
       -0.0000194067  -0.0000073075  -0.0000022595   0.0000940825   0.0000768307
       -0.0002041664   0.0000669548   0.0000509580   0.0002049561  -0.0001180606
       -0.0000971838  -0.0001772635   0.0000140967   0.0000118208   0.0000051197
       -0.0001785768  -0.0000835312  -0.0001269276   0.0001414173   0.0001227618
        0.0001048555  -0.0000818259  -0.0000763510   0.0000560710   0.0000270036
        0.0000149058   0.0000276847  -0.0000926757  -0.0000251001  -0.0000063591
        0.0000943062  -0.0000085994   0.0000543495   0.0000644465  -0.0000264097
        0.0000038219  -0.0000039645  -0.0000128338  -0.0000159451  -0.0000111853
       -0.0000094367  -0.0000144283  -0.0000059898  -0.0000162375  -0.0000162365
       -0.0000168845  -0.0000027184  -0.0000792576  -0.0000311420   0.0000423047
       -0.0000166292  -0.0000159795   0.0000131621  -0.0000098465   0.0000345840
       -0.0000013049  -0.0000041624   0.0000853099   0.0000051641  -0.0000349856
       -0.0000705960   0.0000236094  -0.0000027785   0.0000134960  -0.0000025149
        0.0000142023  -0.0000050885  -0.0000037121   0.0000069670  -0.0000062818
       -0.0000141071   0.0000051200   0.0000055306  -0.0000061730  -0.0000560142
       -0.0000535261   0.0000360544   0.0000701457  -0.0000048866  -0.0000477844
       -0.0000147675  -0.0000570854  -0.0000257599   0.0001167794   0.0000333136
       -0.0000420570  -0.0000573275   0.0000960621   0.0000754105   0.0001234443
       -0.0000377414  -0.0000228137  -0.0000908850  -0.0000277633   0.0000217146
        0.0216695886  -0.0092252859  -0.0174078499  -0.0109102187   0.0053344315
        0.0062986537   0.0045959452  -0.0044016332  -0.0029588535  -0.0227632739
       -0.0048789950  -0.0187020745  -0.0037776928  -0.0030010421  -0.0025144474
        0.0101746529   0.0031169358   0.0062571289   0.0046630231   0.0060542138
       -0.0173458908  -0.0021286198   0.0065030950  -0.0179595233  -0.0000036380
        0.0029858872  -0.0009094894   0.0011206624  -0.0001817146  -0.0015168770