$hessian                                                                        
        0.0200097909   0.0000325720  -0.0000044515  -0.0303567486  -0.0000321584
        0.0000049087   0.0180618896  -0.0000013149   0.0000000690  -0.0031176118
       -0.0015984566  -0.0003265965   0.0000493566   0.0000969090  -0.0001757734
        0.0001596130  -0.0001398963   0.0000534063  -0.0000849159  -0.0000433626
       -0.0000350982   0.0001362074   0.0000587511   0.0001888041  -0.0002155619
       -0.0000046867   0.0000286000   0.0001540727  -0.0000783646   0.0000352265
       -0.0000337706   0.0000563080  -0.0000184503   0.0000092789  -0.0000105160
        0.0000006278  -0.0000077569  -0.0000066437  -0.0000026274   0.0000115808
        0.0000175043  -0.0000033123  -0.0000576700  -0.0000429053  -0.0000080473
       -0.0000196768   0.0000335190  -0.0000110391   0.0000031675  -0.0000327699
        0.0000013985  -0.0000413919   0.0000159353  -0.0000114457  -0.0000095681
        0.0000455246  -0.0000125440   0.0001391330  -0.0000409273   0.0000388568
       -0.0000071180   0.0000308546   0.0000051684   0.0000832151   0.0004038165
        0.0000247794  -0.0009742586   0.0002110446  -0.0016435035   0.0013727776
       -0.0024374488  -0.0001682919   0.0006634135   0.0000001006   0.0000000375
        0.0013726136   0.0024370112   0.0001682445  -0.0031164343   0.0015992058
        0.0003265713   0.0000489709  -0.0000967527   0.0001757869  -0.0009741136
       -0.0002112857   0.0016430382   0.0000832786  -0.0004037694  -0.0000247267
        0.0001362950  -0.0000588497  -0.0001888296  -0.0002156164   0.0000047296
       -0.0000285846   0.0001540956   0.0000783742  -0.0000352136  -0.0000337768
       -0.0000563055   0.0000184499   0.0000092870   0.0000105167  -0.0000006294
       -0.0000077607   0.0000066518   0.0000026260   0.0000115773  -0.0000175119
        0.0000033121  -0.0000576631   0.0000429187   0.0000080450  -0.0000196814
       -0.0000335319   0.0000110405   0.0000031715   0.0000327818  -0.0000013968
       -0.0000413989  -0.0000159366   0.0000114480  -0.0000095643  -0.0000455329
        0.0000125448   0.0001391355   0.0000409326  -0.0000388464  -0.0000071311
       -0.0000308701  -0.0000051838  -0.0000849648   0.0000434637   0.0000351415
        0.0001597682   0.0001399668  -0.0000532468  -0.0000796653   0.0000236617
        0.0000413181  -0.0000309208   0.0000289670  -0.0000097312   0.0000138298
       -0.0000291772   0.0000059608  -0.0000047724   0.0000128978  -0.0000056348
       -0.0000148250   0.0000092156  -0.0000065415  -0.0000102320  -0.0000012998
       -0.0000038436  -0.0000219245  -0.0000012352  -0.0000055799  -0.0000217066
       -0.0000135509  -0.0000024685   0.0000000760   0.0000176277  -0.0000026255
       -0.0000038497   0.0000559442  -0.0000253655   0.0000410072   0.0000541330
        0.0000625587  -0.0016212794   0.0009034029  -0.0002557079   0.0000303476
        0.0000000021  -0.0000000080  -0.0016206325  -0.0009030395   0.0002554310
        0.0000409854  -0.0000541083  -0.0000625584   0.0000138319   0.0000291763
       -0.0000059615  -0.0000047730  -0.0000128992   0.0000056351  -0.0000148252
       -0.0000092162   0.0000065434  -0.0000102330   0.0000013000   0.0000038433
       -0.0000219255   0.0000012354   0.0000055806  -0.0000217080   0.0000135521
        0.0000024671   0.0000000745  -0.0000176263   0.0000026256  -0.0000038530
       -0.0000559468   0.0000253568  -0.0000309231  -0.0000289616   0.0000097262
       -0.0000796390  -0.0000236497  -0.0000413137
        0.0000325720   1.2452763288  -0.1780955511  -0.0000311320  -1.1837666624
        0.1667702992  -0.0000020452  -0.0672694295   0.0099304465  -0.0153149493
        0.0066496376  -0.0002235733   0.0035737181   0.0012953335  -0.0002019783
       -0.0016070979   0.0010240409   0.0001024078   0.0004683824   0.0011432857
        0.0002986406  -0.0020077166  -0.0009582268  -0.0000313509   0.0017112763
        0.0007764081   0.0001720279  -0.0005898047   0.0003727246   0.0000815012
        0.0001781361  -0.0000294166   0.0000587745  -0.0002024853   0.0000369228
       -0.0000494957   0.0000700168   0.0001970667  -0.0000098467   0.0000462316
       -0.0001650018   0.0000144324  -0.0000799404   0.0003273803  -0.0000496610
        0.0002173175  -0.0002164010   0.0000622127  -0.0001062895   0.0001661957
       -0.0000060830   0.0000915502  -0.0000282816   0.0000228118  -0.0001332710
       -0.0001797322   0.0000337563   0.0001101341   0.0002139965   0.0000054156
       -0.0000974143  -0.0007712057  -0.0001831370   0.0013566411  -0.0002382511
       -0.0000250446  -0.0002443258  -0.0014561479  -0.0004942810   0.0024843094
       -0.0069189200  -0.0004755166  -0.0000004896   0.0035240947   0.0007559948
       -0.0024841206  -0.0069198265  -0.0004756210   0.0153147009   0.0066492442
       -0.0002236427  -0.0035729466   0.0012953349  -0.0002019857   0.0002440080
       -0.0014559396  -0.0004944501  -0.0013563631  -0.0002381468  -0.0000250829
        0.0020072737  -0.0009580399  -0.0000313475  -0.0017108888   0.0007762599
        0.0001720274   0.0005897058   0.0003726682   0.0000815021  -0.0001780864
       -0.0000294062   0.0000587654   0.0002024449   0.0000369143  -0.0000494910
       -0.0000700036   0.0001970205  -0.0000098428  -0.0000462092  -0.0001649383
        0.0000144293   0.0000799124   0.0003273048  -0.0000496452  -0.0002172814
       -0.0002163117   0.0000621997   0.0001062661   0.0001661377  -0.0000060649
       -0.0000914992  -0.0000282489   0.0000228053   0.0001332511  -0.0001796839
        0.0000337600  -0.0001101113   0.0002139522   0.0000054063   0.0000973934
       -0.0007710981  -0.0001831385  -0.0004682252   0.0011430242   0.0002986710
        0.0016067439   0.0010239505   0.0001024250  -0.0001465060  -0.0000594070
        0.0002114761   0.0001160763  -0.0000728696   0.0000642389  -0.0000450991
       -0.0000247635  -0.0000019261   0.0000064256  -0.0000347348   0.0000170017
        0.0000247894  -0.0000126188   0.0000168852   0.0000386736   0.0000133115
        0.0000021117   0.0000268381   0.0000104113   0.0000174635   0.0000201766
        0.0000312446  -0.0000018772   0.0000320183   0.0000707976  -0.0000094845
        0.0000794090  -0.0000432307  -0.0000058479   0.0001301900   0.0000840022
        0.0000380246   0.0013400507  -0.0001077505   0.0009085987   0.0000000007
        0.0000453219  -0.0000778674  -0.0013393925  -0.0001077605   0.0009082262
       -0.0001301858   0.0000840058   0.0000380436   0.0000450990  -0.0000247624
       -0.0000019220  -0.0000064209  -0.0000347242   0.0000170005  -0.0000247774
       -0.0000126103   0.0000168872  -0.0000386621   0.0000133133   0.0000021146
       -0.0000268251   0.0000104114   0.0000174636  -0.0000201670   0.0000312375
       -0.0000018774  -0.0000320160   0.0000707936  -0.0000094798  -0.0000794063
       -0.0000432232  -0.0000058443  -0.0001160740  -0.0000728785   0.0000642301
        0.0001464958  -0.0000594273   0.0002114787
       -0.0000044515  -0.1780955511   0.0423734999   0.0000048269   0.1681706699
       -0.0548998532   0.0000002951   0.0077308383   0.0139926975   0.0015208688
       -0.0006491476   0.0012033043  -0.0005794827  -0.0000898186   0.0005518216
        0.0001677160  -0.0001326030   0.0001108188  -0.0001415404  -0.0001309477
       -0.0000065075   0.0003209536   0.0001374845  -0.0000125281  -0.0004110257
       -0.0001458513   0.0000671850   0.0001377189  -0.0000878661  -0.0000207359
       -0.0000407941   0.0000157914  -0.0000037486   0.0000389657  -0.0000089962
        0.0000065315  -0.0000147749  -0.0000339180   0.0000031361  -0.0000033364
        0.0000257413   0.0000009041  -0.0000006246  -0.0000664595   0.0000082532
       -0.0000431649   0.0000374372  -0.0000062694   0.0000169851  -0.0000291826
        0.0000118906  -0.0000185892   0.0000057195   0.0000103674   0.0000222032
        0.0000408322   0.0000146890  -0.0000179996  -0.0000371889   0.0000639374
        0.0000246511   0.0001629744   0.0000039064  -0.0004794290   0.0002863667
        0.0001000202   0.0001234001  -0.0000896899  -0.0009932020  -0.0003954545
        0.0013701329  -0.0021502448   0.0000000405  -0.0004587106   0.0002616894
        0.0003954621   0.0013702512  -0.0021503259  -0.0015208916  -0.0006490984
        0.0012033446   0.0005793689  -0.0000899068   0.0005518070  -0.0001232803
       -0.0000895567  -0.0009930425   0.0004792852   0.0002863106   0.0001000184
       -0.0003208680   0.0001374789  -0.0000124872   0.0004109422  -0.0001458261
        0.0000671892  -0.0001376990  -0.0000878488  -0.0000207397   0.0000407864
        0.0000157917  -0.0000037402  -0.0000389586  -0.0000089883   0.0000065363
        0.0000147722  -0.0000339089   0.0000031429   0.0000033345   0.0000257337
        0.0000009128   0.0000006274  -0.0000664451   0.0000082596   0.0000431579
        0.0000374265  -0.0000062597  -0.0000169798  -0.0000291712   0.0000118951
        0.0000185819   0.0000057217   0.0000103752  -0.0000222002   0.0000408308
        0.0000147038   0.0000179937  -0.0000371854   0.0000639328  -0.0000246414
        0.0001629468   0.0000039137   0.0001415426  -0.0001309367  -0.0000065077
       -0.0001676690  -0.0001326291   0.0001107777  -0.0000333287   0.0000753979
       -0.0000008103  -0.0000426853   0.0000441911  -0.0000212027   0.0000084003
       -0.0000034139  -0.0000141078  -0.0000018138   0.0000044426  -0.0000136487
       -0.0000058404   0.0000002113  -0.0000087585  -0.0000074588  -0.0000044484
       -0.0000009900  -0.0000069779  -0.0000029867   0.0000023134  -0.0000048197
       -0.0000061682   0.0000095937  -0.0000044485  -0.0000112539   0.0000018814
       -0.0000096097   0.0000060117  -0.0000590416   0.0000753281   0.0000597713
        0.0000169034  -0.0012266985   0.0006449518  -0.0001323065   0.0000000056
       -0.0001221776   0.0007848604   0.0012260751   0.0006446539  -0.0001321586
       -0.0000753207   0.0000597678   0.0000169108  -0.0000083998  -0.0000034122
       -0.0000141035   0.0000018127   0.0000044420  -0.0000136413   0.0000058393
        0.0000002126  -0.0000087499   0.0000074576  -0.0000044430  -0.0000009838
        0.0000069777  -0.0000029862   0.0000023212   0.0000048201  -0.0000061673
        0.0000096004   0.0000044489  -0.0000112518   0.0000018844   0.0000096077
        0.0000060115  -0.0000590402   0.0000426826   0.0000441946  -0.0000211942
        0.0000333217   0.0000754016  -0.0000008005
       -0.0303567486  -0.0000311320   0.0000048269   0.0982937705   0.0000286318
       -0.0000042978  -0.0588433102   0.0000045916   0.0000000282   0.0043820519
        0.0215278092   0.0004252523  -0.0006373914   0.0011997570   0.0002169720
       -0.0000572568   0.0000887511  -0.0000552382   0.0000831311   0.0000050727
        0.0000530690  -0.0001892268  -0.0002130079  -0.0000875457   0.0003850599
        0.0001224687  -0.0000451442  -0.0002187883   0.0001436974  -0.0000613511
        0.0000384874  -0.0000790666   0.0000192569  -0.0000386332   0.0000132736
       -0.0000083950   0.0000140785   0.0000137739  -0.0000017516  -0.0000113745
       -0.0000134952  -0.0000002065   0.0000662644   0.0000575403   0.0000026847
        0.0000544458  -0.0000160243   0.0000123109  -0.0000092499   0.0000161673
       -0.0000025727   0.0000358994  -0.0000034344   0.0000057202  -0.0000044735
       -0.0000629324   0.0000123520  -0.0001054196   0.0000767762  -0.0000390300
       -0.0000163145  -0.0002043877  -0.0000018860  -0.0003306609  -0.0005839133
        0.0001198115  -0.0010502049   0.0010398865   0.0004742636  -0.0060143787
        0.0085918819   0.0007398365  -0.0010899911  -0.0000001003  -0.0000000314
       -0.0060144042  -0.0085916400  -0.0007397628   0.0043807657  -0.0215299795
       -0.0004253007  -0.0006372787  -0.0012002158  -0.0002171353  -0.0010494699
       -0.0010393751  -0.0004741766  -0.0003307003   0.0005839507  -0.0001198377
       -0.0001893006   0.0002131111   0.0000876442   0.0003851394  -0.0001225323
        0.0000451355  -0.0002188223  -0.0001437145   0.0000613378   0.0000384951
        0.0000790697  -0.0000192577  -0.0000386428  -0.0000132746   0.0000083976
        0.0000140835  -0.0000137831   0.0000017521  -0.0000113708   0.0000135033
        0.0000002067   0.0000662602  -0.0000575562  -0.0000026828   0.0000544552
        0.0000160342  -0.0000123141  -0.0000092529  -0.0000161768   0.0000025711
        0.0000359074   0.0000034341  -0.0000057226  -0.0000044772   0.0000629433
       -0.0000123542  -0.0001054247  -0.0000767862   0.0000390247  -0.0000163052
        0.0002044249   0.0000019060   0.0000831889  -0.0000051721  -0.0000531262
       -0.0000574616  -0.0000888346   0.0000551304   0.0001769489  -0.0000379611
       -0.0000997296   0.0000599377  -0.0000269767   0.0000039340  -0.0000029799
        0.0000365857  -0.0000078163   0.0000120191  -0.0000143562   0.0000038808
        0.0000234188  -0.0000067346   0.0000030000   0.0000200477   0.0000070616
        0.0000017076   0.0000237466   0.0000095904   0.0000017998   0.0000210742
        0.0000213922  -0.0000016735   0.0000030177   0.0000093392  -0.0000026974
        0.0000441639  -0.0000614400   0.0000214197   0.0000439577  -0.0000183228
       -0.0000480170  -0.0007498019  -0.0000473753  -0.0020990612  -0.0001067388
       -0.0000000036   0.0000000098  -0.0007493376   0.0000473976   0.0020986810
        0.0000439804   0.0000183106   0.0000480072  -0.0000029814  -0.0000365891
        0.0000078174   0.0000120200   0.0000143575  -0.0000038819   0.0000234198
        0.0000067350  -0.0000030016   0.0000200493  -0.0000070616  -0.0000017077
        0.0000237476  -0.0000095918  -0.0000017995   0.0000210756  -0.0000213937
        0.0000016756   0.0000030189  -0.0000093425   0.0000026981   0.0000441698
        0.0000614480  -0.0000214150   0.0000599439   0.0000269735  -0.0000039359
        0.0001769314   0.0000379419   0.0000997357
       -0.0000321584  -1.1837666624   0.1681706699   0.0000286318   1.5166551983
       -0.1815731903   0.0000055636  -0.2585150589   0.0131183723   0.0351059664
       -0.0413926983   0.0005713321  -0.0081700729  -0.0025004219   0.0004101983
        0.0029574434  -0.0018304624  -0.0007003045  -0.0009138577  -0.0020255897
       -0.0004968873   0.0037553857   0.0018244324   0.0001199711  -0.0032950536
       -0.0014135270  -0.0003613387   0.0011129513  -0.0007233875  -0.0001815530
       -0.0003328358   0.0000569451  -0.0001045831   0.0003956395  -0.0000687266
        0.0001052435  -0.0001156459  -0.0003379727   0.0000202568  -0.0000513187
        0.0002981233  -0.0000164173   0.0001036609  -0.0006012581   0.0000853199
       -0.0004126433   0.0003895876  -0.0001160188   0.0002114481  -0.0002774537
        0.0000036811  -0.0001791462   0.0000538687  -0.0000491822   0.0002449126
        0.0003290403  -0.0000666901  -0.0002019517  -0.0003893069  -0.0000012440
        0.0001776964   0.0014416661   0.0003309732  -0.0023749330   0.0001206561
        0.0001638020   0.0009580125   0.0031321038   0.0019816888   0.0017168293
        0.0091382219   0.0001898665   0.0000010091  -0.0051079117  -0.0013299889
       -0.0017174341   0.0091399937   0.0001901596  -0.0351069913  -0.0413948197
        0.0005714504   0.0081685559  -0.0025003896   0.0004102144  -0.0009577293
        0.0031314430   0.0019816285   0.0023746029   0.0001205099   0.0001638908
       -0.0037546630   0.0018240649   0.0001199230   0.0032944160  -0.0014132794
       -0.0003613300  -0.0011128025  -0.0007233020  -0.0001815392   0.0003327552
        0.0000569375  -0.0001045702  -0.0003955766  -0.0000687093   0.0001052372
        0.0001156240  -0.0003378991   0.0000202535   0.0000512780   0.0002980132
       -0.0000164083  -0.0001036065  -0.0006011405   0.0000852980   0.0004125864
        0.0003894345  -0.0001159924  -0.0002114116  -0.0002773553   0.0000036541
        0.0001790611   0.0000538176  -0.0000491684  -0.0002448844   0.0003289732
       -0.0000666799   0.0002019050  -0.0003892497  -0.0000012390  -0.0001776639
        0.0014414947   0.0003309816   0.0009135573  -0.0020251245  -0.0004969014
       -0.0029567738  -0.0018302727  -0.0007002653   0.0000978149   0.0000999885
       -0.0002534467  -0.0002709079   0.0000540270  -0.0000424635   0.0000736718
        0.0000472232  -0.0000067159  -0.0000235498   0.0000641050  -0.0000322577
       -0.0000624843   0.0000217547  -0.0000363482  -0.0000895376  -0.0000403969
       -0.0000052793  -0.0000709083  -0.0000335098  -0.0000399406  -0.0000397059
       -0.0000751045  -0.0000013849  -0.0000405136  -0.0001272346   0.0000098840
       -0.0000975698   0.0000427104   0.0000026684  -0.0003300026  -0.0002051436
       -0.0001002924  -0.0002246718   0.0002688166  -0.0006942185  -0.0000000076
        0.0000530956   0.0002368357   0.0002244203   0.0002687098  -0.0006940005
        0.0003299920  -0.0002051397  -0.0001003160  -0.0000736707   0.0000472152
       -0.0000067169   0.0000235415   0.0000640837  -0.0000322528   0.0000624654
        0.0000217386  -0.0000363482   0.0000895179  -0.0000403994  -0.0000052835
        0.0000708865  -0.0000335165  -0.0000399370   0.0000396882  -0.0000750987
       -0.0000013789   0.0000405067  -0.0001272302   0.0000098779   0.0000975630
        0.0000427012   0.0000026615   0.0002709124   0.0000540428  -0.0000424568
       -0.0000977887   0.0001000153  -0.0002534637
        0.0000049087   0.1667702992  -0.0548998532  -0.0000042978  -0.1815731903
        0.0999039958  -0.0000003494   0.0167451878  -0.0518866256   0.0001873542
        0.0006986559  -0.0013362431   0.0000020527  -0.0000345188  -0.0021011663
        0.0001566512   0.0002107262  -0.0001142786   0.0001207393   0.0000004149
        0.0000764864  -0.0003908322  -0.0001283280   0.0001120572   0.0004749519
        0.0001629600  -0.0000677489  -0.0001823893   0.0001186174  -0.0000041612
        0.0000496157  -0.0000120686   0.0000190690  -0.0000496488   0.0000142643
       -0.0000008296   0.0000158380   0.0000410068   0.0000034005  -0.0000036257
       -0.0000248179  -0.0000000932   0.0000109944   0.0000794309  -0.0000100548
        0.0000593202  -0.0000365460   0.0000063383  -0.0000209414   0.0000252317
       -0.0000190256   0.0000191694  -0.0000043967  -0.0000202322  -0.0000299009
       -0.0000469253  -0.0000191631   0.0000120791   0.0000488933  -0.0000450071
       -0.0000240713  -0.0002184404  -0.0000216226   0.0003501669  -0.0004596999
       -0.0000839876  -0.0015976396   0.0008894222   0.0004569324  -0.0001021574
       -0.0023872939   0.0098663603  -0.0000000428   0.0002270799  -0.0014820459
        0.0001021613  -0.0023875199   0.0098666332  -0.0001871517   0.0006989372
       -0.0013355339  -0.0000019761  -0.0000343437  -0.0021012695   0.0015973027
        0.0008892170   0.0004571364  -0.0003501489  -0.0004597509  -0.0000840512
        0.0003907732  -0.0001283362   0.0001120117  -0.0004749332   0.0001629670
       -0.0000677654   0.0001823996   0.0001186192  -0.0000041701  -0.0000496149
       -0.0000120689   0.0000190546   0.0000496490   0.0000142626  -0.0000008459
       -0.0000158404   0.0000410027   0.0000033839   0.0000036258  -0.0000248125
       -0.0000001105  -0.0000109978   0.0000794282  -0.0000100682  -0.0000593211
       -0.0000365381   0.0000063246   0.0000209393   0.0000252263  -0.0000190375
       -0.0000191665  -0.0000043928  -0.0000202451   0.0000299036  -0.0000469247
       -0.0000191743  -0.0000120754   0.0000488925  -0.0000450201   0.0000240684
       -0.0002184499  -0.0000216390  -0.0001207551   0.0000004100   0.0000764775
       -0.0001567321   0.0002107780  -0.0001143276   0.0000565244  -0.0000522065
       -0.0000478359   0.0000585016  -0.0000451973   0.0000149508  -0.0000107524
        0.0000008264   0.0000199952   0.0000040345  -0.0000050334   0.0000246371
        0.0000091897   0.0000018730   0.0000146160   0.0000118450   0.0000087065
       -0.0000006031   0.0000114110   0.0000054877  -0.0000112348   0.0000072474
        0.0000087142  -0.0000260891   0.0000052594   0.0000112164  -0.0000222365
        0.0000127312  -0.0000100057   0.0000145017  -0.0000422209  -0.0000595990
       -0.0000251395  -0.0004606057  -0.0001732860  -0.0009232983  -0.0000000264
        0.0005744628  -0.0030944986   0.0004605735  -0.0001732959  -0.0009234493
        0.0000422238  -0.0000595986  -0.0000251509   0.0000107533   0.0000008262
        0.0000199841  -0.0000040356  -0.0000050329   0.0000246217  -0.0000091899
        0.0000018739   0.0000145981  -0.0000118451   0.0000087062  -0.0000006203
       -0.0000114109   0.0000054878  -0.0000112509  -0.0000072464   0.0000087140
       -0.0000261035  -0.0000052581   0.0000112170  -0.0000222454  -0.0000127306
       -0.0000100054   0.0000144973  -0.0000585040  -0.0000452043   0.0000149386
       -0.0000565241  -0.0000522147  -0.0000478496
        0.0180618896  -0.0000020452   0.0000002951  -0.0588433102   0.0000055636
       -0.0000003494   0.5491989350   0.0000025560  -0.0000008957  -0.2059800197
        0.0529874742  -0.0052320769  -0.0448711184   0.0038390346  -0.0001950377
        0.0028198543  -0.0042570755  -0.0026143107  -0.0028229533  -0.0032987943
        0.0000958361   0.0053931990   0.0027252029   0.0008192732  -0.0045352186
       -0.0019811308  -0.0006276296   0.0017612950  -0.0010966229  -0.0004340161
       -0.0005168905   0.0002796425  -0.0001703363   0.0004617569  -0.0001103337
        0.0001649076  -0.0001435674  -0.0004510586   0.0000387933  -0.0001374767
        0.0004825215  -0.0000096440   0.0000531113  -0.0008575892   0.0001222589
       -0.0006135435   0.0006041840  -0.0001687998   0.0002925998  -0.0004159540
        0.0000273986  -0.0004136344   0.0001691466  -0.0000910504   0.0002295977
        0.0004365309  -0.0000860116  -0.0001877385  -0.0006049392   0.0000838029
        0.0002868589   0.0020685743   0.0005884237  -0.0033662961   0.0003688127
        0.0011040776   0.0010553562   0.0070558687   0.0022454118   0.0274838750
        0.0752609004   0.0089763507  -0.0595061669   0.0000010130   0.0000002643
        0.0274811752  -0.0752647196  -0.0089765142  -0.2059942670  -0.0529915213
        0.0052332062  -0.0448697810  -0.0038384697   0.0001949060   0.0010548977
       -0.0070553007  -0.0022456558  -0.0033657449  -0.0003684326  -0.0011042318
        0.0053923929  -0.0027246900  -0.0008191566  -0.0045344636   0.0019807662
        0.0006276243   0.0017611340   0.0010965313   0.0004340019  -0.0005168040
       -0.0002796297   0.0001703218   0.0004616744   0.0001103037  -0.0001648978
       -0.0001435531   0.0004509594  -0.0000387910  -0.0001374331  -0.0004823960
        0.0000096358   0.0000530333   0.0008574251  -0.0001222299  -0.0006134773
       -0.0006040067   0.0001687592   0.0002925418   0.0004158292  -0.0000273576
       -0.0004135488  -0.0001690856   0.0000910295   0.0002295458  -0.0004364572
        0.0000860010  -0.0001876882   0.0006048590  -0.0000837977   0.0002868001
       -0.0020683932  -0.0005884536  -0.0028224577   0.0032983450  -0.0000959072
        0.0028190011   0.0042568597   0.0026145393   0.0000890930   0.0004679788
       -0.0005299367  -0.0005068344  -0.0001066156  -0.0000355528   0.0001139500
       -0.0000615450   0.0000210707  -0.0000309760   0.0000946944  -0.0000310725
       -0.0000915843   0.0000340198  -0.0000384892  -0.0001009126  -0.0000571384
        0.0000133615  -0.0000976125  -0.0000375587  -0.0000326165  -0.0000363824
       -0.0000938919   0.0000228459   0.0000463839  -0.0001001665   0.0000368695
        0.0000364172   0.0001365773   0.0000016947  -0.0000746558  -0.0002010382
        0.0000312853  -0.0000010438  -0.0001720875  -0.0003659620  -0.0000852500
        0.0000000283   0.0000000275  -0.0000008336   0.0001719284   0.0003659408
       -0.0000746817   0.0002010729  -0.0000312641   0.0001139511   0.0000615478
       -0.0000210712  -0.0000309700  -0.0000946797   0.0000310668  -0.0000915687
       -0.0000340125   0.0000384911  -0.0001009003   0.0000571304  -0.0000133561
       -0.0000975996   0.0000375552   0.0000326090  -0.0000363773   0.0000938768
       -0.0000228561   0.0000463805   0.0001001518  -0.0000368651   0.0000364131
       -0.0001365878  -0.0000016942  -0.0005068562   0.0001065893   0.0000355521
        0.0000890782  -0.0004680878   0.0005299540
       -0.0000013149  -0.0672694295   0.0077308383   0.0000045916  -0.2585150589
        0.0167451878   0.0000025560   0.6448917544  -0.0039637957   0.0853110219
       -0.1099322154  -0.0034242556   0.0027732914   0.0104422115  -0.0014058777
       -0.0050460683   0.0006119796  -0.0002623327   0.0005098955   0.0011679507
        0.0008811183  -0.0017601246  -0.0008113196   0.0000358275   0.0012701304
        0.0006605045   0.0000302449  -0.0003711038   0.0002204104   0.0001308376
        0.0001523977  -0.0000130105   0.0000367271  -0.0001618610   0.0000357812
       -0.0000470211   0.0000261653   0.0001784406  -0.0000215978   0.0000464425
       -0.0001895421   0.0000135035  -0.0001035865   0.0002708836  -0.0000423246
        0.0001395174  -0.0002334702   0.0000469102  -0.0001134398   0.0001764904
       -0.0000103794   0.0001023941  -0.0000612289   0.0000318876  -0.0000820736
       -0.0001451115   0.0000326102   0.0000834127   0.0001566628   0.0000023981
       -0.0000406006  -0.0004718902  -0.0001983899   0.0018882367  -0.0004054065
        0.0001087554  -0.0024017965  -0.0027707365  -0.0004923539   0.0294522711
       -0.0635946865  -0.0072524914  -0.0000004162   0.0090830096   0.0036716259
       -0.0294541029  -0.0635948619  -0.0072522198  -0.0853166241  -0.1099327627
       -0.0034241800  -0.0027706701   0.0104422296  -0.0014059390   0.0024015161
       -0.0027702578  -0.0004922141  -0.0018878200  -0.0004053273   0.0001086955
        0.0017594958  -0.0008110158   0.0000358794  -0.0012695683   0.0006602611
        0.0000302164   0.0003709396   0.0002203114   0.0001308174  -0.0001523244
       -0.0000129942   0.0000367155   0.0001618013   0.0000357621  -0.0000470127
       -0.0000261479   0.0001783677  -0.0000215934  -0.0000464122  -0.0001894606
        0.0000134981   0.0001035513   0.0002707676  -0.0000423044  -0.0001394561
       -0.0002333636   0.0000468880   0.0001134009   0.0001764119  -0.0000103606
       -0.0001023313  -0.0000611933   0.0000318745   0.0000820419  -0.0001450519
        0.0000326069  -0.0000833796   0.0001565915   0.0000023937   0.0000405679
       -0.0004716923  -0.0001983596  -0.0005096458   0.0011674227   0.0008811363
        0.0050454684   0.0006117416  -0.0002622719  -0.0001853529  -0.0002956067
        0.0000530563  -0.0000963464  -0.0001419752   0.0001111325  -0.0000073066
       -0.0000370552   0.0000010531   0.0000096673  -0.0000345468   0.0000050963
        0.0000278132  -0.0000143600   0.0000085530   0.0000360083   0.0000166006
       -0.0000010787   0.0000302127   0.0000120993   0.0000200928   0.0000200348
        0.0000329646   0.0000047962   0.0000132496   0.0000508005   0.0000012362
        0.0000313629  -0.0000232556   0.0000045831  -0.0000059057   0.0000260525
       -0.0000645722  -0.0009335246   0.0001554595  -0.0003785861   0.0000000114
        0.0017306849  -0.0001026509   0.0009332494   0.0001555850  -0.0003785414
        0.0000059239   0.0000260489  -0.0000645644   0.0000073013  -0.0000370581
        0.0000010562  -0.0000096605  -0.0000345360   0.0000050930  -0.0000277988
       -0.0000143564   0.0000085531  -0.0000359949   0.0000165936  -0.0000010761
       -0.0000301992   0.0000120936   0.0000200908  -0.0000200285   0.0000329510
        0.0000047958  -0.0000132532   0.0000507872   0.0000012416  -0.0000313628
       -0.0000232482   0.0000045874   0.0000963541  -0.0001419857   0.0001111129
        0.0001853064  -0.0002955961   0.0000530209
        0.0000000690   0.0099304465   0.0139926975   0.0000000282   0.0131183723
       -0.0518866256  -0.0000008957  -0.0039637957   0.1068772695  -0.0009588796
       -0.0052721184  -0.0515967389   0.0003933640   0.0024802832   0.0060868516
       -0.0010912169  -0.0010066868   0.0011547647   0.0000001628   0.0008402488
        0.0001109254  -0.0004623596  -0.0002084587   0.0000728991   0.0002951509
        0.0001413809   0.0000805696  -0.0000841222   0.0000492337   0.0000586597
        0.0000115589  -0.0000208012  -0.0000186111  -0.0000165658  -0.0000021409
       -0.0000213085  -0.0000000444   0.0000208704  -0.0000097319   0.0000137384
       -0.0000392178   0.0000005849  -0.0000214744   0.0000568812  -0.0000070539
        0.0000192359  -0.0000630174   0.0000107642  -0.0000208235   0.0000435222
        0.0000099894   0.0000309467  -0.0000198878   0.0000208947  -0.0000100245
       -0.0000191897   0.0000179728   0.0000152840   0.0000218606   0.0000042634
       -0.0000053975  -0.0000596221  -0.0000580535   0.0007300218   0.0002407990
       -0.0000728925  -0.0005574223  -0.0009980399  -0.0007701235   0.0005053764
       -0.0057256765   0.0156220278   0.0000002340  -0.0001300792  -0.0095351665
       -0.0005055887  -0.0057248717   0.0156225229   0.0009600998  -0.0052724085
       -0.0515961758  -0.0003936074   0.0024804374   0.0060872774   0.0005573392
       -0.0009981596  -0.0007701013  -0.0007300052   0.0002408273  -0.0000728853
        0.0004623460  -0.0002084612   0.0000728769  -0.0002951322   0.0001413629
        0.0000805709   0.0000841124   0.0000492298   0.0000586712  -0.0000115662
       -0.0000208040  -0.0000186035   0.0000165680  -0.0000021470  -0.0000213063
        0.0000000431   0.0000208713  -0.0000097329  -0.0000137395  -0.0000392135
        0.0000005845   0.0000214722   0.0000568757  -0.0000070552  -0.0000192354
       -0.0000630100   0.0000107610   0.0000208210   0.0000435148   0.0000099916
       -0.0000309433  -0.0000198897   0.0000208919   0.0000100258  -0.0000191946
        0.0000179614  -0.0000152832   0.0000218675   0.0000042756   0.0000053961
       -0.0000596203  -0.0000580661  -0.0000001921   0.0008403054   0.0001110308
        0.0010912911  -0.0010066228   0.0011544219   0.0001166998  -0.0001005018