$hessian                                                                        
        0.4707414698   0.0374978643  -0.0139539960  -0.1320712592   0.0575589415
       -0.0219117114  -0.0008883966   0.0022091251  -0.0025870232  -0.0052980319
        0.0078329699   0.0005746279  -0.0314331415   0.0075594164  -0.0066757021
       -0.0004570555   0.0007369019  -0.0005324291   0.0002045968  -0.0004902537
       -0.0006875670   0.0002632503   0.0001477599  -0.0004962785  -0.0002161414
        0.0001171746   0.0000541073   0.0000621407  -0.0000081669  -0.0000579372
       -0.0000452712   0.0001646446  -0.0000021208  -0.0000336282  -0.0001615524
        0.0000374010   0.0000766671   0.0000295474  -0.0000199055  -0.0000047774
        0.0000065457  -0.0000078256  -0.0000060995  -0.0000105350   0.0000064519
        0.0000071055  -0.0000054025   0.0000006429  -0.0000070179  -0.0000123338
       -0.0000002133  -0.0000165602  -0.0000303869   0.0000171128   0.0000015453
        0.0000747296  -0.0000193509  -0.0000330094  -0.0000121896  -0.0000079815
        0.0000905656   0.0000748617   0.0000313338  -0.0000169784  -0.0000670772
       -0.0000195194  -0.0000102355   0.0000299271   0.0000037431  -0.0000094708
        0.0000005434  -0.0000012178  -0.0000000757  -0.0000052129  -0.0000012447
        0.0000004592  -0.0000083858  -0.0000022751   0.0000002368  -0.0000094301
       -0.0000019324  -0.0000185736  -0.0001197355  -0.0000176727   0.0000539308
        0.0001195349   0.0000244514  -0.0000740113  -0.0000691223  -0.0000279978
       -0.0000877479   0.0000286889   0.0000105992   0.0000613537  -0.0000405212
       -0.0000155996  -0.0000259741   0.0000310382   0.0000355288   0.0000223650
       -0.0000082969   0.0000159209  -0.0000217255   0.0000157291   0.0000198424
        0.0000057042  -0.0000057922  -0.0000029633  -0.0000057901   0.0000029883
        0.0000012312  -0.0000059236   0.0000034418   0.0000009381  -0.0000042518
        0.0000016770  -0.0000008558   0.0000230868  -0.0000224965  -0.0000363008
       -0.0000358392   0.0000089307  -0.0000206377   0.0000694162   0.0000828835
        0.0000090437   0.0000010096  -0.0000299377   0.0000068007  -0.0000953003
        0.0000596011  -0.0000035455   0.0000962706  -0.0001018864   0.0000078613
       -0.0000732620   0.0000803552   0.0000456797   0.0000295297  -0.0000095251
        0.0000159138  -0.0005441024  -0.0019427445  -0.0003421972  -0.0013625535
       -0.0002585566   0.0018651934  -0.0437922173   0.0088278303   0.0086074635
       -0.0450627835  -0.0098799568   0.0235757187  -0.2113919705  -0.1085047798
        0.0107439630   0.0002099976  -0.0003395659   0.0004371017   0.0004351521
       -0.0004113767   0.0004314255   0.0007579630  -0.0007447453   0.0009806277
        0.0003182485   0.0007558221   0.0005987909   0.0006964242  -0.0008251338
       -0.0002433110   0.0001895864  -0.0003663358  -0.0004905841  -0.0009463552
        0.0003043240  -0.0000970263  -0.0000096924   0.0000541999  -0.0000096434
        0.0000001495   0.0000108722  -0.0000064728   0.0000163208  -0.0000131495
        0.0000048639   0.0000012107   0.0000046553  -0.0000005574   0.0000025348
       -0.0000112320  -0.0000023836   0.0000005597   0.0000024759   0.0000042212
        0.0000008453   0.0000025597  -0.0000050047   0.0000002010  -0.0000107461
        0.0000018414   0.0000023943   0.0000048639   0.0000045567   0.0000029377
       -0.0000091884   0.0000058672  -0.0000018176   0.0000009582  -0.0000018972
        0.0000022468   0.0000038053  -0.0000033453   0.0000007736   0.0000002936
       -0.0000074239  -0.0000015099   0.0000038718  -0.0000038921  -0.0000016693
       -0.0000067887  -0.0000014636  -0.0000009210   0.0000039883  -0.0000025522
       -0.0000011127   0.0000027820   0.0000035802  -0.0000000642   0.0000012366
        0.0000029590   0.0000038303   0.0000014232   0.0000022317  -0.0000018961
       -0.0000050630  -0.0000031161  -0.0000000185   0.0000020273  -0.0000027669
       -0.0000019562  -0.0000062100   0.0000004109   0.0000035512   0.0000023047
       -0.0000017690  -0.0000025075  -0.0000023568   0.0000009885   0.0000005321
       -0.0000011690  -0.0000001502   0.0000003260  -0.0000004213  -0.0000033851
       -0.0000022332  -0.0000011968   0.0000004677   0.0000008942  -0.0000023948
        0.0000000238   0.0000012553  -0.0000022594   0.0000024464  -0.0000039074
        0.0000029747  -0.0000008095  -0.0000050752   0.0000007654  -0.0000006878
        0.0000025229  -0.0000003324   0.0000022089   0.0000022459   0.0000002023
       -0.0000006959   0.0000010324  -0.0000026067  -0.0000004606   0.0000019861
       -0.0000006658  -0.0000012530  -0.0000040580   0.0000015626   0.0000000256
       -0.0000008638   0.0000022294  -0.0000002929   0.0000001851  -0.0000016492
        0.0000040114  -0.0000090973  -0.0000008237   0.0000016563   0.0000022546
        0.0000023895  -0.0000098832   0.0000438509  -0.0000024825  -0.0000131119
       -0.0001374747  -0.0001631718   0.0000044319  -0.0002313097   0.0002691038
        0.0001616321
        0.0374978643   0.4982377653   0.0067680940   0.0498664342  -0.1004664469
        0.0171500162   0.0105317645  -0.0103686445   0.0088125305   0.0199262996
       -0.0196944244   0.0012206186  -0.0080540269   0.0076590745  -0.0031387597
       -0.0010988473  -0.0001989387   0.0003161994   0.0002949020  -0.0000357748
       -0.0002318317   0.0003034941   0.0002211697  -0.0002323803  -0.0002298990
       -0.0000531990   0.0000393950   0.0000104182   0.0000780103  -0.0000591575
       -0.0000296124   0.0001100056  -0.0000071877  -0.0000452381  -0.0001389902
        0.0000308143   0.0000809021   0.0000473505  -0.0000209275  -0.0000028094
        0.0000142311  -0.0000009861  -0.0000070572  -0.0000098561   0.0000068328
        0.0000093732  -0.0000041905  -0.0000014425  -0.0000059891  -0.0000123239
       -0.0000042153  -0.0000168568  -0.0000262851   0.0000038178  -0.0000060959
        0.0000380026  -0.0000092645  -0.0000128982   0.0000063408   0.0000016099
        0.0000330869   0.0000567562   0.0000156900  -0.0000292664  -0.0000414160
       -0.0000089926  -0.0000098494   0.0000440487   0.0000095794  -0.0000093816
        0.0000102777   0.0000002488  -0.0000057360  -0.0000050224   0.0000001206
        0.0000031005  -0.0000092815   0.0000044476   0.0000038309  -0.0000058529
       -0.0000061267   0.0000235780  -0.0000846694  -0.0000138172   0.0000546195
        0.0000704565   0.0000157767  -0.0000391151  -0.0000576944  -0.0000291209
       -0.0000837947   0.0000265126   0.0000078343   0.0000745407  -0.0000500254
       -0.0000101352  -0.0000347441   0.0000340613   0.0000284788   0.0000228888
       -0.0000089084   0.0000036444  -0.0000091495   0.0000082904   0.0000184945
        0.0000119198  -0.0000096034  -0.0000046256  -0.0000074384   0.0000022443
        0.0000026998  -0.0000036660   0.0000067948   0.0000030828  -0.0000044513
        0.0000023686  -0.0000030206   0.0000241528  -0.0000207207  -0.0000209760
       -0.0000381741   0.0000133451  -0.0000111841   0.0000510599   0.0000569651
        0.0000051021   0.0000199734  -0.0000257581   0.0000075718  -0.0000939173
        0.0000382794  -0.0000059850   0.0000608649  -0.0001021861   0.0000049654
        0.0000373737   0.0000205896   0.0000377236  -0.0000115924  -0.0000163265
        0.0000122823  -0.0000245414  -0.0009212638  -0.0001510897  -0.0013493275
       -0.0010654218   0.0002594076   0.0091069594  -0.1830741397  -0.1172413982
       -0.0097521189  -0.0746778474   0.0800878699  -0.1092336770  -0.1125464734
        0.0059244412  -0.0000805951   0.0006243051  -0.0008561120   0.0001123984
       -0.0011101755   0.0026842113   0.0008749327   0.0000730330  -0.0001518883
        0.0013774874  -0.0042551907  -0.0029532553   0.0008001569   0.0005609085
        0.0005762245  -0.0001319847   0.0008174902   0.0009521208  -0.0005589876
        0.0000728757   0.0001534402   0.0000099032   0.0000094473  -0.0000106402
       -0.0000121509   0.0000112686   0.0000065895   0.0000255755  -0.0000137465
        0.0000053526   0.0000062569   0.0000059464   0.0000005112   0.0000013304
       -0.0000134140  -0.0000023769  -0.0000039586   0.0000011484   0.0000006558
        0.0000003723   0.0000029970  -0.0000051785   0.0000000644  -0.0000129572
        0.0000030513  -0.0000009795   0.0000047082   0.0000032698   0.0000018070
       -0.0000122062   0.0000076981  -0.0000021258   0.0000014297  -0.0000026714
        0.0000048091   0.0000064964  -0.0000021297  -0.0000037088   0.0000021649
       -0.0000062708   0.0000045363   0.0000001131  -0.0000035684  -0.0000019409
       -0.0000114668  -0.0000023124   0.0000000516   0.0000047708  -0.0000011826
        0.0000002553   0.0000038289   0.0000023975   0.0000010237   0.0000030621
        0.0000009541   0.0000016959   0.0000031381   0.0000030743  -0.0000043468
       -0.0000102530  -0.0000059315   0.0000011984   0.0000032423  -0.0000002088
       -0.0000037467  -0.0000115786   0.0000009451   0.0000015930   0.0000043312
       -0.0000010433  -0.0000120820  -0.0000039688   0.0000008323  -0.0000053351
        0.0000040286   0.0000007421   0.0000031420  -0.0000011149  -0.0000005190
       -0.0000022136   0.0000008514   0.0000069509   0.0000029095  -0.0000016372
        0.0000008464   0.0000021122  -0.0000029696   0.0000010716  -0.0000060315
        0.0000071935  -0.0000017990  -0.0000090429   0.0000028709  -0.0000009242
        0.0000035295  -0.0000007581   0.0000014763   0.0000033357   0.0000001730
       -0.0000004608   0.0000028705  -0.0000015443   0.0000002029   0.0000031383
       -0.0000002362  -0.0000010791  -0.0000067229   0.0000046649   0.0000006541
       -0.0000036602   0.0000035357  -0.0000073810   0.0000017525  -0.0000028239
        0.0000007130  -0.0000082519   0.0000051169  -0.0000010902  -0.0000047436
        0.0000206834  -0.0000088780   0.0000306201  -0.0000097804  -0.0000065834
       -0.0001295545  -0.0000547227  -0.0000176996  -0.0000868251   0.0001934651
        0.0000504327
       -0.0139539960   0.0067680940   0.5248352903  -0.0204760577   0.0181729489
       -0.0686334904  -0.0198602062   0.0192416902  -0.0138549488   0.0130055078
       -0.0124258712   0.0020795116  -0.0033049708  -0.0013181104   0.0010661324
        0.0003530276   0.0008917740  -0.0005372127  -0.0001887769  -0.0002945732
        0.0000231478   0.0000378861  -0.0000305043   0.0000578583   0.0000313371
        0.0000569916  -0.0000094218   0.0000211736  -0.0000177750   0.0000205575
       -0.0000159010  -0.0000246126  -0.0000300800   0.0000114847   0.0000222919
       -0.0000197507  -0.0000209266  -0.0000136858   0.0000088091  -0.0000012503
       -0.0000013842   0.0000048137  -0.0000006509  -0.0000007783  -0.0000040015
       -0.0000009262   0.0000017177  -0.0000009971  -0.0000001865   0.0000046354
       -0.0000019411   0.0000105363   0.0000000028   0.0000012218   0.0000016706
        0.0000045669  -0.0000063460  -0.0000007303  -0.0000083956  -0.0000012377
        0.0000100839  -0.0000016147   0.0000001896   0.0000089877  -0.0000004206
       -0.0000028390   0.0000013211  -0.0000119677  -0.0000022894   0.0000001594
       -0.0000059844   0.0000007048   0.0000027792   0.0000002713   0.0000008943
       -0.0000020987   0.0000015407  -0.0000023070  -0.0000013697   0.0000001739
        0.0000031712  -0.0000163753   0.0000006862  -0.0000000111  -0.0000109488
        0.0000058237  -0.0000002006  -0.0000009204  -0.0000008477   0.0000069316
        0.0000116313  -0.0000045508  -0.0000009542  -0.0000238917   0.0000152713
        0.0000022174   0.0000096253  -0.0000077743  -0.0000021473  -0.0000056074
        0.0000029839   0.0000027259  -0.0000004608  -0.0000002782  -0.0000044714
       -0.0000043694   0.0000037417   0.0000024744   0.0000023971   0.0000000822
       -0.0000011201   0.0000004056  -0.0000022280  -0.0000006604   0.0000016480
       -0.0000004645   0.0000019078  -0.0000062211   0.0000047655   0.0000020154
        0.0000082781  -0.0000033710  -0.0000013037   0.0000062785  -0.0000020626
        0.0000002133  -0.0000050685   0.0000076559  -0.0000016882   0.0000156477
       -0.0000000665   0.0000023796  -0.0000033037   0.0000113221  -0.0000014738
       -0.0000237644   0.0000058196   0.0000066172   0.0000150926   0.0000085219
       -0.0000043300  -0.0000464909  -0.0000678124  -0.0000986404   0.0000714343
       -0.0001937766   0.0001309383   0.0090452079  -0.1175878653  -0.1432002963
        0.0233110597   0.0805502766  -0.2517485782   0.0108330021   0.0061208500
       -0.0447209513  -0.0007741718   0.0007898964   0.0006821572  -0.0002495561
        0.0032994242  -0.0054869007  -0.0010225270  -0.0002062977   0.0005104992
        0.0010451826  -0.0036714492  -0.0019854315   0.0004477895   0.0002411885
        0.0003210249   0.0007296297  -0.0005827613   0.0008000255   0.0009396572
        0.0000915139  -0.0002812216  -0.0000016565   0.0000130062  -0.0000065791
       -0.0000006696   0.0000052791   0.0000287186  -0.0000034820  -0.0000028943
        0.0000086601   0.0000026440  -0.0000024522   0.0000022290  -0.0000002276
        0.0000048337   0.0000004128  -0.0000021160  -0.0000015063  -0.0000032632
        0.0000028183  -0.0000016481  -0.0000009158  -0.0000001521   0.0000040615
       -0.0000000338  -0.0000019157  -0.0000014450  -0.0000023304  -0.0000010897
        0.0000029542  -0.0000015173   0.0000053357  -0.0000015404  -0.0000042964
       -0.0000027053   0.0000000645   0.0000059437   0.0000026566   0.0000005748
        0.0000027127  -0.0000023858   0.0000003197   0.0000011788   0.0000001243
        0.0000036906   0.0000011774  -0.0000009118  -0.0000013044  -0.0000001708
        0.0000001671  -0.0000007122  -0.0000015238  -0.0000006228  -0.0000005337
       -0.0000008347   0.0000001869  -0.0000012522  -0.0000005645   0.0000010212
        0.0000034996   0.0000023276  -0.0000009138  -0.0000008752  -0.0000009763
        0.0000011709   0.0000042113  -0.0000000296   0.0000004927  -0.0000014483
        0.0000001986   0.0000055867   0.0000016670   0.0000004974   0.0000034643
       -0.0000028877   0.0000001170  -0.0000018185   0.0000004417  -0.0000013811
        0.0000008106  -0.0000007212  -0.0000032997  -0.0000013458   0.0000001919
       -0.0000003687  -0.0000005744   0.0000010277  -0.0000003053   0.0000023718
       -0.0000027409   0.0000009430   0.0000034459  -0.0000012248   0.0000005914
       -0.0000012289   0.0000001294  -0.0000003240  -0.0000010474   0.0000001086
        0.0000002080  -0.0000011796   0.0000001274  -0.0000003119  -0.0000008917
        0.0000003469   0.0000002846   0.0000027524  -0.0000019098   0.0000000286
        0.0000015862  -0.0000011087   0.0000031152  -0.0000005386   0.0000007656
        0.0000002441   0.0000031108  -0.0000019023   0.0000018637  -0.0000014842
       -0.0000077710  -0.0000000084  -0.0000064328  -0.0000029163  -0.0000039762
       -0.0000235233   0.0000148729  -0.0000012841   0.0000509705   0.0001393822
        0.0000456564
       -0.1320712592   0.0498664342  -0.0204760577   0.4691549268   0.0103350291
       -0.0090761887  -0.0668916773  -0.0077178910   0.0169917991  -0.0603898052
        0.0094802129   0.0089396968  -0.1420721666  -0.0559718602   0.0015357058
       -0.0117637754  -0.0099321879   0.0095448381   0.0039329830  -0.0018450512
        0.0005546135  -0.0014021045  -0.0011329352  -0.0001962886  -0.0002084383
        0.0009275700   0.0002972378  -0.0000568124   0.0003812235   0.0000832000
        0.0002892291  -0.0003429606   0.0000079086   0.0000774524   0.0004296080
       -0.0000790134  -0.0001048291  -0.0001145297   0.0000673644  -0.0000085427
       -0.0000241880   0.0000084747   0.0000139815   0.0000176343  -0.0000168309
       -0.0000150138   0.0000051840  -0.0000001525   0.0000150709   0.0000230197
        0.0000065215  -0.0000164238   0.0001459736  -0.0000403738   0.0000228264
       -0.0001724973   0.0000306038  -0.0000031132  -0.0000023258   0.0000296192
       -0.0001627666  -0.0000653600  -0.0000556335  -0.0000160187   0.0000583802
        0.0000300760   0.0000614491  -0.0000339217   0.0000002883   0.0000006146
       -0.0000309887  -0.0000123995   0.0000107325   0.0000075101  -0.0000008874
       -0.0000028576   0.0000064031  -0.0000075199  -0.0000038927   0.0000051016
        0.0000086569   0.0000202006   0.0002229069   0.0000462008  -0.0000913605
       -0.0002022980  -0.0000327188   0.0001516777   0.0000389620   0.0000248454
        0.0001977558   0.0000714411  -0.0000028302  -0.0001384504   0.0000848297
        0.0000415335   0.0000636759  -0.0000664955  -0.0000705087  -0.0000433687
        0.0000218452  -0.0000007836   0.0000214560  -0.0000179857  -0.0000363797
       -0.0000220284   0.0000151527   0.0000073884   0.0000125255  -0.0000025746
       -0.0000062436   0.0000060817  -0.0000113057  -0.0000056318   0.0000067184
       -0.0000033582   0.0000066321  -0.0000475812   0.0000418607   0.0000380122
        0.0000787576  -0.0000217907   0.0000236027  -0.0001286626  -0.0002367735
       -0.0000406547  -0.0000266287   0.0000569387  -0.0000151713   0.0002781573
       -0.0001874878   0.0000169029  -0.0002261857   0.0002682879  -0.0000037703
        0.0001160651  -0.0004250228  -0.0001303930  -0.0001679559   0.0001589688
       -0.0000150186   0.0019751253  -0.0018540920  -0.0036395979  -0.0187962951
       -0.0111692709  -0.0061135582  -0.0039817527   0.0047489913   0.0008993909
        0.0010506519   0.0000195215  -0.0016827993  -0.0268866020   0.0132620681
       -0.0065896361  -0.0007837250  -0.0003724473   0.0034537020   0.0025176908
        0.0096859209  -0.0202052572  -0.0078655662  -0.0121280053   0.0232371816
       -0.0033823923   0.0190380325   0.0142267729  -0.0004552553  -0.0197753630
       -0.0150869455  -0.0006507348   0.0025156284   0.0027023667  -0.0005563685
        0.0013968809  -0.0007341205  -0.0000691421  -0.0000764120  -0.0001077299
       -0.0000923509  -0.0000527283   0.0000267257  -0.0000467060   0.0000070301
       -0.0000172133  -0.0000074891  -0.0000129400   0.0000007102  -0.0000058146
        0.0000228096   0.0000034027   0.0000049286  -0.0000061710  -0.0000017426
       -0.0000008714  -0.0000082203   0.0000092463  -0.0000031986   0.0000203740
       -0.0000051408  -0.0000009777  -0.0000117400  -0.0000057445  -0.0000070791
        0.0000191556  -0.0000128905   0.0000052108  -0.0000055745   0.0000034201
       -0.0000066995  -0.0000114859   0.0000070768  -0.0000016218  -0.0000098827
        0.0000220171  -0.0000076335  -0.0000055603   0.0000065453   0.0000026618
        0.0000187209   0.0000040182  -0.0000010681  -0.0000092932   0.0000027693
       -0.0000013739  -0.0000072133  -0.0000045669  -0.0000025220  -0.0000056568
       -0.0000006071  -0.0000018375  -0.0000064261  -0.0000052121   0.0000052946
        0.0000167101   0.0000076611  -0.0000027538  -0.0000058079   0.0000001084
        0.0000047538   0.0000187258  -0.0000002161  -0.0000019881  -0.0000084499
        0.0000012808   0.0000179454   0.0000050607  -0.0000049148   0.0000091709
       -0.0000048510  -0.0000072716  -0.0000046503   0.0000001088   0.0000000573
        0.0000015161   0.0000002147  -0.0000122021  -0.0000032564   0.0000032281
       -0.0000009579  -0.0000027355   0.0000049477  -0.0000010444   0.0000124601
       -0.0000127413   0.0000029719   0.0000172655  -0.0000050411   0.0000017096
       -0.0000050834   0.0000015661  -0.0000012613  -0.0000041120   0.0000013694
       -0.0000000451  -0.0000036797   0.0000028246   0.0000003609  -0.0000038837
        0.0000018214   0.0000005717   0.0000134219  -0.0000085588  -0.0000011216
        0.0000049359  -0.0000057765   0.0000138988  -0.0000025006   0.0000036156
        0.0000014649   0.0000103673  -0.0000049320  -0.0000078999  -0.0000139904
       -0.0000085907   0.0000214278  -0.0000131159  -0.0000642486  -0.0000026318
       -0.0004349061  -0.0002403444   0.0001413883   0.0000077140   0.0009738101
        0.0014338093
        0.0575589415  -0.1004664469   0.0181729489   0.0103350291   0.4684355648
       -0.0134777458  -0.0082229680  -0.0811687407   0.0420708529   0.0036548542
       -0.1286603640  -0.0559318153  -0.0572843567  -0.0931207389   0.0035968986
       -0.0130968610  -0.0112121952   0.0063864434  -0.0015062757   0.0039095816
        0.0033886782  -0.0011991308  -0.0003625529   0.0001685052   0.0009149452
       -0.0008787089  -0.0003315786  -0.0002648348   0.0000855347   0.0001064750
       -0.0000100387  -0.0001488613   0.0000080994   0.0000672931   0.0002108605
       -0.0000432706  -0.0001478480  -0.0000280995   0.0000343708  -0.0000020536
       -0.0000166294   0.0000122352  -0.0000005674   0.0000020466  -0.0000081357
       -0.0000055022   0.0000043802   0.0000005585  -0.0000009123   0.0000022445
        0.0000075967   0.0000549486  -0.0000412988  -0.0000117127  -0.0000004013
       -0.0000827286   0.0000317104   0.0000493179  -0.0000734664   0.0000088402
       -0.0000978856  -0.0000723279  -0.0000319810  -0.0000071950   0.0000550273
        0.0000310006   0.0000395956  -0.0000336251  -0.0000026990  -0.0000005941
       -0.0000184581  -0.0000103327   0.0000073280   0.0000043717   0.0000001400
       -0.0000031412   0.0000057471  -0.0000049148  -0.0000036713   0.0000060361
        0.0000071666   0.0000010546   0.0001720787   0.0000308912  -0.0000790759
       -0.0001552231  -0.0000377163   0.0001056448   0.0000536786   0.0000384815
        0.0001968114   0.0000305422  -0.0000079415  -0.0001221290   0.0000834258
        0.0000180099   0.0000595370  -0.0000621652  -0.0000554868  -0.0000411264
        0.0000164510  -0.0000071061   0.0000214175  -0.0000164488  -0.0000301560
       -0.0000167744   0.0000172360   0.0000064740   0.0000141970  -0.0000021912
       -0.0000044211   0.0000064318  -0.0000100248  -0.0000051208   0.0000086488
       -0.0000022566   0.0000056926  -0.0000427086   0.0000360279   0.0000357571
        0.0000676789  -0.0000226595   0.0000220996  -0.0000766976  -0.0002534422
       -0.0000079932   0.0000317374   0.0001505271  -0.0000032274   0.0001595794
       -0.0002011966   0.0000012727  -0.0001216867   0.0003626328   0.0000041112
        0.0002214319  -0.0001654072  -0.0001126541   0.0000033823   0.0001508020
       -0.0000209935  -0.0022484617   0.0054869592   0.0006549454  -0.0077782125
       -0.0020889246  -0.0038179364   0.0193415027  -0.0167240996   0.0029638564
        0.0088522676  -0.0082240738   0.0054089836  -0.0101949147   0.0075590421
       -0.0026458374   0.0039056826   0.0071460158  -0.0192201326  -0.0007268791
       -0.0093768072   0.0174800073  -0.0059661289  -0.0087053048   0.0156726000
        0.0045295077  -0.0173391189  -0.0112042301  -0.0025059138  -0.0175938927
       -0.0129256999  -0.0003994043   0.0065195199   0.0042362017   0.0009640021
       -0.0013045528  -0.0011410818  -0.0004335957  -0.0001878068   0.0000348671
       -0.0000143609   0.0000423423  -0.0000009884  -0.0000043353  -0.0000186316
       -0.0000072208   0.0000037198  -0.0000087396  -0.0000017178  -0.0000036854
        0.0000139805  -0.0000000572   0.0000024638  -0.0000052597   0.0000014869
        0.0000026151  -0.0000051197   0.0000019626  -0.0000016520   0.0000122799
       -0.0000030381   0.0000013192  -0.0000061010  -0.0000013375  -0.0000040105
        0.0000117320  -0.0000053465   0.0000033287  -0.0000051341  -0.0000016779
        0.0000041082  -0.0000063477   0.0000055437   0.0000076011  -0.0000144310
        0.0000114191  -0.0000036764  -0.0000044907   0.0000061177   0.0000010538
        0.0000128600   0.0000028315  -0.0000005402  -0.0000064718   0.0000029425
       -0.0000006455  -0.0000049594  -0.0000042021  -0.0000023066  -0.0000038371
       -0.0000011235  -0.0000002743  -0.0000052604  -0.0000036734   0.0000032899
        0.0000118864   0.0000058860  -0.0000023390  -0.0000039743   0.0000006487
        0.0000032161   0.0000136412  -0.0000007829  -0.0000004046  -0.0000064679
        0.0000006703   0.0000136848   0.0000034396  -0.0000004908   0.0000070208
       -0.0000050734  -0.0000013626  -0.0000032946   0.0000019740  -0.0000006845
        0.0000039149   0.0000006986  -0.0000110640  -0.0000046077   0.0000010125
       -0.0000019681  -0.0000017949   0.0000049384  -0.0000010925   0.0000110354
       -0.0000105499   0.0000028368   0.0000147905  -0.0000038071   0.0000013113
       -0.0000045632   0.0000015291  -0.0000022083  -0.0000044682  -0.0000000916
        0.0000006077  -0.0000041117   0.0000017240  -0.0000015392  -0.0000037470
        0.0000009359   0.0000020092   0.0000118419  -0.0000064431  -0.0000009800
        0.0000054243  -0.0000042016   0.0000111397  -0.0000013344   0.0000047537
       -0.0000000930   0.0000047908  -0.0000077816  -0.0000015554   0.0000036123
       -0.0000381248   0.0000158051  -0.0000809868  -0.0000427336   0.0000084552
        0.0000831584  -0.0000864086   0.0000695682   0.0013903281  -0.0015147819
        0.0003581121
       -0.0219117114   0.0171500162  -0.0686334904  -0.0090761887  -0.0134777458
        0.4824606771   0.0186458334   0.0431332709  -0.1646011481   0.0044657281
       -0.0587128010  -0.1120162741   0.0058208691   0.0065243561  -0.0645669761
        0.0195897870   0.0127037606  -0.0012456807   0.0009407972   0.0035504817
       -0.0036776826  -0.0002912855   0.0001928452  -0.0008486199   0.0001047991
       -0.0003961510  -0.0000509942  -0.0001039350   0.0000664284  -0.0000409335
       -0.0000202801   0.0000642622   0.0000225597  -0.0000121304  -0.0000797005
        0.0000150591   0.0000425216   0.0000243216  -0.0000119699   0.0000036869
        0.0000098571   0.0000053401  -0.0000035132  -0.0000045665   0.0000044333
        0.0000045416  -0.0000013870  -0.0000000004  -0.0000024117  -0.0000043886
       -0.0000024951  -0.0000215330  -0.0000176237  -0.0000057060   0.0000033277
       -0.0000145174   0.0000087437  -0.0000213835  -0.0000107643   0.0000024368
        0.0000205160   0.0000591442   0.0000110828  -0.0000422727  -0.0000479503
       -0.0000025028   0.0000102114   0.0000402558   0.0000118178  -0.0000083734
        0.0000055860  -0.0000011495  -0.0000042736  -0.0000035586   0.0000016642
        0.0000027134  -0.0000099236   0.0000046803   0.0000045943  -0.0000045232
       -0.0000038139   0.0000216424  -0.0000583278  -0.0000101810   0.0000481653
        0.0000521934   0.0000069805  -0.0000227961  -0.0000666722  -0.0000242327
       -0.0000358370   0.0000472073   0.0000072723   0.0000443440  -0.0000303128
       -0.0000082334  -0.0000215100   0.0000193433   0.0000193261   0.0000144771
       -0.0000059628   0.0000047933  -0.0000036958   0.0000040922   0.0000125836
        0.0000075728  -0.0000058621  -0.0000019383  -0.0000051593   0.0000021265
        0.0000026280  -0.0000034440   0.0000043949   0.0000027105  -0.0000020515
        0.0000020076  -0.0000018847   0.0000163171  -0.0000140758  -0.0000134977
       -0.0000238971   0.0000094925  -0.0000018231   0.0000413202  -0.0000150980
        0.0000080029   0.0000354840   0.0000284852   0.0000047875  -0.0000613117
       -0.0000176275  -0.0000197805   0.0000522727   0.0000061447   0.0000112354
        0.0000903018   0.0000081703  -0.0000170951  -0.0000039102   0.0000157825
        0.0000100194  -0.0033346725   0.0008239805  -0.0027450273  -0.0173266335
       -0.0110226920   0.0015194187   0.0142022138  -0.0112825599   0.0032143328
       -0.0207941472   0.0170591863  -0.0101858157  -0.0000585379  -0.0005362489
        0.0000991133   0.0043729714   0.0048793238  -0.0236063430  -0.0011090647
        0.0061693238  -0.0103937190   0.0031590351   0.0028196412  -0.0026774721
        0.0005418011   0.0027741829   0.0032298694  -0.0015535225  -0.0021838195
       -0.0011788427   0.0026709930  -0.0196308510  -0.0232055469   0.0006023929
       -0.0002955814  -0.0000606621   0.0010465063   0.0007921288  -0.0003187384
        0.0000128092   0.0000067971  -0.0000191266   0.0000142258  -0.0000049719
        0.0000020598   0.0000029064   0.0000037247   0.0000011247   0.0000024116
       -0.0000084561  -0.0000006743  -0.0000035163   0.0000015024  -0.0000024142
        0.0000013901   0.0000016934  -0.0000039302   0.0000010089  -0.0000079360
        0.0000024060  -0.0000018226   0.0000033029   0.0000007403   0.0000029314
       -0.0000063279   0.0000048428   0.0000003637  -0.0000001062  -0.0000030100
        0.0000003445   0.0000024794  -0.0000013176  -0.0000007980  -0.0000035088
       -0.0000046166   0.0000029952  -0.0000003449  -0.0000020497  -0.0000011030
       -0.0000094419  -0.0000013829  -0.0000007391   0.0000037977  -0.0000019062
        0.0000009453   0.0000030860   0.0000015995   0.0000011566   0.0000026710
       -0.0000000676   0.0000010120   0.0000025342   0.0000027853  -0.0000039047
       -0.0000087971  -0.0000052192   0.0000006844   0.0000026561  -0.0000011419
       -0.0000026468  -0.0000092983   0.0000014628   0.0000015763   0.0000035233
       -0.0000003861  -0.0000088223  -0.0000033696   0.0000020151  -0.0000050524
        0.0000029157   0.0000011609   0.0000006992   0.0000012222  -0.0000021869
       -0.0000005872   0.0000008870   0.0000031067   0.0000015009  -0.0000018670
        0.0000005347   0.0000017959  -0.0000027563  -0.0000006969  -0.0000049904
        0.0000054566  -0.0000010067  -0.0000070214   0.0000020483  -0.0000003338
        0.0000026365  -0.0000012507   0.0000003168   0.0000026505   0.0000003752
       -0.0000002215   0.0000015010  -0.0000020512  -0.0000006375   0.0000026558
        0.0000002400  -0.0000011370  -0.0000051521   0.0000035616   0.0000005894
       -0.0000039469   0.0000026128  -0.0000064424   0.0000015035  -0.0000027130
       -0.0000016373  -0.0000099079   0.0000024943   0.0000006383  -0.0000002344
        0.0000073733   0.0000004185  -0.0000074459  -0.0000164302  -0.0000021715
       -0.0009589233  -0.0006228339  -0.0001198658   0.0002166553  -0.0004449941
       -0.0003635186
       -0.0008883966   0.0105317645  -0.0198602062  -0.0668916773  -0.0082229680