105
 energy: -145.996344163783 gnorm: 0.000066867701 xtb: 6.7.1 (edcfbbe)
C           -3.50451373450113       -0.48036293571650        3.37572198069891
C           -2.08394639356440        0.03470899157608        3.18187754261912
C           -1.26921303822701       -0.87423629505296        2.26510358635249
C            0.17880616351648       -0.40556028907045        2.14796699269795
C            1.02742691712921       -1.28087936643263        1.22556948541344
C            1.38517091209487       -2.63577540792755        1.83887553370449
C            2.26415787764794       -3.50607805909705        0.93005720783611
C            1.47518790445628       -4.44354704914427        0.00351767977899
N            0.60271236113320       -3.74068510581755       -0.89525836045583
C            1.01944821332233       -3.01245395650924       -1.98361048768288
C            2.27626275223469       -2.93406735394680       -2.56967721189606
C            2.42211518268310       -2.13135672144309       -3.68430684007769
C            1.34910160755237       -1.41538633610776       -4.21228417730991
C            0.09717391343311       -1.48379023486257       -3.63392441590727
C           -0.07400416829653       -2.28298694265939       -2.51024942106016
C           -1.19430880974855       -2.56697058415327       -1.66014786765332
C           -2.49608519989097       -2.08918303981954       -1.61294407724626
C           -3.32578523784584       -2.53470292128854       -0.59901447562424
N           -4.60751488999498       -1.96926762613870       -0.44679915853405
C           -4.78295395354256       -0.65861554196408       -0.16590443726913
N           -3.73670983439709        0.16057052453179       -0.26069039662743
C           -3.96557885061939        1.40747460162906        0.12923539070279
N           -2.98032273117261        2.32715582663604        0.17446465266799
C           -1.63959576449729        2.26327237851383       -0.20770514604483
C           -1.12061237042778        1.17647442226923       -0.92108784403692
C            0.19292974950168        1.15469712066446       -1.34162511499522
C            1.00462006758169        2.23781621770313       -1.03862315572131
C            0.50033388612841        3.32884221370149       -0.29300406691177
C           -0.82515307481168        3.34192220809375        0.11637147223982
C            1.58631466147748        4.25609082456853       -0.15377117067440
C            1.71346517922627        5.49173938014517        0.46666798624062
C            2.92898016509258        6.14247101256686        0.40671565686423
C            4.01069433217812        5.57391624047459       -0.26261787784198
C            3.90968771319029        4.34606119206948       -0.88651299034049
C            2.69061546640098        3.68277451290519       -0.83291228551647
N            2.32008124192061        2.47236092909967       -1.36631380043591
C            3.13517296348003        1.60221795307622       -2.16990138830556
C            3.68424421532512        0.40668230092586       -1.38394378073714
C            4.57242292073676        0.83049952185163       -0.21705000035455
C            5.09225019712574       -0.37409602511354        0.56321681524608
C            5.94151338583886        0.04286701500209        1.76125263242034
C            6.49580014743587       -1.14524885044144        2.54830586914739
C            5.41928049292399       -1.94083324265364        3.28426557927159
C            6.02434732679890       -3.05177423210860        4.13396058743670
N           -5.15989606435913        1.86987946596492        0.53640219044080
C           -6.13696789885104        0.97867154064029        0.52996103569453
O           -7.35953345428959        1.35553790693674        0.88911687858623
C           -7.51101703094504        2.71353544110746        1.25340671628397
N           -6.01216898864121       -0.30136582942663        0.21068480253773
C           -2.89095667850945       -3.50915789821252        0.30544080682468
C           -1.59975563844552       -3.99255336765017        0.27281768362556
C           -0.73269450711677       -3.48534976793251       -0.68620633980152
H           -4.07256419341077        0.18559561300096        4.02187374910828
H           -3.49386186275974       -1.47049073408817        3.82729901234486
H           -4.01833223699390       -0.54958354956926        2.42014117384690
H           -2.11552042571138        1.03829078719565        2.75191109915155
H           -1.59086555207257        0.10618691998229        4.15517037015665
H           -1.30090986975134       -1.89236797604648        2.65856803191511
H           -1.72689755972901       -0.88383480442818        1.27403004231556
H            0.18039204345471        0.61341610709355        1.75362259508437
H            0.63538222890245       -0.37770632779296        3.14126407504334
H            1.95518538177372       -0.74608837025564        1.00828045754084
H            0.49100165732438       -1.41180034732785        0.28681424230470
H            1.92132874671731       -2.45148542629510        2.77344203697849
H            0.47411493504759       -3.18000708348885        2.08794784351658
H            2.90373519268365       -2.86335578194724        0.32152688901129
H            2.91229047609430       -4.13613817118860        1.54363750680514
H            2.17895135073027       -5.04148298384967       -0.58607363613998
H            0.87155991036197       -5.12892304593517        0.60206709092458
H            3.11741469124104       -3.48456062245953       -2.17618600491031
H            3.38910671054107       -2.05822941063847       -4.16051371355355
H            1.50390897133487       -0.80114265284941       -5.08720597154884
H           -0.73393114219077       -0.92731885202019       -4.03997369840649
H           -2.85693532158620       -1.37168645644361       -2.33152861907403
H           -5.37111915797805       -2.56068078804628       -0.15178261829963
H           -3.29049864613710        3.21233292877731        0.55324876035156
H           -1.77155678278427        0.34839117442914       -1.13498146792899
H            0.56533348435468        0.31272899541551       -1.90243595180944
H           -1.21875464002349        4.18216507853556        0.67037439594238
H            0.87433602369226        5.93132458358558        0.98496081957254
H            3.04892965532519        7.10437826649061        0.88264392213657
H            4.95049183977987        6.10577395020933       -0.29304204979312
H            4.76165824527910        3.92221842212789       -1.39656122588479
H            3.96166858288620        2.18859835588814       -2.57829504302693
H            2.53114598605268        1.23196679568489       -3.00554348336817
H            4.25139766106088       -0.22443158641873       -2.07104306454940
H            2.84490561128268       -0.18209148275043       -1.00990504027950
H            4.00232556193443        1.47498231519512        0.45601725682676
H            5.41866253929137        1.41058812231165       -0.59290020837478
H            5.68698969976003       -1.00772510668012       -0.09978648778269
H            4.24140503155846       -0.96135521362152        0.91063211151435
H            6.77724663975980        0.65078153563395        1.40584628432310
H            5.34078111190842        0.66718448064369        2.42683100212167
H            7.21536592231228       -0.77305038502562        3.28176871846024
H            7.03404365509701       -1.80989140556596        1.86806038693789
H            4.84830021479074       -1.26419396729725        3.92428154496869
H            4.72781357833990       -2.38114574853018        2.56445291654185
H            6.69989784474401       -2.63872258803356        4.87993404388516
H            5.24504989977944       -3.60908814282684        4.64911268711131
H            6.58709051809349       -3.74435219364669        3.51139353556335
H           -7.24483377546033        3.36934765241185        0.42142860298476
H           -6.87550721257965        2.95723077409058        2.10768728174115
H           -8.56045048741752        2.83568602667740        1.51288102572208
H           -3.57705146131945       -3.86350719702129        1.06091961241691
H           -1.28199180626824       -4.73111984300054        0.99340886389453
