      -----------------------------------------------------------      
     |                   =====================                   |     
     |                           x T B                           |     
     |                   =====================                   |     
     |                         S. Grimme                         |     
     |          Mulliken Center for Theoretical Chemistry        |     
     |                    University of Bonn                     |     
      -----------------------------------------------------------      

   * xtb version 6.7.1 (edcfbbe) compiled by 'albert@albert-system' on 2024-07-22

   xtb is free software: you can redistribute it and/or modify it under
   the terms of the GNU Lesser General Public License as published by
   the Free Software Foundation, either version 3 of the License, or
   (at your option) any later version.
   
   xtb is distributed in the hope that it will be useful,
   but WITHOUT ANY WARRANTY; without even the implied warranty of
   MERCHANTABILITY or FITNESS FOR A PARTICULAR PURPOSE.  See the
   GNU Lesser General Public License for more details.
   
   Cite this work as:
   * C. Bannwarth, E. Caldeweyher, S. Ehlert, A. Hansen, P. Pracht,
     J. Seibert, S. Spicher, S. Grimme, WIREs Comput. Mol. Sci., 2020, 11,
     e01493. DOI: 10.1002/wcms.1493
   
   for GFN2-xTB:
   * C. Bannwarth, S. Ehlert and S. Grimme., J. Chem. Theory Comput., 2019,
     15, 1652-1671. DOI: 10.1021/acs.jctc.8b01176
   for GFN1-xTB:
   * S. Grimme, C. Bannwarth, P. Shushkov, J. Chem. Theory Comput., 2017,
     13, 1989-2009. DOI: 10.1021/acs.jctc.7b00118
   for GFN0-xTB:
   * P. Pracht, E. Caldeweyher, S. Ehlert, S. Grimme, ChemRxiv, 2019, preprint.
     DOI: 10.26434/chemrxiv.8326202.v1
   for GFN-FF:
   * S. Spicher and S. Grimme, Angew. Chem. Int. Ed., 2020, 59, 15665-15673.
     DOI: 10.1002/anie.202004239
   
   for ALPB and GBSA implicit solvation:
   * S. Ehlert, M. Stahn, S. Spicher, S. Grimme, J. Chem. Theory Comput.,
     2021, 17, 4250-4261. DOI: 10.1021/acs.jctc.1c00471
   
   for ddCOSMO and CPCM-X implicit solvation:
   * M. Stahn, S. Ehlert, S. Grimme, J. Phys. Chem. A,
     2023, XX, XXXX-XXXX. DOI: 10.1021/acs.jpca.3c04382
   
   for DFT-D4:
   * E. Caldeweyher, C. Bannwarth and S. Grimme, J. Chem. Phys., 2017,
     147, 034112. DOI: 10.1063/1.4993215
   * E. Caldeweyher, S. Ehlert, A. Hansen, H. Neugebauer, S. Spicher,
     C. Bannwarth and S. Grimme, J. Chem. Phys., 2019, 150, 154122.
     DOI: 10.1063/1.5090222
   * E. Caldeweyher, J.-M. Mewes, S. Ehlert and S. Grimme, Phys. Chem. Chem. Phys.
     2020, 22, 8499-8512. DOI: 10.1039/D0CP00502A
   
   for sTDA-xTB:
   * S. Grimme and C. Bannwarth, J. Chem. Phys., 2016, 145, 054103.
     DOI: 10.1063/1.4959605
   
   in the mass-spec context:
   * V. Asgeirsson, C. Bauer and S. Grimme, Chem. Sci., 2017, 8, 4879.
     DOI: 10.1039/c7sc00601b
   * J. Koopman and S. Grimme, ACS Omega 2019, 4, 12, 15120-15133.
     DOI: 10.1021/acsomega.9b02011
   
   for metadynamics refer to:
   * S. Grimme, J. Chem. Theory Comput., 2019, 155, 2847-2862
     DOI: 10.1021/acs.jctc.9b00143
   
   for SPH calculations refer to:
   * S. Spicher and S. Grimme, J. Chem. Theory Comput., 2021, 17, 1701-1714
     DOI: 10.1021/acs.jctc.0c01306
   
   for ONIOM refer to:
   * C. Plett, A. Katbashev, S. Ehlert, S. Grimme, M. Bursch,
     Phys. Chem. Chem. Phys., 2023, 25, 17860-17868. DOI: 10.1039/D3CP02178E
   
   for DIPRO refer to:
   * J. Kohn, N. Gildemeister, S. Grimme, D. Fazzi, A. Hansen,
     J. Chem. Phys., 2023, just accepted.
   
   for PTB refer to:
   * S. Grimme, M. Mueller, A. Hansen, J. Chem. Phys., 2023, 158, 124111.
     DOI: 10.1063/5.0137838
   
   with help from (in alphabetical order)
   P. Atkinson, C. Bannwarth, F. Bohle, G. Brandenburg, E. Caldeweyher
   M. Checinski, S. Dohm, S. Ehlert, S. Ehrlich, I. Gerasimov, C. Hölzer
   A. Katbashev, J. Kohn, J. Koopman, C. Lavigne, S. Lehtola, F. März, M. Müller,
   F. Musil, H. Neugebauer, J. Pisarek, C. Plett, P. Pracht, F. Pultar,
   J. Seibert, P. Shushkov, S. Spicher, M. Stahn, M. Steiner, T. Strunk,
   J. Stückrath, T. Rose, and J. Unsleber
   
 * started run on 2025/09/09 at 22:18:34.746     
   ID    Z sym.   atoms
    1    6 C      1-34
    2    1 H      35-56

           -------------------------------------------------
          |                Calculation Setup                |
           -------------------------------------------------

          program call               : xtb data2507/toluene/ADN/ADN_toluene_S0_finalOpt.xtbopt.xyz --gfn 2 --uhf 2 --gbsa toluene --ohess vtight --parallel 40 --molden --ceasefiles --namespace data2507/toluene/ADN/ADN_toluene_T1_preOpt
          calculation namespace      : data2507/toluene/ADN/ADN_toluene_T1_preOpt
          coordinate file            : data2507/toluene/ADN/ADN_toluene_S0_finalOpt.xtbopt.xyz
          omp threads                :                    40


           -------------------------------------------------
          |                 G F N 2 - x T B                 |
           -------------------------------------------------

        Reference                      10.1021/acs.jctc.8b01176
      * Hamiltonian:
        H0-scaling (s, p, d)           1.850000    2.230000    2.230000
        zeta-weighting                 0.500000
      * Dispersion:
        s8                             2.700000
        a1                             0.520000
        a2                             5.000000
        s9                             5.000000
      * Repulsion:
        kExp                           1.500000    1.000000
        rExp                           1.000000
      * Coulomb:
        alpha                          2.000000
        third order                    shell-resolved
        anisotropic                    true
        a3                             3.000000
        a5                             4.000000
        cn-shift                       1.200000
        cn-exp                         4.000000
        max-rad                        5.000000

      * Solvation model:               GBSA
        Solvent                        toluene
        Parameter file                 internal GFN2-xTB/GBSA
        Dielectric constant                7.0000E+00
        Reference state                gsolv [1 M gas/solution]
        Free energy shift                  4.5239E-03 Eh       2.8388E+00 kcal/mol
        Temperature                        2.9815E+02 K
        Density                            8.6700E-01 kg/L
        Solvent mass                       9.2140E+01 g/mol
        Interaction kernel             Still
        Born radius scaling (c1)           1.5686E+00
        Born radii integrator          GBOBC
        Born offset                        0.0000E+00 a0       0.0000E+00 AA
        H-bond correction              false
        Ion screening                  false
        Surface tension                    1.0000E-05 Eh       1.5569E+01 dyn/cm
        Grid points                               230 per atom

          ...................................................
          :                      SETUP                      :
          :.................................................:
          :  # basis functions                 158          :
          :  # atomic orbitals                 158          :
          :  # shells                           90          :
          :  # electrons                       158          :
          :  max. iterations                   250          :
          :  Hamiltonian                  GFN2-xTB          :
          :  restarted?                      false          :
          :  GBSA solvation                   true          :
          :  PC potential                    false          :
          :  electronic temp.          300.0000000     K    :
          :  accuracy                    1.0000000          :
          :  -> integral cutoff          0.2500000E+02      :
          :  -> integral neglect         0.1000000E-07      :
          :  -> SCF convergence          0.1000000E-05 Eh   :
          :  -> wf. convergence          0.1000000E-03 e    :
          :  Broyden damping             0.4000000          :
          :  net charge                          0          :
          :  unpaired electrons                  2          :
          ...................................................

 iter      E             dE          RMSdq      gap      omega  full diag
   1    -85.6052890 -0.856053E+02  0.470E+00    0.66       0.0  T
   2    -85.6321057 -0.268167E-01  0.280E+00    0.45       1.0  T
   3    -85.5547937  0.773120E-01  0.118E+00    0.77       1.0  T
   4    -85.6415103 -0.867165E-01  0.244E-01    0.53       1.0  T
   5    -85.6434795 -0.196929E-02  0.119E-01    0.55       1.0  T
   6    -85.6441791 -0.699590E-03  0.268E-02    0.53       1.0  T
   7    -85.6441866 -0.749700E-05  0.165E-02    0.53       1.0  T
   8    -85.6441899 -0.331057E-05  0.479E-03    0.53       2.8  T
   9    -85.6441905 -0.531931E-06  0.152E-03    0.53       8.8  T
  10    -85.6441906 -0.104719E-06  0.402E-04    0.53      33.2  T
  11    -85.6441906  0.315040E-09  0.280E-04    0.53      47.8  T

   *** convergence criteria satisfied after 11 iterations ***

         #    Occupation            Energy/Eh            Energy/eV
      -------------------------------------------------------------
         1        2.0000           -0.6543876             -17.8068
       ...           ...                  ...                  ...
        74        2.0000           -0.3982310             -10.8364
        75        2.0000           -0.3978801             -10.8269
        76        2.0000           -0.3958986             -10.7729
        77        2.0000           -0.3786974             -10.3049
        78        2.0000           -0.3777280             -10.2785
        79        1.0000           -0.3575248              -9.7287
        80        1.0000           -0.2790114              -7.5923 (HOMO)
        81        0.0000           -0.2594967              -7.0613 (LUMO)
        82        0.0000           -0.2589075              -7.0452
        83                         -0.2304297              -6.2703
        84                         -0.2287792              -6.2254
        85                         -0.2284941              -6.2176
       ...                                ...                  ...
       158                          0.7158773              19.4800
      -------------------------------------------------------------
                  HL-Gap            0.0195146 Eh            0.5310 eV
             Fermi-level           -0.3184693 Eh           -8.6660 eV
 
 transition dipole moment (au) for excitation:          79          80
     X       Y       Z   
   1.9357   0.0017   0.1290  total (au/Debye):    1.940   4.931
 dE (eV)             :    2.136
 oscillator strength :  0.27859E+00

 SCC (total)                   0 d,  0 h,  0 min,  0.162 sec
 SCC setup                      ...        0 min,  0.002 sec (  0.988%)
 Dispersion                     ...        0 min,  0.002 sec (  1.423%)
 classical contributions        ...        0 min,  0.001 sec (  0.464%)
 integral evaluation            ...        0 min,  0.005 sec (  3.180%)
 iterations                     ...        0 min,  0.128 sec ( 78.780%)
 molecular gradient             ...        0 min,  0.009 sec (  5.576%)
 printout                       ...        0 min,  0.015 sec (  9.537%)

         :::::::::::::::::::::::::::::::::::::::::::::::::::::
         ::                     SUMMARY                     ::
         :::::::::::::::::::::::::::::::::::::::::::::::::::::
         :: total energy             -83.982744187327 Eh    ::
         :: total w/o Gsasa/hb       -83.948964128072 Eh    ::
         :: gradient norm              0.117214193248 Eh/a0 ::
         :: HOMO-LUMO gap              0.531020410403 eV    ::
         ::.................................................::
         :: SCC energy               -85.644156847373 Eh    ::
         :: -> isotropic ES            0.002945036797 Eh    ::
         :: -> anisotropic ES          0.007536188049 Eh    ::
         :: -> anisotropic XC          0.051588918939 Eh    ::
         :: -> dispersion             -0.076888633548 Eh    ::
         :: -> Gsolv                  -0.034094904072 Eh    ::
         ::    -> Gelec               -0.000314844817 Eh    ::
         ::    -> Gsasa               -0.038303939127 Eh    ::
         ::    -> Ghb                  0.000000000000 Eh    ::
         ::    -> Gshift               0.004523879872 Eh    ::
         :: repulsion energy           1.661412660046 Eh    ::
         :: add. restraining           0.000000000000 Eh    ::
         :: total charge              -0.000000000001 e     ::
         :::::::::::::::::::::::::::::::::::::::::::::::::::::

      ----------------------------------------------------------- 
     |                   =====================                   |
     |                        A N C O P T                        |
     |                   =====================                   |
     |               Approximate Normal Coordinate               |
     |                Rational Function Optimizer                |
      ----------------------------------------------------------- 

Optimization log is written to '/dev/null'
      ----------------------------------------------------------- 
     |                   =====================                   |
     |                        A N C O P T                        |
     |                   =====================                   |
     |               Approximate Normal Coordinate               |
     |                Rational Function Optimizer                |
      ----------------------------------------------------------- 

          ...................................................
          :                      SETUP                      :
          :.................................................:
          :   optimization level         verytight          :
          :   max. optcycles                  1120          :
          :   ANC micro-cycles                  20          :
          :   degrees of freedom               162          :
          :.................................................:
          :   RF solver                   davidson          :
          :   write xtbopt.log                true          :
          :   linear?                        false          :
          :   energy convergence         0.1000000E-06 Eh   :
          :   grad. convergence          0.2000000E-03 Eh/α :
          :   maxmium RF displ.          1.0000000          :
          :   Hlow (freq-cutoff)         0.1000000E-01      :
          :   Hmax (freq-cutoff)         5.0000000          :
          :   S6 in model hess.         20.0000000          :
          ...................................................

generating ANC from exact Hessian ...
Using Lindh-Hessian (1995)
 Shifting diagonal of input Hessian by   9.840691245608746E-003
 Lowest  eigenvalues of input Hessian
    0.000000    0.000000    0.000000    0.000000    0.000000    0.000000
    0.010000    0.010113    0.010429    0.010649    0.010840    0.011200
    0.011575    0.012994    0.014339    0.014467    0.015839    0.016414
 Highest eigenvalues
    2.022908    2.028134    2.048683    2.119639    2.125888    2.131146
 

........................................................................
.............................. CYCLE    1 ..............................
........................................................................

 iter      E             dE          RMSdq      gap      omega  full diag
   1    -85.6441906 -0.856442E+02  0.678E-05    0.53       0.0  T
   2    -85.6441906 -0.271143E-10  0.518E-05    0.53     258.0  T
   3    -85.6441906 -0.111257E-09  0.290E-05    0.53     461.2  T
     SCC iter.                  ...        0 min,  0.020 sec
     gradient                   ...        0 min,  0.006 sec
 * total energy  :   -83.9827442 Eh     change       -0.2933632E-08 Eh
   gradient norm :     0.1172145 Eh/α   predicted     0.0000000E+00 (-100.00%)
   displ. norm   :     0.1453595 α      lambda       -0.8690769E-02
   maximum displ.:     0.0807150 α      in ANC's #34, #63, #152, ...

........................................................................
.............................. CYCLE    2 ..............................
........................................................................

 iter      E             dE          RMSdq      gap      omega  full diag
   1    -85.6362022 -0.856362E+02  0.827E-02    0.66       0.0  T
   2    -85.6362166 -0.143524E-04  0.527E-02    0.64       1.0  T
   3    -85.6361931  0.235153E-04  0.250E-02    0.65       1.0  T
   4    -85.6362211 -0.280030E-04  0.738E-03    0.65       1.8  T
   5    -85.6362250 -0.394103E-05  0.102E-03    0.65      13.1  T
   6    -85.6362250 -0.176741E-07  0.517E-04    0.65      25.9  T
   7    -85.6362250 -0.245196E-08  0.264E-04    0.65      50.6  T
     SCC iter.                  ...        0 min,  0.038 sec
     gradient                   ...        0 min,  0.006 sec
 * total energy  :   -83.9887385 Eh     change       -0.5994300E-02 Eh
   gradient norm :     0.0500137 Eh/α   predicted    -0.4437274E-02 ( -25.98%)
   displ. norm   :     0.1122375 α      lambda       -0.2496258E-02
   maximum displ.:     0.0576876 α      in ANC's #13, #4, #34, ...

........................................................................
.............................. CYCLE    3 ..............................
........................................................................

 iter      E             dE          RMSdq      gap      omega  full diag
   1    -85.6349047 -0.856349E+02  0.543E-02    0.73       0.0  T
   2    -85.6349088 -0.409432E-05  0.334E-02    0.72       1.0  T
   3    -85.6348983  0.105451E-04  0.152E-02    0.73       1.0  T
   4    -85.6349104 -0.121094E-04  0.426E-03    0.72       3.1  T
   5    -85.6349116 -0.121505E-05  0.560E-04    0.72      23.9  T
   6    -85.6349116 -0.552717E-09  0.297E-04    0.72      45.1  T
   7    -85.6349116 -0.161400E-08  0.122E-04    0.72     109.5  T
     SCC iter.                  ...        0 min,  0.038 sec
     gradient                   ...        0 min,  0.006 sec
 * total energy  :   -83.9901257 Eh     change       -0.1387234E-02 Eh
   gradient norm :     0.0073582 Eh/α   predicted    -0.1263979E-02 (  -8.88%)
   displ. norm   :     0.0840246 α      lambda       -0.1736642E-03
   maximum displ.:     0.0579640 α      in ANC's #4, #13, #8, ...

........................................................................
.............................. CYCLE    4 ..............................
........................................................................

 iter      E             dE          RMSdq      gap      omega  full diag
   1    -85.6342205 -0.856342E+02  0.315E-02    0.74       0.0  T
   2    -85.6342206 -0.970749E-07  0.184E-02    0.73       1.0  T
   3    -85.6342202  0.369434E-06  0.249E-03    0.73       5.4  T
   4    -85.6342206 -0.437205E-06  0.373E-04    0.73      35.9  T
   5    -85.6342207 -0.220078E-08  0.226E-04    0.73      59.0  T
     SCC iter.                  ...        0 min,  0.027 sec
     gradient                   ...        0 min,  0.006 sec
 * total energy  :   -83.9902599 Eh     change       -0.1341294E-03 Eh
   gradient norm :     0.0034277 Eh/α   predicted    -0.8746399E-04 ( -34.79%)
   displ. norm   :     0.1682404 α      lambda       -0.1906222E-03
   maximum displ.:     0.1233846 α      in ANC's #4, #13, #8, ...

........................................................................
.............................. CYCLE    5 ..............................
........................................................................

 iter      E             dE          RMSdq      gap      omega  full diag
   1    -85.6336015 -0.856336E+02  0.568E-02    0.74       0.0  T
   2    -85.6336017 -0.246264E-06  0.333E-02    0.74       1.0  T
   3    -85.6336001  0.162328E-05  0.518E-03    0.74       2.6  T
   4    -85.6336020 -0.186600E-05  0.621E-04    0.74      21.5  T
   5    -85.6336020 -0.313624E-08  0.423E-04    0.74      31.6  T
   6    -85.6336020 -0.302850E-08  0.873E-05    0.74     153.0  T
     SCC iter.                  ...        0 min,  0.032 sec
     gradient                   ...        0 min,  0.006 sec
 * total energy  :   -83.9903910 Eh     change       -0.1311468E-03 Eh
   gradient norm :     0.0046071 Eh/α   predicted    -0.9806844E-04 ( -25.22%)
   displ. norm   :     0.1396299 α      lambda       -0.8926450E-04
   maximum displ.:     0.1099540 α      in ANC's #4, #13, #2, ...

........................................................................
.............................. CYCLE    6 ..............................
........................................................................

 iter      E             dE          RMSdq      gap      omega  full diag
   1    -85.6337946 -0.856338E+02  0.432E-02    0.74       0.0  T
   2    -85.6337947 -0.139432E-06  0.254E-02    0.75       1.0  T
   3    -85.6337945  0.225006E-06  0.235E-03    0.74       5.7  T
   4    -85.6337948 -0.298892E-06  0.471E-04    0.75      28.4  T
   5    -85.6337948 -0.608684E-08  0.310E-04    0.75      43.1  T
     SCC iter.                  ...        0 min,  0.027 sec
     gradient                   ...        0 min,  0.006 sec
 * total energy  :   -83.9904657 Eh     change       -0.7471134E-04 Eh
   gradient norm :     0.0047153 Eh/α   predicted    -0.4552608E-04 ( -39.06%)
   displ. norm   :     0.1384506 α      lambda       -0.9150377E-04
   maximum displ.:     0.1104674 α      in ANC's #4, #2, #13, ...

........................................................................
.............................. CYCLE    7 ..............................
........................................................................

 iter      E             dE          RMSdq      gap      omega  full diag
   1    -85.6344708 -0.856345E+02  0.413E-02    0.74       0.0  T
   2    -85.6344709 -0.121750E-06  0.242E-02    0.74       1.0  T
   3    -85.6344708  0.109352E-06  0.188E-03    0.74       7.1  T
   4    -85.6344710 -0.168483E-06  0.422E-04    0.74      31.6  T
   5    -85.6344710 -0.251819E-08  0.246E-04    0.74      54.4  T
     SCC iter.                  ...        0 min,  0.027 sec
     gradient                   ...        0 min,  0.007 sec
 * total energy  :   -83.9905481 Eh     change       -0.8241061E-04 Eh
   gradient norm :     0.0035371 Eh/α   predicted    -0.4662995E-04 ( -43.42%)
   displ. norm   :     0.1685114 α      lambda       -0.1116972E-03
   maximum displ.:     0.1350432 α      in ANC's #4, #2, #13, ...

........................................................................
.............................. CYCLE    8 ..............................
........................................................................

 iter      E             dE          RMSdq      gap      omega  full diag
   1    -85.6350718 -0.856351E+02  0.491E-02    0.74       0.0  T
   2    -85.6350720 -0.157842E-06  0.288E-02    0.74       1.0  T
   3    -85.6350715  0.449603E-06  0.295E-03    0.74       4.5  T
   4    -85.6350721 -0.550851E-06  0.555E-04    0.74      24.1  T
   5    -85.6350721 -0.741484E-08  0.317E-04    0.74      42.2  T
     SCC iter.                  ...        0 min,  0.027 sec
     gradient                   ...        0 min,  0.006 sec
 * total energy  :   -83.9906479 Eh     change       -0.9975356E-04 Eh
   gradient norm :     0.0027958 Eh/α   predicted    -0.5743841E-04 ( -42.42%)
   displ. norm   :     0.1890716 α      lambda       -0.1120498E-03
   maximum displ.:     0.1521695 α      in ANC's #4, #2, #8, ...

........................................................................
.............................. CYCLE    9 ..............................
........................................................................

 iter      E             dE          RMSdq      gap      omega  full diag
   1    -85.6351632 -0.856352E+02  0.537E-02    0.74       0.0  T
   2    -85.6351634 -0.175842E-06  0.315E-02    0.74       1.0  T
   3    -85.6351626  0.790356E-06  0.371E-03    0.74       3.6  T
   4    -85.6351635 -0.932138E-06  0.574E-04    0.74      23.3  T
   5    -85.6351636 -0.536532E-08  0.350E-04    0.74      38.2  T
     SCC iter.                  ...        0 min,  0.027 sec
     gradient                   ...        0 min,  0.006 sec
 * total energy  :   -83.9907484 Eh     change       -0.1004898E-03 Eh
   gradient norm :     0.0027927 Eh/α   predicted    -0.5804188E-04 ( -42.24%)
   displ. norm   :     0.1816437 α      lambda       -0.9828551E-04
   maximum displ.:     0.1457511 α      in ANC's #4, #2, #8, ...

........................................................................
.............................. CYCLE   10 ..............................
........................................................................

 iter      E             dE          RMSdq      gap      omega  full diag
   1    -85.6349958 -0.856350E+02  0.506E-02    0.75       0.0  T
   2    -85.6349959 -0.144013E-06  0.296E-02    0.74       1.0  T
   3    -85.6349953  0.593744E-06  0.322E-03    0.75       4.1  T
   4    -85.6349960 -0.708560E-06  0.506E-04    0.74      26.4  T
   5    -85.6349960 -0.281058E-08  0.313E-04    0.75      42.7  T
     SCC iter.                  ...        0 min,  0.027 sec
     gradient                   ...        0 min,  0.006 sec
 * total energy  :   -83.9908399 Eh     change       -0.9155802E-04 Eh
   gradient norm :     0.0028673 Eh/α   predicted    -0.5076586E-04 ( -44.55%)
   displ. norm   :     0.1820807 α      lambda       -0.9886478E-04
   maximum displ.:     0.1434678 α      in ANC's #4, #2, #8, ...

........................................................................
.............................. CYCLE   11 ..............................
........................................................................

 iter      E             dE          RMSdq      gap      omega  full diag
   1    -85.6347682 -0.856348E+02  0.503E-02    0.75       0.0  T
   2    -85.6347684 -0.131265E-06  0.295E-02    0.75       1.0  T
   3    -85.6347680  0.349436E-06  0.257E-03    0.75       5.2  T
   4    -85.6347685 -0.441626E-06  0.464E-04    0.75      28.8  T
   5    -85.6347685 -0.150762E-08  0.282E-04    0.75      47.4  T
     SCC iter.                  ...        0 min,  0.027 sec
     gradient                   ...        0 min,  0.007 sec
 * total energy  :   -83.9909354 Eh     change       -0.9546678E-04 Eh
   gradient norm :     0.0028963 Eh/α   predicted    -0.5107358E-04 ( -46.50%)
   displ. norm   :     0.2205097 α      lambda       -0.1247441E-03
   maximum displ.:     0.1692103 α      in ANC's #4, #2, #13, ...

........................................................................
.............................. CYCLE   12 ..............................
........................................................................

 iter      E             dE          RMSdq      gap      omega  full diag
   1    -85.6344123 -0.856344E+02  0.608E-02    0.75       0.0  T
   2    -85.6344125 -0.185774E-06  0.357E-02    0.75       1.0  T
   3    -85.6344123  0.246184E-06  0.239E-03    0.75       5.6  T
   4    -85.6344126 -0.359053E-06  0.533E-04    0.75      25.1  T
   5    -85.6344126 -0.183999E-08  0.309E-04    0.75      43.3  T
     SCC iter.                  ...        0 min,  0.027 sec
     gradient                   ...        0 min,  0.006 sec
 * total energy  :   -83.9910567 Eh     change       -0.1213032E-03 Eh
   gradient norm :     0.0029598 Eh/α   predicted    -0.6540777E-04 ( -46.08%)
   displ. norm   :     0.2976392 α      lambda       -0.1694762E-03
   maximum displ.:     0.2236412 α      in ANC's #4, #2, #13, ...

........................................................................
.............................. CYCLE   13 ..............................
........................................................................

 iter      E             dE          RMSdq      gap      omega  full diag
   1    -85.6337410 -0.856337E+02  0.822E-02    0.75       0.0  T
   2    -85.6337414 -0.345632E-06  0.482E-02    0.75       1.0  T
   3    -85.6337411  0.210122E-06  0.264E-03    0.76       5.1  T
   4    -85.6337415 -0.395966E-06  0.717E-04    0.75      18.6  T
   5    -85.6337415 -0.556484E-08  0.403E-04    0.75      33.2  T
     SCC iter.                  ...        0 min,  0.027 sec
     gradient                   ...        0 min,  0.006 sec
 * total energy  :   -83.9912196 Eh     change       -0.1629241E-03 Eh
   gradient norm :     0.0030593 Eh/α   predicted    -0.9224557E-04 ( -43.38%)
   displ. norm   :     0.4038962 α      lambda       -0.2216470E-03
   maximum displ.:     0.3001389 α      in ANC's #4, #2, #8, ...

........................................................................
.............................. CYCLE   14 ..............................
........................................................................

 iter      E             dE          RMSdq      gap      omega  full diag
   1    -85.6325684 -0.856326E+02  0.112E-01    0.76       0.0  T
   2    -85.6325691 -0.667561E-06  0.656E-02    0.76       1.0  T
   3    -85.6325689  0.242437E-06  0.335E-03    0.76       4.0  T
   4    -85.6325694 -0.575240E-06  0.979E-04    0.76      13.7  T
   5    -85.6325694 -0.119500E-07  0.555E-04    0.76      24.1  T
     SCC iter.                  ...        0 min,  0.027 sec
     gradient                   ...        0 min,  0.006 sec
 * total energy  :   -83.9914248 Eh     change       -0.2051964E-03 Eh
   gradient norm :     0.0032379 Eh/α   predicted    -0.1289085E-03 ( -37.18%)
   displ. norm   :     0.5168044 α      lambda       -0.2559806E-03
   maximum displ.:     0.3832481 α      in ANC's #4, #2, #8, ...

........................................................................
.............................. CYCLE   15 ..............................
........................................................................

 iter      E             dE          RMSdq      gap      omega  full diag
   1    -85.6308242 -0.856308E+02  0.144E-01    0.77       0.0  T
   2    -85.6308254 -0.114371E-05  0.846E-02    0.77       1.0  T
   3    -85.6308250  0.384816E-06  0.436E-03    0.77       3.1  T
   4    -85.6308259 -0.937848E-06  0.127E-03    0.77      10.5  T
   5    -85.6308260 -0.196239E-07  0.734E-04    0.77      18.2  T
   6    -85.6308260 -0.105735E-07  0.198E-04    0.77      67.6  T
     SCC iter.                  ...        0 min,  0.033 sec
     gradient                   ...        0 min,  0.006 sec
 * total energy  :   -83.9916565 Eh     change       -0.2316702E-03 Eh
   gradient norm :     0.0038430 Eh/α   predicted    -0.1621781E-03 ( -30.00%)
   displ. norm   :     0.7512144 α      lambda       -0.3478545E-03
   maximum displ.:     0.5615566 α      in ANC's #4, #2, #8, ...

........................................................................
.............................. CYCLE   16 ..............................
........................................................................

 iter      E             dE          RMSdq      gap      omega  full diag
   1    -85.6272467 -0.856272E+02  0.213E-01    0.77       0.0  T
   2    -85.6272493 -0.256970E-05  0.125E-01    0.78       1.0  T
   3    -85.6272481  0.115865E-05  0.680E-03    0.77       2.0  T
   4    -85.6272505 -0.234391E-05  0.190E-03    0.77       7.1  T
   5    -85.6272505 -0.587984E-07  0.109E-03    0.78      12.2  T
   6    -85.6272505 -0.225282E-07  0.319E-04    0.78      41.9  T
   7    -85.6272505 -0.296616E-08  0.102E-04    0.78     131.5  T
     SCC iter.                  ...        0 min,  0.038 sec
     gradient                   ...        0 min,  0.006 sec
 * total energy  :   -83.9919580 Eh     change       -0.3015599E-03 Eh
   gradient norm :     0.0060284 Eh/α   predicted    -0.2720801E-03 (  -9.78%)
   displ. norm   :     0.6611759 α      lambda       -0.3143831E-03
   maximum displ.:     0.4985012 α      in ANC's #4, #2, #8, ...

........................................................................
.............................. CYCLE   17 ..............................
........................................................................

 iter      E             dE          RMSdq      gap      omega  full diag
   1    -85.6262707 -0.856263E+02  0.193E-01    0.78       0.0  T
   2    -85.6262726 -0.193640E-05  0.113E-01    0.78       1.0  T
   3    -85.6262717  0.887689E-06  0.594E-03    0.78       2.2  T
   4    -85.6262735 -0.182306E-05  0.165E-03    0.78       8.1  T
   5    -85.6262736 -0.376902E-07  0.959E-04    0.78      13.9  T
   6    -85.6262736 -0.178642E-07  0.265E-04    0.78      50.4  T
     SCC iter.                  ...        0 min,  0.032 sec
     gradient                   ...        0 min,  0.006 sec
 * total energy  :   -83.9921948 Eh     change       -0.2367910E-03 Eh
   gradient norm :     0.0067847 Eh/α   predicted    -0.2259223E-03 (  -4.59%)
   displ. norm   :     0.3797284 α      lambda       -0.3077933E-03
   maximum displ.:     0.2864441 α      in ANC's #4, #2, #8, ...

........................................................................
.............................. CYCLE   18 ..............................
........................................................................

 iter      E             dE          RMSdq      gap      omega  full diag
   1    -85.6352589 -0.856353E+02  0.120E-01    0.79       0.0  T
   2    -85.6352598 -0.863526E-06  0.707E-02    0.79       1.0  T
   3    -85.6352589  0.856953E-06  0.471E-03    0.79       2.8  T
   4    -85.6352602 -0.124788E-05  0.121E-03    0.79      11.0  T
   5    -85.6352602 -0.400508E-07  0.657E-04    0.79      20.3  T
   6    -85.6352602 -0.432863E-08  0.195E-04    0.79      68.6  T
     SCC iter.                  ...        0 min,  0.033 sec
     gradient                   ...        0 min,  0.006 sec
 * total energy  :   -83.9923879 Eh     change       -0.1931062E-03 Eh
   gradient norm :     0.0042242 Eh/α   predicted    -0.1760889E-03 (  -8.81%)
   displ. norm   :     0.6217884 α      lambda       -0.2062022E-03
   maximum displ.:     0.4751654 α      in ANC's #4, #2, #8, ...

........................................................................
.............................. CYCLE   19 ..............................
........................................................................

 iter      E             dE          RMSdq      gap      omega  full diag
   1    -85.6319728 -0.856320E+02  0.187E-01    0.79       0.0  T
   2    -85.6319749 -0.201651E-05  0.110E-01    0.79       1.0  T
   3    -85.6319737  0.114354E-05  0.633E-03    0.79       2.1  T
   4    -85.6319758 -0.203129E-05  0.165E-03    0.79       8.1  T
   5    -85.6319758 -0.447688E-07  0.961E-04    0.79      13.9  T
   6    -85.6319758 -0.171742E-07  0.313E-04    0.79      42.7  T
     SCC iter.                  ...        0 min,  0.032 sec
     gradient                   ...        0 min,  0.006 sec
 * total energy  :   -83.9925458 Eh     change       -0.1578552E-03 Eh
   gradient norm :     0.0040647 Eh/α   predicted    -0.1429638E-03 (  -9.43%)
   displ. norm   :     0.5414315 α      lambda       -0.1391238E-03
   maximum displ.:     0.4157192 α      in ANC's #4, #2, #8, ...

........................................................................
.............................. CYCLE   20 ..............................
........................................................................

 iter      E             dE          RMSdq      gap      omega  full diag
   1    -85.6306158 -0.856306E+02  0.166E-01    0.80       0.0  T
   2    -85.6306173 -0.144542E-05  0.976E-02    0.80       1.0  T
   3    -85.6306160  0.122077E-05  0.586E-03    0.80       2.3  T
   4    -85.6306180 -0.192272E-05  0.148E-03    0.80       9.0  T
   5    -85.6306180 -0.378483E-07  0.869E-04    0.80      15.4  T
   6    -85.6306180 -0.164915E-07  0.256E-04    0.80      52.2  T
     SCC iter.                  ...        0 min,  0.035 sec
     gradient                   ...        0 min,  0.007 sec
 * total energy  :   -83.9926427 Eh     change       -0.9692399E-04 Eh
   gradient norm :     0.0044811 Eh/α   predicted    -0.8995469E-04 (  -7.19%)
   displ. norm   :     0.2881599 α      lambda       -0.1130629E-03
   maximum displ.:     0.2192913 α      in ANC's #4, #2, #8, ...
 * RMSD in coord.:     0.7755530 α      energy gain  -0.9898533E-02 Eh

generating ANC from exact Hessian ...
Using Lindh-Hessian (1995)
 Shifting diagonal of input Hessian by   9.858669643147926E-003
 Lowest  eigenvalues of input Hessian
    0.000000    0.000000    0.000000    0.000000    0.000000    0.000000
    0.010000    0.010154    0.010499    0.010649    0.010862    0.011177
    0.011538    0.012971    0.014078    0.014337    0.016364    0.016430
 Highest eigenvalues
    2.015728    2.021083    2.034012    2.086022    2.124249    2.128804
 

........................................................................
.............................. CYCLE   21 ..............................
........................................................................

 iter      E             dE          RMSdq      gap      omega  full diag
   1    -85.6352934 -0.856353E+02  0.942E-02    0.80       0.0  T
   2    -85.6352938 -0.413740E-06  0.553E-02    0.80       1.0  T
   3    -85.6352928  0.100101E-05  0.441E-03    0.80       3.0  T
   4    -85.6352941 -0.127182E-05  0.865E-04    0.80      15.5  T
   5    -85.6352941 -0.105082E-07  0.490E-04    0.80      27.3  T
   6    -85.6352941 -0.398873E-08  0.117E-04    0.80     114.7  T
     SCC iter.                  ...        0 min,  0.033 sec
     gradient                   ...        0 min,  0.006 sec
 * total energy  :   -83.9927129 Eh     change       -0.7014374E-04 Eh
   gradient norm :     0.0025262 Eh/α   predicted     0.0000000E+00 (-100.00%)
   displ. norm   :     0.0165238 α      lambda       -0.7836185E-05
   maximum displ.:     0.0090774 α      in ANC's #4, #13, #24, ...

........................................................................
.............................. CYCLE   22 ..............................
........................................................................

 iter      E             dE          RMSdq      gap      omega  full diag
   1    -85.6353472 -0.856353E+02  0.811E-03    0.81       0.0  T
   2    -85.6353472 -0.204243E-07  0.485E-03    0.80       2.8  T
   3    -85.6353471  0.780650E-07  0.114E-03    0.80      11.8  T
   4    -85.6353472 -0.856503E-07  0.209E-04    0.80      63.8  T
   5    -85.6353472 -0.258312E-08  0.852E-05    0.80     156.8  T
     SCC iter.                  ...        0 min,  0.027 sec
     gradient                   ...        0 min,  0.006 sec
 * total energy  :   -83.9927210 Eh     change       -0.8158626E-05 Eh
   gradient norm :     0.0011107 Eh/α   predicted    -0.5721513E-05 ( -29.87%)
   displ. norm   :     0.0371312 α      lambda       -0.6089387E-05
   maximum displ.:     0.0254825 α      in ANC's #4, #6, #13, ...

........................................................................
.............................. CYCLE   23 ..............................
........................................................................

 iter      E             dE          RMSdq      gap      omega  full diag
   1    -85.6351580 -0.856352E+02  0.144E-02    0.81       0.0  T
   2    -85.6351580 -0.243498E-07  0.851E-03    0.81       1.6  T
   3    -85.6351577  0.262800E-06  0.201E-03    0.81       6.7  T
   4    -85.6351580 -0.288469E-06  0.243E-04    0.81      55.0  T
   5    -85.6351580 -0.277321E-08  0.113E-04    0.81     117.9  T
     SCC iter.                  ...        0 min,  0.027 sec
     gradient                   ...        0 min,  0.007 sec
 * total energy  :   -83.9927254 Eh     change       -0.4333378E-05 Eh
   gradient norm :     0.0009325 Eh/α   predicted    -0.3046855E-05 ( -29.69%)
   displ. norm   :     0.0179057 α      lambda       -0.1814423E-05
   maximum displ.:     0.0139013 α      in ANC's #4, #6, #8, ...

........................................................................
.............................. CYCLE   24 ..............................
........................................................................

 iter      E             dE          RMSdq      gap      omega  full diag
   1    -85.6350357 -0.856350E+02  0.608E-03    0.81       0.0  T
   2    -85.6350357 -0.401856E-08  0.358E-03    0.81       3.7  T
   3    -85.6350357  0.592777E-08  0.339E-04    0.81      39.4  T
   4    -85.6350357 -0.720416E-08  0.826E-05    0.81     161.9  T
     SCC iter.                  ...        0 min,  0.022 sec
     gradient                   ...        0 min,  0.006 sec
 * total energy  :   -83.9927278 Eh     change       -0.2482369E-05 Eh
   gradient norm :     0.0006551 Eh/α   predicted    -0.9447722E-06 ( -61.94%)
   displ. norm   :     0.0373394 α      lambda       -0.3120652E-05
   maximum displ.:     0.0276552 α      in ANC's #4, #6, #8, ...

........................................................................
.............................. CYCLE   25 ..............................
........................................................................

 iter      E             dE          RMSdq      gap      omega  full diag
   1    -85.6349643 -0.856350E+02  0.126E-02    0.81       0.0  T
   2    -85.6349643 -0.115093E-07  0.740E-03    0.81       1.8  T
   3    -85.6349643  0.952350E-08  0.517E-04    0.81      25.8  T
   4    -85.6349643 -0.143347E-07  0.119E-04    0.81     112.4  T
     SCC iter.                  ...        0 min,  0.022 sec
     gradient                   ...        0 min,  0.006 sec
 * total energy  :   -83.9927315 Eh     change       -0.3696881E-05 Eh
   gradient norm :     0.0002392 Eh/α   predicted    -0.1561568E-05 ( -57.76%)
   displ. norm   :     0.0435294 α      lambda       -0.2396341E-05
   maximum displ.:     0.0319179 α      in ANC's #4, #6, #8, ...

........................................................................
.............................. CYCLE   26 ..............................
........................................................................

 iter      E             dE          RMSdq      gap      omega  full diag
   1    -85.6349193 -0.856349E+02  0.144E-02    0.81       0.0  T
   2    -85.6349194 -0.116468E-07  0.848E-03    0.81       1.6  T
   3    -85.6349193  0.166645E-07  0.640E-04    0.81      20.9  T
   4    -85.6349194 -0.235740E-07  0.132E-04    0.81     100.9  T
     SCC iter.                  ...        0 min,  0.022 sec
     gradient                   ...        0 min,  0.007 sec
 * total energy  :   -83.9927346 Eh     change       -0.3062936E-05 Eh
   gradient norm :     0.0004709 Eh/α   predicted    -0.1201393E-05 ( -60.78%)
   displ. norm   :     0.0447498 α      lambda       -0.2211945E-05
   maximum displ.:     0.0326324 α      in ANC's #4, #6, #8, ...

........................................................................
.............................. CYCLE   27 ..............................
........................................................................

 iter      E             dE          RMSdq      gap      omega  full diag
   1    -85.6349502 -0.856350E+02  0.148E-02    0.81       0.0  T
   2    -85.6349502 -0.109497E-07  0.867E-03    0.81       1.5  T
   3    -85.6349502  0.200782E-07  0.667E-04    0.81      20.0  T
   4    -85.6349502 -0.272968E-07  0.125E-04    0.81     107.1  T
     SCC iter.                  ...        0 min,  0.022 sec
     gradient                   ...        0 min,  0.006 sec
 * total energy  :   -83.9927375 Eh     change       -0.2930239E-05 Eh
   gradient norm :     0.0004611 Eh/α   predicted    -0.1107707E-05 ( -62.20%)
   displ. norm   :     0.0479796 α      lambda       -0.2188329E-05
   maximum displ.:     0.0350810 α      in ANC's #4, #6, #8, ...

........................................................................
.............................. CYCLE   28 ..............................
........................................................................

 iter      E             dE          RMSdq      gap      omega  full diag
   1    -85.6350352 -0.856350E+02  0.159E-02    0.81       0.0  T
   2    -85.6350352 -0.137925E-07  0.936E-03    0.81       1.4  T
   3    -85.6350352  0.277095E-07  0.777E-04    0.81      17.2  T
   4    -85.6350352 -0.368292E-07  0.148E-04    0.81      90.4  T
     SCC iter.                  ...        0 min,  0.022 sec
     gradient                   ...        0 min,  0.007 sec
 * total energy  :   -83.9927403 Eh     change       -0.2770105E-05 Eh
   gradient norm :     0.0002430 Eh/α   predicted    -0.1096648E-05 ( -60.41%)
   displ. norm   :     0.0428115 α      lambda       -0.1513418E-05
   maximum displ.:     0.0321606 α      in ANC's #4, #6, #8, ...

........................................................................
.............................. CYCLE   29 ..............................
........................................................................

 iter      E             dE          RMSdq      gap      omega  full diag
   1    -85.6350884 -0.856351E+02  0.144E-02    0.81       0.0  T
   2    -85.6350884 -0.101926E-07  0.844E-03    0.81       1.6  T
   3    -85.6350883  0.245842E-07  0.710E-04    0.81      18.8  T
   4    -85.6350884 -0.317306E-07  0.124E-04    0.81     108.0  T
     SCC iter.                  ...        0 min,  0.022 sec
     gradient                   ...        0 min,  0.006 sec
 * total energy  :   -83.9927422 Eh     change       -0.1860146E-05 Eh
   gradient norm :     0.0000755 Eh/α   predicted    -0.7580506E-06 ( -59.25%)
   displ. norm   :     0.0266464 α      lambda       -0.6994998E-06
   maximum displ.:     0.0211786 α      in ANC's #4, #6, #11, ...

........................................................................
.............................. CYCLE   30 ..............................
........................................................................

 iter      E             dE          RMSdq      gap      omega  full diag
   1    -85.6351267 -0.856351E+02  0.910E-03    0.81       0.0  T
   2    -85.6351267 -0.390538E-08  0.535E-03    0.81       2.5  T
   3    -85.6351266  0.129471E-07  0.490E-04    0.81      27.3  T
   4    -85.6351267 -0.159727E-07  0.801E-05    0.81     166.9  T
     SCC iter.                  ...        0 min,  0.022 sec
     gradient                   ...        0 min,  0.006 sec
 * total energy  :   -83.9927431 Eh     change       -0.9030997E-06 Eh
   gradient norm :     0.0000919 Eh/α   predicted    -0.3525728E-06 ( -60.96%)
   displ. norm   :     0.0140460 α      lambda       -0.3466271E-06
   maximum displ.:     0.0121657 α      in ANC's #4, #6, #11, ...

........................................................................
.............................. CYCLE   31 ..............................
........................................................................

 iter      E             dE          RMSdq      gap      omega  full diag
   1    -85.6351281 -0.856351E+02  0.493E-03    0.81       0.0  T
   2    -85.6351281 -0.102455E-08  0.289E-03    0.81       4.6  T
   3    -85.6351281  0.429461E-08  0.264E-04    0.81      50.6  T
   4    -85.6351281 -0.516042E-08  0.419E-05    0.81     318.8  T
     SCC iter.                  ...        0 min,  0.022 sec
     gradient                   ...        0 min,  0.006 sec
 * total energy  :   -83.9927435 Eh     change       -0.4838518E-06 Eh
   gradient norm :     0.0000943 Eh/α   predicted    -0.1776102E-06 ( -63.29%)
   displ. norm   :     0.0090188 α      lambda       -0.2505030E-06
   maximum displ.:     0.0082002 α      in ANC's #4, #8, #2, ...

........................................................................
.............................. CYCLE   32 ..............................
........................................................................

 iter      E             dE          RMSdq      gap      omega  full diag
   1    -85.6351146 -0.856351E+02  0.317E-03    0.81       0.0  T
   2    -85.6351146 -0.428813E-09  0.186E-03    0.81       7.2  T
   3    -85.6351146  0.167643E-08  0.163E-04    0.81      81.8  T
   4    -85.6351146 -0.201173E-08  0.283E-05    0.81     472.0  T
     SCC iter.                  ...        0 min,  0.022 sec
     gradient                   ...        0 min,  0.006 sec
 * total energy  :   -83.9927439 Eh     change       -0.3530628E-06 Eh
   gradient norm :     0.0000763 Eh/α   predicted    -0.1276865E-06 ( -63.83%)
   displ. norm   :     0.0087215 α      lambda       -0.2293645E-06
   maximum displ.:     0.0076819 α      in ANC's #4, #2, #8, ...

........................................................................
.............................. CYCLE   33 ..............................
........................................................................

 iter      E             dE          RMSdq      gap      omega  full diag
   1    -85.6350916 -0.856351E+02  0.292E-03    0.81       0.0  T
   2    -85.6350916 -0.431442E-09  0.172E-03    0.81       7.8  T
   3    -85.6350916  0.135259E-08  0.149E-04    0.81      89.7  T
   4    -85.6350916 -0.163887E-08  0.300E-05    0.81     445.4  T
     SCC iter.                  ...        0 min,  0.022 sec
     gradient                   ...        0 min,  0.006 sec
 * total energy  :   -83.9927442 Eh     change       -0.3353291E-06 Eh
   gradient norm :     0.0000473 Eh/α   predicted    -0.1182805E-06 ( -64.73%)
   displ. norm   :     0.0091125 α      lambda       -0.2214656E-06
   maximum displ.:     0.0074843 α      in ANC's #4, #2, #6, ...

........................................................................
.............................. CYCLE   34 ..............................
........................................................................

 iter      E             dE          RMSdq      gap      omega  full diag
   1    -85.6350685 -0.856351E+02  0.286E-03    0.81       0.0  T
   2    -85.6350685 -0.485230E-09  0.168E-03    0.81       8.0  T
   3    -85.6350685  0.126211E-08  0.151E-04    0.81      88.5  T
   4    -85.6350685 -0.154959E-08  0.301E-05    0.81     444.6  T
     SCC iter.                  ...        0 min,  0.022 sec
     gradient                   ...        0 min,  0.006 sec
 * total energy  :   -83.9927445 Eh     change       -0.3107891E-06 Eh
   gradient norm :     0.0000415 Eh/α   predicted    -0.1118907E-06 ( -64.00%)
   displ. norm   :     0.0104841 α      lambda       -0.2284885E-06
   maximum displ.:     0.0081119 α      in ANC's #4, #2, #6, ...

........................................................................
.............................. CYCLE   35 ..............................
........................................................................

 iter      E             dE          RMSdq      gap      omega  full diag
   1    -85.6350514 -0.856351E+02  0.313E-03    0.81       0.0  T
   2    -85.6350514 -0.663348E-09  0.184E-03    0.81       7.3  T
   3    -85.6350514  0.169190E-08  0.182E-04    0.81      73.5  T
   4    -85.6350514 -0.209222E-08  0.315E-05    0.81     423.9  T
     SCC iter.                  ...        0 min,  0.022 sec
     gradient                   ...        0 min,  0.007 sec
 * total energy  :   -83.9927449 Eh     change       -0.3209702E-06 Eh
   gradient norm :     0.0000552 Eh/α   predicted    -0.1157554E-06 ( -63.94%)
   displ. norm   :     0.0130752 α      lambda       -0.2611824E-06
   maximum displ.:     0.0096626 α      in ANC's #4, #2, #6, ...

........................................................................
.............................. CYCLE   36 ..............................
........................................................................

 iter      E             dE          RMSdq      gap      omega  full diag
   1    -85.6350369 -0.856350E+02  0.380E-03    0.81       0.0  T
   2    -85.6350369 -0.101798E-08  0.223E-03    0.81       6.0  T
   3    -85.6350369  0.241765E-08  0.224E-04    0.81      59.6  T
   4    -85.6350369 -0.303449E-08  0.357E-05    0.81     374.1  T
     SCC iter.                  ...        0 min,  0.022 sec
     gradient                   ...        0 min,  0.006 sec
 * total energy  :   -83.9927452 Eh     change       -0.3693231E-06 Eh
   gradient norm :     0.0000654 Eh/α   predicted    -0.1331788E-06 ( -63.94%)
   displ. norm   :     0.0176418 α      lambda       -0.3272658E-06
   maximum displ.:     0.0126721 α      in ANC's #4, #2, #6, ...

........................................................................
.............................. CYCLE   37 ..............................
........................................................................

 iter      E             dE          RMSdq      gap      omega  full diag
   1    -85.6350289 -0.856350E+02  0.508E-03    0.81       0.0  T
   2    -85.6350289 -0.190684E-08  0.298E-03    0.81       4.5  T
   3    -85.6350289  0.485605E-08  0.317E-04    0.81      42.1  T
   4    -85.6350289 -0.603731E-08  0.477E-05    0.81     280.0  T
     SCC iter.                  ...        0 min,  0.022 sec
     gradient                   ...        0 min,  0.006 sec
 * total energy  :   -83.9927457 Eh     change       -0.4535889E-06 Eh
   gradient norm :     0.0000662 Eh/α   predicted    -0.1681272E-06 ( -62.93%)
   displ. norm   :     0.0234350 α      lambda       -0.3938804E-06
   maximum displ.:     0.0166468 α      in ANC's #4, #2, #6, ...

........................................................................
.............................. CYCLE   38 ..............................
........................................................................

 iter      E             dE          RMSdq      gap      omega  full diag
   1    -85.6350233 -0.856350E+02  0.677E-03    0.81       0.0  T
   2    -85.6350233 -0.342722E-08  0.397E-03    0.81       3.4  T
   3    -85.6350233  0.916225E-08  0.432E-04    0.81      31.0  T
   4    -85.6350233 -0.112893E-07  0.647E-05    0.81     206.5  T
     SCC iter.                  ...        0 min,  0.022 sec
     gradient                   ...        0 min,  0.006 sec
 * total energy  :   -83.9927462 Eh     change       -0.5097915E-06 Eh
   gradient norm :     0.0000633 Eh/α   predicted    -0.2016013E-06 ( -60.45%)
   displ. norm   :     0.0251812 α      lambda       -0.3445263E-06
   maximum displ.:     0.0180074 α      in ANC's #4, #2, #6, ...

........................................................................
.............................. CYCLE   39 ..............................
........................................................................

 iter      E             dE          RMSdq      gap      omega  full diag
   1    -85.6350214 -0.856350E+02  0.734E-03    0.81       0.0  T
   2    -85.6350214 -0.386481E-08  0.430E-03    0.81       3.1  T
   3    -85.6350214  0.102427E-07  0.454E-04    0.81      29.5  T
   4    -85.6350214 -0.126513E-07  0.705E-05    0.81     189.6  T
     SCC iter.                  ...        0 min,  0.022 sec
     gradient                   ...        0 min,  0.007 sec
 * total energy  :   -83.9927466 Eh     change       -0.4184563E-06 Eh
   gradient norm :     0.0000450 Eh/α   predicted    -0.1743989E-06 ( -58.32%)
   displ. norm   :     0.0185066 α      lambda       -0.1715671E-06
   maximum displ.:     0.0136930 α      in ANC's #4, #2, #6, ...

........................................................................
.............................. CYCLE   40 ..............................
........................................................................

 iter      E             dE          RMSdq      gap      omega  full diag
   1    -85.6350266 -0.856350E+02  0.548E-03    0.81       0.0  T
   2    -85.6350266 -0.209064E-08  0.322E-03    0.81       4.2  T
   3    -85.6350266  0.576225E-08  0.337E-04    0.81      39.6  T
   4    -85.6350266 -0.708154E-08  0.528E-05    0.81     253.3  T
     SCC iter.                  ...        0 min,  0.022 sec
     gradient                   ...        0 min,  0.006 sec
 * total energy  :   -83.9927468 Eh     change       -0.2129370E-06 Eh
   gradient norm :     0.0000225 Eh/α   predicted    -0.8973566E-07 ( -57.86%)
   displ. norm   :     0.0081150 α      lambda       -0.5739230E-07
   maximum displ.:     0.0064884 α      in ANC's #4, #2, #8, ...

........................................................................
.............................. CYCLE   41 ..............................
........................................................................

 iter      E             dE          RMSdq      gap      omega  full diag
   1    -85.6350342 -0.856350E+02  0.251E-03    0.81       0.0  T
   2    -85.6350342 -0.355229E-09  0.147E-03    0.81       9.1  T
   3    -85.6350342  0.872944E-09  0.130E-04    0.81     102.7  T
   4    -85.6350342 -0.110032E-08  0.230E-05    0.81     581.0  T
     SCC iter.                  ...        0 min,  0.022 sec
     gradient                   ...        0 min,  0.006 sec
 * total energy  :   -83.9927469 Eh     change       -0.7745112E-07 Eh
   gradient norm :     0.0000193 Eh/α   predicted    -0.2943836E-07 ( -61.99%)
   displ. norm   :     0.0081150 α      lambda        0.0000000E+00
   maximum displ.:     0.0064884 α      in ANC's #4, #2, #8, ...

   *** GEOMETRY OPTIMIZATION CONVERGED AFTER 41 ITERATIONS ***

------------------------------------------------------------------------
 total energy gain   :        -0.0100027 Eh       -6.2768 kcal/mol
 total RMSD          :         0.8177576 a0        0.4327 Å
 total power (kW/mol):        -0.6405400 (step)  -16.6077 (real)
------------------------------------------------------------------------

 ANCopt (total)                0 d,  0 h,  0 min,  1.581 sec
 optimizer setup                ...        0 min,  0.000 sec (  0.013%)
 model hessian                  ...        0 min,  0.041 sec (  2.613%)
 ANC generation                 ...        0 min,  0.007 sec (  0.467%)
 coordinate transformation      ...        0 min,  0.004 sec (  0.261%)
 single point calculation       ...        0 min,  1.509 sec ( 95.426%)
 optimization log               ...        0 min,  0.008 sec (  0.481%)
 hessian update                 ...        0 min,  0.004 sec (  0.270%)
 rational function              ...        0 min,  0.004 sec (  0.237%)

================
 final structure:
================
56
 xtb: 6.7.1 (edcfbbe)
C           -7.86268740321276        0.47947436053021        0.10905828338318
C           -7.28240821723653        1.18811412275812        1.17237261945069
C           -5.92549238961461        1.19446799350368        1.34103017186847
C           -5.08453748702482        0.48908968303331        0.45136772200100
C           -3.68617527758131        0.48586114356981        0.59334123448946
C           -2.87006023607281       -0.21801920710758       -0.27369294485313
C           -1.41981382745248       -0.21188158239484       -0.12838690048767
C           -0.71138678428310       -1.44853483077385       -0.02445868418413
C           -1.37963745981165       -2.67531120583295        0.04246078289457
C           -0.68535090810213       -3.88281531471129        0.05956652051933
C            0.69230275674856       -3.88201377964723        0.00120991946954
C            1.38439378440357       -2.67312906458650       -0.00021418357667
C            0.71393163577419       -1.44670500864048        0.04822856132965
C            1.42019880736020       -0.20739645588472        0.13334430918408
C            2.87048467517000       -0.20923133896076        0.27866213661484
C            3.47716525656280       -0.92034403466911        1.34507760193674
C            4.82871384410837       -0.91253268353274        1.51781996992065
C            5.67577843877191       -0.21690083393509        0.62434228524387
C            7.07511925528659       -0.19742986962565        0.77097799354437
C            7.86240514843987        0.48526691956406       -0.11806607432134
C            7.28100037932959        1.17734244943525       -1.19162618531257
C            5.92396561216338        1.18030462182594       -1.35942518648836
C            5.08405718017453        0.48822892876128       -0.45840074561205
C            3.68563074837081        0.48153070725816       -0.59973483279344
C            0.70725415752026        1.03080567367550        0.08456526798857
C            1.35476586937774        2.26000193989951        0.24362283089718
C            0.67105961648720        3.46701448084621        0.11769674026521
C           -0.67664433693315        3.46348031043179       -0.17320989531764
C           -1.35832248807674        2.25342840302972       -0.27929147271016
C           -0.70887567424643        1.02812556363849       -0.09959685295932
C           -3.47569289797245       -0.94664502611096       -1.32879823004630
C           -4.82714159125874       -0.94249140102136       -1.50236952148877
C           -5.67516216751211       -0.23329014341604       -0.62054397190212
C           -7.07438306487670       -0.21664676300325       -0.76859749360251
H           -8.93653787225267        0.48664286247478       -0.01032566922636
H           -7.91901410857538        1.72962007312970        1.85754461146795
H           -5.47391286389419        1.74130083620125        2.15699926218762
H           -3.24658580947366        1.02072692301618        1.42400004928204
H           -2.45796639905246       -2.69101325583292        0.08438859715177
H           -1.23375483353619       -4.81235303492677        0.10247250526260
H            1.24238891477278       -4.81110518813590       -0.02749414608028
H            2.46275003905617       -2.68751788567267       -0.04203388204788
H            2.84016421085134       -1.43812751823427        2.04790469377756
H            5.27492800741379       -1.43745538389832        2.35117376671622
H            7.51922353030337       -0.73377097084007        1.59806589070605
H            8.93636255416134        0.49458878982871        0.00021462210896
H            7.91685093312523        1.70863966520095       -1.88542830536848
H            5.47146404275399        1.71431143247630       -2.18333760218861
H            3.24541372219061        1.00247467460867       -1.43888357897901
H            2.40858002779509        2.27815008698883        0.47598987820247
H            1.20600842575008        4.39763735240892        0.23727948627233
H           -1.21312512845865        4.39107943177710       -0.30839467386743
H           -2.41214292048032        2.26603617049813       -0.51199276434854
H           -2.83791992408498       -1.47502866602092       -2.02295997343678
H           -5.27253396790742       -1.48083567209627       -2.32755502002201
H           -7.51756134184065       -0.76579350329998       -1.58774995645418
 
 Bond Distances (Angstroems)
 ---------------------------
C1-C2=1.4034         C1-C34=1.3698        C1-H35=1.0805        C2-C1=1.4034         C2-C3=1.3674         C2-H36=1.0807        
C3-C2=1.3674         C3-C4=1.4129         C3-H37=1.0811        C4-C3=1.4129         C4-C5=1.4056         C4-C33=1.4211        
C5-C4=1.4056         C5-C6=1.3832         C5-H38=1.0813        C6-C5=1.3832         C6-C7=1.4575         C6-C31=1.4181        
C7-C6=1.4575         C7-C8=1.4290         C7-C30=1.4296        C8-C7=1.4290         C8-C9=1.3986         C8-C13=1.4272        
C9-C8=1.3986         C9-C10=1.3930        C9-H39=1.0793        C10-C9=1.3930        C10-C11=1.3789       C10-H40=1.0801       
C11-C10=1.3789       C11-C12=1.3930       C11-H41=1.0801       C12-C11=1.3930       C12-C13=1.3986       C12-H42=1.0793       
C13-C8=1.4272        C13-C12=1.3986       C13-C14=1.4290       C14-C13=1.4290       C14-C15=1.4575       C14-C25=1.4296       
C15-C14=1.4575       C15-C16=1.4181       C15-C24=1.3832       C16-C15=1.4181       C16-C17=1.3626       C16-H43=1.0807       
C17-C16=1.3626       C17-C18=1.4141       C17-H44=1.0813       C18-C17=1.4141       C18-C19=1.4071       C18-C23=1.4212       
C19-C18=1.4071       C19-C20=1.3698       C19-H45=1.0812       C20-C19=1.3698       C20-C21=1.4034       C20-H46=1.0805       
C21-C20=1.4034       C21-C22=1.3674       C21-H47=1.0807       C22-C21=1.3674       C22-C23=1.4129       C22-H48=1.0811       
C23-C18=1.4212       C23-C22=1.4129       C23-C24=1.4056       C24-C15=1.3832       C24-C23=1.4056       C24-H49=1.0814       
C25-C14=1.4296       C25-C26=1.3984       C25-C30=1.4281       C26-C25=1.3984       C26-C27=1.3929       C26-H50=1.0793       
C27-C26=1.3929       C27-C28=1.3787       C27-H51=1.0801       C28-C27=1.3787       C28-C29=1.3929       C28-H52=1.0801       
C29-C28=1.3929       C29-C30=1.3984       C29-H53=1.0793       C30-C7=1.4296        C30-C25=1.4281       C30-C29=1.3984       
C31-C6=1.4181        C31-C32=1.3626       C31-H54=1.0806       C32-C31=1.3626       C32-C33=1.4141       C32-H55=1.0813       
C33-C4=1.4211        C33-C32=1.4141       C33-C34=1.4071       C34-C1=1.3698        C34-C33=1.4071       C34-H56=1.0812       
H35-C1=1.0805        H36-C2=1.0807        H37-C3=1.0811        H38-C5=1.0813        H39-C9=1.0793        H40-C10=1.0801       
H41-C11=1.0801       H42-C12=1.0793       H43-C16=1.0807       H44-C17=1.0813       H45-C19=1.0812       H46-C20=1.0805       
H47-C21=1.0807       H48-C22=1.0811       H49-C24=1.0814       H50-C26=1.0793       H51-C27=1.0801       H52-C28=1.0801       
H53-C29=1.0793       H54-C31=1.0806       H55-C32=1.0813       H56-C34=1.0812       
 C  H  Rav=1.0805 sigma=0.0007  Rmin=1.0793  Rmax=1.0814    22
 C  C  Rav=1.4035 sigma=0.0234  Rmin=1.3626  Rmax=1.4575    40
 
 selected bond angles (degree)
 --------------------
C34-C1-C2=120.27               H35-C1-C2=119.43               H35-C1-C34=120.30              C3-C2-C1=120.41                
H36-C2-C1=119.33               H36-C2-C3=120.27               C4-C3-C2=120.71                H37-C3-C2=120.66               
H37-C3-C4=118.63               C5-C4-C3=121.99                C33-C4-C3=118.77               C33-C4-C5=119.24               
C6-C5-C4=121.66                H38-C5-C4=118.74               H38-C5-C6=119.56               C7-C6-C5=121.50                
C31-C6-C5=118.42               C31-C6-C7=120.09               C8-C7-C6=119.79                C30-C7-C6=120.03               
C30-C7-C8=120.17               C9-C8-C7=121.72                C13-C8-C7=119.85               C13-C8-C9=118.42               
C10-C9-C8=121.52               H39-C9-C8=119.47               H39-C9-C10=119.01              C11-C10-C9=119.80              
H40-C10-C9=119.57              H40-C10-C11=120.63             
 
 selected dihedral angles (degree)
 ---------------------------------
C3-C2-C1-C34=  0.20           C3-C2-C1-H35=180.11           H36-C2-C1-C34=180.19          H36-C2-C1-H35=  0.10          
C4-C3-C2-C1=359.95            C4-C3-C2-H36=179.96           H37-C3-C2-C1=179.82           H37-C3-C2-H36=359.83          
C5-C4-C3-C2=179.50            C5-C4-C3-H37=359.62           C33-C4-C3-C2=359.73           C33-C4-C3-H37=179.86          
C6-C5-C4-C3=179.34            C6-C5-C4-C33=359.11           H38-C5-C4-C3=  1.53           H38-C5-C4-C33=181.29          
C7-C6-C5-C4=179.60            C7-C6-C5-H38=357.39           C31-C6-C5-C4=  0.16           C31-C6-C5-H38=177.96          
C8-C7-C6-C5=125.31            C8-C7-C6-C31=304.74           C30-C7-C6-C5=304.87           C30-C7-C6-C31=124.30          
C9-C8-C7-C6=355.14            C9-C8-C7-C30=175.58           C13-C8-C7-C6=176.76           C13-C8-C7-C30=357.21          
C10-C9-C8-C7=175.93           C10-C9-C8-C13=354.33          H39-C9-C8-C7=355.78           H39-C9-C8-C13=174.18          
C11-C10-C9-C8=359.59          C11-C10-C9-H39=179.74         H40-C10-C9-C8=180.57          H40-C10-C9-H39=  0.72         
           -------------------------------------------------
          |                Final Singlepoint                |
           -------------------------------------------------

          ...................................................
          :                      SETUP                      :
          :.................................................:
          :  # basis functions                 158          :
          :  # atomic orbitals                 158          :
          :  # shells                           90          :
          :  # electrons                       158          :
          :  max. iterations                   250          :
          :  Hamiltonian                  GFN2-xTB          :
          :  restarted?                      false          :
          :  GBSA solvation                   true          :
          :  PC potential                    false          :
          :  electronic temp.          300.0000000     K    :
          :  accuracy                    1.0000000          :
          :  -> integral cutoff          0.2500000E+02      :
          :  -> integral neglect         0.1000000E-07      :
          :  -> SCF convergence          0.1000000E-05 Eh   :
          :  -> wf. convergence          0.1000000E-03 e    :
          :  Broyden damping             0.4000000          :
          :  net charge                          0          :
          :  unpaired electrons                  2          :
          ...................................................

 iter      E             dE          RMSdq      gap      omega  full diag
   1    -85.6350342 -0.856350E+02  0.144E-05    0.81       0.0  T
   2    -85.6350342 -0.625278E-12  0.997E-06    0.81    1340.4  T
   3    -85.6350342 -0.261480E-11  0.617E-06    0.81    2166.5  T

   *** convergence criteria satisfied after 3 iterations ***

         #    Occupation            Energy/Eh            Energy/eV
      -------------------------------------------------------------
         1        2.0000           -0.6522361             -17.7482
       ...           ...                  ...                  ...
        74        2.0000           -0.3998395             -10.8802
        75        2.0000           -0.3962521             -10.7826
        76        2.0000           -0.3954931             -10.7619
        77        2.0000           -0.3783262             -10.2948
        78        2.0000           -0.3770555             -10.2602
        79        1.0000           -0.3487708              -9.4905
        80        1.0000           -0.2887147              -7.8563 (HOMO)
        81        0.0000           -0.2589617              -7.0467 (LUMO)
        82                         -0.2574399              -7.0053
        83                         -0.2290922              -6.2339
        84                         -0.2288053              -6.2261
        85                         -0.2268127              -6.1719
       ...                                ...                  ...
       158                          0.7144668              19.4416
      -------------------------------------------------------------
                  HL-Gap            0.0297530 Eh            0.8096 eV
             Fermi-level           -0.3183639 Eh           -8.6631 eV
 
 transition dipole moment (au) for excitation:          79          80
     X       Y       Z   
  -2.5194  -0.0023  -0.0419  total (au/Debye):    2.520   6.405
 dE (eV)             :    1.634
 oscillator strength :  0.35948E+00

 SCC (total)                   0 d,  0 h,  0 min,  0.041 sec
 SCC setup                      ...        0 min,  0.000 sec (  1.039%)
 Dispersion                     ...        0 min,  0.001 sec (  1.349%)
 classical contributions        ...        0 min,  0.000 sec (  0.066%)
 integral evaluation            ...        0 min,  0.002 sec (  4.972%)
 iterations                     ...        0 min,  0.017 sec ( 40.964%)
 molecular gradient             ...        0 min,  0.006 sec ( 15.772%)
 printout                       ...        0 min,  0.014 sec ( 35.622%)

         :::::::::::::::::::::::::::::::::::::::::::::::::::::
         ::                     SUMMARY                     ::
         :::::::::::::::::::::::::::::::::::::::::::::::::::::
         :: total energy             -83.992746907563 Eh    ::
         :: total w/o Gsasa/hb       -83.959459558455 Eh    ::
         :: gradient norm              0.000032458463 Eh/a0 ::
         :: HOMO-LUMO gap              0.809619137718 eV    ::
         ::.................................................::
         :: SCC energy               -85.635194401047 Eh    ::
         :: -> isotropic ES            0.003017068637 Eh    ::
         :: -> anisotropic ES          0.007310248879 Eh    ::
         :: -> anisotropic XC          0.051738081593 Eh    ::
         :: -> dispersion             -0.077180779238 Eh    ::
         :: -> Gsolv                  -0.033595114565 Eh    ::
         ::    -> Gelec               -0.000307765456 Eh    ::
         ::    -> Gsasa               -0.037811228980 Eh    ::
         ::    -> Ghb                  0.000000000000 Eh    ::
         ::    -> Gshift               0.004523879872 Eh    ::
         :: repulsion energy           1.642447493484 Eh    ::
         :: add. restraining           0.000000000000 Eh    ::
         :: total charge               0.000000000315 e     ::
         :::::::::::::::::::::::::::::::::::::::::::::::::::::

           ------------------------------------------------- 
          |                Numerical Hessian                |
           ------------------------------------------------- 
step length          :   0.00500
SCC accuracy         :   0.30000
Hessian scale factor :   1.00000
frozen atoms in %    :   0.00000    0
RMS gradient         :   0.00003
estimated CPU  time     14.68 min
estimated wall time      0.38 min

writing file <hessian>.

 projected vibrational frequencies (cm⁻¹)
eigval :       -0.00    -0.00    -0.00    -0.00     0.00     0.00
eigval :       11.13    24.98    41.05    42.69    48.42    55.85
eigval :       80.09   116.74   139.57   141.72   145.81   167.81
eigval :      171.54   185.09   188.98   199.84   233.86   286.80
eigval :      300.39   339.85   341.78   344.69   358.64   373.51
eigval :      390.87   393.32   403.86   418.41   426.00   450.17
eigval :      451.67   469.11   476.77   494.72   494.77   496.41
eigval :      525.83   555.76   562.17   565.55   577.32   589.46
eigval :      592.01   609.76   627.14   640.82   651.28   671.37
eigval :      691.25   716.56   721.41   722.07   744.80   754.84
eigval :      755.37   760.21   781.97   794.02   804.78   823.87
eigval :      828.79   835.31   841.43   847.65   866.05   872.78
eigval :      877.15   882.64   884.33   885.49   887.10   894.29
eigval :      898.88   903.72   906.29   914.00   914.79   926.19
eigval :      926.40   929.22   931.32   944.52   982.72  1000.58
eigval :     1078.33  1078.56  1100.90  1104.27  1113.33  1120.22
eigval :     1140.28  1141.75  1171.43  1171.84  1176.46  1178.46
eigval :     1178.81  1179.39  1179.71  1182.17  1218.70  1222.85
eigval :     1227.51  1227.80  1233.28  1252.29  1259.22  1260.65
eigval :     1277.28  1289.30  1298.97  1318.47  1327.37  1332.58
eigval :     1358.60  1361.75  1369.89  1370.66  1375.40  1389.19
eigval :     1391.07  1407.68  1419.64  1421.24  1423.76  1441.14
eigval :     1441.97  1477.59  1486.19  1490.19  1491.00  1520.68
eigval :     1527.13  1537.84  1539.45  1555.22  1580.16  1582.21
eigval :     1599.90  1599.90  3062.26  3062.62  3063.83  3063.91
eigval :     3065.31  3065.35  3068.15  3068.43  3072.04  3072.18
eigval :     3074.14  3074.22  3078.76  3078.96  3080.60  3080.88
eigval :     3085.37  3085.57  3091.63  3092.33  3094.86  3096.42
           -------------------------------------------------
          |                Property Printout                |
           -------------------------------------------------

    * Orbital Energies and Occupations

         #    Occupation            Energy/Eh            Energy/eV
      -------------------------------------------------------------
         1        2.0000           -0.6522362             -17.7482
       ...           ...                  ...                  ...
        68        2.0000           -0.4187753             -11.3955
        69        2.0000           -0.4156937             -11.3116
        70        2.0000           -0.4140572             -11.2671
        71        2.0000           -0.4124766             -11.2241
        72        2.0000           -0.4059982             -11.0478
        73        2.0000           -0.4005425             -10.8993
        74        2.0000           -0.3998395             -10.8802
        75        2.0000           -0.3962521             -10.7826
        76        2.0000           -0.3954931             -10.7619
        77        2.0000           -0.3783262             -10.2948
        78        2.0000           -0.3770555             -10.2602
        79        1.0000           -0.3487709              -9.4905
        80        1.0000           -0.2887147              -7.8563 (HOMO)
        81        0.0000           -0.2589617              -7.0467 (LUMO)
        82                         -0.2574399              -7.0053
        83                         -0.2290922              -6.2339
        84                         -0.2288053              -6.2261
        85                         -0.2268128              -6.1719
        86                         -0.2223214              -6.0497
        87                         -0.1911907              -5.2026
        88                         -0.1892474              -5.1497
        89                         -0.1781854              -4.8487
        90                         -0.1742109              -4.7405
        91                         -0.1446485              -3.9361
       ...                                ...                  ...
       158                          0.7144668              19.4416
      -------------------------------------------------------------
                  HL-Gap            0.0297530 Eh            0.8096 eV
             Fermi-level           -0.3183639 Eh           -8.6631 eV

     #   Z          covCN         q      C6AA      α(0)
     1   6 C        2.916    -0.032    28.800     8.800
     2   6 C        2.915    -0.031    28.776     8.796
     3   6 C        2.918    -0.037    28.923     8.819
     4   6 C        2.984     0.011    27.765     8.643
     5   6 C        2.923    -0.041    29.016     8.834
     6   6 C        2.970     0.014    27.705     8.634
     7   6 C        2.973    -0.010    28.263     8.720
     8   6 C        2.977     0.008    27.835     8.654
     9   6 C        2.921    -0.038    28.953     8.824
    10   6 C        2.913    -0.032    28.804     8.801
    11   6 C        2.913    -0.032    28.804     8.801
    12   6 C        2.921    -0.038    28.953     8.824
    13   6 C        2.977     0.008    27.835     8.654
    14   6 C        2.973    -0.010    28.263     8.720
    15   6 C        2.970     0.014    27.705     8.634
    16   6 C        2.919    -0.033    28.813     8.802
    17   6 C        2.915    -0.038    28.939     8.821
    18   6 C        2.986     0.010    27.789     8.647
    19   6 C        2.917    -0.036    28.908     8.817
    20   6 C        2.916    -0.032    28.800     8.800
    21   6 C        2.915    -0.031    28.776     8.796
    22   6 C        2.918    -0.037    28.923     8.819
    23   6 C        2.984     0.011    27.765     8.643
[...]
    47   1 H        0.926     0.030     2.585     2.514
    48   1 H        0.926     0.031     2.571     2.507
    49   1 H        0.925     0.033     2.547     2.496
    50   1 H        0.926     0.034     2.527     2.486
    51   1 H        0.926     0.030     2.583     2.513
    52   1 H        0.926     0.030     2.583     2.513
    53   1 H        0.926     0.034     2.527     2.486
    54   1 H        0.926     0.033     2.543     2.494
    55   1 H        0.925     0.033     2.547     2.496
    56   1 H        0.926     0.031     2.571     2.507

 Mol. C6AA /au·bohr⁶  :      46981.837422
 Mol. C8AA /au·bohr⁸  :    1207328.626378
 Mol. α(0) /au        :        352.856695


MOs/occ written to file <molden.input>


molecular dipole:
                 x           y           z       tot (Debye)
 q only:        0.000      -0.001      -0.000
   full:        0.000       0.001      -0.000       0.003
molecular quadrupole (traceless):
                xx          xy          yy          xz          yz          zz
 q only:        2.893       0.010      -0.669       1.149      -0.012      -2.224
  q+dip:       12.614       0.023      -2.890       2.972      -0.055      -9.724
   full:        5.618       0.013      -1.453       1.773      -0.022      -4.165

           -------------------------------------------------
          |                Geometry Summary                 |
           -------------------------------------------------

      molecular mass/u    :      430.5397171
   center of mass at/Å    :        0.0001315      -0.0059533       0.0002087
  moments of inertia/u·Å² :        0.1548689E+04   0.8606664E+04   0.9629456E+04
rotational constants/cm⁻¹ :        0.1088510E-01   0.1958672E-02   0.1750632E-02

 * 60 selected distances

     #   Z          #   Z                                           value/Å
     1   6 C        2   6 C                                       1.4034002
     2   6 C        3   6 C                                       1.3673722
     3   6 C        4   6 C                                       1.4128918
     4   6 C        5   6 C                                       1.4055547
     5   6 C        6   6 C                                       1.3831992
     7   6 C        8   6 C                                       1.4289792
     8   6 C        9   6 C                                       1.3985771
     9   6 C       10   6 C                                       1.3929799
    10   6 C       11   6 C                                       1.3788894
    11   6 C       12   6 C                                       1.3929805
     8   6 C       13   6 C                                       1.4271719
    12   6 C       13   6 C                                       1.3985644
    13   6 C       14   6 C                                       1.4289661
    15   6 C       16   6 C                                       1.4180920
    16   6 C       17   6 C                                       1.3625655
    17   6 C       18   6 C                                       1.4141163
    18   6 C       19   6 C                                       1.4071376
    19   6 C       20   6 C                                       1.3697787
    20   6 C       21   6 C                                       1.4034001
    21   6 C       22   6 C                                       1.3673730
    18   6 C       23   6 C                                       1.4211527
    22   6 C       23   6 C                                       1.4128908
    15   6 C       24   6 C                                       1.3831836
    23   6 C       24   6 C                                       1.4055664
    14   6 C       25   6 C                                       1.4296204
    25   6 C       26   6 C                                       1.3983900
    26   6 C       27   6 C                                       1.3929075
    27   6 C       28   6 C                                       1.3787478
    28   6 C       29   6 C                                       1.3928978
     7   6 C       30   6 C                                       1.4296433 (max)
    25   6 C       30   6 C                                       1.4280571
    29   6 C       30   6 C                                       1.3983700
     6   6 C       31   6 C                                       1.4180741
    31   6 C       32   6 C                                       1.3625557
     4   6 C       33   6 C                                       1.4211492
    32   6 C       33   6 C                                       1.4141153
     1   6 C       34   6 C                                       1.3697768
    33   6 C       34   6 C                                       1.4071305
     1   6 C       35   1 H                                       1.0804901
     2   6 C       36   1 H                                       1.0807204
     3   6 C       37   1 H                                       1.0810902
     5   6 C       38   1 H                                       1.0813485
     9   6 C       39   1 H                                       1.0792581 (min)
    10   6 C       40   1 H                                       1.0801057
    11   6 C       41   1 H                                       1.0801064
    12   6 C       42   1 H                                       1.0792629
    16   6 C       43   1 H                                       1.0806647
    17   6 C       44   1 H                                       1.0812630
    19   6 C       45   1 H                                       1.0811868
    20   6 C       46   1 H                                       1.0804915
    21   6 C       47   1 H                                       1.0807147
    22   6 C       48   1 H                                       1.0810887
    24   6 C       49   1 H                                       1.0813623
    26   6 C       50   1 H                                       1.0792814
    27   6 C       51   1 H                                       1.0800599
    28   6 C       52   1 H                                       1.0800588
    29   6 C       53   1 H                                       1.0792806
    31   6 C       54   1 H                                       1.0806500
    32   6 C       55   1 H                                       1.0812586
    34   6 C       56   1 H                                       1.0811938

 * 2 distinct bonds (by element types)

   Z      Z             #   av. dist./Å        max./Å        min./Å
   1 H    6 C          22     1.0804971     1.0813623     1.0792581
   6 C    6 C          38     1.4006900     1.4296433     1.3625557

           -------------------------------------------------
          |               Frequency Printout                |
           -------------------------------------------------
 projected vibrational frequencies (cm⁻¹)
eigval :       -0.00    -0.00    -0.00    -0.00     0.00     0.00
eigval :       11.13    24.98    41.05    42.69    48.42    55.85
eigval :       80.09   116.74   139.57   141.72   145.81   167.81
eigval :      171.54   185.09   188.98   199.84   233.86   286.80
eigval :      300.39   339.85   341.78   344.69   358.64   373.51
eigval :      390.87   393.32   403.86   418.41   426.00   450.17
eigval :      451.67   469.11   476.77   494.72   494.77   496.41
eigval :      525.83   555.76   562.17   565.55   577.32   589.46
eigval :      592.01   609.76   627.14   640.82   651.28   671.37
eigval :      691.25   716.56   721.41   722.07   744.80   754.84
eigval :      755.37   760.21   781.97   794.02   804.78   823.87
eigval :      828.79   835.31   841.43   847.65   866.05   872.78
eigval :      877.15   882.64   884.33   885.49   887.10   894.29
eigval :      898.88   903.72   906.29   914.00   914.79   926.19
eigval :      926.40   929.22   931.32   944.52   982.72  1000.58
eigval :     1078.33  1078.56  1100.90  1104.27  1113.33  1120.22
eigval :     1140.28  1141.75  1171.43  1171.84  1176.46  1178.46
eigval :     1178.81  1179.39  1179.71  1182.17  1218.70  1222.85
eigval :     1227.51  1227.80  1233.28  1252.29  1259.22  1260.65
eigval :     1277.28  1289.30  1298.97  1318.47  1327.37  1332.58
eigval :     1358.60  1361.75  1369.89  1370.66  1375.40  1389.19
eigval :     1391.07  1407.68  1419.64  1421.24  1423.76  1441.14
eigval :     1441.97  1477.59  1486.19  1490.19  1491.00  1520.68
eigval :     1527.13  1537.84  1539.45  1555.22  1580.16  1582.21
eigval :     1599.90  1599.90  3062.26  3062.62  3063.83  3063.91
eigval :     3065.31  3065.35  3068.15  3068.43  3072.04  3072.18
eigval :     3074.14  3074.22  3078.76  3078.96  3080.60  3080.88
eigval :     3085.37  3085.57  3091.63  3092.33  3094.86  3096.42
 reduced masses (amu)
   1: 11.29   2: 11.35   3: 11.21   4: 11.36   5: 10.92   6: 11.33   7: 11.04   8: 10.93
   9: 10.17  10: 10.74  11: 10.41  12: 10.26  13: 10.64  14:  9.87  15: 10.72  16: 10.66
  17: 11.06  18: 10.18  19: 10.52  20: 10.31  21: 10.04  22: 10.65  23: 10.71  24: 10.39
  25: 10.48  26: 10.31  27: 10.51  28: 10.32  29:  9.50  30:  9.76  31: 11.29  32: 10.15
  33: 10.77  34:  9.81  35: 10.30  36:  8.80  37:  8.88  38:  9.98  39: 10.42  40: 11.30
  41: 11.30  42: 10.14  43: 11.43  44: 11.18  45: 10.72  46: 10.68  47: 11.25  48: 11.02
  49: 11.26  50: 10.76  51: 10.57  52: 11.10  53: 10.25  54: 11.43  55: 11.17  56: 11.43
  57: 11.43  58: 11.37  59:  2.98  60:  4.03  61:  3.55  62:  3.47  63: 11.04  64: 10.66
  65: 10.55  66: 10.85  67:  4.44  68:  4.59  69:  3.56  70:  3.60  71:  3.48  72:  3.46
  73:  3.91  74:  5.70  75:  8.75  76: 10.03  77:  5.07  78:  9.92  79:  4.88  80:  3.40
  81:  3.48  82:  3.86  83:  3.86  84:  3.16  85:  3.17  86:  3.33  87:  3.29  88: 10.78
  89: 10.10  90:  9.44  91:  6.80  92:  6.79  93:  7.26  94:  6.24  95:  6.46  96:  7.08
  97:  5.64  98:  5.46  99:  2.69 100:  2.23 101:  4.84 102:  2.02 103:  1.71 104:  2.06
 105:  2.90 106:  2.69 107:  6.43 108:  6.54 109:  6.26 110:  6.82 111:  5.10 112:  4.52
 113:  4.49 114:  4.35 115: 10.93 116:  9.88 117:  9.63 118:  9.91 119:  7.90 120:  8.05
 121: 10.58 122: 10.80 123: 10.70 124: 10.46 125:  7.94 126: 10.27 127:  9.87 128:  8.60
 129: 10.11 130: 10.10 131: 10.45 132:  9.43 133:  9.60 134: 10.20 135: 10.82 136: 10.53
 137: 10.61 138: 11.31 139: 10.97 140: 11.44 141: 11.47 142: 11.56 143: 11.52 144: 11.51
 145: 11.37 146: 11.36 147:  1.79 148:  1.79 149:  1.76 150:  1.76 151:  1.79 152:  1.79
 153:  1.81 154:  1.81 155:  1.76 156:  1.76 157:  1.86 158:  1.85 159:  1.87 160:  1.87
 161:  1.82 162:  1.83 163:  1.91 164:  1.91 165:  1.83 166:  1.83 167:  1.88 168:  1.88
 IR intensities (km·mol⁻¹)
   1:  0.00   2:  0.00   3:  0.00   4:  0.01   5:  0.00   6:  0.00   7:  0.05   8:  0.01
   9:  0.01  10:  0.02  11:  0.00  12:  0.02  13:  0.50  14:  0.01  15:  0.11  16:  0.08
  17:  0.05  18:  0.25  19:  0.03  20:  0.45  21:  0.29  22:  0.07  23:  0.19  24:  4.45
  25:  0.05  26:  0.07  27:  0.22  28:  0.82  29:  0.38  30:  0.07  31:  0.03  32:  3.78
  33:  0.35  34:  5.16  35:  1.86  36:  3.98  37:  2.32  38:  0.05  39:  3.23  40:  0.01
  41:  0.01  42:  0.30  43:  0.00  44: 21.57  45:  1.48  46:  0.12  47:  0.20  48:  1.18
  49:  0.30  50:  0.67  51:  0.95  52:  0.16  53:  5.59  54:  0.12  55:  8.24  56:  0.00
  57:  0.01  58:  0.08  59:  1.57  60:  3.75  61: 10.88  62: 45.80  63:  0.02  64:  4.27
  65:  0.18  66:  1.63  67: 19.99  68: 15.34  69:  2.14  70:  5.02  71:  9.15  72:  0.26
  73:  0.08  74:  0.06  75:  0.05  76:  5.23  77:  9.20  78:  0.57  79: 17.54  80:  0.19
  81:  0.07  82:  0.40  83:  0.44  84:  0.05  85:  0.02  86:  0.59  87:  0.60  88:  0.08
  89:  3.17  90:  0.03  91:  2.78  92:  0.56  93:  0.41  94:  4.16  95:  1.33  96:  2.43
  97:  0.04  98:  1.25  99:  0.04 100:  1.60 101:  0.10 102:  0.04 103:  0.31 104:  0.50
 105:  0.13 106:  0.01 107:  1.74 108:  0.03 109:  0.00 110:  0.26 111:  0.71 112:  4.99
 113:  1.06 114:  1.88 115:  2.83 116:  0.01 117:  0.51 118: 25.78 119:  0.40 120:  2.22
 121:  0.07 122:  0.03 123:  0.08 124:  7.86 125:  0.78 126: 33.91 127:  0.02 128:  1.24
 129:  1.86 130: 27.45 131:  0.07 132:  0.25 133:  1.50 134:  0.07 135:  3.74 136:  0.01
 137:  3.72 138: 52.69 139:  0.11 140:  0.00 141:  7.71 142:  0.00 143: 12.51 144:  0.35
 145: 16.32 146:  0.82 147: 13.35 148:  7.79 149: 19.70 150: 19.89 151: 57.10 152: 48.09
 153: 26.04 154: 16.89 155:  1.09 156: 12.24 157:159.02 158:135.26 159:108.93 160: 73.75
 161:119.89 162: 66.46 163:459.52 164: 11.21 165: 53.31 166:184.84 167:118.00 168:  6.15
 Raman intensities (Ä⁴*amu⁻¹)
   1:  0.00   2:  0.00   3:  0.00   4:  0.00   5:  0.00   6:  0.00   7:  0.00   8:  0.00
   9:  0.00  10:  0.00  11:  0.00  12:  0.00  13:  0.00  14:  0.00  15:  0.00  16:  0.00
  17:  0.00  18:  0.00  19:  0.00  20:  0.00  21:  0.00  22:  0.00  23:  0.00  24:  0.00
  25:  0.00  26:  0.00  27:  0.00  28:  0.00  29:  0.00  30:  0.00  31:  0.00  32:  0.00
  33:  0.00  34:  0.00  35:  0.00  36:  0.00  37:  0.00  38:  0.00  39:  0.00  40:  0.00
  41:  0.00  42:  0.00  43:  0.00  44:  0.00  45:  0.00  46:  0.00  47:  0.00  48:  0.00
  49:  0.00  50:  0.00  51:  0.00  52:  0.00  53:  0.00  54:  0.00  55:  0.00  56:  0.00
  57:  0.00  58:  0.00  59:  0.00  60:  0.00  61:  0.00  62:  0.00  63:  0.00  64:  0.00
  65:  0.00  66:  0.00  67:  0.00  68:  0.00  69:  0.00  70:  0.00  71:  0.00  72:  0.00
  73:  0.00  74:  0.00  75:  0.00  76:  0.00  77:  0.00  78:  0.00  79:  0.00  80:  0.00
  81:  0.00  82:  0.00  83:  0.00  84:  0.00  85:  0.00  86:  0.00  87:  0.00  88:  0.00
  89:  0.00  90:  0.00  91:  0.00  92:  0.00  93:  0.00  94:  0.00  95:  0.00  96:  0.00
  97:  0.00  98:  0.00  99:  0.00 100:  0.00 101:  0.00 102:  0.00 103:  0.00 104:  0.00
 105:  0.00 106:  0.00 107:  0.00 108:  0.00 109:  0.00 110:  0.00 111:  0.00 112:  0.00
 113:  0.00 114:  0.00 115:  0.00 116:  0.00 117:  0.00 118:  0.00 119:  0.00 120:  0.00
 121:  0.00 122:  0.00 123:  0.00 124:  0.00 125:  0.00 126:  0.00 127:  0.00 128:  0.00
 129:  0.00 130:  0.00 131:  0.00 132:  0.00 133:  0.00 134:  0.00 135:  0.00 136:  0.00
 137:  0.00 138:  0.00 139:  0.00 140:  0.00 141:  0.00 142:  0.00 143:  0.00 144:  0.00
 145:  0.00 146:  0.00 147:  0.00 148:  0.00 149:  0.00 150:  0.00 151:  0.00 152:  0.00
 153:  0.00 154:  0.00 155:  0.00 156:  0.00 157:  0.00 158:  0.00 159:  0.00 160:  0.00
 161:  0.00 162:  0.00 163:  0.00 164:  0.00 165:  0.00 166:  0.00 167:  0.00 168:  0.00
 output can be read by thermo (or use thermo option).
 writing <g98.out> molden fake output.
 recommended (thermochemical) frequency scaling factor: 1.0
           -------------------------------------------------
          |             Thermodynamic Functions             |
           -------------------------------------------------

Molecule has the following symmetry elements: (C2) 
It seems to be the C2 point group
c2  symmetry found (for desy threshold:  0.10E+00) used in thermo

          ...................................................
          :                      SETUP                      :
          :.................................................:
          :  # frequencies                         162      :
          :  # imaginary freq.                       0      :
          :  linear?                             false      :
          :  only rotor calc.                    false      :
          :  symmetry                               c2      :
          :  rotational number                       2      :
          :  scaling factor                  1.0000000      :
          :  rotor cutoff                   50.0000000 cm⁻¹ :
          :  imag. cutoff                  -20.0000000 cm⁻¹ :
          :.................................................:

    mode    ω/cm⁻¹     T·S(HO)/kcal·mol⁻¹    T·S(FR)/kcal·mol⁻¹   T·S(vib)
   ------------------------------------------------------------------------
       1     11.13    -2.32513 (  0.24%)    -1.50158 ( 99.76%)    -1.50360
       2     24.98    -1.84642 (  5.86%)    -1.26212 ( 94.14%)    -1.29638
       3     41.05    -1.55263 ( 31.25%)    -1.11493 ( 68.75%)    -1.25171
       4     42.69    -1.52953 ( 34.71%)    -1.10334 ( 65.29%)    -1.25125
       5     48.42    -1.45526 ( 46.79%)    -1.06606 ( 53.21%)    -1.24816
       6     55.85    -1.37115 ( 60.88%)    -1.02378 ( 39.12%)    -1.23526
       7     80.09    -1.15942 ( 86.81%)    -0.91698 ( 13.19%)    -1.12744
       8    116.74    -0.94028 ( 96.74%)    -0.80536 (  3.26%)    -0.93589
       9    139.57    -0.83775 ( 98.38%)    -0.75245 (  1.62%)    -0.83637
      10    141.72    -0.82902 ( 98.47%)    -0.74792 (  1.53%)    -0.82779
      11    145.81    -0.81281 ( 98.64%)    -0.73948 (  1.36%)    -0.81181
      12    167.81    -0.73341 ( 99.22%)    -0.69785 (  0.78%)    -0.73313
      13    171.54    -0.72107 ( 99.28%)    -0.69133 (  0.72%)    -0.72086
      14    185.09    -0.67873 ( 99.47%)    -0.66882 (  0.53%)    -0.67867
      15    188.98    -0.66721 ( 99.51%)    -0.66266 (  0.49%)    -0.66718
      16    199.84    -0.63642 ( 99.61%)    -0.64610 (  0.39%)    -0.63645
      17    233.86    -0.55130 ( 99.79%)    -0.59953 (  0.21%)    -0.55140
      18    286.80    -0.44507 ( 99.91%)    -0.53908 (  0.09%)    -0.44515
   ------------------------------------------------------------------------

   temp. (K)  partition function   enthalpy   heat capacity  entropy
                                   cal/mol     cal/K/mol   cal/K/mol   J/K/mol
 298.15  VIB  0.123E+11            14432.985     97.672     86.753
         ROT  0.137E+08              888.752      2.981     35.635
         INT  0.168E+18            15321.738    100.653    122.388
         TR   0.864E+28             1481.254      4.968     44.050
         TOT                       16802.9916   105.6213   166.4376   696.3749

       T/K    H(0)-H(T)+PV         H(T)/Eh          T*S/Eh         G(T)/Eh
   ------------------------------------------------------------------------
    298.15    0.267773E-01    0.458280E+00    0.790799E-01    0.379200E+00
   ------------------------------------------------------------------------

         :::::::::::::::::::::::::::::::::::::::::::::::::::::
         ::                  THERMODYNAMIC                  ::
         :::::::::::::::::::::::::::::::::::::::::::::::::::::
         :: total free energy         -83.613547240610 Eh   ::
         ::.................................................::
         :: total energy              -83.992746912576 Eh   ::
         :: zero point energy           0.431502273929 Eh   ::
         :: G(RRHO) w/o ZPVE           -0.052302601964 Eh   ::
         :: G(RRHO) contrib.            0.379199671965 Eh   ::
         :::::::::::::::::::::::::::::::::::::::::::::::::::::

optimized geometry written to: xtbopt.xyz


           -------------------------------------------------
          | TOTAL ENERGY              -83.992746912576 Eh   |
          | TOTAL ENTHALPY            -83.534467367061 Eh   |
          | TOTAL FREE ENERGY         -83.613547240610 Eh   |
          | GRADIENT NORM               0.000032460878 Eh/α |
          | HOMO-LUMO GAP               0.809620781518 eV   |
           -------------------------------------------------

------------------------------------------------------------------------
 * finished run on 2025/09/09 at 22:18:38.186     
------------------------------------------------------------------------
 total:
 * wall-time:     0 d,  0 h,  0 min,  3.438 sec
 *  cpu-time:     0 d,  0 h,  2 min, 11.450 sec
 * ratio c/w:    38.230 speedup
 SCF:
 * wall-time:     0 d,  0 h,  0 min,  0.163 sec
 *  cpu-time:     0 d,  0 h,  0 min,  5.840 sec
 * ratio c/w:    35.841 speedup
 ANC optimizer:
 * wall-time:     0 d,  0 h,  0 min,  1.623 sec
 *  cpu-time:     0 d,  0 h,  1 min,  4.873 sec
 * ratio c/w:    39.963 speedup
 analytical hessian:
 * wall-time:     0 d,  0 h,  0 min,  1.522 sec
 *  cpu-time:     0 d,  0 h,  0 min, 56.177 sec
 * ratio c/w:    36.920 speedup

