56
 energy: -84.060751246267 gnorm: 0.000027923248 xtb: 6.7.1 (edcfbbe)
C           -7.88698038725469       -0.00192168172711        0.13573796896118
C           -7.36362566920552       -0.00407335165985        1.43898500988391
C           -6.01178519192985       -0.00384680527780        1.64071214079233
C           -5.11989890439962       -0.00143558015179        0.54701568691063
C           -3.72101985284318       -0.00128596062453        0.72245299779669
C           -2.87122860601930        0.00104050113158       -0.35435137696173
C           -1.40076608208325        0.00094587102824       -0.16787274826848
C           -0.70994175216916       -1.21465411716069       -0.08530365206190
C           -1.38275392584176       -2.46268334842779       -0.16636423655944
C           -0.70035102731131       -3.63736324795422       -0.08471309933344
C            0.69982030255140       -3.63749029412912        0.08436818067920
C            1.38239864632176       -2.46293205179807        0.16630306602823
C            0.70976755203284       -1.21478289481280        0.08559169730873
C            1.40078630554829        0.00068929456296        0.16839983042145
C            2.87128307899718        0.00052730581795        0.35460588182482
C            3.40428609069836        0.00148539364338        1.66104010317915
C            4.75488025625013        0.00119610056021        1.86185763270535
C            5.64945866602288       -0.00004058433613        0.77017645117597
C            7.04939063543440       -0.00043203489848        0.94367486291407
C            7.88691558194829       -0.00163635959426       -0.13670517567508
C            7.36324506755475       -0.00248331910756       -1.43982719988342
C            6.01135590160817       -0.00214126893241       -1.64122386016527
C            5.11973774990814       -0.00092979030695       -0.54730700005454
C            3.72081823573484       -0.00063255904318       -0.72240434619848
C            0.70995499898201        1.21628386441032        0.08588883459609
C            1.38278778979087        2.46431039735801        0.16681620581437
C            0.70037265648255        3.63898943820961        0.08525889277932
C           -0.69982971456990        3.63911705589092       -0.08358512443249
C           -1.38241188308002        2.46456086333557       -0.16551403792800
C           -0.70975428086061        1.21641313155934       -0.08500038248238
C           -3.40391932907443        0.00339966392504       -1.66091289493601
C           -4.75446285618079        0.00326410108676       -1.86205824738310
C           -5.64930263165137        0.00080456685558       -0.77059377167022
C           -7.04919161230228        0.00048630504712       -0.94443525422326
H           -8.95838634565786       -0.00215457083639       -0.00464578953754
H           -8.04093766782262       -0.00592553957631        2.28102402869641
H           -5.60400039147299       -0.00551208145107        2.64196425010058
H           -3.31900836046898       -0.00308961341065        1.72651089223804
H           -2.45556040005421       -2.46015022378662       -0.29491158401058
H           -1.22530359150703       -4.57966542350187       -0.14791286543648
H            1.22463337629609       -4.57988707593288        0.14731477561763
H            2.45521048839815       -2.46058552943116        0.29481499212237
H            2.72147377386509        0.00240743465381        2.49896999505080
H            5.15881552824595        0.00189085588841        2.86469820485792
H            7.44764115617447        0.00023737963880        1.94885222406136
H            8.95835545394377       -0.00193030572109        0.00341717691285
H            8.04035077615254       -0.00341047941088       -2.28203376564901
H            5.60332484174354       -0.00279589112135       -2.64237683528236
H            3.31856488424856       -0.00136507708593       -1.72636693465601
H            2.45561755659731        2.46176256094671        0.29518890846164
H            1.22533346547555        4.58129262695890        0.14837119064294
H           -1.22465912716181        4.58151556598009       -0.14636892187225
H           -2.45524707282024        2.46220061459726       -0.29384590311841
H           -2.72090250600400        0.00523806807426       -2.49867414449006
H           -5.15815609420864        0.00500185959263       -2.86499482833770
H           -7.44719355305422        0.00217724044148       -1.94971010193513
