$hessian                                                                        
        0.3513309712  -0.1504340195   0.2501399110  -0.2906482902   0.1227434960
       -0.2015699396  -0.0665586320   0.0219755982  -0.0362335670   0.0008556662
        0.0020002666  -0.0033909542   0.0022710223  -0.0002110748   0.0009054140
        0.0001201674   0.0013275147  -0.0020198610  -0.0017722850  -0.0000850565
       -0.0016455086  -0.0036762698  -0.0028146913   0.0050320647   0.0017034198
        0.0003408487  -0.0004530393  -0.0010245842   0.0002298477  -0.0001622869
       -0.0001971859  -0.0003298359  -0.0000978854  -0.0007595666   0.0001732272
        0.0000053248   0.0008129752   0.0003085651   0.0000591004   0.0002179081
       -0.0007775592  -0.0001461864   0.0010076426   0.0014284411   0.0001973864
       -0.0012360966  -0.0000440528   0.0000218316   0.0014447247  -0.0011684521
       -0.0001945353   0.0002114845   0.0006263384  -0.0000176487   0.0008215583
       -0.0001537006  -0.0001173118  -0.0008149092  -0.0002786087   0.0000483673
       -0.0003355729   0.0003258478   0.0001359487  -0.0011347448  -0.0007466736
        0.0003945480   0.0064140922   0.0042014219  -0.0049718072  -0.0074337738
        0.0017537582  -0.0024612758   0.0097242862   0.0000916346  -0.0004418485
       -0.0076311396  -0.0058315219   0.0091373238  -0.0096218377   0.0003038140
       -0.0014979047   0.0017793022   0.0017569196  -0.0028974575   0.0146033497
        0.0060535889  -0.0092055674  -0.0008048851  -0.0002484155  -0.0000596394
       -0.0002264641  -0.0018679628   0.0016053419   0.0007558926  -0.0001911991
        0.0003494135   0.0001059786   0.0004086553   0.0004703846  -0.0005526207
       -0.0004961619  -0.0001851838   0.0016064208  -0.0008344801  -0.0007772277
       -0.0004040212  -0.0003027229   0.0004758946   0.0000058090  -0.0001493208
        0.0001292020  -0.0003576296  -0.0001265273  -0.0000179303   0.0000695887
       -0.0003000794  -0.0000582474   0.0000290689   0.0000466294   0.0000162263
       -0.0000248778   0.0000495166   0.0000018752  -0.0000722166  -0.0000337769
       -0.0000065149  -0.0000765622   0.0000442882  -0.0000008972  -0.0000379533
       -0.0000568213   0.0000125616   0.0000258583  -0.0000451068  -0.0000043283
       -0.0000195374   0.0002692550   0.0000863024  -0.0002157985  -0.0000955167
       -0.0002177889  -0.0000426712  -0.0000141767  -0.0002748011  -0.0000680566
        0.0005410805   0.0002111068   0.0000288583   0.0000745965  -0.0001110216
       -0.0001029619   0.0001196042  -0.0000659364   0.0000297999   0.0000729437
        0.0000031245  -0.0001247011   0.0003698169  -0.0001345514
       -0.1504340195   0.1287073772  -0.1741027026   0.1223618074  -0.1225219009
        0.1162395820   0.0159579358   0.0072689951   0.0100733745  -0.0016385632
       -0.0003676934   0.0006417336  -0.0015261218   0.0002463267  -0.0015196687
        0.0001559350  -0.0008304204   0.0011430650   0.0001106876  -0.0004756331
        0.0001958104   0.0014521328   0.0015489681  -0.0035110794  -0.0003382822
        0.0002198307   0.0000332962   0.0001494250   0.0001974713   0.0004041401
       -0.0000104186  -0.0000332214  -0.0000408218   0.0001623145   0.0000016814
        0.0000052493  -0.0002089093  -0.0001223470  -0.0000194375  -0.0000197268
        0.0003314587  -0.0000054433  -0.0001467351  -0.0005623026   0.0000491414
        0.0004226661  -0.0000054060  -0.0000749089  -0.0003950944   0.0004497897
        0.0001280407  -0.0000173171  -0.0002015732   0.0000126197  -0.0002924640
        0.0000924662   0.0000161966   0.0002510531   0.0000721495  -0.0000723286
        0.0000245673   0.0000032174  -0.0000870834   0.0003531027  -0.0000390472
       -0.0001839323  -0.0036021263  -0.0027405922   0.0031025475   0.0043020833
       -0.0010519480   0.0009702705  -0.0034799067   0.0000574592   0.0002435964
        0.0006497646   0.0048227702  -0.0020775070  -0.0022134960   0.0034115571
        0.0007937571   0.0003951431  -0.0031662322   0.0050299761   0.0166874980
       -0.0132013599   0.0429262867   0.0010701903  -0.0022145193  -0.0000742377
       -0.0006489320  -0.0008450610   0.0002898375   0.0001872866   0.0000378941
        0.0000272302   0.0000290850   0.0000881770  -0.0000421950   0.0000271298
       -0.0000858878  -0.0000317019   0.0003142942   0.0003226230  -0.0007582016
       -0.0000659990   0.0004062624  -0.0009594052   0.0000668585   0.0002181094
        0.0000020752   0.0001402446   0.0000001965  -0.0000106976  -0.0000434699
        0.0001266523   0.0000494146  -0.0000259711  -0.0000100194  -0.0000095173
        0.0000128194  -0.0000178230   0.0000104754   0.0000322514   0.0000008049
        0.0000040963   0.0000287872  -0.0000135272   0.0000140139   0.0000243682
        0.0000129200   0.0000070300   0.0000008860   0.0000191225   0.0000266329
        0.0000249580  -0.0001950919   0.0000097055   0.0001447533   0.0000631648
        0.0001574498  -0.0000168600   0.0000534831   0.0001299311  -0.0002532064
       -0.0000187902   0.0004228322  -0.0000869152  -0.0000383140  -0.0000001033
       -0.0001215606   0.0000094428   0.0000626512  -0.0000466305  -0.0000368950
        0.0001492356   0.0000926970   0.0000052348   0.0002096779
        0.2501399110  -0.1741027026   0.3135182357  -0.2027936005   0.1170915256
       -0.2473601923  -0.0257813982   0.0094533791  -0.0024848876   0.0026770390
        0.0006712201  -0.0006727799   0.0023800872  -0.0014308784   0.0021039580
       -0.0002451937   0.0012357083  -0.0017368807  -0.0001533728  -0.0011545333
       -0.0010084120  -0.0028362875  -0.0028877740   0.0048401925   0.0014062651
        0.0001738108  -0.0000376922  -0.0006345457   0.0000016006  -0.0003829684
       -0.0001142518  -0.0001474896   0.0000039928  -0.0004567920   0.0000764775
        0.0000038833   0.0005297539   0.0002161613   0.0000284698   0.0001169776
       -0.0005749559  -0.0000643583   0.0005891485   0.0010253416   0.0000596374
       -0.0008420961  -0.0000365099   0.0000373490   0.0009392448  -0.0008035313
       -0.0001395166   0.0001259554   0.0004456421  -0.0000360261   0.0005660953
       -0.0001021571  -0.0000498748  -0.0005388063  -0.0001992428   0.0000633234
       -0.0002019749   0.0001637440   0.0001716006  -0.0007325546  -0.0003495382
        0.0003682305   0.0059324487   0.0041395450  -0.0048959132  -0.0069261517
        0.0010422890  -0.0020467780   0.0055693988  -0.0000463218   0.0000235396
       -0.0006852429  -0.0014228285   0.0058492358   0.0039106978   0.0013647432
        0.0017163551  -0.0008278020   0.0048717552  -0.0084743542  -0.0285662525
        0.0425571497  -0.0597237992  -0.0027544521  -0.0011557321  -0.0012108345
        0.0007864235  -0.0003151151  -0.0005413204  -0.0004543018   0.0001766192
        0.0000074908  -0.0000316511  -0.0000092328   0.0000226240  -0.0001741662
        0.0003572345   0.0000508026   0.0000301425   0.0001513260   0.0005174172
        0.0000947832  -0.0009720221   0.0014887399  -0.0000987206  -0.0001650151
        0.0000797099  -0.0001441647  -0.0000173203   0.0000852795   0.0000537243
       -0.0002185232  -0.0000804402   0.0000240881   0.0000324480   0.0000076733
       -0.0000168078   0.0000349728  -0.0000037578  -0.0000570689  -0.0000178510
       -0.0000056055  -0.0000585151   0.0000267551  -0.0000105410  -0.0000245247
       -0.0000402507  -0.0000007907   0.0000284361  -0.0000283035  -0.0000157921
       -0.0000176874   0.0002104625  -0.0000107017  -0.0002095621  -0.0000280575
       -0.0001530905   0.0001132559  -0.0000848383  -0.0001651391   0.0001375223
        0.0005601558   0.0002006988   0.0001394824   0.0001117757   0.0000119385
        0.0001208886  -0.0000023231   0.0000089210   0.0001024372  -0.0000054222
       -0.0001090616  -0.0001362614   0.0001266276   0.0001522093
       -0.2906482902   0.1223618074  -0.2027936005   0.6519202450  -0.0792636945
        0.1287133851  -0.1920017762  -0.0134737107   0.0231123860  -0.0287250781
       -0.0151822329   0.0267926127   0.0066922604  -0.0008389635   0.0000400728
       -0.0038267485  -0.0009656490   0.0010178191   0.0001415979   0.0033375862
       -0.0032718626   0.0060172621   0.0042845058  -0.0080254165  -0.0030219938
       -0.0002501834   0.0003889208   0.0017893053  -0.0006226386   0.0003517555
        0.0003617941   0.0006341270   0.0001577554   0.0012581525  -0.0002945756
       -0.0000156911  -0.0014397866  -0.0005733383  -0.0000823703  -0.0004135232
        0.0013307989   0.0002100704  -0.0017518136  -0.0024416748  -0.0002645621
        0.0022504322   0.0000826106  -0.0000765491  -0.0024915997   0.0019687212
        0.0004036802  -0.0003513425  -0.0010616201  -0.0000112751  -0.0014222988
        0.0003007907   0.0001939117   0.0013266097   0.0004488629  -0.0000787444
        0.0006972289  -0.0005956505  -0.0002475144   0.0020835824   0.0015054291
       -0.0005647054  -0.0111092556  -0.0072436110   0.0084578981   0.0132114463
       -0.0034199635   0.0054575444  -0.0283003632  -0.0047763123   0.0085892763
       -0.0285286981   0.0190845264  -0.0317055383   0.0512440159  -0.0030169935
        0.0048605694  -0.0094098525   0.0006163759  -0.0011178911  -0.1116078179
       -0.0097509823   0.0132253000  -0.0210301322  -0.0148390621   0.0278211880
       -0.0007143843   0.0011220125   0.0004640484  -0.0010391426   0.0005821593
       -0.0012003007   0.0000382708  -0.0000796294  -0.0001094423  -0.0010808645
        0.0017039768  -0.0000309770  -0.0031288028  -0.0003655974   0.0003791452
        0.0003291514   0.0013207363  -0.0018119646   0.0003132871   0.0003352675
       -0.0004256012   0.0006323446   0.0002957033  -0.0000323992  -0.0001383747
        0.0003688889   0.0000906658  -0.0000384545  -0.0001028254  -0.0000346607
        0.0000572339  -0.0000750685   0.0000046708   0.0001018313   0.0000443021
        0.0000187111   0.0001127623  -0.0000638870  -0.0000094643   0.0000786454
        0.0000805358  -0.0000228317  -0.0000319051   0.0000983613   0.0000360783
        0.0000068868  -0.0003264498  -0.0000588683   0.0003245642   0.0001229649
        0.0002763410   0.0003597810   0.0000456489   0.0004780172   0.0003672516
       -0.0013425091   0.0000450088   0.0001146741   0.0000806963   0.0001544893
        0.0003049478  -0.0002758879   0.0001572355  -0.0000689910  -0.0001485029
       -0.0001115687   0.0001857250  -0.0007661823   0.0002052420
        0.1227434960  -0.1225219009   0.1170915256  -0.0792636945   0.2651939124
       -0.2018870315  -0.0075987524  -0.0585336244  -0.0003713410  -0.0167712580
       -0.0030501968   0.0062416997   0.0032763079   0.0017353399   0.0060906193
       -0.0016025390   0.0010834946  -0.0018817751   0.0017724594   0.0038786107
        0.0030898390   0.0003060394  -0.0007708831   0.0030507694  -0.0010192405
       -0.0009050836   0.0003680343   0.0006929012  -0.0008102522  -0.0009446821
        0.0002491184   0.0004412349   0.0001876250   0.0003523950  -0.0002049430
       -0.0000305800  -0.0002794159  -0.0000196797  -0.0000113502  -0.0001309571
       -0.0000104908   0.0001575264  -0.0006688352  -0.0001056976  -0.0003563466
        0.0003832202   0.0000342223   0.0001550735  -0.0004786829   0.0001385442
       -0.0001438319  -0.0001216194  -0.0000925730  -0.0000176671  -0.0001438678
       -0.0000226592   0.0000915377   0.0001910094   0.0001290285   0.0001337399
        0.0002142615  -0.0002824577   0.0000313866   0.0002667762   0.0009522261
        0.0001132291   0.0015436572   0.0022437811  -0.0020822685  -0.0016442266
       -0.0004420679   0.0002506678  -0.0060811356  -0.0023116526   0.0008715504
        0.0076908277   0.0010606210  -0.0040643453   0.0175507339  -0.0153891793
        0.0149459995  -0.0020895081   0.0032835036   0.0008320250  -0.0313559575
       -0.0701517666   0.0587246476  -0.0104127289  -0.0009643055   0.0007383258
        0.0001509603  -0.0002788517   0.0010504343  -0.0000642286  -0.0002308400
       -0.0002653729  -0.0001058527   0.0001681229   0.0003126323  -0.0004451095
       -0.0003753518  -0.0001782751   0.0041638016  -0.0003615683  -0.0000134358
       -0.0006452361  -0.0017552858  -0.0001126672  -0.0007382829  -0.0002085459
        0.0001686535  -0.0001667915  -0.0004364951  -0.0003764987   0.0000524206
       -0.0000585172  -0.0000322480   0.0000343713  -0.0000130290  -0.0000021523
       -0.0000192622   0.0000102288  -0.0000360364  -0.0000205523   0.0000384100
       -0.0000187406  -0.0000137722  -0.0000247976  -0.0000293435  -0.0000272729
       -0.0000023941  -0.0000201948   0.0000003864  -0.0000120273  -0.0000395821
        0.0000134354   0.0001635383  -0.0000470933  -0.0001971202   0.0000622736
       -0.0001565177   0.0000106797  -0.0000070739  -0.0002543781  -0.0003784789
       -0.0001942977  -0.0005493560   0.0003232854   0.0001147753   0.0000437990
        0.0002911174  -0.0000047881  -0.0001256306   0.0004050869  -0.0000664861
       -0.0003555458  -0.0001943691  -0.0001121042  -0.0003370525
       -0.2015699396   0.1162395820  -0.2473601923   0.1287133851  -0.2018870315
        0.4912188581   0.0121282334   0.0015031238  -0.0587301972   0.0299846156
        0.0060536344  -0.0117132546  -0.0057662693   0.0066401667  -0.0057847188
        0.0027366289  -0.0021540639   0.0031094261  -0.0028023188   0.0051070175
       -0.0006338898   0.0003527017   0.0013904484  -0.0021667599  -0.0008429579
       -0.0000344581  -0.0003631808  -0.0000151194   0.0002356314   0.0006056545
       -0.0000344028  -0.0001039803  -0.0001075626   0.0000138779   0.0000386463
        0.0000294046  -0.0000703370  -0.0000518791   0.0000028389   0.0000111730
        0.0001993504  -0.0000435842   0.0000508645  -0.0002961889   0.0001298822
        0.0002068699  -0.0000102162  -0.0000545669  -0.0001949815   0.0001599918
        0.0000255970   0.0000053036  -0.0000940255   0.0000993956  -0.0001317498
        0.0000065829  -0.0000367396   0.0000941596   0.0000630569  -0.0000681118
       -0.0000977237  -0.0000102802  -0.0001169329   0.0000791361   0.0000244336
       -0.0004098398  -0.0022131004  -0.0025848233   0.0025116562   0.0019740916
        0.0002162409  -0.0005679243   0.0116287176   0.0017364335  -0.0040966413
       -0.0153755919  -0.0067166454   0.0086209248  -0.0298695936   0.0139667183
       -0.0299787322   0.0046025277   0.0012063071   0.0016078948   0.0476115331
        0.0568916002  -0.1398099805   0.0235301421   0.0020275656  -0.0032469830
       -0.0041977853   0.0014249445  -0.0009892364   0.0004747139   0.0004754032
       -0.0004997974  -0.0002258235  -0.0003636691  -0.0004275534   0.0015929050
       -0.0000107470  -0.0001470615  -0.0039497815   0.0008640485   0.0011041490
        0.0014069716  -0.0002183632  -0.0017270472   0.0012472659   0.0005208977
       -0.0002124169   0.0000429361  -0.0005586124  -0.0004002217  -0.0000491123
        0.0000864904   0.0000305376  -0.0000246569  -0.0000031786  -0.0000032009
        0.0000022934  -0.0000300783   0.0000118668   0.0000420921  -0.0000140099
        0.0000026367   0.0000468667  -0.0000033208   0.0000177432   0.0000198480
        0.0000253138   0.0000070716  -0.0000249680  -0.0000216479   0.0000061611
       -0.0000130817  -0.0000847439   0.0000548587   0.0002810921  -0.0000067045
        0.0001890240  -0.0001596661   0.0000115949   0.0003464635  -0.0001039354
       -0.0009538198  -0.0001102833  -0.0006213439  -0.0004223187  -0.0001055385
       -0.0004162856  -0.0001403507   0.0000852015  -0.0004939543   0.0001273444
        0.0003447342   0.0003835342  -0.0004674120  -0.0002498311
       -0.0665586320   0.0159579358  -0.0257813982  -0.1920017762  -0.0075987524
        0.0121282334   0.5997869478  -0.0049799351   0.0096246763  -0.0962406646
       -0.0381535102   0.0659600504  -0.0336937760  -0.0139611083   0.0252816301
        0.0085176919  -0.0005953456   0.0006738697  -0.0373845640   0.0089893157
       -0.0166978128  -0.0081777250  -0.0054053358   0.0097401376  -0.0008833020
        0.0006501878  -0.0010409104   0.0000095574  -0.0015098566  -0.0006033883
        0.0001870673   0.0004741071   0.0000642100   0.0000977723  -0.0001992622
       -0.0001180193   0.0000785892   0.0000799322  -0.0000298247  -0.0000616113
       -0.0003534134  -0.0000623880  -0.0004860066   0.0003927094   0.0001060770
        0.0002353707   0.0000220793  -0.0000803952  -0.0001287933  -0.0002943936
        0.0001733725   0.0000039285   0.0001474841  -0.0000824588   0.0000441222
        0.0000135848   0.0000067551   0.0000145087   0.0002192219   0.0000802513
       -0.0000247044  -0.0005469851  -0.0000726775  -0.0001375837   0.0011663526
        0.0006800746   0.0066716334   0.0055612705  -0.0072432769  -0.0064582635
       -0.0006997134   0.0010065882   0.0343017114   0.0098390820  -0.0176005351
       -0.1660642853   0.0443676656  -0.0792421187  -0.0326014764   0.0025300949
       -0.0053339132   0.0066667387   0.0039373541  -0.0062264195  -0.0188827624
       -0.0269552391   0.0463976071   0.0026496098  -0.0006452882   0.0013804907
       -0.0000410738   0.0001057915  -0.0000567857   0.0001314417   0.0002538206
       -0.0000395434   0.0001090709  -0.0000568623  -0.0000493539   0.0001936167
        0.0001815753  -0.0000756211  -0.0010049384  -0.0001773863   0.0000392371
        0.0066726025   0.0083865480  -0.0147785007  -0.0059082493  -0.0004918231
        0.0015522696   0.0006487730  -0.0002435590  -0.0001117702  -0.0000025466
       -0.0002800365  -0.0001245704   0.0000286582   0.0000387661   0.0000247872
       -0.0000292934   0.0000340363   0.0000132145  -0.0000664625   0.0000110449
        0.0000162746  -0.0000584333  -0.0000045806  -0.0000136136  -0.0000345094
       -0.0000391585   0.0000062841   0.0000157109  -0.0000524942  -0.0000226288
       -0.0001593526   0.0002787349  -0.0000200370  -0.0000831694  -0.0002354987
       -0.0000722404   0.0003362635  -0.0002608906   0.0005949237  -0.0000461981
        0.0000041375  -0.0000810519  -0.0000432957  -0.0000306589  -0.0000514505
       -0.0000590816  -0.0000249625   0.0000252837  -0.0001005893   0.0000487390
        0.0000706202   0.0000217334   0.0001044784   0.0000657856
        0.0219755982   0.0072689951   0.0094533791  -0.0134737107  -0.0585336244
        0.0015031238  -0.0049799351   0.2409778316  -0.2286936515  -0.0190082369
       -0.0973839002   0.0933729344  -0.0319748888   0.0001356792   0.0028941589
        0.0045605094  -0.0083357656   0.0079187463   0.0192840259   0.0020314027
       -0.0013827226  -0.0042081097   0.0064433944  -0.0048257576  -0.0002289522
        0.0003855403   0.0002605336   0.0003012758  -0.0009796008   0.0000467169
       -0.0000116201   0.0007416046   0.0002025299   0.0005731401  -0.0003596373
       -0.0000285696  -0.0005646416  -0.0001485248  -0.0000115680  -0.0001804693
        0.0003268027   0.0000611700  -0.0007437895  -0.0004733181  -0.0000461105
        0.0007099470   0.0000169863  -0.0000158224  -0.0009976059   0.0003760182
        0.0002056630  -0.0002061888  -0.0001351336  -0.0000503469  -0.0002509514
        0.0000502446   0.0000840169   0.0003481032   0.0001477857   0.0001113912
        0.0005537420  -0.0004053918  -0.0000869194   0.0006416980   0.0013555180
        0.0003000666   0.0020227577  -0.0011842908   0.0011859948  -0.0070113017
        0.0048016797   0.0014472257   0.0069533057  -0.0141505226   0.0276708955
        0.0455105650  -0.0818906225   0.0611712857  -0.0013293321  -0.0013878129
       -0.0010171778   0.0011967319   0.0010598245  -0.0013531212  -0.0164704609
       -0.0027490487   0.0102039235  -0.0002883957   0.0024809792   0.0044820223
        0.0005223927   0.0000574872  -0.0001600459   0.0001991583   0.0000158804
        0.0000156895   0.0000249309   0.0000631495   0.0000968903  -0.0001743566
        0.0003021657   0.0002507069  -0.0013812050  -0.0001888801   0.0000734248
       -0.0022014576  -0.0052554494   0.0118178149  -0.0002791578   0.0061872731
        0.0028875714   0.0000749386  -0.0005590929   0.0000710541   0.0000241193
       -0.0000776824  -0.0000908993   0.0000167527   0.0000101676   0.0000185486
       -0.0000274268  -0.0000051840  -0.0000242694  -0.0000026905   0.0000429383
        0.0000087167  -0.0000023871  -0.0000316256  -0.0000149803  -0.0000345352
        0.0000107859  -0.0000265398   0.0000187547   0.0000234808  -0.0000169600
        0.0001257850   0.0001942377   0.0000471271  -0.0000622665  -0.0006819955
       -0.0004260164   0.0004245276  -0.0005539943   0.0003590051   0.0001094022
       -0.0000519080  -0.0000094753   0.0000428614  -0.0000094529   0.0000051461
        0.0000322786   0.0000007288  -0.0000013895  -0.0001261007   0.0000110365
        0.0000367063  -0.0000271277   0.0000128407   0.0000181634
       -0.0362335670   0.0100733745  -0.0024848876   0.0231123860  -0.0003713410
       -0.0587301972   0.0096246763  -0.2286936515   0.5139265550   0.0337170742
        0.0937813748  -0.2089045397   0.0578696655   0.0020569329  -0.0029298954
       -0.0087001987   0.0077904183  -0.0204482108  -0.0344920442  -0.0007942010
        0.0056066335   0.0076374845  -0.0010776293   0.0119542353  -0.0003415690
       -0.0007637295  -0.0000491525  -0.0004290279   0.0014849524  -0.0002197281
       -0.0000075632  -0.0011742070  -0.0002327511  -0.0008511206   0.0005410002
        0.0000833616   0.0008144349   0.0001990139   0.0000421782   0.0002610260
       -0.0004108410  -0.0000165859   0.0011085832   0.0006398083  -0.0000105035
       -0.0010222813   0.0000043246   0.0000857333   0.0013982690  -0.0005064588
       -0.0004230251   0.0002897715   0.0001610616   0.0000731452   0.0002772981
       -0.0000600846  -0.0000785786  -0.0004205003  -0.0001902296  -0.0001551671
       -0.0007816397   0.0006445833   0.0001081458  -0.0007517308  -0.0019299469
       -0.0005843046  -0.0043070062   0.0015106310  -0.0014544821   0.0122409129
        0.0003434055   0.0030546399  -0.0124433041   0.0268555604  -0.0455754302
       -0.0814884608   0.0613468593  -0.1589732371   0.0017015678  -0.0005878688
        0.0006027288  -0.0019253767  -0.0015842129   0.0023567392   0.0290690430
        0.0118803952  -0.0157737306   0.0001066481   0.0042924725  -0.0029267993
        0.0005343241  -0.0001408736  -0.0001065984   0.0000994877  -0.0002015968
        0.0003679991  -0.0000076993   0.0000740975   0.0000459986  -0.0000613413
       -0.0004386921   0.0001477047   0.0005585903  -0.0000578289  -0.0000209215
        0.0039466628   0.0116213086  -0.0193171840   0.0007444620   0.0031588271
        0.0028017042  -0.0001721771   0.0003683172  -0.0004732069  -0.0001102029
        0.0001581789   0.0000713228  -0.0000331501   0.0000044956  -0.0000154357
        0.0000479193   0.0000043062   0.0000468883   0.0000137105  -0.0000552779
       -0.0000117068   0.0000024371   0.0000494829   0.0000195578   0.0000422797
       -0.0000040450   0.0000156533  -0.0000229420   0.0000153433   0.0000092093
       -0.0000681312  -0.0002623621  -0.0000152624   0.0000932019  -0.0007502339
       -0.0004175543  -0.0006961159   0.0006355676  -0.0008690824   0.0000085242
        0.0001648083  -0.0000572909   0.0000899998   0.0000214575   0.0000237696
       -0.0000390493   0.0000726346  -0.0000598461   0.0000535871  -0.0000047865
       -0.0000424616  -0.0000578280   0.0001051047  -0.0000661461
        0.0008556662  -0.0016385632   0.0026770390  -0.0287250781  -0.0167712580
        0.0299846156  -0.0962406646  -0.0190082369   0.0337170742   0.6876990357
       -0.0125966838   0.0151393264  -0.3394990528  -0.0367098622   0.0713898715
       -0.0591247956   0.0313801296  -0.0555428437  -0.0190114476  -0.0116073535
        0.0223775157   0.0008285382   0.0047403514  -0.0057994298   0.0008818405
       -0.0001503302  -0.0006718960  -0.0010214789   0.0019204384   0.0004538552
       -0.0003675258  -0.0012789006  -0.0002728881  -0.0011335961   0.0006126200
        0.0001339176   0.0009887334   0.0002182429   0.0000861262   0.0003573912
       -0.0005075758  -0.0001553347   0.0016882736   0.0010296812   0.0002033743
       -0.0014336146  -0.0000574908   0.0000441049   0.0019575228  -0.0008910949
       -0.0003841328   0.0004005631   0.0003983398   0.0000796452   0.0006267271
       -0.0000774709  -0.0001619878  -0.0007878416  -0.0003976026  -0.0001557722
       -0.0007173895   0.0010391072   0.0002560225  -0.0011875653  -0.0022964845
       -0.0005010432  -0.0085285220  -0.0035359579   0.0059707759   0.0112179522
       -0.0012592045   0.0019896056  -0.0118644497   0.0038653732  -0.0066870234
        0.0315611515  -0.0002992605  -0.0022604229   0.0113192594   0.0021177039
       -0.0028591648  -0.0038460564  -0.0041331630   0.0065843305  -0.0081796504
        0.0036328678  -0.0063410506   0.0007886984  -0.0005894218   0.0009976364
       -0.0003998917   0.0001012558   0.0000604380   0.0000276606   0.0001827900
        0.0000426917  -0.0000153281   0.0000260918  -0.0000172742  -0.0000423138
       -0.0000237305  -0.0002011811  -0.0005078628  -0.0000835960   0.0000150165
       -0.1527551089   0.0636821925  -0.1112734682  -0.0135457570  -0.0025248481
        0.0040113909  -0.0017024587   0.0017557615  -0.0029564115  -0.0001285608
        0.0000865265   0.0001156525  -0.0000288700   0.0000084592  -0.0000241960
        0.0000540427   0.0000310154   0.0000370516  -0.0000187082  -0.0000729921
       -0.0000123594  -0.0000280407   0.0000614732   0.0000062330   0.0000555365
       -0.0000372892   0.0000210762  -0.0000159464  -0.0000306468   0.0000391575
       -0.0001191819  -0.0001582365  -0.0000312015  -0.0000016486  -0.0001768186
       -0.0000710566  -0.0001541824   0.0001832693  -0.0001901996   0.0000372374
        0.0000238005   0.0001264585  -0.0000548087  -0.0000243521  -0.0000059644
       -0.0001229238  -0.0000268110   0.0000239183  -0.0000483089   0.0000011699
        0.0000328365   0.0000127998  -0.0001334244  -0.0000404549
        0.0020002666  -0.0003676934   0.0006712201  -0.0151822329  -0.0030501968
        0.0060536344  -0.0381535102  -0.0973839002   0.0937813748  -0.0125966838
        0.2273166536  -0.2152804044  -0.0015632963  -0.0542263668   0.0220779348
        0.0070001555   0.0059508048  -0.0091354947  -0.0106153697  -0.0028347760
       -0.0009534688   0.0033176804  -0.0006681241   0.0021827171   0.0000219678
        0.0000494299  -0.0004488444  -0.0007785668   0.0013407409   0.0002992774
       -0.0002423608  -0.0009096981  -0.0002439502  -0.0007622755   0.0003945470
        0.0000747204   0.0007076018   0.0001963942   0.0000467749   0.0002709481
       -0.0003632765  -0.0000953294   0.0011628511   0.0006975384   0.0002206948
       -0.0010250043  -0.0000355707  -0.0000235317   0.0012032079  -0.0005874520
       -0.0001686872   0.0002424834   0.0002965530   0.0000509937   0.0004473207
       -0.0000889557  -0.0001207502  -0.0005136097  -0.0002675291  -0.0001044838
       -0.0005290138   0.0006160338   0.0001111175  -0.0007050234  -0.0016059512
       -0.0001524165  -0.0027763178  -0.0005305219   0.0009141242   0.0045661922
       -0.0012933589   0.0021928507  -0.0030207728   0.0053453734   0.0003276380
        0.0124642685  -0.0126106228   0.0225960764   0.0057836371   0.0002297102
       -0.0006605629  -0.0017084033  -0.0018670470   0.0023444977  -0.0008393463
        0.0051398357  -0.0036250327   0.0000797748   0.0000946900   0.0000093733
       -0.0000064633  -0.0000362648   0.0000510846   0.0000253522   0.0000170497
        0.0000395646  -0.0000074413  -0.0000075320  -0.0000143096   0.0000032243
       -0.0000061539  -0.0000298017  -0.0000617423  -0.0000182716  -0.0000251865
        0.0635402591  -0.0720769622   0.0694573060  -0.0139383259  -0.0007378897
        0.0034491379   0.0020991440   0.0040848472   0.0040159937  -0.0000120586
        0.0001013379   0.0000926980  -0.0000166971   0.0000229734   0.0000013696
        0.0000224341   0.0000062927   0.0000273377   0.0000079879  -0.0000403209
       -0.0000071690   0.0000007261   0.0000391527   0.0000302093   0.0000154314
       -0.0000099338   0.0000213377  -0.0000077071  -0.0000075358   0.0000169473
        0.0000360715  -0.0001707707   0.0000456842   0.0000322235   0.0000251149
       -0.0000656635   0.0000562765  -0.0001459674  -0.0000890556   0.0000014639
        0.0000326036   0.0000360007  -0.0000061599   0.0000038353  -0.0000009601
       -0.0000241726  -0.0000077223   0.0000070430  -0.0000069418  -0.0000030444
       -0.0000008286  -0.0000094526  -0.0000421015  -0.0000008030
       -0.0033909542   0.0006417336  -0.0006727799   0.0267926127   0.0062416997
       -0.0117132546   0.0659600504   0.0933729344  -0.2089045397   0.0151393264
       -0.2152804044   0.4830679353   0.0078811212   0.0220781015  -0.0815613307
       -0.0110703953  -0.0084892074   0.0179549983   0.0174861563  -0.0022178261
       -0.0017953100  -0.0047209247   0.0012686460  -0.0051266134  -0.0005137910
        0.0003114460   0.0000623927   0.0015927497  -0.0027269297  -0.0002302855
        0.0004051462   0.0017024397   0.0004111653   0.0014219488  -0.0007507484
       -0.0001504823  -0.0013239320  -0.0003278278  -0.0000845173  -0.0004971955
        0.0006638150   0.0001000202  -0.0021474597  -0.0012456597  -0.0001642527
        0.0019360684   0.0000245148  -0.0001061187  -0.0024405973   0.0010770527
        0.0005785524  -0.0004797970  -0.0005171233  -0.0001468944  -0.0008445299
        0.0001765912   0.0001783246   0.0009802582   0.0004830484   0.0001495583
        0.0011152946  -0.0012029444  -0.0002078421   0.0017046904   0.0031901396
        0.0008503612   0.0043864294   0.0004504610  -0.0010578210  -0.0072189439
        0.0028932495  -0.0039315305   0.0042726385   0.0001123072   0.0048285734
       -0.0200773772   0.0241596435  -0.0403611102  -0.0104878295  -0.0009135576
        0.0006109345   0.0030413014   0.0026080013  -0.0045199264   0.0010308417
       -0.0042471984   0.0103039227  -0.0001265555  -0.0000052809   0.0001995729
        0.0000758453  -0.0000661539  -0.0000771361  -0.0000195356  -0.0000205671