68
 energy: -100.075579959915 gnorm: 0.000056994306 xtb: 6.7.1 (edcfbbe)
O            4.05353148847950       -0.23193559982975        2.29999565494271
P            3.65333859508906       -0.12128052013467        0.87975944400088
C            4.31968311015589        1.36451990401761        0.07167751046349
C            4.61272888234577        2.45456258507179        0.88697977935600
C            5.01012469107446        3.65406437142027        0.33067361626558
C            5.10126712121904        3.78055050328010       -1.04915401734626
C            4.79807368702481        2.70076030221776       -1.86571048349723
C            4.40411895692010        1.49752788982036       -1.31318444119334
C            4.30533675379818       -1.52256185287859       -0.10742019120934
C            5.66116560853018       -1.51655532039819       -0.40307638485508
C            6.23034857374277       -2.59500499295512       -1.05637749477696
C            5.44469360648046       -3.68202557020006       -1.40741835223934
C            4.09419511488172       -3.69334528322042       -1.09915037190333
C            3.52247983996548       -2.61571627261437       -0.44326232330613
C            1.88043491312598       -0.11138084098384        0.63622686374022
C            1.30558783483268       -0.01911660474545       -0.66284442601475
C           -0.00424936622983        0.30494324166032       -0.82246211068916
C           -0.86135571866913        0.44335844364172        0.30854767034066
Si          -2.68897329213935        0.08301791274681        0.08603753648177
C           -3.26078520169879       -1.71894621623808       -0.13528046295388
C           -4.31160693678412       -2.27028088274516        0.59492587756751
C           -4.64525701515665       -3.60606317814044        0.46101167419041
C           -3.93282000265036       -4.41707405974861       -0.40777200236991
C           -2.88288233025349       -3.88303340120094       -1.13900969111321
C           -2.55091334412523       -2.54821288465756       -1.00463636518445
C           -3.17139809896625        1.00915817862424       -1.51084907376317
C           -2.69699800852497        2.29798405469617       -1.74074398046194
C           -3.09210701262305        3.00736180097851       -2.86096723288566
C           -3.96539952227832        2.43574024581655       -3.77228822777760
C           -4.44268707560963        1.15364678996111       -3.55503039451002
C           -4.04622071602215        0.44577283774163       -2.43334720624498
C           -3.54961576238074        0.75645479161267        1.64470807763765
C           -4.33698660909564        1.89718649859814        1.56350810615931
C           -4.98846313372048        2.38144581746838        2.68582164910467
C           -4.85274127855022        1.73361226785719        3.90166702868941
C           -4.06807426187376        0.59534662807995        3.99244253571023
C           -3.42059437564730        0.11231502991431        2.86826985726462
C           -0.25736106338735        0.47579802761202        1.60019279852266
C            1.05323690681985        0.14828575118083        1.75929287007736
H            4.53958906065273        2.32903553795568        1.95927823834372
H            5.25034188203112        4.49233278056780        0.96904988631143
H            5.41060130309342        4.71866983906904       -1.48592516697667
H            4.87336115013574        2.79906019856374       -2.93943216574672
H            4.18597545687527        0.64933719295489       -1.94687923456131
H            6.25758582906532       -0.65931318470428       -0.11568883531065
H            7.28537578688403       -2.58889134790485       -1.28915686617174
H            5.88862914933001       -4.52411344509500       -1.91793494266885
H            3.48440330495914       -4.54435277514340       -1.36616273917696
H            2.47090420938005       -2.61635852033391       -0.18955293428421
H            1.93347596115415       -0.17845563393338       -1.52769368097677
H           -0.41870056503181        0.39895544387166       -1.81495803992770
H           -4.87930157679293       -1.64437569851943        1.26806509371838
H           -5.46596443685149       -4.01493523486811        1.03315948289564
H           -4.19557480025465       -5.45940690431472       -0.51647205857473
H           -2.32098923672072       -4.51033588559110       -1.81661781124616
H           -1.73052572121168       -2.14003785284871       -1.57642202505504
H           -2.01148173741550        2.74738873968203       -1.03683694123242
H           -2.71642740832482        4.00767962431380       -3.02327916667366
H           -4.26980076887736        2.98665930917086       -4.65056823997189
H           -5.12439681180769        0.70220988671355       -4.26173991311838
H           -4.41958432164796       -0.55492396443231       -2.27348239045531
H           -4.44657908268345        2.40763710336053        0.61834816596148
H           -5.60022034932088        3.26896843372365        2.60900308615123
H           -5.35495428158140        2.11540380979767        4.77883299277350
H           -3.96036291645089        0.08317129725805        4.93788280133604
H           -2.81359949821970       -0.77888693177369        2.94229713976793
H           -0.85714107901203        0.72617272965801        2.46180217763586
H            1.50835508923621        0.13221026107045        2.74035548256596
