$hessian                                                                        
        0.1435471724   0.0503335557  -0.1172024843  -0.1017868141  -0.0328811722
        0.0893320345  -0.0322003755  -0.0159333703   0.0417283085  -0.0048208993
       -0.0000724522  -0.0013203237  -0.0019704732  -0.0008526763   0.0016369796
       -0.0000960580   0.0007081220   0.0004703234   0.0000859776  -0.0000238342
       -0.0000253779  -0.0001621661   0.0000428342   0.0000214705   0.0002002292
       -0.0000296009  -0.0000565671   0.0000124870   0.0002556364   0.0000960464
        0.0000787840  -0.0002610940  -0.0002447534  -0.0000897839  -0.0000131080
        0.0000379995   0.0000965786   0.0003604181   0.0000376321   0.0000301832
       -0.0002467066  -0.0001413057   0.0002557662   0.0000828063  -0.0000097616
       -0.0002121537  -0.0000898727   0.0000038099   0.0001054498   0.0000633287
        0.0000310680  -0.0000574181  -0.0008399416  -0.0001690428  -0.0010072448
        0.0006177667  -0.0016588300  -0.0006144497  -0.0004958618   0.0013073742
        0.0009300038   0.0013200079  -0.0033550538  -0.0017371474   0.0015039899
       -0.0047846193   0.0087057236   0.0001578127   0.0005203612  -0.0070333106
       -0.0000216318  -0.0016145645  -0.0059195746  -0.0031471455  -0.0033268606
       -0.0001733721   0.0002411243  -0.0009537193   0.0000450701   0.0009148759
       -0.0005179307  -0.0004060064  -0.0009194198   0.0007642676   0.0022721468
       -0.0013379175  -0.0012989869  -0.0001119965  -0.0000087019  -0.0005358880
        0.0000278542  -0.0001100154   0.0013053428   0.0000863149   0.0001829944
       -0.0007922263   0.0000553673  -0.0000034495   0.0003580285  -0.0002003324
        0.0001752726  -0.0002659714   0.0001099670   0.0000996736   0.0005559808
        0.0001223660  -0.0000796066  -0.0007228813   0.0024900896   0.0000304840
        0.0009002746  -0.0001451834   0.0001421739   0.0001635131   0.0000048452
       -0.0000641845  -0.0000241726  -0.0000226707  -0.0000445607  -0.0000011389
       -0.0000299877  -0.0000168154   0.0000095800  -0.0000352383   0.0000045836
        0.0000177521  -0.0000295726   0.0000342660   0.0000297379   0.0000014445
        0.0000557464   0.0000245041  -0.0001113746  -0.0002280443  -0.0000108821
        0.0000534815   0.0003239681  -0.0004213936  -0.0004542168   0.0000472153
       -0.0001472117   0.0001187844   0.0000870952   0.0001261035  -0.0000204380
        0.0000445481   0.0001016898   0.0000056750   0.0000638519   0.0000948352
        0.0000501590  -0.0000447803   0.0000196218  -0.0000259130  -0.0000497989
       -0.0000290568  -0.0000134335  -0.0000041553  -0.0000141037  -0.0000043157
       -0.0000742338  -0.0000495317
        0.0503335557   0.0475766662  -0.0796558702  -0.0349418219  -0.0479546289
        0.0577043433  -0.0052770038   0.0001418860   0.0067692743  -0.0009989214
        0.0059274987   0.0022035045  -0.0005132799   0.0002857607   0.0003745182
        0.0002975767   0.0002123850   0.0002853663   0.0000500573  -0.0001176135
       -0.0000822691   0.0001395416   0.0000980907   0.0000189772  -0.0001054477
        0.0000119336   0.0000288885   0.0000493081  -0.0000122482  -0.0000245020
       -0.0003013602  -0.0000241735   0.0000109767   0.0001106431   0.0000347535
        0.0000392319  -0.0003982727   0.0000973585  -0.0000238369   0.0001047775
       -0.0000496813  -0.0000148988  -0.0001606472  -0.0000260003   0.0000198030
        0.0001189493  -0.0000860174  -0.0000938017  -0.0000387076   0.0001573898
        0.0000668761   0.0001370117  -0.0002422686  -0.0002395148  -0.0001406859
        0.0007350535  -0.0004544840  -0.0003569399  -0.0014743656   0.0000795824
        0.0020048292   0.0054678585   0.0020241120  -0.0079975863  -0.0049171725
        0.0159014521   0.0023082899  -0.0000421801  -0.0015945594  -0.0016507225
       -0.0007245733   0.0006844338  -0.0024865640  -0.0012325348  -0.0020931426
       -0.0002025459   0.0000076628  -0.0001982645   0.0001945742   0.0003228731
       -0.0002118036  -0.0002579905  -0.0003221684   0.0004569034   0.0011736184
       -0.0005103350  -0.0003604451  -0.0000267228   0.0002718898  -0.0002848405
       -0.0000173298  -0.0000046348   0.0004327810   0.0000365771   0.0000640091
       -0.0003432068  -0.0000098139   0.0000329343   0.0001656810  -0.0000032640
        0.0000356988  -0.0000867878  -0.0001107056   0.0000750403   0.0000468945
       -0.0000295058  -0.0000868765  -0.0005268534   0.0004223273  -0.0030267023
       -0.0012843821  -0.0000680461   0.0000228195   0.0000377996   0.0000139643
       -0.0000140700  -0.0000098188  -0.0000106543  -0.0000187645   0.0000027115
       -0.0000141686   0.0000009501   0.0000134885  -0.0000153858   0.0000054472
        0.0000111515  -0.0000055557   0.0000144302   0.0000130563   0.0000192781
        0.0000450268   0.0000287534   0.0000104213  -0.0001090833   0.0001103436
       -0.0003182307  -0.0006827139   0.0002744893  -0.0010102485  -0.0001342404
       -0.0001922730   0.0000806050   0.0001904803  -0.0000243398  -0.0000563217
        0.0000451392   0.0000239343  -0.0000380869   0.0000446283  -0.0000035274
        0.0000104117  -0.0000251359   0.0000083878  -0.0000098935  -0.0000273096
        0.0000038143  -0.0000128875  -0.0000045341  -0.0000008840  -0.0000309987
       -0.0000556380  -0.0000372242
       -0.1172024843  -0.0796558702   0.2554616127   0.0934780890   0.0601306052
       -0.2008677888   0.0127106541   0.0048156987  -0.0106152594   0.0001691938
        0.0022366568  -0.0002977409   0.0008554648   0.0002714068  -0.0003042592
       -0.0010071190  -0.0007065268  -0.0002962509   0.0001144019   0.0001013479
        0.0000903410  -0.0006831125  -0.0002278135   0.0001028357   0.0007779830
        0.0000086046  -0.0001132470  -0.0002392554   0.0001688965   0.0000605196
        0.0011331761  -0.0000261680   0.0001746436  -0.0002825747   0.0000283066
       -0.0001891029   0.0009568796  -0.0000272527   0.0000994426  -0.0001997907
       -0.0000933762  -0.0000129427   0.0005164209   0.0001513743  -0.0000865897
       -0.0005367061   0.0001438453   0.0002088373   0.0000562213  -0.0002297179
       -0.0001258428  -0.0009366334   0.0007425930   0.0001702976   0.0010880728
       -0.0010850106   0.0030709352   0.0012155496   0.0004258411  -0.0018513280
       -0.0079629263   0.0012036454  -0.0009373397   0.0267660418   0.0152035644
       -0.0419253309  -0.0068352547  -0.0013872343   0.0032164212  -0.0012611887
        0.0015917718  -0.0041595023  -0.0029356752  -0.0027503863   0.0004499539
        0.0006288995  -0.0001242642  -0.0002716283  -0.0002982982  -0.0002005805
        0.0005223277   0.0000798674   0.0002570582  -0.0002851016  -0.0015655752
        0.0001793108   0.0000274863   0.0002663011   0.0001466285   0.0004280122
        0.0003721632  -0.0002231349  -0.0012430374  -0.0000578039  -0.0002504149
        0.0005250491   0.0000301824  -0.0000714183  -0.0000797349  -0.0000043631
       -0.0000465564   0.0002700286  -0.0001435593  -0.0001369068   0.0000445619
        0.0004046625   0.0003926042   0.0011435424  -0.0002514404  -0.0011423277
        0.0003213174   0.0000615173   0.0000142368  -0.0003087683  -0.0000297307
        0.0001101810   0.0000175815   0.0000053955   0.0000379559  -0.0000058267
        0.0000178323   0.0000120862  -0.0000214620   0.0000343506   0.0000027248
       -0.0000233128   0.0000180224  -0.0000369898  -0.0000214764  -0.0000306374
       -0.0000775389  -0.0000385052   0.0000500519   0.0001926922  -0.0001527012
        0.0014943730   0.0005791694  -0.0014169720  -0.0006429311  -0.0007821273
       -0.0006435646  -0.0001168971  -0.0001141041  -0.0000554404  -0.0000329694
       -0.0000454553  -0.0000713857   0.0000124600  -0.0000448583  -0.0000686798
       -0.0000854576   0.0000794604  -0.0000227845  -0.0000046502   0.0000786546
       -0.0000117930   0.0000140535   0.0000007628  -0.0000070138   0.0000187533
        0.0001783497   0.0001259660
       -0.1017868141  -0.0349418219   0.0934780890   0.6100114740   0.0322107217
        0.0051504838  -0.3087800727   0.0000392330  -0.0491332592  -0.0478742447
       -0.0163980147   0.0400048102   0.0003263380  -0.0003901635   0.0007192978
       -0.0017859558   0.0003692832  -0.0006175427  -0.0000693558  -0.0007386382
       -0.0006793474   0.0005772189   0.0007119968  -0.0000734483   0.0001211650
       -0.0005779014  -0.0000651145   0.0000026918   0.0010561657   0.0007577356
       -0.0016061279  -0.0010383875  -0.0002150554   0.0003314513   0.0001972610
       -0.0003256297  -0.0014788330   0.0006570285   0.0006572522   0.0001014090
       -0.0012884742  -0.0002454212   0.0002836170   0.0004576975   0.0003192954
        0.0003376919  -0.0003215290  -0.0003893858  -0.0003482025   0.0008312467
        0.0000668026  -0.0020443767   0.0003461227  -0.0006403293   0.0005216602
        0.0000708879  -0.0002238402   0.0009714717   0.0007304609  -0.0026905996
        0.0191680372   0.0072263528  -0.0181249260  -0.1012045910   0.0031789175
       -0.0302482054  -0.0464869374   0.0086936789  -0.0348004716   0.0004619656
        0.0000610962   0.0000570391   0.0004466415   0.0027995930  -0.0008827894
       -0.0019610996   0.0000282420   0.0019022540   0.0010275049   0.0003631583
       -0.0010555038  -0.0003939000  -0.0015291805   0.0013591355   0.0022185720
       -0.0005933811  -0.0013587779   0.0000107058  -0.0003030407   0.0000926031
        0.0028102135  -0.0021060698  -0.0021509817  -0.0004192015   0.0008430003
       -0.0021386279   0.0015129662  -0.0015065024   0.0014378739  -0.0021022990
        0.0029195239  -0.0010876568   0.0001726322   0.0000612872   0.0041670773
       -0.0057825282   0.0011707466  -0.0007836941  -0.0162004180  -0.0008456267
       -0.0051310470   0.0000150559  -0.0008316109   0.0000661540  -0.0000166057
        0.0000831352  -0.0001060974   0.0001164485   0.0000487795   0.0001111744
        0.0000458538  -0.0000477931  -0.0000015828   0.0000428816   0.0000379674
        0.0000424319   0.0001133280  -0.0000890977   0.0000085975  -0.0000124344
        0.0000151755  -0.0001134231   0.0000004739   0.0004841302   0.0005529670
       -0.0011619402  -0.0015737361   0.0027890156   0.0000320827  -0.0006636709
       -0.0002385162  -0.0000097993  -0.0000379624  -0.0000254378   0.0000060399
       -0.0000637386  -0.0001039517   0.0000083857  -0.0000298464  -0.0000067918
       -0.0001544676   0.0001758800  -0.0001526980  -0.0001929988  -0.0001395814
        0.0000154953  -0.0000048461   0.0000907351  -0.0000856791   0.0000820721
        0.0000962639   0.0001402477
       -0.0328811722  -0.0479546289   0.0601306052   0.0322107217   0.1494808523
       -0.1394576478  -0.0270813911  -0.0428836613   0.0083557170  -0.0083855101
       -0.0035993033  -0.0010876501  -0.0008972334   0.0050851166   0.0032930574
        0.0006189608  -0.0002539652  -0.0006127867  -0.0000202534   0.0003898244
        0.0001505169  -0.0005631880  -0.0004247380  -0.0000473186   0.0003749578
        0.0001166615  -0.0000460880  -0.0000119115  -0.0002522802  -0.0000219458
        0.0009745888   0.0003705343   0.0003138777  -0.0002025515  -0.0000679887
       -0.0000852040   0.0007119725   0.0003894593  -0.0000109382  -0.0002235686
       -0.0000806327  -0.0001006305   0.0004182393   0.0000866584  -0.0000566416
       -0.0002273396  -0.0000141143   0.0000571407   0.0000600904  -0.0002580616
       -0.0000466399  -0.0015488897  -0.0003343068   0.0005184986   0.0011512518
       -0.0022300869  -0.0001554757  -0.0000133738   0.0005444232   0.0000388493
       -0.0056256938  -0.0103091747   0.0188873076   0.0328171038  -0.0554383274
        0.0446050323   0.0027752344   0.0014100096   0.0006041892   0.0006941556
        0.0010069345  -0.0020470528  -0.0004808390  -0.0008292396   0.0012565928
        0.0005508868  -0.0002913228  -0.0004932765  -0.0004206109  -0.0002427732
        0.0005006260   0.0002283612   0.0004955632  -0.0004738628  -0.0014625472
        0.0009516360   0.0003467384   0.0000766304  -0.0003069694   0.0002583042
       -0.0008766303   0.0008613220  -0.0008514558   0.0000183691  -0.0000614656
        0.0013525801  -0.0003060207   0.0002639604  -0.0007429134   0.0006133886
       -0.0006757779   0.0005083634   0.0001305711  -0.0000418214  -0.0014131562
       -0.0001097112   0.0005300546   0.0023608657   0.0082663421   0.0013837525
        0.0015464625  -0.0001388480  -0.0001404945  -0.0000898622  -0.0000220505
        0.0000259618   0.0000280733   0.0000041171   0.0000253956  -0.0000217577
        0.0000324116   0.0000109361   0.0000054845  -0.0000051439   0.0000162247
       -0.0000067262   0.0000099456  -0.0000180656   0.0000018513  -0.0000220537
       -0.0000337303  -0.0000249940  -0.0000214492   0.0000700353  -0.0001255906
       -0.0011757880   0.0042922870   0.0033768851  -0.0002203880  -0.0007358072
       -0.0004819934  -0.0000456318  -0.0001381028   0.0000021241   0.0000810239
       -0.0000385582  -0.0000120109   0.0000470028  -0.0000485016  -0.0000518017
       -0.0000352208  -0.0000111564  -0.0000233134   0.0000498120   0.0000390691
        0.0000085043  -0.0000014549  -0.0000435472   0.0000162304   0.0001103257
       -0.0000880689   0.0000642565
        0.0893320345   0.0577043433  -0.2008677888   0.0051504838  -0.1394576478
        0.5218362221   0.0237107470   0.0133080623  -0.0710615573   0.0146174647
       -0.0017834468   0.0066207828   0.0022229861   0.0032819296  -0.0022133094
        0.0022371336   0.0011974931  -0.0002329283  -0.0002504474  -0.0006893290
       -0.0003862403   0.0017133599   0.0007446794  -0.0001643529  -0.0017037470
       -0.0002959960   0.0002690584   0.0004322545   0.0000845848   0.0001659785
       -0.0029567322  -0.0001749278  -0.0000750832   0.0006439610  -0.0000783568
        0.0001972503  -0.0027793382   0.0001241289   0.0000423786   0.0003163970
       -0.0002266624  -0.0000567880  -0.0013904069  -0.0001305494   0.0003801120
        0.0015752313  -0.0002856035  -0.0005362698  -0.0003009871   0.0005522768
        0.0002925806   0.0012407106  -0.0005413426  -0.0005225043  -0.0018589521
       -0.0000813047  -0.0026098768  -0.0006038342  -0.0007291060   0.0011329904
        0.0167181668   0.0216398112  -0.0545008258  -0.1144276315   0.0418300355
       -0.1897401886  -0.0106326131   0.0008353534  -0.0070567516  -0.0024142840
       -0.0024783949   0.0052496362   0.0002753748   0.0031365244  -0.0027341468
       -0.0017653722   0.0005059648   0.0010064256   0.0011583253   0.0008140209
       -0.0015715473  -0.0004939736  -0.0015781231   0.0012991626   0.0043629149
       -0.0018082934  -0.0013846135  -0.0003926455  -0.0001330273  -0.0005751447
        0.0016865260  -0.0011682031   0.0010545026  -0.0001264660   0.0005375691
       -0.0022758407   0.0010022275  -0.0008991191   0.0011255004  -0.0015412970
        0.0018342006  -0.0009405443   0.0005201099  -0.0000711808   0.0031026240
       -0.0000731529   0.0013850768  -0.0009230312  -0.0270601791  -0.0002922320
       -0.0040653077   0.0001281962  -0.0000848375   0.0004082591   0.0000347232
       -0.0001108081  -0.0000735172   0.0000068590  -0.0000439536   0.0000317587
       -0.0000191052  -0.0000186250   0.0000223686  -0.0000401594   0.0000173861
        0.0000297099  -0.0000060258   0.0000288081   0.0000312202   0.0000344818
        0.0001226813   0.0000042674   0.0002274161  -0.0002194999   0.0002046461
        0.0015437569   0.0032061041  -0.0008755647  -0.0001870383   0.0004103414
        0.0008386291   0.0001198266   0.0001635696   0.0001209345  -0.0000559127
        0.0000427895   0.0000822206  -0.0000647203   0.0000805766   0.0001569300
        0.0000457554  -0.0000212719  -0.0000127391  -0.0000882741  -0.0001536912
       -0.0000219383  -0.0000066559   0.0000289425  -0.0000126055   0.0001825271
       -0.0000617204  -0.0002151432
       -0.0322003755  -0.0052770038   0.0127106541  -0.3087800727  -0.0270813911
        0.0237107470   0.6433107996   0.0313126438   0.0156572933  -0.1288543064
       -0.0347482581   0.0718545247  -0.0317642557  -0.0106155841   0.0224264784
        0.0032434050  -0.0004924534   0.0023044287  -0.0004712514   0.0004364477
        0.0014565542   0.0024822076  -0.0000796754  -0.0001447285  -0.0033756139
        0.0006059695   0.0008031877   0.0003872890  -0.0021228667  -0.0013950241
       -0.0032574206   0.0016442161  -0.0003457035   0.0019945784  -0.0002119367
        0.0005929492  -0.0031318058  -0.0010200724  -0.0017266465   0.0001833594
        0.0023915180   0.0006761581  -0.0032252276  -0.0013264959   0.0000772488
        0.0024254829   0.0004544817  -0.0001548868  -0.0000628702  -0.0015288378
        0.0005076471   0.0029364489  -0.0008980684   0.0017250868   0.0178842100
       -0.0036806816   0.0136971004  -0.0007892971   0.0017119540  -0.0040254925
       -0.0182451849  -0.0082587478   0.0175501385  -0.0416449806   0.0256154096
       -0.0766108781  -0.0020971437   0.0009313582   0.0003737989   0.0021281208
        0.0018722424  -0.0031220505  -0.0005124191  -0.0021578467   0.0014819197
        0.0016520764  -0.0001536528  -0.0012613342  -0.0008652201  -0.0004057356
        0.0009742865   0.0003877178   0.0010510979  -0.0012027104  -0.0026356527
        0.0007429610   0.0012950709   0.0003837683   0.0001084750   0.0001511471
       -0.0020306953   0.0010644264  -0.0004818746   0.0000479427  -0.0004493751
        0.0011879182  -0.0008126069   0.0007596290  -0.0007203489   0.0011510482
       -0.0013510131   0.0007503430  -0.0000173652   0.0002072472  -0.0022688944
        0.0009565351  -0.0018595551   0.0027680316  -0.0969819676   0.0333533680
       -0.1017189724   0.0000364214  -0.0015604272  -0.0005981973   0.0000532329
        0.0000686067   0.0001000490   0.0000192895   0.0001340500  -0.0001198771
        0.0000244687   0.0000397161  -0.0000789443   0.0000208914   0.0000434432
       -0.0000818831   0.0000217125   0.0000040370  -0.0001633507   0.0000788546
       -0.0001029754   0.0000200470  -0.0001367320   0.0015246046   0.0007579392
       -0.0000544632  -0.0006096388   0.0006471697   0.0000357683  -0.0002904141
       -0.0000847733   0.0000009315  -0.0000204926  -0.0000676385   0.0000787241
        0.0000099436   0.0000048522   0.0000522966   0.0000016998  -0.0000359722
        0.0000480445   0.0000002651   0.0000083505   0.0001261262   0.0000975503
        0.0000280214  -0.0000370606  -0.0000361630   0.0000308735  -0.0001677635
        0.0001520006   0.0000801665
       -0.0159333703   0.0001418860   0.0048156987   0.0000392330  -0.0428836613
        0.0133080623   0.0313126438   0.1629991158  -0.1763341603  -0.0515009900
       -0.0603847363   0.0676857547  -0.0036154774  -0.0005832268   0.0003904705
        0.0019887072  -0.0020597698  -0.0018037979  -0.0006112683  -0.0004483210
        0.0005507098   0.0017102811   0.0001340590  -0.0000118496  -0.0023403763
        0.0002994358   0.0002610266   0.0004493500  -0.0012948276  -0.0005324329
       -0.0024174544   0.0011708313   0.0001514244   0.0012780685  -0.0000508292
        0.0003406917  -0.0036720846  -0.0007041528  -0.0002909065   0.0004339592
        0.0007193748   0.0000624484  -0.0025937921  -0.0007183945   0.0005798000
        0.0027849889   0.0000770274  -0.0006151366  -0.0002905765  -0.0002718993
        0.0002191017   0.0034699089  -0.0004727926   0.0009664490   0.0089198051
       -0.0100879511   0.0241221839   0.0008872732   0.0048349663   0.0031744441
       -0.0086288746  -0.0014697084   0.0004542272   0.0089372359   0.0002950635
       -0.0059922596  -0.0032283134   0.0021892681   0.0020092548   0.0004037132
        0.0004423176  -0.0007278722   0.0001543634  -0.0000024452   0.0000998044
       -0.0000632025   0.0000745228   0.0000686531   0.0000519332   0.0000240328
       -0.0000705908  -0.0000561466  -0.0000651521   0.0000467452  -0.0002000681
       -0.0002713980   0.0001836394  -0.0000183308   0.0000730370   0.0000196845
       -0.0000213740  -0.0001478198  -0.0004077213  -0.0002229715   0.0000437679
       -0.0003928043   0.0000825299  -0.0000680986   0.0002011406  -0.0002922243
        0.0001934397   0.0000656083   0.0002721106  -0.0002260879   0.0004398580
        0.0003343307   0.0011336544   0.0015840720   0.0315987158  -0.0502112204
        0.0665016073  -0.0011105734  -0.0023598290  -0.0007872468   0.0000193786
        0.0000379647   0.0001717265   0.0000042659   0.0001412072  -0.0000647029
        0.0000610363   0.0000446314  -0.0000256278   0.0000728446   0.0000204606
       -0.0000528854   0.0001470056  -0.0000865676  -0.0000727855   0.0000246153
       -0.0000174149  -0.0001230723   0.0012210361  -0.0002622837  -0.0004819000
        0.0001397089  -0.0002885897   0.0001100243   0.0000337682   0.0000898667
        0.0000400262   0.0000006845   0.0000026624  -0.0000045791  -0.0000014846
        0.0000060859  -0.0000059508  -0.0000094726   0.0000084065   0.0000408398
       -0.0000006323   0.0000392538  -0.0000233753   0.0000191958   0.0000133288
        0.0000232230  -0.0000135357   0.0000059732   0.0000216415  -0.0000100970
        0.0001815361   0.0001116160
        0.0417283085   0.0067692743  -0.0106152594  -0.0491332592   0.0083557170
       -0.0710615573   0.0156572933  -0.1763341603   0.5849181344   0.1185851243
        0.0715708494  -0.2018480101   0.0064945770  -0.0002227785   0.0024268576
       -0.0077667000   0.0012227216  -0.0000184425   0.0007485469   0.0006532606
       -0.0007602582  -0.0062836311  -0.0013768434   0.0003827502   0.0065906446
       -0.0000415065  -0.0013854085  -0.0010714677   0.0021187910   0.0012385325
        0.0085152345  -0.0017647687  -0.0006834513  -0.0034107680   0.0002206770
       -0.0005953165   0.0074017343   0.0026295654   0.0015451007  -0.0008166382
       -0.0026558466  -0.0011184890   0.0061383049   0.0017392356  -0.0006467047
       -0.0056291272  -0.0002577698   0.0009517754   0.0008714266   0.0007509485
       -0.0009411214  -0.0066203616  -0.0035426440  -0.0007610492  -0.0179584397
        0.0214467547  -0.0598160909  -0.0033221968   0.0034809822  -0.0017853862
        0.0181721224   0.0002233240   0.0026316570  -0.0326196013  -0.0010585824
       -0.0012342746   0.0092419348   0.0025876453  -0.0034276650  -0.0011516347
       -0.0011978563   0.0016134559  -0.0000793592  -0.0003456440  -0.0000847998
        0.0002248748  -0.0002548630  -0.0003038879  -0.0002017115  -0.0000759349
        0.0002661483   0.0001352391   0.0003894510  -0.0001878244   0.0000775379
        0.0006773323  -0.0000680818  -0.0000134033  -0.0000800050  -0.0000590084
       -0.0006211555   0.0010064256  -0.0000175960   0.0002487963   0.0000232817
        0.0012279445  -0.0004010373   0.0003781552  -0.0005207697   0.0008686071
       -0.0009246325   0.0001783340  -0.0003582269   0.0001057702  -0.0012207423
       -0.0022885124   0.0007095604  -0.0019650874  -0.1007950400   0.0652533506
       -0.2355307600  -0.0004561654   0.0012939787   0.0007439482  -0.0000038866
       -0.0001980770  -0.0000486040  -0.0001986594  -0.0003118101  -0.0000149178
       -0.0001580713  -0.0000876382   0.0000823841  -0.0001664292  -0.0000433025
        0.0001212014  -0.0001748004   0.0001498278   0.0002842883  -0.0000590345
        0.0001972460   0.0000271638   0.0005035234  -0.0024156418  -0.0010706275
       -0.0002556295  -0.0002376603  -0.0004740539  -0.0000838162  -0.0001440813
       -0.0000736781   0.0000287270   0.0000195848   0.0000039292  -0.0000141846
       -0.0000044451   0.0000297371  -0.0000149829  -0.0000042273  -0.0000804027
       -0.0000837256  -0.0000346622  -0.0000003873  -0.0000340653   0.0000231135
       -0.0000587387   0.0000377668  -0.0000286656  -0.0000219513  -0.0000246021
       -0.0003527770  -0.0001729389
       -0.0048208993  -0.0009989214   0.0001691938  -0.0478742447  -0.0083855101
        0.0146174647  -0.1288543064  -0.0515009900   0.1185851243   0.6102183619
        0.0213833467   0.0061062350  -0.2290839043  -0.0063398783  -0.0063442414
       -0.0277135556  -0.0131161247  -0.0097565409   0.0004540987  -0.0002383876
       -0.0003416958  -0.0027334628  -0.0001146214   0.0004697146   0.0026850861
       -0.0001528897  -0.0003720578  -0.0009194219  -0.0000414019   0.0016580891
        0.0033513338  -0.0014435077  -0.0005190807  -0.0016064814   0.0001064904
       -0.0002955527   0.0022726350   0.0022980745   0.0012935979  -0.0009938628
       -0.0014799606   0.0008652262   0.0021978090   0.0007509463   0.0000101735
       -0.0021375250  -0.0009172574   0.0000467250   0.0001958790   0.0017565402
        0.0003443842  -0.0314472754   0.0117990940   0.0027673026  -0.1124790328
        0.0465546427  -0.1206944777   0.0038300198  -0.0091679811   0.0202338114
       -0.0450670606   0.0074283339  -0.0252811842   0.0019211445  -0.0005648483
        0.0059027904   0.0071605666  -0.0003703250   0.0012573678  -0.0012718950
       -0.0013152193   0.0016601183  -0.0001527458   0.0003574758  -0.0002897124
       -0.0002015917  -0.0001508185   0.0000903623   0.0000948357   0.0000384437
       -0.0000586464   0.0000117651  -0.0000484611   0.0001675550   0.0006525838
        0.0003103959  -0.0002964254  -0.0000498020  -0.0001517399   0.0000548261
        0.0005000260   0.0001529759  -0.0000866786   0.0000924942   0.0000970068
        0.0008218106  -0.0000129519   0.0000141671  -0.0004605793   0.0002926554
       -0.0003515217   0.0001164341  -0.0004287328  -0.0004858960  -0.0005792259
       -0.0009231806   0.0011398454  -0.0018483970   0.0070602848   0.0032161969
       -0.0091249017   0.0006361161   0.0006617247   0.0000434030  -0.0000169550
        0.0001993927  -0.0001161546  -0.0000592078  -0.0000357861  -0.0000801606
       -0.0000127257  -0.0001893600   0.0000640581  -0.0000558737   0.0000895602
        0.0002095112  -0.0000727117   0.0000432487   0.0000165790  -0.0000312630
       -0.0000604831  -0.0002566962   0.0004301300  -0.0001329516  -0.0002943984
       -0.0046598715  -0.0005269076  -0.0003774758  -0.0000985613  -0.0000773975
       -0.0000231806  -0.0000034911   0.0000160141   0.0000251640  -0.0000155798
       -0.0000107887   0.0000153699  -0.0000156004  -0.0000067927  -0.0000448153
       -0.0000709532  -0.0000301429   0.0000116869  -0.0000565226   0.0000075088
       -0.0000265577   0.0000118104   0.0000066886  -0.0000019497  -0.0001283863
       -0.0000212425  -0.0000532920
       -0.0000724522   0.0059274987   0.0022366568  -0.0163980147  -0.0035993033
       -0.0017834468  -0.0347482581  -0.0603847363   0.0715708494   0.0213833467
        0.2038095593  -0.1535171368  -0.0066138979  -0.0571892282  -0.0037396271
       -0.0269210215  -0.0027620594   0.0006646829  -0.0017174419  -0.0021396428
       -0.0013840274  -0.0031359044  -0.0005579424  -0.0002820673   0.0022493941
        0.0000139201   0.0000866017  -0.0016438737   0.0000567014   0.0000858373
        0.0025006813  -0.0027423870  -0.0035537449  -0.0008094789  -0.0001154348
       -0.0000064349   0.0035613631  -0.0020999445  -0.0014317446   0.0008307951
       -0.0007944376  -0.0003978853   0.0023063886   0.0007247416  -0.0006576366
       -0.0011736910  -0.0003826617   0.0006616281   0.0033069719  -0.0034041524
       -0.0006063610   0.0202048950   0.0004104882  -0.0013685455   0.0152235301
       -0.0632030799   0.0599312008   0.0014794770  -0.0056016858   0.0213175825
        0.0273322672   0.0027807236  -0.0005128564  -0.0054499176  -0.0045675502
        0.0076891671   0.0041376916   0.0003019030  -0.0002707928  -0.0002410188
       -0.0001907072   0.0002315223  -0.0000359503  -0.0005300626   0.0002047378
        0.0003757612  -0.0001109653  -0.0004056590  -0.0002500620  -0.0001269667
        0.0003021721   0.0001333362   0.0004286412  -0.0003411318  -0.0003481370
        0.0003325752   0.0002203602   0.0000485236  -0.0000068151   0.0000172254
       -0.0006699997   0.0006660864  -0.0000113764   0.0001225103  -0.0000848957
        0.0010917911  -0.0001998996   0.0001860374  -0.0006582399   0.0005371828
       -0.0005667683   0.0001764344  -0.0000428618   0.0000863914  -0.0011712890
       -0.0003218319  -0.0000094308   0.0000310532  -0.0037077271  -0.0028557216
        0.0075177798  -0.0017232172  -0.0022649990  -0.0015287786  -0.0000309391
        0.0000516311  -0.0001110194  -0.0000702767  -0.0001934527   0.0001774582
       -0.0002193806  -0.0003280335  -0.0001128339   0.0001208607  -0.0002575850
       -0.0000571026  -0.0000806418   0.0001472252  -0.0001237151  -0.0000443672
        0.0001177222   0.0000078059   0.0019598106  -0.0036607820  -0.0015395466
       -0.0012061575   0.0050011654   0.0015210782  -0.0000473074  -0.0000177864
       -0.0000048778   0.0000052517   0.0000165545  -0.0000066795   0.0000021652
        0.0000111639   0.0000243538  -0.0000074674  -0.0000002220  -0.0000306367
       -0.0000177511  -0.0000338548   0.0000121398   0.0000136248   0.0000167180
       -0.0000242799   0.0000132883  -0.0000283085  -0.0000180523   0.0000998291
       -0.0002758440  -0.0001225934
       -0.0013203237   0.0022035045  -0.0002977409   0.0400048102  -0.0010876501
        0.0066207828   0.0718545247   0.0676857547  -0.2018480101   0.0061062350
       -0.1535171368   0.5354610506  -0.0075186269  -0.0041892755  -0.0528388648
       -0.0049352191  -0.0021871373  -0.0011085039  -0.0019986495  -0.0026553162
       -0.0018592181   0.0052659579   0.0015188639  -0.0005367336  -0.0060297834
       -0.0003002738   0.0010178626   0.0005592553  -0.0014201238  -0.0004400620
       -0.0078576621  -0.0014398809   0.0024427259   0.0021906294   0.0000353599
       -0.0001574372  -0.0064298763  -0.0045607676   0.0017234010   0.0014774969
        0.0011090810   0.0006976751  -0.0055507871  -0.0009987426   0.0005977986
        0.0056594060  -0.0000975673  -0.0010380407  -0.0000673382  -0.0003307312
        0.0000481688   0.0152402198   0.0031629048  -0.0003709752  -0.0501454139
        0.0682733047  -0.2027973131  -0.0028511054   0.0182016381  -0.0442098079