60
 energy: -97.672205349605 gnorm: 0.000093045246 xtb: 6.7.1 (edcfbbe)
C            7.26662016549676       -0.36625132313673       -2.28886417521936
C            6.61698678858089        0.86515815518691       -2.29840852613590
C            5.46723813124740        1.08055610804653       -1.56119920173115
C            4.98137240155913        0.02925112409579       -0.79557610224605
C            5.61915456395454       -1.23389461974981       -0.80477351171454
C            6.77056254034208       -1.42683840946115       -1.55263968842941
C            4.82852112868801       -2.09553105494078        0.03285793734065
C            4.95184391886909       -3.42066098128621        0.42205970341860
C            4.00335676481195       -3.94897074382210        1.27897018069929
C            2.95711299594208       -3.16626376272066        1.75981905651910
C            2.81550758177921       -1.84187686589937        1.38839929304645
C            3.74626285653284       -1.31476843560025        0.50289570258312
N            3.85273062963033       -0.03420588494286       -0.00352798165453
C            2.96410859956582        1.01470066183496        0.24859594012738
C            3.46448793184999        2.27556282068058        0.60209634723410
C            2.57910527542918        3.32362054074371        0.86289196214979
C            1.22876868723459        3.09251933866833        0.76495885422601
S           -0.04243408059762        4.26762807528016        1.05695707335256
C           -1.28031670378818        3.08005322664286        0.73348614129270
C           -2.64085107040983        3.28209987615990        0.80706514000035
C           -3.49893620206717        2.22835989195921        0.51915657973518
C           -2.96890683108862        0.96782043947033        0.16235636086760
N           -3.82466107419468       -0.08915549523655       -0.11020844324524
C           -5.06949943618092       -0.02213951167064       -0.72223531461911
C           -5.67941733219801        1.03395900223256       -1.37654199255136
C           -6.92946005102151        0.81738278932927       -1.94372162439675
C           -7.54752713309294       -0.42720123784825       -1.87631810582765
C           -6.92611314494125       -1.50165213179408       -1.26559116868814
C           -5.67375873729975       -1.30759738177888       -0.69192625920710
C           -4.74416422998538       -2.18329251749243       -0.05186859790620
C           -4.72061835197198       -3.53675255484696        0.29015759073862
C           -3.57932939302898       -4.00763371004102        0.92202225671009
C           -2.52503122050057       -3.14347467034205        1.19315955077198
N           -2.52427080068757       -1.84697956303922        0.87708666308973
C           -3.60694766720521       -1.40128433728007        0.27192951134566
C           -1.59617118729145        0.75843555792763        0.10879040517925
C           -0.71919857740630        1.81129355094491        0.38917641665838
C            0.69491280365385        1.82372637132873        0.40600017130380
C            1.59849406092912        0.78244415787885        0.14316103866652
H            8.16404356768698       -0.49471566888217       -2.87525660657899
H            7.01686596229357        1.66896615520584       -2.89829383626434
H            4.95844730827025        2.03145559989047       -1.59239396140686
H            7.26320511702056       -2.38721607642896       -1.56225880798615
H            5.77416028527379       -4.02221115740806        0.06560906137573
H            4.07904969686507       -4.97989219004759        1.59088824751345
H            2.24257602364732       -3.60046498319239        2.44284758149692
H            2.01334919854706       -1.23911687416725        1.78490773867839
H            4.52559010650938        2.42095618646031        0.71769380606396
H            2.95395155599289        4.29180868762123        1.15554325918272
H           -3.03725153438891        4.24073526030952        1.10399157816483
H           -4.56167027692072        2.35060153210020        0.63932988380720
H           -5.19716839237903        1.99402230202842       -1.47112966284021
H           -7.42406133466652        1.63046851521673       -2.45263329130218
H           -8.52142373488998       -0.55800467230749       -2.32445873319383
H           -7.39385267781072       -2.47387197431774       -1.23953983630148
H           -5.55585766581544       -4.18455502944817        0.07255316247934
H           -3.50152028401654       -5.04533813471655        1.20813421232947
H           -1.62813645891340       -3.49211860220552        1.68472857113809
H           -1.21214662255387       -0.21103600372563       -0.15807588214026
H            1.23064885863838       -0.17915897081578       -0.17656683435137
