49
 energy: -82.999830068564 gnorm: 0.000107462987 xtb: 6.7.1 (edcfbbe)
N            8.38576704922242       -1.12275818767189        0.02836874952176
C            7.43168501070438       -0.48356745529769        0.03775025497086
C            6.26650724642565        0.30901525961760        0.04954868424107
C            6.36261360619162        1.70293040574701        0.08637480108269
C            5.21956121942877        2.48393308212442        0.09789302641160
C            3.95959280959836        1.90387214847788        0.07283904856115
C            3.83527795008104        0.52101317504679        0.03608562233636
C            4.99475352076569       -0.27499986529334        0.02531234851623
S            4.64968340311438       -1.98452424563327       -0.01863898173893
C            2.92998918363945       -1.66299702064910       -0.02285897821389
C            1.91759044425136       -2.62101297971851       -0.05069810855507
C            0.61154845538676       -2.20318487847540       -0.04821786740388
C            0.27994923704934       -0.82564941000233       -0.02034811910413
C           -1.07685856163304       -0.40943231353315       -0.01749275945117
N           -2.07747779681121       -1.32212431332072       -0.01218280590956
C           -3.32145359827795       -0.92349800746750       -0.00086693749750
C           -4.39162828731904       -1.90874596872018        0.01299304642023
C           -5.72654547800075       -1.49807938211774        0.01155991770146
C           -6.74053452376557       -2.43495410647587        0.02759126715850
C           -6.43891572106959       -3.78875865201666        0.04500548585700
C           -5.11452994949569       -4.20396644728004        0.04613885376353
C           -4.09518421349477       -3.27411134671882        0.03022174238617
N           -3.65611472328518        0.38535236773989        0.00100470619640
C           -2.64369186768823        1.27502235186840       -0.01300089707502
C           -2.97669314414580        2.69375352665485       -0.02213970919563
C           -1.96710025843473        3.65685020671084       -0.08519562078815
C           -2.28916715714536        4.99878535742789       -0.09556282947419
C           -3.61705442150019        5.39868854943844       -0.04363343459632
C           -4.62463674886727        4.44767007296443        0.01916358823090
C           -4.31052616214634        3.10302640490679        0.02943104689224
N           -1.38810120019128        0.91307097747912       -0.01918114033506
C            1.31840985223183        0.12890312047629        0.00645698824948
C            2.63350213406458       -0.28293115890353        0.00705048011251
H            7.34116282427130        2.15836277726830        0.10544793785295
H            5.31338826771198        3.55841556533689        0.12672726761644
H            3.07431851017924        2.51988729642644        0.08197047058009
H            2.16560368212353       -3.67090970420784       -0.07272831783763
H           -0.19432497597312       -2.91943709654073       -0.06876223562094
H           -5.94442881651504       -0.44112267932394       -0.00247246461549
H           -7.77085239864017       -2.11107292224933        0.02649148605748
H           -7.23392540368616       -4.51923616810963        0.05768485667158
H           -4.87908632404846       -5.25796401270952        0.05953802519107
H           -3.06055675611495       -3.58178801131598        0.03174492400042
H           -0.93918739857761        3.33069442860711       -0.12711035700577
H           -1.50416970340258        5.73893126629803       -0.14484871283134
H           -3.86544569342567        6.44944812882070       -0.05205033201800
H           -5.65854927027662        4.75720819531771        0.05947187392216
H           -5.08321427233808        2.35116468895321        0.07814373531778
H            1.06009454009800        1.17520460143578        0.02873152725711
