$hessian                                                                        
        0.7327952350  -0.6364214778   0.0000285170  -0.7086276340   0.5988104764
       -0.0000268949  -0.0256348279   0.0393265771  -0.0000018908  -0.0044005754
       -0.0081919423   0.0000011448  -0.0030805640   0.0024630608  -0.0000000283
        0.0022847268   0.0003160896  -0.0000001112  -0.0001776432   0.0000188448
        0.0000002276   0.0081174634   0.0049402983  -0.0000009345  -0.0015795395
       -0.0020248229   0.0000001687   0.0006798499  -0.0003437899   0.0000000453
       -0.0003395674   0.0000849663  -0.0000000068   0.0001593075  -0.0002058467
       -0.0000000427  -0.0005412148   0.0002364118  -0.0000000119   0.0008236833
       -0.0003464205   0.0000000264  -0.0005510493  -0.0000350291  -0.0000000067
        0.0004713065  -0.0000520105   0.0000000110  -0.0000999861  -0.0000456815
        0.0000000016  -0.0000132171   0.0000447425  -0.0000000381  -0.0000484633
        0.0000165406  -0.0000000450   0.0000012903   0.0000098879   0.0000000057
       -0.0000078464  -0.0000375154   0.0000000429   0.0000385390  -0.0000373043
        0.0000000438  -0.0002354226   0.0001139321  -0.0000000102   0.0003796986
       -0.0003440926  -0.0000000033  -0.0000366686   0.0001186393   0.0000000189
       -0.0000531063  -0.0000335784   0.0000000123  -0.0000524260   0.0000284348
       -0.0000000368  -0.0000133492  -0.0000165765  -0.0000000458   0.0000247807
        0.0000212806  -0.0000000034   0.0000567271   0.0000014063   0.0000000424
       -0.0003737242   0.0004080787  -0.0000000043   0.0001908791  -0.0003020395
        0.0000000261   0.0001290664   0.0005528081  -0.0000000766   0.0000634554
        0.0003190052  -0.0000001492  -0.0004588863   0.0005330620  -0.0000000046
       -0.0000641427   0.0000455340   0.0000000247   0.0000320437   0.0000225741
        0.0000000120  -0.0000302814  -0.0000211711  -0.0000000310   0.0000185849
        0.0000274750  -0.0000000032   0.0000014658  -0.0000042571   0.0000000082
       -0.0000075500  -0.0000011058   0.0000000007  -0.0000085398   0.0000043551
       -0.0000000046   0.0000187583   0.0000028903  -0.0000000041   0.0000212743
       -0.0000299823  -0.0000000137   0.0000253804  -0.0000077011  -0.0000000009
        0.0000076208   0.0000051700  -0.0000000060  -0.0000012094   0.0000058753
       -0.0000000106   0.0000136296  -0.0000154204  -0.0000000008   0.0000826682
        0.0000393486   0.0000000399
       -0.6364214778   0.5815165266  -0.0000240899   0.5987434139  -0.5661579377
        0.0000226816   0.0389545498  -0.0170248247   0.0000013776   0.0000736332
        0.0085070856  -0.0000007752   0.0030427343  -0.0006953095  -0.0000002438
       -0.0016208723   0.0000121488   0.0000000776   0.0012033898   0.0002657821
       -0.0000004713  -0.0054277857  -0.0087442898   0.0000011756   0.0022941161
        0.0015934925   0.0000000533  -0.0003858428   0.0005462097  -0.0000000711
       -0.0000463983  -0.0000700406   0.0000000059  -0.0001115126   0.0000747127
        0.0000000338   0.0004215596  -0.0001347459  -0.0000000031  -0.0005744737
        0.0002275456  -0.0000000269   0.0003957688   0.0000569102   0.0000000021
       -0.0003522870   0.0000074347  -0.0000000096   0.0000679139   0.0000349804
       -0.0000000112   0.0000318210  -0.0000419123   0.0000000212   0.0000320669
       -0.0000146865   0.0000000195  -0.0000039432  -0.0000094584  -0.0000000238
        0.0000041191   0.0000325810  -0.0000000565  -0.0000286963   0.0000267259
       -0.0000000453   0.0001656075  -0.0000434929   0.0000000060  -0.0002918950
        0.0002267725   0.0000000076   0.0000190090  -0.0000704045   0.0000000017
        0.0000438086   0.0000255146   0.0000000070   0.0000322283  -0.0000244930
        0.0000000564   0.0000089837   0.0000146540   0.0000000683  -0.0000165615
       -0.0000072930   0.0000000224  -0.0000343451  -0.0000007491  -0.0000000243
        0.0002569685  -0.0002509712   0.0000000067  -0.0000480200   0.0004643263
       -0.0000000462  -0.0001936157  -0.0005835103   0.0000000742  -0.0002278360
        0.0002815215   0.0000001610   0.0001065002  -0.0001503238  -0.0000000193
        0.0000704298  -0.0000507744   0.0000000456   0.0000436451   0.0001024974
       -0.0000000418  -0.0000033754   0.0000389381   0.0000000133  -0.0000092025
       -0.0000190337  -0.0000000157   0.0000041031   0.0000066097  -0.0000000323
        0.0000038502  -0.0000034059  -0.0000000160   0.0000014408  -0.0000053655
       -0.0000000027  -0.0000177678  -0.0000012390   0.0000000004  -0.0000245916
        0.0000139126   0.0000000144  -0.0000223608   0.0000142889   0.0000000279
       -0.0000114656  -0.0000004391   0.0000000376  -0.0000045110  -0.0000028401
        0.0000000355  -0.0000092668   0.0000097298   0.0000000083  -0.0001335567
        0.0000066394  -0.0000000166
        0.0000285170  -0.0000240899   0.0165589922  -0.0000276529   0.0000233989
       -0.0325525358  -0.0000013157   0.0000007377   0.0155375240   0.0000002761
       -0.0000004077   0.0013814964  -0.0000001818  -0.0000001076  -0.0018278611
       -0.0000000055  -0.0000000609   0.0000838968  -0.0000000978  -0.0000001868
       -0.0016378647   0.0000003416   0.0000005907   0.0012534284   0.0000000360
        0.0000000529   0.0003858783   0.0000000057  -0.0000000067  -0.0000766766
        0.0000000097  -0.0000000212   0.0000125023  -0.0000000268   0.0000000041
        0.0000090240   0.0000000017   0.0000000052  -0.0000107000  -0.0000000289
        0.0000000222   0.0000229912   0.0000000025  -0.0000000033   0.0000116524
        0.0000000216  -0.0000000415  -0.0000259472  -0.0000000111   0.0000000024
       -0.0000078632  -0.0000000287   0.0000000250   0.0000070884  -0.0000000125
        0.0000000179  -0.0000020825   0.0000000121  -0.0000000047   0.0000106985
        0.0000000049  -0.0000000127  -0.0000057758   0.0000000291  -0.0000000057
        0.0000058127  -0.0000000262   0.0000000388  -0.0000022719   0.0000000386
       -0.0000000301  -0.0000203963   0.0000000085   0.0000000194  -0.0000054523
       -0.0000000285   0.0000000155   0.0000095322  -0.0000000216   0.0000000064
       -0.0000079513   0.0000000301  -0.0000000138   0.0000039891   0.0000000280
        0.0000000018  -0.0000052435   0.0000000072  -0.0000000065   0.0000163037
       -0.0000000081   0.0000000008   0.0000296929   0.0000000108  -0.0000000537
       -0.0000402523   0.0000000138   0.0000000589   0.0000114471   0.0000000429
        0.0000000066   0.0004964005   0.0000000035  -0.0000000221  -0.0000985930
        0.0000000161   0.0000000427   0.0004970565  -0.0000000101  -0.0000000090
       -0.0000064265  -0.0000000055   0.0000000029  -0.0000021404   0.0000000052
       -0.0000000001  -0.0000005014  -0.0000000044   0.0000000034  -0.0000007771
       -0.0000000064   0.0000000072  -0.0000006876  -0.0000000025   0.0000000109
       -0.0000017784   0.0000000007   0.0000000073   0.0000018088   0.0000000107
       -0.0000000336  -0.0000047233   0.0000000078  -0.0000000004  -0.0000010093
       -0.0000000013   0.0000000053  -0.0000002965  -0.0000000040   0.0000000109
       -0.0000012567  -0.0000000048  -0.0000000042   0.0000024673   0.0000000032
        0.0000000267  -0.0000026191
       -0.7086276340   0.5987434139  -0.0000276529   0.9266004629  -0.7310526244
        0.0000236851  -0.1740824276   0.1013086454   0.0000031150   0.0038324904
        0.0259422619  -0.0000026817   0.0081920436  -0.0044149491   0.0000003620
       -0.0044764086  -0.0011902307   0.0000003225  -0.0044122823  -0.0025313319
        0.0000003108  -0.0485328120   0.0102076137   0.0000023272   0.0036290897
        0.0044710751   0.0000001418  -0.0014960927   0.0011686407  -0.0000001268
        0.0007628552  -0.0001670345  -0.0000000007  -0.0003472857   0.0004997318
        0.0000000681   0.0008772235  -0.0004810792   0.0000000288  -0.0014550917
        0.0005997677  -0.0000000459   0.0009768582   0.0000903869   0.0000000109
       -0.0008575204   0.0000837907  -0.0000000263   0.0001847937   0.0000949890
       -0.0000000094   0.0000433711  -0.0001007181   0.0000000673   0.0000787173
       -0.0000320821   0.0000000727  -0.0000098676  -0.0000238418  -0.0000000245
        0.0000062971   0.0000644520  -0.0000001005  -0.0000777357   0.0000713807
       -0.0000000961   0.0003897695  -0.0001789727   0.0000000077  -0.0006719024
        0.0005912007   0.0000000097   0.0000529254  -0.0002097414  -0.0000000248
        0.0001061583   0.0000572230  -0.0000000145   0.0000748041  -0.0000447615
        0.0000000821   0.0000118166   0.0000301994   0.0000001089  -0.0000499517
       -0.0000328385   0.0000000146  -0.0001144011   0.0000003420  -0.0000000806
        0.0006332262  -0.0007459495   0.0000000095  -0.0005179286   0.0003150632
       -0.0000000315  -0.0016611055  -0.0002087649   0.0000000599   0.0003974849
       -0.0019858793   0.0000002025   0.0005846812  -0.0007963636   0.0000000322
        0.0001653987  -0.0001530564  -0.0000001310  -0.0000060804   0.0000619432
       -0.0000000332   0.0000529214   0.0000494897   0.0000000343  -0.0000308059
       -0.0000375526  -0.0000000079   0.0000014849   0.0000101225  -0.0000000328
        0.0000150477  -0.0000021910  -0.0000000154   0.0000156738  -0.0000145455
        0.0000000015  -0.0000304316  -0.0000139529   0.0000000041  -0.0000382901
        0.0000398755   0.0000000264  -0.0000450643   0.0000118386   0.0000000194
       -0.0000173832  -0.0000098646   0.0000000301   0.0000008484  -0.0000122481
        0.0000000334  -0.0000169464   0.0000249867   0.0000000070  -0.0001109944
       -0.0000978598  -0.0000000590
        0.5988104764  -0.5661579377   0.0000233989  -0.7310526244   0.7541711081
       -0.0000231837   0.1033549919  -0.1494201119  -0.0000020065   0.0224523467
       -0.0462966923   0.0000024562  -0.0074429819  -0.0040916099   0.0000011075
        0.0024365125  -0.0001138874  -0.0000000788  -0.0024224116   0.0013261547
        0.0000009427   0.0162358945   0.0150940528  -0.0000023244  -0.0049223077
       -0.0030212260   0.0000002024   0.0005769707  -0.0010594942   0.0000001534
       -0.0000042739   0.0002170325  -0.0000000134   0.0001701298  -0.0001289647
       -0.0000000639  -0.0008453546   0.0002386197  -0.0000000008   0.0011166841
       -0.0004681416   0.0000000543  -0.0007743116  -0.0001082442   0.0000000017
        0.0006865488  -0.0000110757   0.0000000247  -0.0001453306  -0.0000779005
        0.0000000184  -0.0000587653   0.0000907084  -0.0000000450  -0.0000631577
        0.0000220945  -0.0000000414   0.0000035277   0.0000204615   0.0000000409
       -0.0000081472  -0.0000566140   0.0000000969   0.0000691062  -0.0000599156
        0.0000000935  -0.0003065410   0.0000876753  -0.0000000144   0.0005410759
       -0.0004552762  -0.0000000216  -0.0000392203   0.0001383778   0.0000000072
       -0.0000825766  -0.0000375970  -0.0000000105  -0.0000530139   0.0000405139
       -0.0000001097  -0.0000108383  -0.0000278990  -0.0000001406   0.0000360607
        0.0000234548  -0.0000000526   0.0000822324   0.0000039732   0.0000000479
       -0.0004705505   0.0005253593  -0.0000000161   0.0001750474  -0.0007611428
        0.0000000837   0.0003377415   0.0008782321  -0.0000001698   0.0007711229
        0.0003923281  -0.0000003608   0.0007941409  -0.0007507012   0.0000000900
       -0.0002102047   0.0001759777  -0.0000001463  -0.0000666409  -0.0002161951
        0.0000000826  -0.0000021520  -0.0000835941  -0.0000000185   0.0000293172
        0.0000286814   0.0000000313   0.0000006909  -0.0000081037   0.0000000633
       -0.0000006677  -0.0000008049   0.0000000446  -0.0000024348   0.0000032342
        0.0000000100   0.0000299259   0.0000004887  -0.0000000065   0.0000312584
       -0.0000324612  -0.0000000564   0.0000279257  -0.0000184324  -0.0000000598
        0.0000129253  -0.0000046071  -0.0000000751   0.0000005459   0.0000003705
       -0.0000000671   0.0000144794  -0.0000224453  -0.0000000320   0.0001868274
        0.0000121768   0.0000000634
       -0.0000268949   0.0000226816  -0.0325525358   0.0000236851  -0.0000231837
        0.0758444624   0.0000028343  -0.0000014736  -0.0515452425  -0.0000017192
        0.0000019184  -0.0004196324   0.0000004921   0.0000010348   0.0087298218
        0.0000000642   0.0000002160  -0.0003278759   0.0000005711   0.0000005250
        0.0077128337   0.0000008751  -0.0000016684  -0.0009491419   0.0000004413
        0.0000000935  -0.0016861256   0.0000000665   0.0000000007   0.0002024576
       -0.0000000810  -0.0000000080   0.0000225446   0.0000000120  -0.0000000039
        0.0000217565   0.0000000616   0.0000000061   0.0000030996  -0.0000000307
        0.0000000080  -0.0000409954   0.0000000148   0.0000000095   0.0000078873
        0.0000000076  -0.0000000499   0.0000072174  -0.0000000055  -0.0000000065
       -0.0000132102  -0.0000000152   0.0000000124   0.0000040323  -0.0000000029
        0.0000000078  -0.0000018231   0.0000000170  -0.0000000169   0.0000079203
        0.0000000073  -0.0000000176  -0.0000070919   0.0000000252  -0.0000000095
        0.0000016902  -0.0000000226   0.0000000294  -0.0000206368   0.0000000243
       -0.0000000062   0.0000057715  -0.0000000010   0.0000000138  -0.0000159076
       -0.0000000237   0.0000000071  -0.0000034237  -0.0000000216   0.0000000042
       -0.0000180894   0.0000000147  -0.0000000123  -0.0000073940   0.0000000170
       -0.0000000059  -0.0000150077   0.0000000011  -0.0000000090   0.0000036980
       -0.0000000065  -0.0000000036   0.0000017722  -0.0000000211   0.0000000518
        0.0001496149   0.0000000204  -0.0000000792  -0.0001743484  -0.0000002226
       -0.0000000234  -0.0029721197  -0.0000000769   0.0000001260   0.0002538982
       -0.0000000771  -0.0000001678  -0.0021916214   0.0000000115   0.0000000191
        0.0000115421  -0.0000000066   0.0000000045  -0.0000031769   0.0000000086
       -0.0000000044   0.0000057373   0.0000000039  -0.0000000040   0.0000048123
       -0.0000000021  -0.0000000056   0.0000004225  -0.0000000008  -0.0000000024
       -0.0000042510  -0.0000000002  -0.0000000025  -0.0000014609   0.0000000020
       -0.0000000234  -0.0000028300  -0.0000000040  -0.0000000011  -0.0000062125
       -0.0000000123   0.0000000006  -0.0000112688  -0.0000000127   0.0000000025
       -0.0000116592  -0.0000000107  -0.0000000101  -0.0000048112  -0.0000000068
        0.0000000263   0.0000049014
       -0.0256348279   0.0389545498  -0.0000013157  -0.1740824276   0.1033549919
        0.0000028343   0.6282185112  -0.0256564467  -0.0000256089  -0.0930611087
       -0.0283240088   0.0000042666   0.0350544338   0.0097675250  -0.0000019406
       -0.0201493397  -0.0259531132   0.0000022870  -0.0475552151   0.0394144581
       -0.0000004605  -0.2772417057  -0.0683002327   0.0000150458  -0.0100479115
       -0.0218075604   0.0000023292  -0.0011220055   0.0001465060   0.0000000468
        0.0010654581   0.0004040033   0.0000000033  -0.0005898155   0.0010376144
       -0.0000000913  -0.0015670222  -0.0006024665   0.0000000396   0.0006775337
       -0.0003438894   0.0000000238  -0.0005002165  -0.0000979409  -0.0000000121
        0.0003573858  -0.0000663098   0.0000000058  -0.0000763397  -0.0000402979
       -0.0000000165  -0.0000203894   0.0000397209  -0.0000000276  -0.0000279152
        0.0000109380  -0.0000000357   0.0000033409   0.0000056836  -0.0000000279
       -0.0000023439  -0.0000301292  -0.0000000171   0.0000344788  -0.0000333550
       -0.0000000089  -0.0001976434   0.0000883996  -0.0000000147   0.0003219702
       -0.0002512748   0.0000000127  -0.0000281227   0.0000930976   0.0000000096
       -0.0000328176  -0.0000245537   0.0000000129  -0.0000452178   0.0000193479
        0.0000000026  -0.0000120124  -0.0000101361  -0.0000000030   0.0000162541
        0.0000144574  -0.0000000012   0.0000436022  -0.0000019093   0.0000000068
       -0.0002534102   0.0003550452  -0.0000000024   0.0003379259  -0.0004686693
        0.0000000890  -0.0042595701   0.0029405795   0.0000002254  -0.0076133836
       -0.0271876067   0.0000022539  -0.0025376414   0.0032936772   0.0000001303
        0.0002243571  -0.0006228297   0.0000000379   0.0001015468   0.0000625318
        0.0000000122  -0.0000359443  -0.0000206494  -0.0000000231   0.0000090523
        0.0000165779  -0.0000000143   0.0000003091  -0.0000060659  -0.0000000237
       -0.0000051137  -0.0000031614  -0.0000000345  -0.0000075680   0.0000016100
       -0.0000000323   0.0000127360   0.0000029611  -0.0000000170   0.0000184422
       -0.0000290156   0.0000000099   0.0000136013  -0.0000043050   0.0000000185
       -0.0000001901   0.0000065853   0.0000000056  -0.0000064942   0.0000048607
       -0.0000000075   0.0000031104  -0.0000109168  -0.0000000074   0.0001996637
       -0.0001388781   0.0000000347
        0.0393265771  -0.0170248247   0.0000007377   0.1013086454  -0.1494201119
       -0.0000014736  -0.0256564467   0.6252535611  -0.0000315167  -0.0782149571
       -0.2898485405   0.0000202062   0.0639750524  -0.0556924375   0.0000012980
       -0.0335344488  -0.0282352423   0.0000026727   0.0028712684   0.0393077309
       -0.0000026680  -0.0448347106  -0.0895880170   0.0000052400  -0.0211691781
       -0.0164267043   0.0000026514  -0.0037397356  -0.0028815120   0.0000004110
        0.0007707839   0.0004499654   0.0000000382  -0.0012783445   0.0012893708
       -0.0000000372  -0.0006283714  -0.0013007334   0.0000000665  -0.0002160944
        0.0000362700  -0.0000000727   0.0002130415   0.0000130419   0.0000000168
       -0.0002192342  -0.0000724722  -0.0000000037   0.0000552816   0.0000287055
       -0.0000000233   0.0000309419  -0.0000389715   0.0000000053   0.0000242586
       -0.0000089876   0.0000000002  -0.0000060875  -0.0000060768  -0.0000000422
        0.0000025647   0.0000267018  -0.0000000722  -0.0000229393   0.0000214333
       -0.0000000555   0.0001120812   0.0000373551  -0.0000000070  -0.0002320005
        0.0001445211   0.0000000141   0.0000195854  -0.0000541196  -0.0000000008
        0.0000199059   0.0000279285   0.0000000049   0.0000237729  -0.0000363597
        0.0000000579   0.0000075288   0.0000171748   0.0000000696  -0.0000088366
        0.0000020767   0.0000000219  -0.0000167137  -0.0000095816  -0.0000000259
        0.0002182744  -0.0000484077   0.0000000249   0.0020651564   0.0009425854
       -0.0000000802   0.0009763736  -0.0029446943   0.0000006948  -0.0050584550
       -0.0119504689   0.0000013582   0.0035996520  -0.0022783420   0.0000004581
       -0.0006730216  -0.0000917615   0.0000000556   0.0001689326   0.0003118425
       -0.0000000535  -0.0000766666   0.0000803216   0.0000000108  -0.0000090991
       -0.0000129558  -0.0000000246   0.0000017604   0.0000048482  -0.0000000468
       -0.0000006100  -0.0000037781  -0.0000000401  -0.0000021109  -0.0000052066
       -0.0000000243  -0.0000169654  -0.0000030112  -0.0000000140  -0.0000363936
        0.0000004517   0.0000000225  -0.0000240811   0.0000271970   0.0000000394
       -0.0000104072   0.0000011003   0.0000000410  -0.0000009075  -0.0000005654
        0.0000000302  -0.0000019663   0.0000083502   0.0000000048  -0.0001026559
       -0.0000486499   0.0000000295
       -0.0000018908   0.0000013776   0.0155375240   0.0000031150  -0.0000020065
       -0.0515452425  -0.0000256089  -0.0000315167   0.1115540112   0.0000078408
        0.0000184700  -0.0443424769  -0.0000058663   0.0000035388   0.0021359582
        0.0000026783   0.0000022946  -0.0035003723   0.0000022201  -0.0000041525
        0.0004260185   0.0000134923   0.0000061463  -0.0438401224   0.0000023491
        0.0000024803  -0.0007893352   0.0000003149   0.0000003771   0.0010540850
        0.0000000063  -0.0000000327   0.0008664449  -0.0000000087  -0.0000001392
       -0.0000347972   0.0000000248   0.0000000655  -0.0005169541  -0.0000000452
        0.0000000306  -0.0000432780  -0.0000000010  -0.0000000127   0.0000215336
       -0.0000000090  -0.0000000091   0.0000023208  -0.0000000039  -0.0000000006
       -0.0000080708  -0.0000000211   0.0000000075   0.0000017064  -0.0000000036
        0.0000000095  -0.0000035866   0.0000000138  -0.0000000099   0.0000056290
        0.0000000071  -0.0000000075  -0.0000011131   0.0000000194  -0.0000000030
        0.0000063143  -0.0000000208  -0.0000000006  -0.0000081453   0.0000000340
        0.0000000088  -0.0000012252   0.0000000046  -0.0000000003  -0.0000025806
       -0.0000000217  -0.0000000010   0.0000072094  -0.0000000123   0.0000000024
       -0.0000009627   0.0000000129  -0.0000000064   0.0000084835   0.0000000161
       -0.0000000026   0.0000022606   0.0000000046  -0.0000000035   0.0000117659
       -0.0000000044  -0.0000000216   0.0000104249   0.0000000490  -0.0000000419
        0.0004125220   0.0000003880   0.0000006032   0.0053657970   0.0000007178
        0.0000020517   0.0006453122   0.0000002188   0.0000004382   0.0068744750
        0.0000000513   0.0000000846  -0.0002621668  -0.0000000298  -0.0000000255
        0.0000319142  -0.0000000027  -0.0000000112  -0.0001640882   0.0000000058
       -0.0000000022  -0.0000011928   0.0000000005   0.0000000002  -0.0000013873
       -0.0000000048   0.0000000003  -0.0000003360  -0.0000000007   0.0000000026
        0.0000013828   0.0000000017   0.0000000012   0.0000043309   0.0000000079
       -0.0000000158   0.0000009042   0.0000000031  -0.0000000014   0.0000047430
       -0.0000000057   0.0000000011   0.0000058537  -0.0000000076   0.0000000041
        0.0000051031  -0.0000000094  -0.0000000066   0.0000047084  -0.0000000195
        0.0000000346   0.0000586971
       -0.0044005754   0.0000736332   0.0000002761   0.0038324904   0.0224523467
       -0.0000017192  -0.0930611087  -0.0782149571   0.0000078408   0.6661421831
        0.0016934631  -0.0000235950  -0.2174668741   0.1526165131  -0.0000038603
       -0.0645785095  -0.0036338178   0.0000029978   0.0018551581   0.0208163914
       -0.0000016537  -0.0012169095  -0.0329950761   0.0000024967  -0.0024132153
       -0.0016368461   0.0000003972  -0.0026367028   0.0011779590   0.0000000139
        0.0005961602   0.0002482402  -0.0000000684  -0.0005969576   0.0009944234
       -0.0000000919  -0.0004773933  -0.0013716441   0.0000001197  -0.0000652453
        0.0000160629   0.0000000428   0.0000532608  -0.0000017115  -0.0000000103
       -0.0000743967  -0.0000142987   0.0000000035   0.0000148195   0.0000144107
        0.0000000036   0.0000055581  -0.0000135621   0.0000000000   0.0000019938
        0.0000000546  -0.0000000014  -0.0000066671  -0.0000015269   0.0000000046
       -0.0000039517   0.0000061021   0.0000000077  -0.0000117827   0.0000067508
        0.0000000051   0.0000044116   0.0000179541  -0.0000000120  -0.0000595922
        0.0000432148   0.0000000004  -0.0000037547  -0.0000079519   0.0000000023
        0.0000215013   0.0000094482   0.0000000032  -0.0000090022  -0.0000021474
       -0.0000000093  -0.0000012804   0.0000065278  -0.0000000057  -0.0000007938
        0.0000040530  -0.0000000009  -0.0000135779   0.0000043971   0.0000000037
        0.0000578173  -0.0000506178  -0.0000000171   0.0018814827  -0.0001016754
       -0.0000000594  -0.0045480188  -0.0023720726   0.0000001935  -0.2810431967
       -0.0757303037   0.0000160172   0.0033825567  -0.0022204927   0.0000001443
       -0.0053545244  -0.0017834453   0.0000005274   0.0000658755   0.0000575210
        0.0000000083  -0.0000227417  -0.0000050852   0.0000000005   0.0000018160
        0.0000001323  -0.0000000001  -0.0000012674  -0.0000018392   0.0000000033
       -0.0000023252   0.0000005532   0.0000000044  -0.0000025925   0.0000002506
        0.0000000042  -0.0000025809   0.0000017514   0.0000000031   0.0000118557
       -0.0000203189  -0.0000000069  -0.0000059455   0.0000016354  -0.0000000031
       -0.0000026123   0.0000015425  -0.0000000015   0.0000002805   0.0000012730
        0.0000000002  -0.0000002533   0.0000018373   0.0000000023   0.0001551284
       -0.0000890524  -0.0000000121
       -0.0081919423   0.0085070856  -0.0000004077   0.0259422619  -0.0462966923
        0.0000019184  -0.0283240088  -0.2898485405   0.0000184700   0.0016934631
        0.6256630180  -0.0000361389   0.0736183082  -0.1962160124   0.0000079052
        0.0556386445   0.0506266485  -0.0000054919   0.0109002196  -0.0507061737
        0.0000023739  -0.0793192261  -0.0172022937   0.0000050750  -0.0028017208
        0.0062043765  -0.0000001319   0.0031398879  -0.0027346209   0.0000000726
       -0.0024335245  -0.0002151319   0.0000000523   0.0014020544  -0.0022579005
        0.0000001671   0.0016536960   0.0022677605  -0.0000002139   0.0000764594
        0.0000435947   0.0000000272  -0.0000208164   0.0000807307  -0.0000000213
        0.0000972139   0.0000196572  -0.0000000019  -0.0000224918  -0.0000061009
       -0.0000000036   0.0000058050   0.0000071891   0.0000000136  -0.0000141297
        0.0000013109   0.0000000077   0.0000032751  -0.0000019543  -0.0000000134
       -0.0000030433  -0.0000111102  -0.0000000337   0.0000062119  -0.0000107618
       -0.0000000290  -0.0000354060   0.0000228664  -0.0000000065   0.0001075128
       -0.0001271378   0.0000000044  -0.0000294537   0.0000466816   0.0000000053
       -0.0000398486  -0.0000056456   0.0000000067  -0.0000270934   0.0000167014
        0.0000000308  -0.0000212153  -0.0000095299   0.0000000409   0.0000034881
        0.0000031230   0.0000000134   0.0000168312   0.0000089885  -0.0000000167
       -0.0001690973   0.0000357882  -0.0000000064  -0.0032467886  -0.0002345005
        0.0000000812   0.0066542823   0.0017069295  -0.0000002692  -0.0752275514
       -0.0669113531   0.0000052390   0.0209279301  -0.0230609663   0.0000007670
       -0.0019573183   0.0005390936   0.0000005215  -0.0000942708  -0.0000498908
        0.0000000014   0.0000255627   0.0000046251  -0.0000000100   0.0000126041
        0.0000091229  -0.0000000119   0.0000060641   0.0000022592  -0.0000000164
        0.0000024791  -0.0000022711  -0.0000000093   0.0000002657  -0.0000015997
       -0.0000000028   0.0000036027   0.0000008275   0.0000000015   0.0000217838
       -0.0000037159   0.0000000073   0.0000106530  -0.0000039862   0.0000000207
        0.0000011274  -0.0000030495   0.0000000224  -0.0000013795  -0.0000007526
        0.0000000181   0.0000046809  -0.0000064412   0.0000000060   0.0000039575
        0.0001097547  -0.0000000341
        0.0000011448  -0.0000007752   0.0013814964  -0.0000026817   0.0000024562
       -0.0004196324   0.0000042666   0.0000202062  -0.0443424769  -0.0000235950
       -0.0000361389   0.1116160694   0.0000021698   0.0000042566  -0.0465065663
       -0.0000014334  -0.0000030699   0.0014038985  -0.0000009551   0.0000022023
       -0.0051822306   0.0000063484   0.0000028284   0.0031274364   0.0000003949
       -0.0000000751   0.0039494671  -0.0000000480   0.0000001065   0.0003319154
        0.0000000580   0.0000000057  -0.0000177179  -0.0000000408   0.0000001248
       -0.0000846727  -0.0000000285  -0.0000000961   0.0000435758  -0.0000000424
       -0.0000000102   0.0000536993   0.0000000257   0.0000000068   0.0000014198
       -0.0000000008   0.0000000075  -0.0000140709  -0.0000000009  -0.0000000117
       -0.0000049038  -0.0000000224   0.0000000078  -0.0000012485  -0.0000000012
        0.0000000119  -0.0000057269   0.0000000160  -0.0000000167  -0.0000006565
        0.0000000038   0.0000000014  -0.0000043645   0.0000000193   0.0000000058
        0.0000031432   0.0000000011  -0.0000000042  -0.0000068483   0.0000000001
        0.0000000088  -0.0000121069  -0.0000000068   0.0000000092  -0.0000071998
       -0.0000000218  -0.0000000082  -0.0000002294  -0.0000000030   0.0000000003
       -0.0000055554   0.0000000057   0.0000000018  -0.0000007397   0.0000000213
       -0.0000000001  -0.0000062006   0.0000000127  -0.0000000030  -0.0000017806
        0.0000000128   0.0000000015   0.0000049416   0.0000000455   0.0000000383
       -0.0001081370  -0.0000003937  -0.0000000373  -0.0002728195   0.0000158511
        0.0000055663  -0.0334929885  -0.0000016854   0.0000018161   0.0005545031
        0.0000005749   0.0000005828   0.0080418358   0.0000000151   0.0000000114
        0.0000138907  -0.0000000032  -0.0000000001  -0.0000000729   0.0000000032
       -0.0000000021   0.0000001668  -0.0000000012   0.0000000010  -0.0000003236
       -0.0000000096   0.0000000013  -0.0000039805  -0.0000000005   0.0000000022
       -0.0000054869   0.0000000026   0.0000000009  -0.0000016512   0.0000000055
       -0.0000000065  -0.0000007305  -0.0000000006  -0.0000000003  -0.0000029859
       -0.0000000046  -0.0000000039  -0.0000065049  -0.0000000038   0.0000000013
       -0.0000074464  -0.0000000074  -0.0000000052  -0.0000055063  -0.0000000070
       -0.0000000066   0.0000061034
       -0.0030805640   0.0030427343  -0.0000001818   0.0081920436  -0.0074429819
        0.0000004921   0.0350544338   0.0639750524  -0.0000058663  -0.2174668741
        0.0736183082   0.0000021698   0.6440873741   0.0126655011  -0.0000209201
       -0.3118642395  -0.0288813584   0.0000109917  -0.0113443377  -0.0873212163
        0.0000067428  -0.0512611157   0.0103229807   0.0000011650  -0.0039743206
        0.0020755290  -0.0000002117   0.0041990039  -0.0048893187   0.0000002279
       -0.0022835521  -0.0003178362   0.0000000209   0.0014616037  -0.0028035796
        0.0000002050   0.0023292804   0.0032967628  -0.0000003110   0.0000623027
        0.0000888078   0.0000000099  -0.0000614450   0.0000570685  -0.0000000042
        0.0001323762   0.0000698438  -0.0000000048  -0.0000583054  -0.0000304606
        0.0000000005  -0.0000030837   0.0000287488  -0.0000000035  -0.0000173323
        0.0000112271  -0.0000000060   0.0000074163   0.0000030727   0.0000000032
        0.0000043570  -0.0000135707   0.0000000091   0.0000187053  -0.0000211355
        0.0000000050  -0.0000976271  -0.0000625444  -0.0000000036   0.0001543056
       -0.0000646833  -0.0000000091  -0.0000156654   0.0000573754  -0.0000000008
        0.0000264685  -0.0000421886   0.0000000075  -0.0000214395   0.0000135904