 Entering Gaussian System
 *********************************************
 Gaussian 98:
 frequency output generated by the xtb code
 *********************************************
                         Standard orientation:
 --------------------------------------------------------------------
  Center     Atomic     Atomic              Coordinates (Angstroms)
  Number     Number      Type              X           Y           Z
 --------------------------------------------------------------------
    1          6             0       10.099215   -0.208697    0.033333
    2          6             0        9.406914    0.156700   -1.109892
    3          6             0        8.022732    0.154159   -1.115248
    4          6             0        7.333533   -0.218469    0.031629
    5          7             0        5.907025   -0.223549    0.030980
    6          6             0        5.220235    0.830753    0.600221
    7          6             0        5.900840    1.912210    1.156767
    8          6             0        5.211226    2.937046    1.776730
    9          6             0        3.828215    2.882526    1.870280
   10          6             0        3.135161    1.829252    1.306683
   11          6             0        3.807002    0.807548    0.632451
   12          7             0        3.119214   -0.235868    0.034486
   13          6             0        1.710157   -0.244773    0.042361
   14          6             0        1.000410   -1.299395    0.653055
   15          6             0       -0.361043   -1.291017    0.677851
   16          6             0       -1.118342   -0.230812    0.092016
   17          6             0       -2.518441   -0.315123    0.164896
   18          7             0       -3.143457   -1.464687    0.480637
   19          6             0       -4.448503   -1.242088    0.340298
   20          6             0       -5.508551   -2.185087    0.497918
   21          6             0       -5.240176   -3.521958    0.798203
   22          6             0       -6.264800   -4.436251    0.905711
   23          6             0       -7.573874   -4.013270    0.700646
   24          6             0       -7.851776   -2.695011    0.410076
   25          6             0       -6.835801   -1.730735    0.309295
   26          6             0       -7.097199   -0.329564    0.047015
   27          6             0       -8.401131    0.169579   -0.035203
   28          6             0       -8.670675    1.504646   -0.236883
   29          6             0       -7.617768    2.417014   -0.344145
   30          6             0       -6.324679    1.975334   -0.279880
   31          6             0       -6.016783    0.606488   -0.106837
   32          6             0       -4.706793    0.101539   -0.030389
   33          7             0       -3.461030    0.688251   -0.145758
   34          6             0       -3.159736    2.024679   -0.433702
   35          6             0       -2.471755    2.800635    0.501450
   36          6             0       -2.155018    4.112976    0.209558
   37          6             0       -2.516237    4.666723   -1.009690
   38          6             0       -3.199545    3.897944   -1.941454
   39          6             0       -3.520918    2.584214   -1.661392
   40          6             0       -0.380799    0.795535   -0.566028
   41          6             0        0.985066    0.788566   -0.575679
   42          6             0        3.814734   -1.269781   -0.571237
   43          6             0        3.149972   -2.292292   -1.251226
   44          6             0        3.850669   -3.337997   -1.819493
   45          6             0        5.234044   -3.383219   -1.725645
   46          6             0        5.916517   -2.355709   -1.102186
   47          6             0        5.228102   -1.281671   -0.541015
   48          6             0        8.023897   -0.586216    1.179328
   49          6             0        9.408078   -0.578957    1.175686
   50          1             0       11.178625   -0.204947    0.033991
   51          1             0        9.944090    0.445904   -2.000404
   52          1             0        7.472535    0.436986   -2.000356
   53          1             0        6.977286    1.941822    1.104510
   54          1             0        5.755125    3.766076    2.201146
   55          1             0        3.285402    3.661037    2.383051
   56          1             0        2.061567    1.786637    1.390379
   57          1             0        1.551909   -2.096244    1.131559
   58          1             0       -0.912679   -2.080890    1.161949
   59          1             0       -4.208737   -3.810585    0.934410
   60          1             0       -6.056479   -5.470312    1.138649
   61          1             0       -8.385084   -4.724606    0.769899
   62          1             0       -8.882379   -2.416693    0.254431
   63          1             0       -9.237551   -0.503157    0.073425
   64          1             0       -9.693136    1.848308   -0.294380
   65          1             0       -7.824995    3.470117   -0.471508
   66          1             0       -5.519557    2.689679   -0.340116
   67          1             0       -2.193335    2.359254    1.447508
   68          1             0       -1.627529    4.709344    0.939482
   69          1             0       -2.266576    5.692662   -1.234299
   70          1             0       -3.478810    4.323025   -2.894510
   71          1             0       -4.049258    1.976976   -2.382891
   72          1             0       -0.901139    1.565962   -1.110151
   73          1             0        1.523835    1.565987   -1.099456
   74          1             0        2.076133   -2.257217   -1.335594
   75          1             0        3.313090   -4.117942   -2.335562
   76          1             0        5.783695   -4.206977   -2.152882
   77          1             0        6.993183   -2.377624   -1.050657
   78          1             0        7.474573   -0.873033    2.063677
   79          1             0        9.946152   -0.864495    2.066826
 --------------------------------------------------------------------
     1 basis functions        1 primitive gaussians
     1 alpha electrons        1 beta electrons
 
 Harmonic frequencies (cm**-1), IR intensities (km*mol⁻¹),
 Raman scattering activities (A**4/amu), Raman depolarization ratios,
 reduced masses (AMU), force constants (mDyne/A) and normal coordinates:
                      1                      2                      3
                        a                      a                      a 
 Frequencies --     5.6894                 9.6677                16.0255
 Red. masses --    11.0056                11.0238                10.9252
 Frc consts  --     0.0000                 0.0000                 0.0000
 IR Inten    --     0.3729                 0.2892                 1.4056
 Raman Activ --     0.0000                 0.0000                 0.0000
 Depolar     --     0.0000                 0.0000                 0.0000
 Atom AN      X      Y      Z        X      Y      Z        X      Y      Z
   1   6    -0.01   0.12   0.17    -0.01   0.23  -0.30    -0.01  -0.10   0.00
   2   6     0.02   0.09   0.14    -0.11   0.18  -0.25     0.01  -0.16  -0.03
   3   6     0.02   0.06   0.08    -0.11   0.10  -0.14     0.01  -0.12  -0.04
   4   6    -0.01   0.06   0.06    -0.01   0.08  -0.09    -0.01  -0.03  -0.02
   5   7    -0.01   0.03   0.01    -0.01   0.01   0.02    -0.01   0.01  -0.03
   6   6    -0.05   0.02  -0.05    -0.02  -0.02   0.04     0.01   0.06  -0.11
   7   6    -0.10   0.05  -0.05    -0.04   0.00   0.02     0.03   0.09  -0.20
   8   6    -0.14   0.05  -0.10    -0.05  -0.02   0.04     0.06   0.15  -0.27
   9   6    -0.14   0.03  -0.15    -0.05  -0.07   0.09     0.06   0.17  -0.25
  10   6    -0.10  -0.00  -0.14    -0.03  -0.09   0.11     0.04   0.14  -0.16
  11   6    -0.06  -0.01  -0.09    -0.02  -0.07   0.09     0.01   0.08  -0.09
  12   7    -0.01  -0.04  -0.09    -0.01  -0.09   0.11    -0.01   0.05  -0.01
  13   6    -0.01  -0.07  -0.12    -0.01  -0.08   0.09    -0.01   0.05   0.03
  14   6    -0.00  -0.07  -0.11    -0.03  -0.07   0.10     0.01   0.07   0.08
  15   6    -0.00  -0.08  -0.11    -0.03  -0.05   0.07     0.01   0.06   0.10
  16   6    -0.01  -0.10  -0.13    -0.01  -0.05   0.05    -0.01   0.03   0.06
  17   6    -0.01  -0.07  -0.09    -0.01  -0.03   0.03    -0.01   0.01   0.06
  18   7    -0.03  -0.07  -0.09    -0.04  -0.02   0.02     0.00   0.01   0.03
  19   6    -0.03  -0.02  -0.04    -0.03  -0.00  -0.01     0.00  -0.01  -0.00
  20   6    -0.05   0.00  -0.02    -0.05   0.02  -0.03     0.01  -0.03  -0.05
  21   6    -0.07  -0.01  -0.05    -0.07   0.01  -0.03     0.02  -0.03  -0.07
  22   6    -0.09   0.02  -0.04    -0.09   0.03  -0.05     0.03  -0.04  -0.12
  23   6    -0.09   0.06   0.02    -0.08   0.05  -0.08     0.03  -0.06  -0.17
  24   6    -0.06   0.07   0.06    -0.05   0.05  -0.09     0.02  -0.06  -0.16
  25   6    -0.04   0.04   0.04    -0.03   0.04  -0.06     0.01  -0.04  -0.10
  26   6    -0.01   0.06   0.08    -0.01   0.04  -0.06    -0.00  -0.04  -0.08
  27   6    -0.00   0.09   0.14     0.00   0.06  -0.09    -0.00  -0.06  -0.11
  28   6     0.03   0.11   0.18     0.03   0.07  -0.09    -0.02  -0.06  -0.08
  29   6     0.05   0.08   0.17     0.05   0.05  -0.07    -0.03  -0.04  -0.02
  30   6     0.04   0.04   0.11     0.04   0.03  -0.04    -0.02  -0.02   0.02
  31   6     0.01   0.03   0.06     0.01   0.03  -0.04    -0.01  -0.02  -0.01
  32   6    -0.00  -0.01   0.00     0.00   0.00  -0.01    -0.00  -0.00   0.01
  33   7     0.01  -0.04  -0.04     0.02  -0.02   0.01    -0.01   0.01   0.06
  34   6     0.05  -0.04   0.00     0.04  -0.02   0.02     0.00   0.02   0.11
  35   6     0.16  -0.12  -0.01     0.05  -0.04   0.04     0.04  -0.04   0.14
  36   6     0.21  -0.12   0.02     0.09  -0.05   0.05     0.06  -0.03   0.20
  37   6     0.16  -0.05   0.06     0.11  -0.03   0.05     0.04   0.04   0.23
  38   6     0.05   0.02   0.08     0.11  -0.01   0.03     0.01   0.10   0.21
  39   6    -0.00   0.03   0.05     0.07  -0.01   0.02    -0.01   0.09   0.15
  40   6    -0.02  -0.12  -0.18     0.01  -0.07   0.05    -0.02   0.01   0.01
  41   6    -0.02  -0.11  -0.17     0.01  -0.08   0.07    -0.02   0.02  -0.01
  42   6     0.03  -0.04  -0.04     0.01  -0.08   0.11    -0.03   0.00   0.05
  43   6     0.08  -0.07  -0.03     0.02  -0.12   0.16    -0.05  -0.03   0.11
  44   6     0.12  -0.07   0.01     0.04  -0.11   0.17    -0.07  -0.07   0.17
  45   6     0.12  -0.03   0.06     0.04  -0.06   0.12    -0.07  -0.09   0.17
  46   6     0.08  -0.00   0.05     0.03  -0.02   0.07    -0.05  -0.07   0.10
  47   6     0.03  -0.00   0.01     0.01  -0.03   0.07    -0.03  -0.02   0.04
  48   6    -0.05   0.09   0.09     0.10   0.13  -0.14    -0.03   0.03   0.01
  49   6    -0.05   0.12   0.14     0.10   0.20  -0.24    -0.03  -0.01   0.02
  50   1    -0.00   0.04   0.06    -0.00   0.08  -0.11    -0.00  -0.04   0.00
  51   1     0.02   0.03   0.04    -0.06   0.06  -0.08     0.01  -0.07  -0.01
  52   1     0.01   0.01   0.02    -0.06   0.02  -0.03     0.01  -0.05  -0.02
  53   1    -0.03   0.02  -0.00    -0.01   0.01  -0.01     0.01   0.02  -0.06
  54   1    -0.05   0.02  -0.03    -0.02  -0.00   0.01     0.02   0.05  -0.10
  55   1    -0.05   0.01  -0.05    -0.02  -0.03   0.03     0.02   0.06  -0.09
  56   1    -0.03  -0.01  -0.05    -0.01  -0.04   0.04     0.01   0.05  -0.04
  57   1     0.00  -0.02  -0.02    -0.01  -0.02   0.03     0.01   0.03   0.03
  58   1     0.00  -0.02  -0.03    -0.01  -0.01   0.02     0.01   0.02   0.04
  59   1    -0.02  -0.01  -0.03    -0.02  -0.00  -0.00     0.01  -0.00  -0.01
  60   1    -0.03   0.00  -0.02    -0.03   0.01  -0.01     0.01  -0.01  -0.04
  61   1    -0.03   0.02   0.01    -0.03   0.02  -0.03     0.01  -0.02  -0.06
  62   1    -0.02   0.03   0.03    -0.01   0.02  -0.03     0.01  -0.02  -0.06
  63   1    -0.00   0.03   0.04    -0.00   0.02  -0.03     0.00  -0.02  -0.05
  64   1     0.01   0.04   0.06     0.01   0.02  -0.03    -0.01  -0.02  -0.03
  65   1     0.02   0.03   0.06     0.02   0.02  -0.02    -0.01  -0.01   0.00
  66   1     0.02   0.01   0.03     0.01   0.01  -0.01    -0.01  -0.00   0.02
  67   1     0.06  -0.05  -0.01     0.01  -0.02   0.01     0.01  -0.03   0.03
  68   1     0.09  -0.05   0.00     0.03  -0.02   0.02     0.02  -0.02   0.06
  69   1     0.06  -0.02   0.03     0.04  -0.01   0.02     0.02   0.01   0.08
  70   1     0.00   0.02   0.03     0.04   0.00   0.01     0.00   0.04   0.07
  71   1    -0.02   0.02   0.02     0.02   0.00   0.00    -0.01   0.04   0.04
  72   1    -0.01  -0.05  -0.06     0.01  -0.02   0.01    -0.01  -0.01  -0.01
  73   1    -0.01  -0.04  -0.06     0.01  -0.03   0.02    -0.01  -0.00  -0.02
  74   1     0.02  -0.03  -0.02     0.00  -0.05   0.06    -0.01  -0.00   0.03
  75   1     0.05  -0.03   0.00     0.01  -0.04   0.06    -0.02  -0.03   0.06
  76   1     0.04  -0.01   0.03     0.02  -0.02   0.04    -0.02  -0.04   0.06
  77   1     0.02   0.01   0.03     0.01   0.00   0.01    -0.01  -0.02   0.03
  78   1    -0.02   0.02   0.02     0.05   0.03  -0.03    -0.01   0.03   0.01
  79   1    -0.02   0.04   0.05     0.05   0.07  -0.08    -0.01   0.01   0.01
                      4                      5                      6
                        a                      a                      a 
 Frequencies --    21.9502                32.5748                35.8021
 Red. masses --    10.8369                 9.9422                10.9203
 Frc consts  --     0.0000                 0.0000                 0.0000
 IR Inten    --     2.8054                68.6130                 9.1603
 Raman Activ --     0.0000                 0.0000                 0.0000
 Depolar     --     0.0000                 0.0000                 0.0000
 Atom AN      X      Y      Z        X      Y      Z        X      Y      Z
   1   6     0.01  -0.02  -0.07    -0.01  -0.01   0.03     0.00   0.01   0.14
   2   6    -0.02  -0.06  -0.07     0.01   0.37   0.14     0.08  -0.12   0.05
   3   6    -0.02  -0.06  -0.03     0.00   0.37   0.12     0.08  -0.10  -0.04
   4   6     0.01  -0.02   0.01    -0.01   0.01  -0.01    -0.00   0.03  -0.04
   5   7     0.01  -0.02   0.05    -0.01   0.02  -0.03     0.00   0.06  -0.12
   6   6     0.02  -0.00   0.03    -0.00   0.02  -0.03    -0.01   0.03  -0.08
   7   6     0.03   0.00   0.01     0.01   0.01  -0.03    -0.01   0.07  -0.14
   8   6     0.04   0.01  -0.00     0.02   0.03  -0.06    -0.01   0.04  -0.10
   9   6     0.04   0.02   0.00     0.02   0.06  -0.08    -0.01  -0.02   0.01
  10   6     0.03   0.02   0.02     0.01   0.06  -0.06     0.00  -0.05   0.06
  11   6     0.02   0.01   0.03    -0.00   0.03  -0.03    -0.00  -0.02   0.01
  12   7     0.01   0.01   0.05    -0.00   0.01   0.02    -0.00  -0.05   0.05
  13   6     0.01   0.02   0.04    -0.01   0.00   0.04    -0.00  -0.06   0.09
  14   6    -0.00   0.02   0.03     0.01   0.03   0.11     0.01  -0.06   0.11
  15   6    -0.00   0.03   0.01     0.00   0.03   0.12     0.01  -0.05   0.15
  16   6     0.01   0.03   0.00    -0.00  -0.01   0.07     0.00  -0.05   0.16
  17   6     0.01   0.02  -0.02    -0.00  -0.00   0.07     0.00  -0.04   0.17
  18   7     0.02   0.01  -0.06    -0.01   0.00   0.09    -0.03  -0.02   0.18
  19   6     0.02   0.00  -0.04    -0.01   0.00   0.06    -0.02  -0.01   0.12
  20   6     0.02  -0.02  -0.10    -0.01   0.00   0.03    -0.04   0.01   0.05
  21   6     0.03  -0.04  -0.20    -0.02   0.00   0.03    -0.08  -0.00   0.04
  22   6     0.04  -0.05  -0.26    -0.02  -0.00  -0.03    -0.10   0.00  -0.06
  23   6     0.04  -0.04  -0.23    -0.01  -0.01  -0.09    -0.08   0.02  -0.18
  24   6     0.03  -0.02  -0.13    -0.01  -0.01  -0.09    -0.04   0.03  -0.17
  25   6     0.02  -0.01  -0.05    -0.01  -0.00  -0.03    -0.02   0.02  -0.06
  26   6     0.01   0.01   0.07    -0.00   0.00  -0.02     0.01   0.03  -0.03
  27   6     0.01   0.02   0.18    -0.00   0.00  -0.04     0.02   0.05  -0.09
  28   6    -0.00   0.04   0.31     0.00   0.01  -0.02     0.05   0.06  -0.06
  29   6    -0.00   0.05   0.32     0.01   0.01   0.02     0.07   0.05   0.03
  30   6    -0.00   0.04   0.22     0.01   0.01   0.04     0.06   0.03   0.09
  31   6     0.00   0.02   0.09     0.00   0.00   0.02     0.03   0.02   0.06
  32   6     0.00   0.01   0.01    -0.00  -0.00   0.04     0.01  -0.01   0.11
  33   7    -0.00   0.03   0.02     0.00  -0.00   0.05     0.02  -0.02   0.16
  34   6    -0.04   0.01  -0.06     0.01  -0.02   0.01     0.03  -0.05   0.06
  35   6     0.02   0.07  -0.15     0.09  -0.01  -0.05     0.03   0.02  -0.00
  36   6    -0.04   0.07  -0.23     0.11  -0.03  -0.10     0.04  -0.00  -0.11
  37   6    -0.15   0.01  -0.23     0.06  -0.05  -0.09     0.05  -0.10  -0.15
  38   6    -0.20  -0.05  -0.14    -0.02  -0.05  -0.03     0.04  -0.16  -0.09
  39   6    -0.14  -0.05  -0.06    -0.04  -0.04   0.02     0.03  -0.14   0.02
  40   6     0.02   0.03   0.02    -0.01  -0.05  -0.01    -0.01  -0.06   0.13
  41   6     0.02   0.03   0.03    -0.01  -0.04  -0.02    -0.01  -0.06   0.10
  42   6     0.00  -0.02   0.07    -0.01  -0.00   0.03    -0.00   0.01  -0.04
  43   6    -0.00  -0.02   0.09    -0.02  -0.03   0.07    -0.01   0.01  -0.03
  44   6    -0.01  -0.05   0.12    -0.02  -0.02   0.05    -0.01   0.06  -0.13
  45   6    -0.01  -0.06   0.14    -0.01   0.02  -0.03    -0.01   0.11  -0.23
  46   6    -0.01  -0.05   0.11    -0.01   0.04  -0.06     0.00   0.10  -0.22
  47   6     0.00  -0.03   0.07    -0.01   0.01  -0.01     0.00   0.06  -0.13
  48   6     0.05   0.03   0.00    -0.03  -0.37  -0.12    -0.08   0.16   0.05
  49   6     0.05   0.03  -0.04    -0.03  -0.39  -0.11    -0.08   0.15   0.14
  50   1     0.00  -0.01  -0.03    -0.00  -0.01   0.01     0.00   0.00   0.06
  51   1    -0.01  -0.03  -0.03     0.01   0.19   0.07     0.04  -0.06   0.02
  52   1    -0.01  -0.03  -0.01     0.00   0.19   0.06     0.04  -0.06  -0.03
  53   1     0.01  -0.00   0.00     0.00  -0.01  -0.00    -0.01   0.03  -0.06
  54   1     0.01   0.01  -0.01     0.01   0.01  -0.02    -0.01   0.02  -0.04
  55   1     0.01   0.01  -0.00     0.01   0.02  -0.03    -0.00  -0.01   0.01
  56   1     0.01   0.01   0.01     0.00   0.02  -0.02     0.00  -0.03   0.04
  57   1    -0.00   0.01   0.01     0.00   0.02   0.04     0.01  -0.02   0.03
  58   1    -0.00   0.01   0.00     0.00   0.02   0.05     0.01  -0.01   0.05
  59   1     0.01  -0.01  -0.07    -0.01   0.00   0.02    -0.03  -0.01   0.04
  60   1     0.01  -0.02  -0.10    -0.01  -0.00  -0.01    -0.04  -0.00  -0.02
  61   1     0.01  -0.02  -0.08    -0.00  -0.00  -0.04    -0.03   0.01  -0.08
  62   1     0.01  -0.01  -0.03     0.00  -0.00  -0.04    -0.01   0.01  -0.08
  63   1     0.00   0.00   0.05    -0.00   0.00  -0.02     0.00   0.02  -0.05
  64   1    -0.00   0.01   0.12     0.00   0.00  -0.01     0.02   0.02  -0.03
  65   1    -0.00   0.02   0.12     0.00   0.00   0.01     0.03   0.02   0.02
  66   1    -0.00   0.01   0.07     0.00   0.00   0.02     0.02   0.01   0.05
  67   1     0.03   0.04  -0.04     0.04   0.00  -0.01     0.01   0.03   0.01
  68   1     0.00   0.03  -0.09     0.05  -0.01  -0.04     0.01   0.01  -0.04
  69   1    -0.06   0.00  -0.08     0.02  -0.02  -0.04     0.02  -0.03  -0.07
  70   1    -0.08  -0.03  -0.04    -0.02  -0.02  -0.01     0.01  -0.07  -0.03
  71   1    -0.05  -0.03   0.00    -0.03  -0.01   0.02     0.01  -0.05   0.02
  72   1     0.01   0.01   0.00    -0.01  -0.03  -0.02    -0.01  -0.02   0.04
  73   1     0.01   0.01   0.01    -0.01  -0.02  -0.02    -0.01  -0.02   0.02
  74   1    -0.00  -0.00   0.02    -0.01  -0.02   0.04    -0.01  -0.01   0.02
  75   1    -0.01  -0.02   0.04    -0.01  -0.01   0.03    -0.01   0.02  -0.04
  76   1    -0.01  -0.02   0.05    -0.00   0.01  -0.02    -0.00   0.04  -0.09
  77   1    -0.00  -0.02   0.03    -0.00   0.02  -0.03     0.00   0.04  -0.08
  78   1     0.02   0.02   0.01    -0.01  -0.19  -0.06    -0.04   0.08   0.01
  79   1     0.02   0.02  -0.01    -0.01  -0.20  -0.06    -0.04   0.07   0.06
                      7                      8                      9
                        a                      a                      a 
 Frequencies --    42.8488                44.0885                56.6353
 Red. masses --    10.3079                10.9580                10.6699
 Frc consts  --     0.0000                 0.0000                 0.0000
 IR Inten    --     3.1818                 1.6719                 1.5558
 Raman Activ --     0.0000                 0.0000                 0.0000
 Depolar     --     0.0000                 0.0000                 0.0000
 Atom AN      X      Y      Z        X      Y      Z        X      Y      Z
   1   6     0.01  -0.03   0.04    -0.03  -0.16  -0.12    -0.02   0.04   0.15
   2   6     0.05   0.04   0.04    -0.06  -0.16  -0.10     0.08   0.03   0.08
   3   6     0.05   0.07   0.01    -0.06  -0.08  -0.02     0.08   0.02  -0.05
   4   6     0.01   0.02  -0.02    -0.03   0.01   0.03    -0.02   0.03  -0.11
   5   7     0.01   0.04  -0.05    -0.03   0.05   0.08    -0.02   0.05  -0.20
   6   6     0.02   0.05  -0.06     0.00   0.06   0.09    -0.01   0.00  -0.09
   7   6     0.03   0.09  -0.15     0.03   0.03   0.12    -0.01   0.04  -0.16
   8   6     0.05   0.10  -0.15     0.05   0.05   0.11    -0.00  -0.02  -0.05
   9   6     0.05   0.07  -0.06     0.04   0.11   0.06     0.01  -0.12   0.14
  10   6     0.04   0.03   0.03     0.02   0.14   0.03     0.01  -0.15   0.18
  11   6     0.02   0.03   0.01    -0.00   0.11   0.07    -0.00  -0.08   0.06
  12   7     0.01  -0.00   0.07    -0.03   0.13   0.08    -0.01  -0.10   0.11
  13   6     0.01  -0.00   0.08    -0.02   0.11   0.09    -0.01  -0.04   0.10
  14   6     0.01  -0.04   0.02     0.00   0.11   0.12    -0.07   0.02   0.12
  15   6     0.01  -0.07  -0.03     0.00   0.05   0.07    -0.07   0.07   0.06
  16   6     0.00  -0.05  -0.00    -0.02  -0.02  -0.03    -0.01   0.08  -0.01
  17   6     0.00  -0.08  -0.08    -0.02  -0.06  -0.06    -0.01   0.08  -0.08
  18   7    -0.01  -0.09  -0.12    -0.02  -0.06  -0.06     0.01   0.08  -0.09
  19   6    -0.01  -0.06  -0.10    -0.02  -0.05  -0.05     0.01   0.04  -0.09
  20   6    -0.04  -0.03  -0.08    -0.02  -0.04  -0.03     0.04   0.01  -0.06
  21   6    -0.07  -0.05  -0.14    -0.03  -0.05  -0.05     0.10   0.02  -0.08
  22   6    -0.10  -0.02  -0.09    -0.04  -0.04  -0.03     0.13  -0.01  -0.02
  23   6    -0.10   0.04   0.04    -0.04  -0.02   0.03     0.11  -0.04   0.08
  24   6    -0.07   0.06   0.10    -0.03  -0.02   0.05     0.06  -0.05   0.10
  25   6    -0.03   0.02   0.04    -0.03  -0.03   0.02     0.03  -0.02   0.03
  26   6    -0.00   0.03   0.07    -0.02  -0.02   0.03    -0.01  -0.03   0.03
  27   6     0.01   0.09   0.19    -0.02  -0.00   0.11    -0.03  -0.06   0.13
  28   6     0.05   0.09   0.17    -0.00  -0.00   0.11    -0.08  -0.07   0.11
  29   6     0.08   0.04  -0.00     0.00  -0.02   0.02    -0.10  -0.05  -0.02
  30   6     0.07  -0.01  -0.11     0.00  -0.04  -0.05    -0.09  -0.02  -0.11
  31   6     0.02  -0.01  -0.04    -0.01  -0.04  -0.03    -0.04  -0.01  -0.07
  32   6     0.01  -0.05  -0.07    -0.02  -0.05  -0.06    -0.02   0.03  -0.11
  33   7     0.01  -0.08  -0.08    -0.02  -0.06  -0.08    -0.03   0.06  -0.12
  34   6     0.00  -0.06  -0.04     0.04  -0.07  -0.05    -0.01   0.06  -0.07
  35   6    -0.27   0.01   0.11     0.13  -0.14  -0.06     0.09  -0.02  -0.07
  36   6    -0.31   0.03   0.16     0.27  -0.18  -0.06     0.16  -0.02  -0.03
  37   6    -0.06  -0.02   0.07     0.32  -0.14  -0.06     0.12   0.05   0.01
  38   6     0.21  -0.09  -0.08     0.21  -0.06  -0.04     0.01   0.14   0.02
  39   6     0.24  -0.11  -0.13     0.07  -0.02  -0.04    -0.05   0.14  -0.02
  40   6     0.01   0.02   0.11    -0.04  -0.04  -0.08     0.05   0.04   0.00
  41   6     0.01   0.04   0.14    -0.04   0.03  -0.01     0.05  -0.01   0.06
  42   6     0.00   0.01   0.05    -0.05   0.12   0.04    -0.03  -0.08   0.06
  43   6    -0.00  -0.01   0.07    -0.09   0.17   0.00    -0.05  -0.14   0.19
  44   6    -0.01  -0.00   0.06    -0.12   0.17  -0.05    -0.05  -0.12   0.13
  45   6    -0.00   0.01   0.02    -0.12   0.13  -0.05    -0.04  -0.01  -0.07
  46   6     0.00   0.03  -0.01    -0.09   0.08  -0.01    -0.03   0.05  -0.19
  47   6     0.01   0.02  -0.00    -0.06   0.08   0.03    -0.02   0.01  -0.11
  48   6    -0.02  -0.05  -0.03     0.01   0.02   0.01    -0.12   0.04  -0.04
  49   6    -0.02  -0.08   0.00     0.01  -0.06  -0.06    -0.12   0.04   0.08
  50   1     0.00  -0.02   0.02    -0.01  -0.07  -0.05    -0.01   0.01   0.07
  51   1     0.02   0.02   0.02    -0.03  -0.07  -0.04     0.05   0.01   0.04
  52   1     0.02   0.04   0.00    -0.03  -0.03  -0.00     0.05   0.01  -0.03
  53   1     0.01   0.03  -0.06     0.01  -0.00   0.04    -0.01   0.03  -0.09
  54   1     0.02   0.04  -0.06     0.02   0.01   0.04    -0.00   0.00  -0.03
  55   1     0.02   0.02  -0.01     0.02   0.04   0.01     0.01  -0.05   0.07
  56   1     0.01   0.00   0.03     0.00   0.05  -0.00     0.01  -0.06   0.09
  57   1     0.00  -0.01  -0.00     0.01   0.05   0.05    -0.03   0.01   0.05
  58   1     0.00  -0.03  -0.03     0.01   0.02   0.03    -0.03   0.03   0.02
  59   1    -0.02  -0.03  -0.07    -0.01  -0.02  -0.03     0.03   0.01  -0.04
  60   1    -0.03  -0.01  -0.04    -0.01  -0.01  -0.01     0.05  -0.00  -0.01
  61   1    -0.04   0.02   0.03    -0.01  -0.00   0.01     0.04  -0.02   0.04
  62   1    -0.02   0.03   0.06    -0.01  -0.00   0.03     0.01  -0.02   0.05
  63   1    -0.00   0.04   0.09    -0.01   0.00   0.05    -0.00  -0.02   0.07
  64   1     0.02   0.04   0.08    -0.00   0.00   0.05    -0.03  -0.03   0.06
  65   1     0.03   0.01  -0.01     0.00  -0.01   0.00    -0.04  -0.02  -0.01
  66   1     0.03  -0.02  -0.07     0.00  -0.02  -0.04    -0.03  -0.00  -0.06
  67   1    -0.13   0.01   0.05     0.03  -0.05  -0.02     0.03  -0.02  -0.03
  68   1    -0.15   0.02   0.08     0.10  -0.07  -0.02     0.07  -0.03  -0.01
  69   1    -0.03  -0.00   0.03     0.13  -0.05  -0.02     0.05   0.01   0.01
  70   1     0.12  -0.04  -0.05     0.07  -0.01  -0.01    -0.01   0.06   0.02
  71   1     0.13  -0.05  -0.07    -0.00   0.01  -0.01    -0.03   0.06  -0.01
  72   1     0.01   0.02   0.05    -0.02  -0.04  -0.05     0.03   0.02  -0.01
  73   1     0.00   0.02   0.06    -0.02   0.01  -0.01     0.03  -0.01   0.02
  74   1    -0.00  -0.01   0.03    -0.03   0.06   0.00    -0.02  -0.06   0.09
  75   1    -0.00  -0.00   0.02    -0.04   0.06  -0.02    -0.02  -0.05   0.07
  76   1    -0.00   0.00   0.00    -0.04   0.04  -0.03    -0.01   0.01  -0.04
  77   1     0.00   0.01  -0.02    -0.03   0.01  -0.00    -0.00   0.04  -0.10
  78   1    -0.01  -0.03  -0.02     0.01   0.03   0.01    -0.06   0.01  -0.03
  79   1    -0.01  -0.04   0.00     0.01  -0.01  -0.02    -0.06   0.01   0.04
                     10                     11                     12
                        a                      a                      a 
 Frequencies --    60.0867                67.8135                75.4715
 Red. masses --    10.6870                10.7615                10.2931
 Frc consts  --     0.0000                 0.0000                 0.0000
 IR Inten    --     2.4010                 0.1981                19.3704
 Raman Activ --     0.0000                 0.0000                 0.0000
 Depolar     --     0.0000                 0.0000                 0.0000
 Atom AN      X      Y      Z        X      Y      Z        X      Y      Z
   1   6     0.04  -0.17  -0.04     0.01   0.40   0.10    -0.02  -0.01  -0.00
   2   6     0.06  -0.10  -0.03    -0.04   0.23   0.08    -0.02   0.03   0.01
   3   6     0.06   0.01  -0.02    -0.04  -0.05   0.05    -0.02   0.03   0.01
   4   6     0.04   0.05  -0.02     0.01  -0.16   0.05    -0.02   0.00   0.00
   5   7     0.04   0.09  -0.02     0.01  -0.22   0.11    -0.02   0.00   0.00
   6   6     0.03   0.07   0.00     0.07  -0.12   0.03    -0.02   0.02  -0.03
   7   6     0.03   0.09  -0.05     0.13  -0.13  -0.03    -0.02   0.05  -0.10
   8   6     0.04   0.08  -0.03     0.19  -0.04  -0.12    -0.01   0.05  -0.09
   9   6     0.04   0.04   0.05     0.19   0.06  -0.14    -0.00  -0.00   0.02
  10   6     0.04   0.01   0.10     0.13   0.07  -0.06    -0.00  -0.03   0.07
  11   6     0.03   0.02   0.07     0.07  -0.03   0.02    -0.01  -0.01   0.02
  12   7     0.03   0.00   0.12     0.01  -0.02   0.08    -0.02  -0.00   0.00
  13   6     0.03  -0.00   0.11     0.01   0.02   0.09    -0.01   0.01  -0.01
  14   6     0.02  -0.03   0.06    -0.00   0.02   0.09    -0.03  -0.08  -0.18
  15   6     0.02  -0.07  -0.02    -0.00   0.01   0.05    -0.03  -0.07  -0.18
  16   6     0.02  -0.09  -0.06     0.00  -0.01   0.01    -0.02   0.04  -0.00
  17   6     0.01  -0.10  -0.11    -0.00  -0.03  -0.04    -0.02   0.03   0.01
  18   7    -0.01  -0.11  -0.18    -0.00  -0.04  -0.08     0.00  -0.02  -0.15
  19   6    -0.01  -0.07  -0.13    -0.00  -0.03  -0.07    -0.00  -0.01  -0.06
  20   6    -0.04  -0.03  -0.08    -0.01  -0.02  -0.06     0.01  -0.03  -0.10
  21   6    -0.08  -0.02  -0.02    -0.02  -0.02  -0.06     0.04  -0.05  -0.23
  22   6    -0.12   0.03   0.12    -0.03   0.00   0.01     0.05  -0.05  -0.12
  23   6    -0.11   0.08   0.20    -0.03   0.02   0.09     0.02  -0.01   0.16
  24   6    -0.07   0.08   0.12    -0.03   0.02   0.08    -0.01   0.01   0.25
  25   6    -0.03   0.02  -0.03    -0.01   0.00  -0.00    -0.01  -0.01   0.06
  26   6     0.00   0.02  -0.09    -0.00   0.00  -0.02    -0.02  -0.02   0.03
  27   6     0.02   0.03  -0.20     0.00   0.01  -0.03    -0.02  -0.06  -0.19
  28   6     0.05   0.05  -0.16     0.01   0.01  -0.02    -0.03  -0.06  -0.22
  29   6     0.07   0.05   0.05     0.01   0.01   0.01    -0.05  -0.02   0.00
  30   6     0.06   0.03   0.13     0.01  -0.00   0.01    -0.04   0.02   0.17
  31   6     0.03   0.00  -0.00     0.00  -0.01  -0.02    -0.03   0.02   0.14
  32   6     0.02  -0.04  -0.06     0.00  -0.02  -0.04    -0.03   0.04   0.13
  33   7     0.03  -0.07  -0.06     0.00  -0.02  -0.03    -0.04   0.08   0.22
  34   6     0.00  -0.06  -0.03     0.00  -0.02  -0.02    -0.03   0.06   0.13
  35   6     0.11  -0.09  -0.08     0.04  -0.04  -0.03     0.01   0.10   0.06
  36   6    -0.01  -0.05  -0.03     0.03  -0.03  -0.02     0.14   0.04  -0.08
  37   6    -0.24   0.03   0.07    -0.04  -0.00   0.02     0.22  -0.07  -0.15
  38   6    -0.33   0.05   0.11    -0.08   0.02   0.03     0.13  -0.10  -0.06
  39   6    -0.20   0.01   0.06    -0.05   0.01   0.01     0.00  -0.03   0.08
  40   6     0.03  -0.07  -0.01     0.01  -0.01   0.03    -0.00   0.13   0.16
  41   6     0.03  -0.02   0.07     0.01   0.01   0.06    -0.00   0.11   0.16
  42   6     0.03   0.03   0.07    -0.05  -0.03   0.02    -0.01   0.01  -0.01
  43   6     0.03   0.02   0.09    -0.11   0.06  -0.06     0.00   0.03  -0.06
  44   6     0.03   0.04   0.04    -0.17   0.07  -0.14     0.01   0.01  -0.01
  45   6     0.04   0.09  -0.03    -0.18  -0.03  -0.14    -0.00  -0.04   0.08
  46   6     0.04   0.10  -0.05    -0.11  -0.12  -0.05    -0.01  -0.04   0.10
  47   6     0.04   0.07   0.00    -0.05  -0.12   0.02    -0.01  -0.02   0.04
  48   6     0.02   0.00  -0.02     0.06  -0.04   0.06    -0.02  -0.03  -0.01
  49   6     0.02  -0.11  -0.03     0.06   0.24   0.08    -0.02  -0.03  -0.01
  50   1     0.01  -0.08  -0.01     0.00   0.19   0.04    -0.01  -0.00  -0.00
  51   1     0.02  -0.04  -0.01    -0.03   0.10   0.03    -0.01   0.01   0.00
  52   1     0.02   0.01  -0.00    -0.02  -0.04   0.01    -0.01   0.02   0.00
  53   1     0.01   0.03  -0.03     0.04  -0.06  -0.01    -0.01   0.02  -0.05
  54   1     0.01   0.03  -0.02     0.07  -0.01  -0.05    -0.00   0.02  -0.04
  55   1     0.01   0.01   0.02     0.07   0.04  -0.06     0.00  -0.01   0.01
  56   1     0.01  -0.01   0.04     0.04   0.04  -0.02     0.00  -0.02   0.04
  57   1     0.00  -0.00   0.03    -0.00   0.01   0.03    -0.01  -0.05  -0.09
  58   1     0.00  -0.03  -0.02    -0.00   0.00   0.01    -0.01  -0.04  -0.09
  59   1    -0.03  -0.02  -0.02    -0.01  -0.01  -0.03     0.02  -0.02  -0.11
  60   1    -0.04   0.01   0.05    -0.01   0.00   0.00     0.02  -0.02  -0.07
  61   1    -0.04   0.04   0.10    -0.01   0.01   0.05     0.00   0.00   0.09
  62   1    -0.02   0.03   0.06    -0.01   0.01   0.04    -0.01   0.01   0.14
  63   1    -0.00   0.01  -0.10    -0.00   0.00  -0.02    -0.01  -0.02  -0.11
  64   1     0.02   0.02  -0.08     0.00   0.00  -0.01    -0.01  -0.03  -0.12
  65   1     0.03   0.02   0.04     0.01   0.00   0.01    -0.02  -0.01   0.00
  66   1     0.02   0.01   0.08     0.00  -0.00   0.01    -0.01   0.01   0.09
  67   1     0.08  -0.04  -0.04     0.02  -0.02  -0.02    -0.01   0.05   0.03
  68   1     0.02  -0.02  -0.02     0.02  -0.01  -0.01     0.06   0.02  -0.04
  69   1    -0.10   0.02   0.03    -0.02   0.00   0.01     0.10  -0.04  -0.08
  70   1    -0.15   0.03   0.06    -0.04   0.01   0.02     0.05  -0.05  -0.03
  71   1    -0.08   0.01   0.03    -0.02   0.01   0.01    -0.01  -0.02   0.04
  72   1     0.01  -0.02  -0.01     0.01  -0.01   0.00     0.01   0.06   0.08
  73   1     0.01  -0.00   0.03     0.01   0.00   0.02     0.00   0.05   0.08
  74   1     0.01  -0.01   0.04    -0.03   0.04  -0.02     0.00   0.02  -0.04
  75   1     0.01   0.01   0.02    -0.06   0.04  -0.06     0.00   0.01  -0.01
  76   1     0.01   0.03  -0.02    -0.07  -0.01  -0.06    -0.00  -0.02   0.04
  77   1     0.01   0.04  -0.03    -0.03  -0.05  -0.01    -0.00  -0.02   0.04
  78   1     0.00   0.01  -0.00     0.03  -0.04   0.02    -0.01  -0.01  -0.00
  79   1     0.00  -0.04  -0.01     0.03   0.10   0.03    -0.01  -0.02  -0.01
                     13                     14                     15
                        a                      a                      a 
 Frequencies --    80.6004                86.9483                99.0722
 Red. masses --    10.9405                10.0756                10.4393
 Frc consts  --     0.0000                 0.0000                 0.0000
 IR Inten    --     1.2404                 0.6523                 0.9408
 Raman Activ --     0.0000                 0.0000                 0.0000
 Depolar     --     0.0000                 0.0000                 0.0000
 Atom AN      X      Y      Z        X      Y      Z        X      Y      Z
   1   6     0.00   0.10   0.12    -0.01   0.02   0.01     0.08   0.02   0.02
   2   6     0.10   0.06   0.05    -0.00   0.04   0.02     0.10   0.03   0.01
   3   6     0.10   0.02  -0.09    -0.00   0.02   0.01     0.10   0.02  -0.02
   4   6     0.00   0.02  -0.15    -0.00  -0.01  -0.00     0.07   0.01  -0.03
   5   7     0.00   0.08  -0.25    -0.00  -0.00  -0.00     0.07   0.03  -0.05
   6   6     0.04   0.03  -0.09     0.01   0.02  -0.03     0.07   0.03  -0.05
   7   6     0.08  -0.08   0.08     0.02   0.06  -0.13     0.10   0.04  -0.09
   8   6     0.12  -0.16   0.25     0.04   0.06  -0.10     0.13   0.01  -0.02
   9   6     0.11  -0.10   0.20     0.06  -0.01   0.06     0.14  -0.03   0.09
  10   6     0.07   0.03   0.01     0.04  -0.04   0.13     0.11  -0.01   0.10
  11   6     0.04   0.08  -0.10     0.01  -0.01   0.06     0.07   0.02   0.01
  12   7     0.00   0.16  -0.19    -0.01   0.00   0.05     0.04   0.05  -0.02
  13   6     0.00   0.14  -0.10    -0.00   0.02   0.03     0.03   0.03   0.00
  14   6     0.06   0.14  -0.02    -0.03  -0.07  -0.16     0.02  -0.06  -0.15
  15   6     0.06   0.07   0.01    -0.03  -0.08  -0.22     0.01  -0.09  -0.15
  16   6     0.00   0.00  -0.03    -0.01   0.00  -0.10    -0.03  -0.05  -0.02
  17   6     0.00  -0.05  -0.01    -0.01  -0.00  -0.10    -0.04  -0.03   0.04
  18   7     0.01  -0.07  -0.04    -0.01   0.00  -0.06    -0.07  -0.00   0.12
  19   6     0.00  -0.05  -0.01    -0.01  -0.00  -0.03    -0.07   0.02   0.13
  20   6    -0.02  -0.03  -0.01    -0.01   0.01   0.05    -0.08   0.02   0.12
  21   6    -0.06  -0.04   0.00    -0.03   0.07   0.34    -0.11  -0.01   0.02
  22   6    -0.08  -0.01   0.02    -0.02   0.06   0.33    -0.11  -0.02  -0.12
  23   6    -0.07   0.02   0.03     0.01  -0.02  -0.06    -0.10  -0.00  -0.16
  24   6    -0.04   0.02   0.00     0.02  -0.07  -0.30    -0.09   0.03  -0.03
  25   6    -0.01  -0.01  -0.02     0.00  -0.04  -0.16    -0.08   0.03   0.11
  26   6     0.00  -0.01  -0.03    -0.01  -0.04  -0.14    -0.07   0.04   0.13
  27   6     0.02   0.02  -0.10    -0.01  -0.04  -0.07    -0.07   0.04   0.22
  28   6     0.05   0.03  -0.06    -0.02  -0.01   0.13    -0.09   0.00   0.01
  29   6     0.07   0.03   0.07    -0.02   0.01   0.25    -0.08  -0.04  -0.29
  30   6     0.06   0.00   0.12    -0.02   0.00   0.14    -0.08  -0.03  -0.26
  31   6     0.02  -0.01   0.04    -0.02  -0.02  -0.04    -0.06   0.00  -0.01
  32   6     0.01  -0.04   0.03    -0.02  -0.02  -0.07    -0.06   0.00   0.05
  33   7     0.00  -0.05   0.03    -0.03  -0.01  -0.10    -0.04  -0.03   0.01
  34   6    -0.00  -0.05   0.03    -0.03  -0.00  -0.06    -0.03  -0.04   0.00
  35   6    -0.04  -0.03   0.04    -0.04  -0.04  -0.02     0.10  -0.08  -0.05
  36   6    -0.04  -0.03   0.02     0.04  -0.06   0.01     0.11  -0.09  -0.05
  37   6     0.00  -0.06  -0.01     0.13  -0.03  -0.00    -0.03  -0.03   0.01
  38   6     0.03  -0.08  -0.01     0.11   0.02  -0.03    -0.16   0.02   0.07
  39   6     0.03  -0.07   0.00     0.02   0.03  -0.05    -0.15   0.01   0.06
  40   6    -0.06   0.01  -0.08     0.02   0.09   0.07    -0.02   0.02   0.08
  41   6    -0.06   0.08  -0.11     0.02   0.10   0.14    -0.02   0.07   0.11
  42   6    -0.04   0.08  -0.09    -0.02   0.02   0.01     0.04   0.06  -0.03
  43   6    -0.07   0.00   0.05    -0.02   0.06  -0.04     0.05   0.09  -0.09
  44   6    -0.12  -0.11   0.22    -0.03   0.03  -0.02     0.04   0.04  -0.01
  45   6    -0.11  -0.14   0.20    -0.04  -0.03   0.07     0.03  -0.05   0.12
  46   6    -0.07  -0.06   0.02    -0.03  -0.05   0.08     0.03  -0.05   0.12
  47   6    -0.03   0.04  -0.11    -0.02  -0.02   0.04     0.04   0.01   0.02
  48   6    -0.09   0.04  -0.09    -0.01  -0.02  -0.01     0.06  -0.00  -0.03
  49   6    -0.09   0.08   0.05    -0.01  -0.01   0.00     0.06  -0.00   0.00
  50   1     0.00   0.04   0.07    -0.00   0.01   0.01     0.02   0.01   0.01
  51   1     0.05   0.02   0.03     0.00   0.02   0.01     0.03   0.01   0.01
  52   1     0.05   0.00  -0.04     0.00   0.01   0.00     0.03   0.01  -0.01
  53   1     0.02  -0.03   0.03     0.01   0.03  -0.07     0.03   0.01  -0.05
  54   1     0.04  -0.08   0.12     0.01   0.03  -0.05     0.04   0.00  -0.01
  55   1     0.04  -0.04   0.09     0.02  -0.01   0.03     0.05  -0.02   0.05
  56   1     0.02   0.02  -0.01     0.01  -0.02   0.07     0.03  -0.01   0.05
  57   1     0.03   0.06   0.01    -0.01  -0.04  -0.07     0.01  -0.03  -0.07
  58   1     0.03   0.02   0.02    -0.01  -0.04  -0.10     0.01  -0.05  -0.07
  59   1    -0.02  -0.02   0.00    -0.01   0.03   0.16    -0.03  -0.01   0.01
  60   1    -0.03  -0.00   0.01    -0.01   0.03   0.17    -0.04  -0.01  -0.06
  61   1    -0.03   0.01   0.01     0.01  -0.01  -0.04    -0.03  -0.00  -0.09
  62   1    -0.01   0.01   0.00     0.01  -0.04  -0.17    -0.02   0.01  -0.02
  63   1    -0.00   0.01  -0.06    -0.00  -0.02  -0.04    -0.02   0.02   0.13
  64   1     0.02   0.01  -0.04    -0.01  -0.00   0.06    -0.03   0.00   0.02
  65   1     0.03   0.01   0.04    -0.01   0.01   0.12    -0.02  -0.02  -0.15
  66   1     0.02  -0.00   0.06    -0.00   0.00   0.06    -0.03  -0.01  -0.12
  67   1    -0.02  -0.00   0.01    -0.03  -0.02  -0.00     0.06  -0.03  -0.03
  68   1    -0.02  -0.00   0.01     0.01  -0.03   0.01     0.07  -0.04  -0.03
  69   1     0.00  -0.02  -0.01     0.06  -0.01   0.00    -0.01  -0.01   0.01
  70   1     0.02  -0.03  -0.01     0.05   0.01  -0.01    -0.08   0.02   0.03
  71   1     0.01  -0.03   0.00     0.00   0.02  -0.02    -0.07   0.01   0.02
  72   1    -0.03  -0.01  -0.03     0.01   0.05   0.04    -0.00   0.02   0.04
  73   1    -0.03   0.03  -0.04     0.01   0.05   0.08    -0.01   0.04   0.06
  74   1    -0.02   0.01   0.01    -0.00   0.03  -0.03     0.02   0.04  -0.05
  75   1    -0.04  -0.05   0.10    -0.01   0.02  -0.02     0.01   0.02  -0.01
  76   1    -0.04  -0.07   0.10    -0.01  -0.02   0.03     0.00  -0.03   0.06
  77   1    -0.02  -0.02   0.00    -0.01  -0.02   0.04     0.01  -0.03   0.06
  78   1    -0.05   0.01  -0.04    -0.00  -0.01  -0.00     0.01  -0.00  -0.01
  79   1    -0.05   0.03   0.03    -0.00  -0.01  -0.00     0.01  -0.00   0.00
                     16                     17                     18
                        a                      a                      a 
 Frequencies --   108.4551               122.5130               133.7809
 Red. masses --    10.9640                10.8055                10.2860
 Frc consts  --     0.0000                 0.0000                 0.0000
 IR Inten    --     5.3889                 4.4133                 1.1942
 Raman Activ --     0.0000                 0.0000                 0.0000
 Depolar     --     0.0000                 0.0000                 0.0000
 Atom AN      X      Y      Z        X      Y      Z        X      Y      Z
   1   6    -0.14   0.01   0.01    -0.02   0.01   0.00     0.07   0.00  -0.01
   2   6    -0.13   0.04   0.01    -0.03  -0.01  -0.00     0.05   0.02   0.01
   3   6    -0.13   0.03  -0.00    -0.03  -0.03   0.00     0.05  -0.00   0.03
   4   6    -0.12   0.00  -0.01    -0.02  -0.02   0.01     0.06  -0.02   0.03
   5   7    -0.12   0.01  -0.02    -0.02  -0.01   0.03     0.06  -0.03   0.05
   6   6    -0.08   0.05  -0.04     0.01  -0.01   0.07     0.05   0.01  -0.03
   7   6    -0.09   0.10  -0.14     0.04  -0.04   0.08     0.03   0.11  -0.21
   8   6    -0.10   0.06  -0.07     0.06   0.01   0.02     0.02   0.06  -0.13
   9   6    -0.09  -0.05   0.12     0.05   0.09  -0.05     0.04  -0.11   0.15
  10   6    -0.08  -0.08   0.17     0.03   0.09  -0.02     0.05  -0.15   0.22
  11   6    -0.07   0.00   0.06     0.00   0.02   0.06     0.04  -0.06   0.09
  12   7    -0.05   0.02   0.02    -0.02  -0.00   0.13     0.03  -0.01   0.03
  13   6    -0.02   0.01   0.02    -0.01   0.02   0.03     0.01   0.02  -0.02
  14   6     0.03  -0.04  -0.01    -0.04  -0.05  -0.12    -0.02   0.15   0.16
  15   6     0.04  -0.07  -0.02    -0.03  -0.12  -0.30    -0.02   0.15   0.13
  16   6     0.07  -0.06  -0.02     0.00  -0.08  -0.27    -0.02   0.02  -0.11
  17   6     0.09  -0.04   0.01     0.01  -0.04  -0.16    -0.04   0.01  -0.09
  18   7     0.10  -0.03   0.06     0.03  -0.02  -0.06    -0.03   0.03  -0.00
  19   6     0.10  -0.01   0.05     0.01   0.04   0.16    -0.04   0.03   0.09
  20   6     0.10   0.00   0.05     0.02   0.04   0.19    -0.04   0.03   0.09
  21   6     0.10  -0.01  -0.00     0.04   0.02   0.10    -0.02   0.01   0.01
  22   6     0.10  -0.01  -0.05     0.06  -0.02  -0.10    -0.01  -0.02  -0.09
  23   6     0.10   0.01  -0.04     0.06  -0.04  -0.18    -0.01  -0.03  -0.06
  24   6     0.11   0.02   0.02     0.04  -0.01  -0.03    -0.03  -0.01   0.05
  25   6     0.11   0.02   0.05     0.02   0.03   0.15    -0.04   0.01   0.09
  26   6     0.13   0.03   0.05     0.01   0.03   0.16    -0.06   0.00   0.07
  27   6     0.14   0.06   0.05     0.01   0.01  -0.01    -0.06  -0.03  -0.10
  28   6     0.17   0.05  -0.03     0.02  -0.02  -0.16    -0.07  -0.03  -0.12
  29   6     0.19   0.02  -0.10     0.01  -0.00  -0.10    -0.07  -0.00   0.06
  30   6     0.17   0.00  -0.07     0.01   0.03   0.11    -0.07   0.03   0.18
  31   6     0.14   0.00  -0.00     0.01   0.04   0.20    -0.06   0.02   0.14
  32   6     0.12  -0.02   0.01     0.01   0.04   0.19    -0.06   0.02   0.09
  33   7     0.13  -0.04  -0.03     0.01  -0.01  -0.02    -0.06  -0.01  -0.08
  34   6     0.12  -0.04  -0.03     0.01  -0.00  -0.02    -0.04   0.00  -0.06
  35   6     0.13  -0.03  -0.05    -0.02  -0.00   0.00    -0.11  -0.02   0.00
  36   6     0.01   0.01  -0.01    -0.05   0.01   0.02    -0.10  -0.01   0.05
  37   6    -0.12   0.04   0.04    -0.02   0.01   0.02     0.01  -0.00   0.03
  38   6    -0.09   0.01   0.03     0.03  -0.00  -0.01     0.09   0.01  -0.04
  39   6     0.04  -0.03  -0.00     0.05  -0.01  -0.03     0.05   0.01  -0.08
  40   6     0.02  -0.04  -0.05     0.03  -0.04  -0.19     0.00  -0.12  -0.29
  41   6     0.01   0.01  -0.00     0.03   0.01  -0.04     0.01  -0.10  -0.24
  42   6    -0.09   0.04  -0.04    -0.04  -0.03   0.14     0.04   0.02  -0.00
  43   6    -0.13   0.12  -0.14    -0.07  -0.09   0.25     0.04   0.09  -0.10
  44   6    -0.16   0.07  -0.07    -0.09  -0.05   0.16     0.03   0.09  -0.12
  45   6    -0.17  -0.06   0.11    -0.07   0.08  -0.12     0.02  -0.00   0.02
  46   6    -0.14  -0.10   0.15    -0.05   0.11  -0.20     0.03  -0.07   0.13
  47   6    -0.10  -0.02   0.04    -0.04   0.02  -0.01     0.04  -0.03   0.07
  48   6    -0.14  -0.02  -0.01    -0.02   0.00   0.01     0.09  -0.03   0.01
  49   6    -0.14  -0.02  -0.00    -0.02   0.02   0.01     0.09  -0.02  -0.01
  50   1    -0.04   0.00   0.01    -0.01   0.01   0.00     0.02   0.00  -0.01
  51   1    -0.03   0.02   0.01    -0.01  -0.01  -0.00     0.01   0.01   0.00
  52   1    -0.04   0.01   0.00    -0.01  -0.01   0.00     0.01   0.00   0.01
  53   1    -0.03   0.05  -0.07     0.01  -0.02   0.03     0.00   0.06  -0.11
  54   1    -0.03   0.03  -0.04     0.02  -0.00   0.01    -0.00   0.04  -0.08
  55   1    -0.02  -0.03   0.06     0.02   0.04  -0.03     0.02  -0.05   0.08
  56   1    -0.02  -0.05   0.08     0.01   0.04  -0.02     0.02  -0.07   0.10
  57   1     0.02  -0.01  -0.01    -0.02  -0.02  -0.03    -0.01   0.07   0.09
  58   1     0.01  -0.02  -0.01    -0.02  -0.05  -0.12    -0.01   0.07   0.08
  59   1     0.03  -0.00  -0.00     0.01   0.01   0.04    -0.01   0.00  -0.00
  60   1     0.03  -0.01  -0.03     0.02  -0.01  -0.06     0.00  -0.01  -0.06
  61   1     0.03   0.00  -0.02     0.02  -0.02  -0.10    -0.00  -0.01  -0.03
  62   1     0.03   0.01   0.01     0.01  -0.01  -0.02    -0.01  -0.00   0.02
  63   1     0.04   0.02   0.03     0.00  -0.00  -0.01    -0.02  -0.02  -0.07
  64   1     0.05   0.02  -0.01     0.01  -0.01  -0.10    -0.02  -0.02  -0.08
  65   1     0.06   0.01  -0.05     0.00  -0.00  -0.06    -0.03   0.00   0.03
  66   1     0.05  -0.00  -0.03     0.00   0.01   0.05    -0.02   0.01   0.08
  67   1     0.06  -0.01  -0.02    -0.01  -0.00   0.00    -0.05  -0.01   0.00
  68   1     0.00   0.01  -0.01    -0.03   0.01   0.01    -0.05  -0.01   0.03
  69   1    -0.07   0.02   0.02    -0.01   0.00   0.01     0.01   0.00   0.02
  70   1    -0.05   0.01   0.02     0.02  -0.00  -0.01     0.05   0.01  -0.02
  71   1     0.02  -0.01  -0.00     0.02  -0.01  -0.01     0.02   0.01  -0.03
  72   1    -0.00  -0.02  -0.02     0.01  -0.01  -0.06     0.00  -0.06  -0.13
  73   1     0.01   0.00   0.01     0.02   0.01   0.01     0.01  -0.05  -0.10
  74   1    -0.03   0.06  -0.07    -0.02  -0.05   0.11     0.01   0.04  -0.04
  75   1    -0.05   0.04  -0.04    -0.04  -0.03   0.08     0.01   0.05  -0.07
  76   1    -0.06  -0.04   0.06    -0.02   0.04  -0.07     0.00  -0.01   0.01
  77   1    -0.04  -0.05   0.07    -0.01   0.05  -0.11     0.01  -0.04   0.07
  78   1    -0.04  -0.01  -0.01    -0.00   0.00   0.00     0.03  -0.01   0.01
  79   1    -0.04  -0.01  -0.00    -0.00   0.01   0.00     0.03  -0.01  -0.01
                     19                     20                     21
                        a                      a                      a 
 Frequencies --   160.6499               170.1344               184.0954
 Red. masses --    11.0558                10.8733                11.3374
 Frc consts  --     0.0000                 0.0000                 0.0000
 IR Inten    --    12.0696                 0.6238                11.5915
 Raman Activ --     0.0000                 0.0000                 0.0000
 Depolar     --     0.0000                 0.0000                 0.0000
 Atom AN      X      Y      Z        X      Y      Z        X      Y      Z
   1   6    -0.01  -0.01   0.00    -0.02   0.02  -0.04    -0.01  -0.02   0.03
   2   6    -0.01  -0.00  -0.00    -0.10  -0.00  -0.00     0.04   0.00  -0.00
   3   6    -0.01   0.00  -0.01    -0.10  -0.06   0.09     0.04   0.03  -0.07
   4   6    -0.01   0.01  -0.01    -0.01  -0.08   0.14    -0.01   0.04  -0.09
   5   7    -0.01   0.00  -0.02    -0.01  -0.10   0.16    -0.01   0.04  -0.10
   6   6    -0.02  -0.01  -0.01    -0.01  -0.02   0.01    -0.01  -0.02  -0.01
   7   6    -0.02  -0.04   0.05    -0.04   0.06  -0.12    -0.04  -0.06   0.11
   8   6    -0.03  -0.02   0.02    -0.06   0.05  -0.12    -0.07  -0.04   0.05
   9   6    -0.03   0.01  -0.06    -0.05  -0.09   0.07    -0.08   0.02  -0.12
  10   6    -0.02   0.02  -0.08    -0.02  -0.12   0.11    -0.05   0.01  -0.11
  11   6    -0.01   0.00  -0.05    -0.00  -0.03  -0.00    -0.01  -0.03  -0.03
  12   7    -0.01  -0.02  -0.05     0.00   0.05  -0.15     0.01  -0.08   0.04
  13   6    -0.00  -0.00   0.01     0.01   0.15  -0.18     0.02  -0.05   0.11
  14   6    -0.02  -0.01  -0.03     0.02   0.21  -0.08    -0.02   0.05   0.22
  15   6    -0.02   0.06   0.05     0.03   0.24   0.01    -0.02   0.11   0.18
  16   6    -0.02   0.09   0.10     0.02   0.20  -0.01     0.03   0.06   0.01
  17   6    -0.01   0.04   0.01     0.02   0.04  -0.02     0.02  -0.04  -0.25
  18   7     0.01   0.08   0.25     0.10  -0.03  -0.08     0.06  -0.11  -0.45
  19   6     0.01   0.01   0.15     0.07  -0.10  -0.02     0.02  -0.05  -0.12
  20   6     0.00   0.01   0.15     0.03  -0.08   0.00     0.01  -0.01   0.05
  21   6     0.01  -0.03  -0.01    -0.09  -0.09   0.05    -0.02   0.00   0.15
  22   6     0.02  -0.06  -0.18    -0.15  -0.03   0.05    -0.04   0.01   0.09
  23   6     0.01  -0.02  -0.05    -0.12   0.02  -0.04    -0.01  -0.02  -0.15
  24   6    -0.00   0.02   0.14    -0.02   0.03  -0.06     0.01  -0.01  -0.11
  25   6     0.00   0.01   0.14     0.03  -0.02   0.01     0.01   0.01   0.09
  26   6    -0.00  -0.00   0.05     0.03  -0.02   0.04     0.01   0.03   0.19
  27   6     0.02   0.02  -0.13     0.05   0.03   0.09     0.01   0.02   0.14
  28   6     0.07   0.03  -0.13     0.10   0.03  -0.01     0.01  -0.02  -0.12
  29   6     0.09   0.04   0.12     0.13  -0.01  -0.11     0.01  -0.02  -0.17
  30   6     0.07   0.00   0.16     0.11  -0.05  -0.04     0.01   0.02   0.09
  31   6     0.01  -0.03   0.03     0.04  -0.06   0.03     0.01   0.03   0.20
  32   6    -0.01  -0.06  -0.08     0.02  -0.09   0.03     0.00   0.01   0.10
  33   7    -0.04  -0.09  -0.34    -0.03  -0.02   0.05    -0.01  -0.00  -0.01
  34   6    -0.08  -0.06  -0.26    -0.08  -0.01   0.06    -0.03   0.02   0.01
  35   6    -0.08  -0.20  -0.15    -0.04  -0.03   0.04    -0.03   0.01   0.01
  36   6     0.00  -0.19   0.03     0.03  -0.06  -0.01     0.01  -0.00  -0.01
  37   6     0.05  -0.03   0.09     0.03  -0.07  -0.02     0.04  -0.01  -0.02
  38   6     0.01   0.12  -0.01    -0.06  -0.05   0.03    -0.01   0.01   0.00
  39   6    -0.06   0.09  -0.20    -0.11  -0.03   0.06    -0.05   0.02   0.02
  40   6     0.01   0.16   0.21    -0.00   0.25   0.02     0.08   0.09   0.13
  41   6     0.01   0.11   0.18     0.01   0.21  -0.07     0.07   0.02   0.15
  42   6     0.00  -0.02  -0.03    -0.00  -0.04  -0.00     0.01  -0.03  -0.03
  43   6     0.03  -0.03  -0.03     0.01  -0.13   0.12     0.02   0.02  -0.12
  44   6     0.05  -0.03  -0.02     0.03  -0.10   0.09     0.04   0.04  -0.12
  45   6     0.05  -0.02   0.01     0.04   0.04  -0.13     0.03  -0.05   0.05
  46   6     0.03  -0.00   0.00     0.02   0.06  -0.14     0.02  -0.08   0.11
  47   6     0.00  -0.01  -0.02    -0.00  -0.02   0.00     0.01  -0.02  -0.01
  48   6    -0.02   0.01  -0.01     0.06  -0.06   0.10    -0.06   0.03  -0.06
  49   6    -0.02   0.00   0.00     0.07  -0.00  -0.00    -0.06  -0.00  -0.00
  50   1    -0.00  -0.00   0.00    -0.01   0.02  -0.03    -0.00  -0.01   0.02
  51   1    -0.00  -0.00  -0.00    -0.05   0.00  -0.01     0.03  -0.00   0.01
  52   1    -0.00   0.00  -0.00    -0.05  -0.02   0.04     0.02   0.01  -0.03
  53   1    -0.01  -0.02   0.03    -0.01   0.04  -0.06    -0.01  -0.02   0.06
  54   1    -0.01  -0.01   0.02    -0.03   0.04  -0.07    -0.02  -0.02   0.03
  55   1    -0.01   0.01  -0.03    -0.01  -0.04   0.05    -0.03   0.02  -0.06
  56   1    -0.01   0.01  -0.03    -0.00  -0.06   0.06    -0.01   0.01  -0.05
  57   1    -0.01  -0.02  -0.03     0.01   0.07  -0.02    -0.02   0.02   0.08
  58   1    -0.01   0.02   0.01     0.01   0.08   0.02    -0.02   0.05   0.06
  59   1     0.00  -0.01  -0.01    -0.03  -0.05   0.02    -0.01  -0.00   0.07
  60   1     0.01  -0.03  -0.11    -0.06  -0.01   0.03    -0.02   0.01   0.05
  61   1     0.00  -0.01  -0.03    -0.05   0.02  -0.02    -0.00  -0.01  -0.09
  62   1    -0.00   0.01   0.07     0.00   0.03  -0.04     0.01  -0.00  -0.07
  63   1    -0.00   0.01  -0.08     0.01   0.02   0.05     0.00   0.01   0.07
  64   1     0.02   0.01  -0.08     0.03   0.02  -0.00     0.00  -0.01  -0.08
  65   1     0.03   0.02   0.07     0.05  -0.01  -0.06     0.00  -0.01  -0.11
  66   1     0.03  -0.01   0.09     0.04  -0.02  -0.01     0.00   0.01   0.03
  67   1    -0.04  -0.10  -0.06    -0.01  -0.01   0.01    -0.01   0.01   0.00
  68   1     0.00  -0.09   0.03     0.03  -0.02  -0.01     0.01  -0.00  -0.01
  69   1     0.03  -0.00   0.06     0.03  -0.03  -0.02     0.02  -0.01  -0.01
  70   1     0.01   0.08   0.01    -0.02  -0.01   0.01    -0.00   0.00   0.00
  71   1    -0.03   0.06  -0.08    -0.04  -0.01   0.03    -0.02   0.01   0.01
  72   1     0.01   0.07   0.09    -0.00   0.08   0.03     0.04   0.04   0.05
  73   1     0.00   0.05   0.07    -0.00   0.07  -0.01     0.03  -0.00   0.05
  74   1     0.01  -0.01  -0.01    -0.00  -0.06   0.06     0.01   0.02  -0.04
  75   1     0.02  -0.01  -0.00     0.01  -0.05   0.05     0.02   0.03  -0.06
  76   1     0.02  -0.01   0.01     0.02   0.03  -0.07     0.01  -0.03   0.03
  77   1     0.01   0.00   0.01     0.01   0.04  -0.07     0.00  -0.04   0.06
  78   1    -0.01   0.00  -0.00     0.04  -0.02   0.04    -0.03   0.01  -0.03
  79   1    -0.01   0.00   0.00     0.04   0.01  -0.01    -0.03  -0.00   0.01
                     22                     23                     24
                        a                      a                      a 
 Frequencies --   203.9944               213.1641               223.2417
 Red. masses --    10.8019                11.1062                10.7830
 Frc consts  --     0.0000                 0.0000                 0.0000
 IR Inten    --     1.9916                 0.5666                 2.5015
 Raman Activ --     0.0000                 0.0000                 0.0000
 Depolar     --     0.0000                 0.0000                 0.0000
 Atom AN      X      Y      Z        X      Y      Z        X      Y      Z
   1   6     0.29  -0.00   0.00    -0.01  -0.03   0.05    -0.04   0.00  -0.02
   2   6     0.26   0.01   0.02     0.08   0.00   0.00    -0.07   0.00  -0.00
   3   6     0.25   0.01   0.02     0.07   0.06  -0.12    -0.06  -0.01   0.04
   4   6     0.17   0.00  -0.01    -0.01   0.07  -0.16    -0.02  -0.02   0.06
   5   7     0.13   0.00  -0.01    -0.01   0.06  -0.12    -0.01  -0.02   0.04
   6   6     0.03  -0.04   0.06     0.01  -0.05   0.09     0.00   0.02  -0.01
   7   6    -0.14   0.04   0.11     0.02  -0.07   0.11    -0.01   0.03  -0.01
   8   6    -0.28   0.06  -0.04     0.02   0.00  -0.00    -0.04   0.01   0.00
   9   6    -0.28   0.00  -0.10     0.01   0.08  -0.11    -0.03  -0.01   0.02
  10   6    -0.13  -0.12  -0.01     0.01   0.01   0.02    -0.02  -0.01  -0.01
  11   6     0.01  -0.06   0.04     0.01  -0.07   0.14     0.01   0.03  -0.04
  12   7    -0.00  -0.00   0.01     0.00  -0.09   0.20     0.04   0.03  -0.06
  13   6    -0.01  -0.00  -0.00     0.00  -0.02   0.02     0.06  -0.01   0.01
  14   6    -0.01  -0.01  -0.03    -0.07  -0.01  -0.05     0.09  -0.03   0.01
  15   6    -0.01  -0.02  -0.04    -0.07   0.07  -0.12     0.08  -0.03   0.03
  16   6    -0.00   0.01  -0.00     0.01   0.13  -0.10     0.07  -0.03   0.03
  17   6    -0.00   0.01   0.01     0.02   0.13   0.07     0.06  -0.01  -0.01
  18   7     0.01   0.01   0.02     0.11   0.10   0.18     0.05   0.00  -0.01
  19   6     0.00  -0.00   0.01     0.08  -0.07   0.08     0.04  -0.01   0.03
  20   6     0.00  -0.01   0.00     0.05  -0.11   0.01     0.02  -0.06   0.04
  21   6     0.00  -0.01  -0.00    -0.12  -0.17  -0.03    -0.17  -0.11   0.01
  22   6     0.00  -0.01  -0.00    -0.22  -0.07  -0.01    -0.28  -0.02  -0.03
  23   6    -0.00  -0.00   0.00    -0.20   0.02   0.04    -0.25   0.05  -0.02
  24   6     0.00  -0.00   0.00    -0.04   0.04   0.01    -0.09   0.08  -0.00
  25   6     0.00  -0.00  -0.00     0.06  -0.07  -0.02     0.03  -0.04   0.04
  26   6     0.00  -0.00  -0.01     0.05  -0.09  -0.04     0.05  -0.06   0.05
  27   6     0.01   0.01  -0.00     0.06  -0.05  -0.00     0.01  -0.19  -0.00
  28   6     0.02   0.01   0.00     0.10  -0.04   0.04    -0.11  -0.23   0.00
  29   6     0.02   0.00   0.00     0.12  -0.06   0.01    -0.16  -0.17   0.06
  30   6     0.02  -0.01  -0.01     0.10  -0.10  -0.04    -0.11  -0.05   0.07
  31   6     0.00  -0.01  -0.01     0.04  -0.11  -0.05     0.03  -0.02   0.07
  32   6     0.00  -0.01  -0.01     0.03  -0.09   0.01     0.06   0.02   0.04
  33   7    -0.01   0.00  -0.00    -0.04   0.06   0.04     0.10   0.04  -0.04
  34   6    -0.01   0.00   0.00    -0.10   0.08   0.04     0.18   0.05  -0.09
  35   6    -0.01  -0.00   0.00    -0.09   0.10   0.02     0.21   0.10  -0.13
  36   6     0.00  -0.01  -0.00    -0.00   0.08  -0.02     0.05   0.16  -0.05
  37   6     0.01  -0.00  -0.00     0.08   0.06  -0.05    -0.07   0.24   0.02
  38   6    -0.01   0.00   0.00     0.00   0.08  -0.00     0.11   0.16  -0.04
  39   6    -0.02   0.01   0.00    -0.09   0.11   0.04     0.25   0.10  -0.10
  40   6    -0.00   0.03   0.03     0.07   0.05  -0.17     0.06  -0.01   0.06
  41   6    -0.00   0.01   0.01     0.08  -0.04  -0.12     0.06   0.01   0.06
  42   6     0.01   0.06  -0.03    -0.01  -0.08   0.15     0.02   0.04  -0.09
  43   6    -0.13   0.13   0.01     0.00   0.00   0.03    -0.02   0.03  -0.04
  44   6    -0.28   0.00   0.09     0.01   0.09  -0.13    -0.04  -0.05   0.07
  45   6    -0.28  -0.06   0.05    -0.00   0.01  -0.01    -0.04  -0.03   0.03
  46   6    -0.14  -0.04  -0.10    -0.01  -0.07   0.13    -0.01   0.02  -0.09
  47   6     0.02   0.04  -0.05    -0.01  -0.06   0.10     0.01   0.03  -0.07
  48   6     0.24   0.00  -0.03    -0.10   0.05  -0.11     0.00  -0.01   0.05
  49   6     0.25  -0.01  -0.02    -0.10   0.00   0.00     0.00  -0.00   0.00
  50   1     0.08  -0.00   0.00    -0.00  -0.02   0.04    -0.01   0.00  -0.01
  51   1     0.07   0.01   0.00     0.05  -0.01   0.01    -0.03   0.00  -0.00
  52   1     0.09   0.01  -0.00     0.04   0.02  -0.05    -0.03  -0.01   0.02
  53   1    -0.04   0.04   0.07     0.01  -0.03   0.04    -0.00   0.01  -0.00
  54   1    -0.10   0.04  -0.03     0.01   0.01  -0.01    -0.01   0.00   0.00
  55   1    -0.10   0.00  -0.06     0.00   0.05  -0.08    -0.01  -0.01   0.02
  56   1    -0.04  -0.08  -0.01     0.00   0.01  -0.00    -0.00  -0.01  -0.00
  57   1    -0.00  -0.01  -0.01    -0.04  -0.01  -0.01     0.03  -0.01  -0.00
  58   1    -0.00  -0.01  -0.02    -0.04   0.03  -0.05     0.03  -0.01   0.01
  59   1     0.00  -0.00  -0.00    -0.05  -0.09  -0.01    -0.06  -0.08   0.01
  60   1    -0.00  -0.00  -0.00    -0.09  -0.03  -0.01    -0.10  -0.01  -0.01
  61   1    -0.00   0.00   0.00    -0.08   0.03   0.03    -0.09   0.03  -0.01
  62   1     0.00   0.00   0.00    -0.00   0.04   0.00    -0.01   0.05  -0.01
  63   1     0.00   0.00   0.00     0.01  -0.00   0.01     0.02  -0.07  -0.01
  64   1     0.01   0.01   0.00     0.03  -0.00   0.03    -0.04  -0.09  -0.01
  65   1     0.01   0.00   0.00     0.04  -0.02   0.01    -0.07  -0.05   0.02
  66   1     0.01  -0.00  -0.00     0.03  -0.03  -0.01    -0.05   0.00   0.01
  67   1    -0.01  -0.00   0.00    -0.04   0.04   0.01     0.09   0.03  -0.05
  68   1     0.00  -0.00  -0.00     0.01   0.02  -0.01    -0.00   0.05  -0.00
  69   1     0.01  -0.00  -0.00     0.05   0.01  -0.03    -0.08   0.09   0.03
  70   1    -0.00   0.00   0.00     0.01   0.02  -0.00     0.03   0.04  -0.01
  71   1    -0.01   0.00   0.00    -0.04   0.04   0.01     0.09   0.03  -0.05
  72   1     0.00   0.01   0.01     0.03   0.02  -0.06     0.02  -0.00   0.02
  73   1     0.00   0.01   0.01     0.04  -0.03  -0.04     0.01   0.01   0.02
  74   1    -0.04   0.08   0.01     0.00   0.01   0.00    -0.00   0.01  -0.01
  75   1    -0.10  -0.00   0.05     0.01   0.06  -0.09    -0.02  -0.03   0.05
  76   1    -0.10  -0.04   0.03    -0.00   0.01  -0.02    -0.02  -0.02   0.02
  77   1    -0.04  -0.04  -0.06    -0.00  -0.03   0.05    -0.00   0.00  -0.04
  78   1     0.08  -0.00  -0.00    -0.05   0.02  -0.05     0.01  -0.01   0.02
  79   1     0.06  -0.01  -0.00    -0.05  -0.00   0.01     0.01   0.00  -0.00
                     25                     26                     27
                        a                      a                      a 
 Frequencies --   235.4003               244.1827               244.7868
 Red. masses --    10.6334                10.3302                10.3458
 Frc consts  --     0.0000                 0.0000                 0.0000
 IR Inten    --     2.5827                 4.8999                 7.4865
 Raman Activ --     0.0000                 0.0000                 0.0000
 Depolar     --     0.0000                 0.0000                 0.0000
 Atom AN      X      Y      Z        X      Y      Z        X      Y      Z
   1   6    -0.03   0.06   0.06     0.07   0.27   0.08     0.08  -0.22  -0.07
   2   6     0.04  -0.02  -0.01     0.07  -0.07  -0.02     0.07   0.05   0.03
   3   6     0.04  -0.06  -0.12     0.07  -0.34  -0.12     0.06   0.27   0.11
   4   6    -0.01  -0.02  -0.14     0.04  -0.17  -0.07     0.04   0.14   0.05
   5   7    -0.01   0.02  -0.07     0.01   0.05  -0.01     0.01  -0.05   0.01
   6   6     0.02  -0.06   0.13    -0.01   0.13  -0.15    -0.03   0.03  -0.18
   7   6    -0.02  -0.05   0.15    -0.07   0.15  -0.09    -0.01   0.01  -0.17
   8   6    -0.07   0.06  -0.08    -0.11  -0.00   0.14     0.03  -0.13   0.10
   9   6    -0.07   0.07  -0.12    -0.11  -0.04   0.13     0.03  -0.11   0.09
  10   6    -0.02  -0.08   0.09    -0.07   0.08  -0.12    -0.00   0.06  -0.18
  11   6     0.02  -0.08   0.14    -0.02   0.12  -0.15    -0.03   0.05  -0.18
  12   7     0.02  -0.01   0.03    -0.05   0.04   0.01    -0.04  -0.04  -0.01
  13   6     0.03   0.11  -0.06    -0.04   0.03   0.03    -0.03   0.00  -0.03
  14   6     0.01   0.13  -0.05    -0.03   0.01   0.01    -0.06   0.02  -0.04
  15   6     0.02   0.15  -0.04    -0.03  -0.04  -0.02    -0.06   0.05  -0.03
  16   6     0.01   0.13  -0.05    -0.04  -0.03   0.00    -0.03   0.08  -0.00
  17   6     0.02  -0.00   0.00    -0.03  -0.01   0.00    -0.02   0.02   0.01
  18   7     0.00   0.00   0.01    -0.03  -0.01  -0.01    -0.01  -0.00  -0.01
  19   6    -0.00   0.05   0.04    -0.02  -0.01  -0.01    -0.01  -0.00   0.00
  20   6    -0.01   0.06   0.00    -0.02  -0.02   0.00    -0.01  -0.01  -0.01
  21   6     0.01   0.07  -0.03    -0.01  -0.02   0.01    -0.00  -0.01  -0.00
  22   6     0.02   0.06  -0.03     0.00  -0.04   0.01     0.00  -0.01   0.01
  23   6     0.02   0.06   0.01    -0.00  -0.05   0.00    -0.00  -0.02   0.01
  24   6     0.00   0.05   0.01    -0.01  -0.05   0.00    -0.01  -0.02  -0.01
  25   6    -0.00   0.05  -0.03    -0.02  -0.04   0.01    -0.01  -0.01  -0.01
  26   6    -0.02   0.04  -0.05    -0.01  -0.03   0.01    -0.02  -0.01   0.00
  27   6    -0.05  -0.03  -0.07     0.01   0.01   0.01    -0.01   0.00  -0.01
  28   6    -0.13  -0.03   0.05     0.05   0.02  -0.01     0.01   0.01   0.00
  29   6    -0.15  -0.01   0.06     0.06   0.00  -0.01     0.01   0.00   0.00
  30   6    -0.12   0.04  -0.04     0.04  -0.03   0.01     0.01  -0.01   0.01
  31   6    -0.03   0.06  -0.02    -0.00  -0.03   0.01    -0.02  -0.01   0.02
  32   6    -0.01   0.05   0.05    -0.00  -0.01   0.00    -0.01   0.00   0.03
  33   7     0.02  -0.04   0.07    -0.01   0.02   0.01    -0.02   0.01   0.04
  34   6     0.16  -0.13   0.01     0.03   0.03  -0.01     0.08  -0.03  -0.01
  35   6     0.24  -0.18  -0.01     0.06   0.05  -0.04     0.15  -0.05  -0.04
  36   6     0.02  -0.12   0.04     0.02   0.06  -0.03     0.03  -0.01  -0.00
  37   6    -0.22  -0.11   0.11    -0.02   0.09  -0.00    -0.11   0.02   0.05
  38   6     0.01  -0.19   0.01     0.02   0.06  -0.01     0.02  -0.03  -0.00
  39   6     0.21  -0.24  -0.04     0.06   0.04  -0.02     0.14  -0.07  -0.04
  40   6     0.04   0.16  -0.02    -0.06  -0.00   0.02    -0.02   0.09   0.03
  41   6     0.04   0.17   0.01    -0.06   0.02   0.04    -0.02   0.04   0.01
  42   6    -0.00  -0.05   0.07    -0.03  -0.04   0.16    -0.02  -0.14   0.18
  43   6     0.02  -0.04   0.03     0.02  -0.06   0.16    -0.06  -0.10   0.16
  44   6     0.05   0.03  -0.06     0.07   0.10  -0.08    -0.09   0.05  -0.15
  45   6     0.05   0.02  -0.03     0.07   0.13  -0.09    -0.09   0.03  -0.17
  46   6     0.02  -0.03   0.07     0.01   0.01   0.16    -0.07  -0.16   0.12
  47   6    -0.01  -0.04   0.06    -0.03  -0.01   0.16    -0.01  -0.15   0.18
  48   6    -0.08  -0.06  -0.12     0.05  -0.33  -0.13     0.07   0.27   0.09
  49   6    -0.09  -0.02  -0.00     0.06  -0.06  -0.04     0.07   0.06   0.02
  50   1    -0.01   0.04   0.04     0.02   0.19   0.06     0.02  -0.16  -0.05
  51   1     0.03  -0.00   0.01     0.02  -0.01  -0.01     0.02   0.01   0.01
  52   1     0.03  -0.03  -0.05     0.03  -0.14  -0.05     0.02   0.12   0.04
  53   1    -0.00  -0.02   0.06    -0.02   0.05  -0.03    -0.00   0.01  -0.06
  54   1    -0.03   0.04  -0.06    -0.03  -0.03   0.10     0.02  -0.07   0.09
  55   1    -0.03   0.05  -0.09    -0.04  -0.05   0.09     0.02  -0.06   0.08
  56   1    -0.01  -0.04   0.03    -0.02   0.01  -0.05    -0.00   0.03  -0.06
  57   1     0.00   0.04  -0.01    -0.01   0.00   0.00    -0.02   0.00  -0.01
  58   1     0.01   0.05  -0.01    -0.01  -0.02  -0.01    -0.02   0.02  -0.01
  59   1     0.01   0.02  -0.01    -0.00  -0.00   0.01    -0.00  -0.00  -0.00
  60   1     0.01   0.02  -0.02     0.00  -0.01   0.00     0.00  -0.00   0.01
  61   1     0.01   0.02   0.01     0.00  -0.02  -0.00     0.00  -0.01   0.00
  62   1    -0.00   0.01   0.01    -0.00  -0.02   0.00    -0.00  -0.01  -0.00
  63   1    -0.00  -0.03  -0.04    -0.00   0.01   0.00    -0.01   0.00  -0.01
  64   1    -0.04  -0.02   0.03     0.02   0.01  -0.01     0.00   0.00  -0.00
  65   1    -0.05  -0.00   0.03     0.02   0.00  -0.00     0.00   0.00  -0.00
  66   1    -0.04   0.02  -0.03     0.02  -0.02   0.00     0.01  -0.01  -0.00
  67   1     0.10  -0.06  -0.02     0.02   0.02  -0.01     0.06  -0.02  -0.02
  68   1    -0.01  -0.02   0.00     0.01   0.02  -0.01     0.01   0.00  -0.00
  69   1    -0.14  -0.01   0.06    -0.02   0.03   0.01    -0.08   0.02   0.03
  70   1    -0.00  -0.06   0.01     0.00   0.01  -0.00     0.00  -0.01  -0.00
  71   1     0.09  -0.10  -0.01     0.02   0.01  -0.01     0.06  -0.03  -0.02
  72   1     0.02   0.05  -0.01    -0.02  -0.00   0.01     0.01   0.03   0.01
  73   1     0.01   0.06   0.01    -0.02   0.01   0.01    -0.00   0.01   0.00
  74   1     0.01  -0.02   0.01     0.00  -0.04   0.06    -0.02  -0.02   0.06
  75   1     0.02   0.02  -0.04     0.03   0.05  -0.07    -0.03   0.06  -0.10
  76   1     0.02   0.02  -0.02     0.03   0.07  -0.07    -0.03   0.04  -0.11
  77   1     0.01  -0.01   0.03     0.00   0.00   0.06    -0.02  -0.06   0.04
  78   1    -0.04  -0.03  -0.05     0.02  -0.14  -0.05     0.02   0.12   0.04
  79   1    -0.04  -0.01   0.01     0.01  -0.01  -0.01     0.02   0.01   0.00
                     28                     29                     30
                        a                      a                      a 
 Frequencies --   251.9230               263.2613               273.2093
 Red. masses --    10.7384                10.3201                10.6810
 Frc consts  --     0.0000                 0.0000                 0.0000
 IR Inten    --     1.5544                 0.3535                 0.3004
 Raman Activ --     0.0000                 0.0000                 0.0000
 Depolar     --     0.0000                 0.0000                 0.0000
 Atom AN      X      Y      Z        X      Y      Z        X      Y      Z
   1   6    -0.03   0.02   0.00    -0.01  -0.02  -0.01     0.01   0.05  -0.02
   2   6    -0.03  -0.00  -0.00    -0.01   0.01   0.00    -0.05  -0.01  -0.01
   3   6    -0.03  -0.02  -0.00    -0.01   0.02   0.01    -0.04  -0.07   0.07
   4   6    -0.01  -0.01   0.01    -0.00   0.01   0.01     0.00  -0.05   0.10
   5   7    -0.01   0.00   0.00    -0.00  -0.01  -0.00     0.00   0.02   0.01
   6   6     0.02   0.08  -0.10     0.00  -0.01  -0.01    -0.03   0.08  -0.13
   7   6    -0.03   0.09  -0.06    -0.01  -0.01   0.01    -0.02   0.06  -0.11
   8   6    -0.07  -0.02   0.09    -0.02  -0.01  -0.01     0.02  -0.06   0.12
   9   6    -0.07  -0.04   0.07    -0.02  -0.01  -0.02     0.01  -0.03   0.05
  10   6    -0.04   0.04  -0.11    -0.01  -0.02  -0.01    -0.01   0.10  -0.15
  11   6     0.02   0.07  -0.10     0.01  -0.01  -0.02    -0.03   0.05  -0.09
  12   7     0.07  -0.00   0.01     0.01  -0.00  -0.02    -0.02  -0.13   0.18
  13   6     0.09  -0.02   0.02     0.01   0.03   0.03    -0.02  -0.14   0.19
  14   6     0.12  -0.03   0.03     0.02   0.06   0.08    -0.19  -0.07   0.10
  15   6     0.12  -0.05  -0.02     0.01   0.02   0.01    -0.19   0.13  -0.09
  16   6     0.12  -0.04  -0.03     0.01  -0.04  -0.07    -0.03   0.21  -0.14
  17   6     0.12  -0.02  -0.03     0.00  -0.06  -0.13    -0.02   0.13  -0.04
  18   7     0.09   0.02   0.03    -0.01  -0.07  -0.17     0.08   0.09   0.01
  19   6     0.09   0.04   0.04    -0.02  -0.01  -0.00     0.04   0.01   0.08
  20   6     0.09   0.06   0.04    -0.05   0.05   0.26     0.04  -0.01   0.02
  21   6     0.01   0.04  -0.01    -0.05   0.05   0.30    -0.00  -0.03  -0.02
  22   6    -0.07   0.11  -0.07     0.01  -0.07  -0.21    -0.03  -0.01  -0.02
  23   6    -0.04   0.21  -0.02     0.00  -0.09  -0.18    -0.03   0.03   0.03
  24   6     0.06   0.22   0.01    -0.05   0.01   0.29     0.02   0.03  -0.01
  25   6     0.13   0.12   0.00    -0.06   0.01   0.19     0.04  -0.00  -0.03
  26   6     0.11   0.08  -0.05    -0.03  -0.04  -0.14    -0.01  -0.02  -0.06
  27   6     0.05  -0.11  -0.03    -0.01  -0.02  -0.25    -0.00   0.00  -0.06
  28   6    -0.14  -0.15   0.04     0.02   0.05   0.13     0.03   0.02   0.06
  29   6    -0.22  -0.07   0.05     0.04   0.03   0.20     0.03   0.02   0.02
  30   6    -0.14   0.08  -0.05     0.03  -0.08  -0.24     0.02  -0.02  -0.07
  31   6     0.07   0.11  -0.06    -0.00  -0.08  -0.24    -0.02  -0.01  -0.02
  32   6     0.07   0.03  -0.03     0.01  -0.03  -0.08    -0.04  -0.01   0.09
  33   7     0.09  -0.06  -0.09     0.02   0.01   0.04    -0.09   0.04   0.10
  34   6    -0.10  -0.03   0.02     0.03   0.04   0.13    -0.01  -0.03   0.04
  35   6    -0.22  -0.06   0.11     0.03   0.12   0.08     0.07  -0.10   0.02
  36   6    -0.07  -0.11   0.06     0.03   0.11  -0.04     0.01  -0.09   0.03
  37   6     0.12  -0.20  -0.04     0.02   0.05  -0.06    -0.11  -0.09   0.06
  38   6    -0.07  -0.10   0.02    -0.03  -0.01   0.02    -0.01  -0.12   0.00
  39   6    -0.23  -0.04   0.07     0.00   0.01   0.12     0.04  -0.12  -0.00
  40   6     0.12  -0.01   0.01     0.01   0.02   0.01     0.14   0.12  -0.12
  41   6     0.12  -0.02  -0.01     0.01   0.05   0.05     0.14  -0.10   0.06
  42   6     0.03  -0.05   0.08     0.00  -0.01  -0.02     0.02   0.07  -0.12
  43   6    -0.03  -0.02   0.09     0.00  -0.02  -0.01     0.02   0.11  -0.18
  44   6    -0.07   0.04  -0.04     0.01  -0.01  -0.02     0.02  -0.03   0.07
  45   6    -0.07   0.02  -0.07     0.01  -0.01  -0.01     0.01  -0.06   0.15
  46   6    -0.02  -0.07   0.04     0.01  -0.02   0.00     0.03   0.09  -0.12
  47   6     0.02  -0.06   0.07     0.00  -0.01  -0.01     0.02   0.10  -0.16
  48   6    -0.02  -0.02   0.01    -0.00   0.02   0.01     0.05  -0.07   0.06
  49   6    -0.02  -0.01   0.00    -0.00   0.01   0.00     0.06  -0.01  -0.01
  50   1    -0.01   0.01   0.00    -0.00  -0.01  -0.01     0.00   0.04  -0.01
  51   1    -0.01   0.00  -0.00    -0.00   0.00   0.00    -0.03  -0.00  -0.01
  52   1    -0.01  -0.01   0.00    -0.00   0.01   0.00    -0.03  -0.03   0.03
  53   1    -0.01   0.04  -0.01    -0.00  -0.00   0.01    -0.00   0.02  -0.04
  54   1    -0.03  -0.02   0.07    -0.01  -0.00  -0.00     0.01  -0.05   0.09
  55   1    -0.03  -0.03   0.05    -0.01  -0.00  -0.01     0.01  -0.03   0.05
  56   1    -0.01   0.00  -0.04    -0.00  -0.01  -0.00    -0.01   0.04  -0.05
  57   1     0.04   0.00   0.02     0.01   0.03   0.04    -0.11  -0.05   0.04
  58   1     0.03  -0.02  -0.01     0.00   0.01   0.01    -0.11   0.06  -0.05
  59   1    -0.01  -0.01  -0.01    -0.02   0.03   0.13    -0.00  -0.02  -0.01
  60   1    -0.04   0.02  -0.04     0.02  -0.04  -0.16    -0.02  -0.00  -0.01
  61   1    -0.03   0.08  -0.01     0.01  -0.04  -0.13    -0.01   0.02   0.02
  62   1     0.02   0.08   0.00    -0.02   0.01   0.14     0.01   0.02  -0.00
  63   1     0.04  -0.06  -0.01    -0.01  -0.01  -0.13    -0.01   0.01  -0.03
  64   1    -0.05  -0.07   0.03     0.01   0.03   0.09     0.01   0.01   0.04
  65   1    -0.09  -0.02   0.03     0.02   0.02   0.14     0.01   0.01   0.01
  66   1    -0.08   0.06  -0.02     0.01  -0.03  -0.11     0.01  -0.01  -0.03
  67   1    -0.10  -0.02   0.04     0.02   0.06   0.03     0.03  -0.04  -0.00
  68   1    -0.02  -0.03   0.01     0.02   0.04  -0.03     0.00  -0.02   0.00
  69   1     0.10  -0.08  -0.04     0.01   0.01  -0.04    -0.06  -0.02   0.03
  70   1    -0.01  -0.02   0.01    -0.02  -0.02   0.00     0.00  -0.03  -0.00
  71   1    -0.09  -0.01   0.04     0.00  -0.01   0.05     0.03  -0.05   0.00
  72   1     0.03   0.00   0.02     0.00   0.01   0.01     0.09   0.05  -0.06
  73   1     0.04  -0.01  -0.00     0.00   0.02   0.02     0.09  -0.06   0.02
  74   1    -0.01   0.00   0.03     0.00  -0.01   0.00     0.01   0.04  -0.06
  75   1    -0.03   0.03  -0.03     0.00  -0.00  -0.01     0.01  -0.03   0.06
  76   1    -0.03   0.02  -0.05     0.00  -0.00  -0.00    -0.00  -0.05   0.11
  77   1    -0.01  -0.03   0.01     0.00  -0.01   0.01     0.01   0.03  -0.04
  78   1    -0.01  -0.01   0.00    -0.00   0.01   0.00     0.03  -0.03   0.03
  79   1    -0.00  -0.00  -0.00    -0.00   0.00   0.00     0.03  -0.00  -0.01
                     31                     32                     33
                        a                      a                      a 
 Frequencies --   302.5038               304.8091               330.8160
 Red. masses --    10.9735                10.9971                11.0306
 Frc consts  --     0.0000                 0.0000                 0.0000
 IR Inten    --     2.6729                10.3278                 5.0676
 Raman Activ --     0.0000                 0.0000                 0.0000
 Depolar     --     0.0000                 0.0000                 0.0000
 Atom AN      X      Y      Z        X      Y      Z        X      Y      Z
   1   6    -0.11  -0.02  -0.01    -0.11   0.03   0.01    -0.01  -0.03  -0.02
   2   6    -0.09   0.02  -0.01    -0.08  -0.00  -0.02    -0.02   0.01   0.00
   3   6    -0.08   0.02  -0.00    -0.07  -0.03  -0.04    -0.02   0.02   0.03
   4   6    -0.02  -0.01   0.01    -0.02   0.01  -0.01    -0.00  -0.03   0.02
   5   7     0.02  -0.02  -0.01     0.02   0.04   0.01     0.00  -0.03  -0.03
   6   6     0.09   0.04  -0.03     0.07   0.07   0.02     0.03   0.00  -0.05
   7   6     0.00   0.07   0.05     0.03   0.12   0.00    -0.01  -0.00   0.01
   8   6    -0.11   0.02   0.03    -0.02   0.06   0.07    -0.06  -0.03   0.01
   9   6    -0.11  -0.03  -0.02    -0.03   0.03   0.05    -0.06  -0.03  -0.04
  10   6    -0.01  -0.06  -0.06     0.01   0.04  -0.02    -0.01  -0.05  -0.05
  11   6     0.11   0.03  -0.06     0.07   0.04   0.03     0.04  -0.00  -0.05
  12   7     0.17   0.01  -0.03     0.17  -0.03   0.07     0.01  -0.02   0.03
  13   6     0.17   0.08   0.10     0.17  -0.13  -0.13     0.01   0.14   0.19
  14   6     0.17   0.13   0.15     0.11  -0.12  -0.19    -0.00   0.15   0.15
  15   6     0.15  -0.01  -0.08     0.11   0.06  -0.01    -0.00  -0.01  -0.14
  16   6     0.07  -0.10  -0.18     0.08   0.15   0.19    -0.01  -0.05  -0.21
  17   6     0.03  -0.06  -0.09     0.03   0.10   0.12     0.01   0.01   0.05
  18   7    -0.02  -0.00   0.08     0.01   0.05  -0.04    -0.05   0.08   0.29
  19   6    -0.05   0.04   0.24    -0.00  -0.04  -0.20    -0.01  -0.00  -0.15
  20   6    -0.10   0.03  -0.01    -0.07   0.03  -0.05    -0.03   0.03  -0.06
  21   6    -0.02   0.01  -0.17    -0.05   0.07   0.11    -0.02   0.05   0.01
  22   6     0.05  -0.04   0.03     0.02  -0.01   0.01     0.00   0.03   0.01
  23   6     0.00  -0.10   0.18     0.01  -0.12  -0.11    -0.01  -0.03  -0.05
  24   6    -0.06  -0.16  -0.10    -0.07  -0.08   0.09    -0.04  -0.02   0.03
  25   6    -0.13  -0.07  -0.13    -0.12  -0.02   0.08    -0.05  -0.00   0.04
  26   6    -0.14  -0.04  -0.08    -0.15  -0.01   0.07    -0.03   0.00   0.07
  27   6    -0.11   0.09  -0.07    -0.13   0.09   0.06    -0.03   0.02   0.22
  28   6    -0.01   0.15   0.09    -0.04   0.09  -0.11    -0.02  -0.04  -0.21
  29   6     0.06   0.06  -0.03     0.02   0.03  -0.01    -0.00  -0.04  -0.02
  30   6     0.01  -0.07  -0.08    -0.01  -0.06   0.10    -0.00  -0.01   0.24
  31   6    -0.08  -0.06   0.07    -0.08  -0.08  -0.02    -0.00  -0.06  -0.13
  32   6    -0.04   0.03   0.26    -0.04  -0.05  -0.19     0.02  -0.06  -0.40
  33   7    -0.02  -0.01   0.03    -0.04   0.03   0.04     0.05  -0.03  -0.13
  34   6    -0.03   0.01  -0.03    -0.01  -0.00   0.01     0.09   0.01   0.14
  35   6    -0.05   0.03  -0.03     0.04  -0.03  -0.00     0.09   0.07   0.11
  36   6     0.00   0.02  -0.02    -0.00  -0.02   0.01    -0.03   0.09   0.01
  37   6     0.04   0.05  -0.01    -0.04  -0.02   0.02     0.00  -0.02  -0.06
  38   6    -0.00   0.07   0.01     0.02  -0.03  -0.01     0.01  -0.10  -0.00
  39   6    -0.02   0.06  -0.02     0.02  -0.03  -0.01     0.01  -0.04   0.15
  40   6     0.14  -0.02  -0.02     0.18   0.03   0.07     0.02  -0.01  -0.14
  41   6     0.15   0.09   0.13     0.19  -0.18  -0.20     0.03   0.15   0.16
  42   6     0.08  -0.04  -0.02     0.13  -0.02   0.08    -0.02  -0.01  -0.05
  43   6     0.01  -0.01   0.01    -0.01   0.09   0.05     0.01  -0.04  -0.05
  44   6    -0.04  -0.02  -0.04    -0.13   0.04   0.04     0.05  -0.04  -0.04
  45   6    -0.04  -0.06  -0.05    -0.13  -0.02  -0.01     0.05  -0.05  -0.00
  46   6     0.03  -0.11  -0.02     0.01  -0.06  -0.06     0.01  -0.02  -0.00
  47   6     0.07  -0.06  -0.02     0.10  -0.03   0.03    -0.01  -0.01  -0.06
  48   6    -0.07   0.02   0.04    -0.08  -0.03   0.00     0.00   0.01   0.03
  49   6    -0.07  -0.00   0.02    -0.09  -0.02   0.01     0.01   0.01   0.01
  50   1    -0.03  -0.01  -0.01    -0.03   0.02   0.01    -0.00  -0.02  -0.01
  51   1    -0.02   0.01   0.00    -0.01  -0.00  -0.00    -0.01   0.01   0.00
  52   1    -0.03   0.01   0.01    -0.03  -0.02  -0.01    -0.01   0.01   0.01
  53   1     0.00   0.04   0.04     0.01   0.05  -0.00    -0.00   0.01   0.02
  54   1    -0.05   0.01   0.02    -0.02   0.02   0.03    -0.02  -0.01   0.02
  55   1    -0.05  -0.02  -0.00    -0.02  -0.00   0.02    -0.02  -0.02  -0.01
  56   1    -0.00  -0.05  -0.02     0.00   0.00  -0.03    -0.00  -0.03  -0.01
  57   1     0.05   0.06   0.08     0.02  -0.06  -0.08    -0.00   0.05   0.07
  58   1     0.06  -0.01  -0.02     0.03   0.01  -0.01    -0.01  -0.01  -0.06
  59   1     0.00   0.02  -0.08    -0.01   0.04   0.06    -0.00   0.02   0.01
[...]
 Depolar     --     0.0000                 0.0000                 0.0000
 Atom AN      X      Y      Z        X      Y      Z        X      Y      Z
   1   6     0.17   0.00   0.00    -0.01  -0.00   0.00     0.00   0.00  -0.00
   2   6     0.07   0.04  -0.12    -0.00  -0.00   0.01     0.00   0.00  -0.00
   3   6    -0.04   0.02  -0.06    -0.00   0.00  -0.00    -0.00   0.00  -0.00
   4   6    -0.01  -0.00  -0.00    -0.00   0.00   0.00     0.00  -0.00   0.00
   5   7     0.00   0.00   0.00    -0.00   0.00   0.00    -0.00   0.00  -0.00
   6   6    -0.00   0.00   0.00     0.00  -0.00  -0.00    -0.00   0.00   0.00
   7   6    -0.01  -0.00   0.00    -0.01   0.00   0.00    -0.01  -0.00   0.00
   8   6     0.00   0.00   0.00     0.00   0.00   0.00    -0.00  -0.00  -0.00
   9   6    -0.00   0.00   0.00    -0.00   0.01   0.00    -0.00   0.00   0.00
  10   6     0.00   0.00  -0.00     0.00   0.00  -0.00     0.00   0.00  -0.00
  11   6     0.00   0.00  -0.00    -0.00  -0.00  -0.00     0.00   0.00   0.00
  12   7    -0.00   0.00   0.00     0.00   0.00   0.00    -0.00  -0.00  -0.00
  13   6     0.00  -0.00   0.00     0.00   0.00   0.00     0.00   0.00  -0.00
  14   6    -0.00  -0.00   0.00     0.00  -0.00   0.00     0.03  -0.04   0.02
  15   6     0.00   0.00  -0.00    -0.00  -0.00   0.00    -0.14  -0.19   0.12
  16   6    -0.00   0.00  -0.00     0.00   0.00  -0.00    -0.01  -0.00   0.00
  17   6     0.00   0.00  -0.00    -0.00  -0.00   0.00    -0.00  -0.00   0.00
  18   7    -0.00  -0.00   0.00     0.00   0.00  -0.00    -0.00   0.00  -0.00
  19   6     0.00  -0.00   0.00    -0.00   0.00  -0.00     0.00  -0.00  -0.00
  20   6     0.00  -0.00   0.00    -0.00   0.00  -0.00     0.00   0.00   0.00
  21   6     0.00  -0.00   0.00    -0.00   0.00  -0.00     0.01  -0.00   0.00
  22   6     0.00  -0.00   0.00    -0.00   0.00  -0.00     0.00  -0.00   0.00
  23   6    -0.00  -0.00   0.00     0.00   0.00  -0.00    -0.00  -0.00   0.00
  24   6    -0.00   0.00  -0.00     0.00  -0.00   0.00    -0.00   0.00  -0.00
  25   6    -0.00   0.00  -0.00     0.00   0.00   0.00    -0.00   0.00  -0.00
  26   6    -0.00  -0.00   0.00     0.00  -0.00   0.00     0.00  -0.00   0.00
  27   6    -0.00  -0.00   0.00     0.00   0.00  -0.00    -0.00  -0.00   0.00
  28   6    -0.00   0.00  -0.00     0.00  -0.00   0.00    -0.00   0.00  -0.00
  29   6    -0.00   0.00  -0.00     0.00  -0.00   0.00     0.00  -0.00   0.00
  30   6    -0.00  -0.00   0.00     0.00   0.00  -0.00    -0.01  -0.01   0.00
  31   6    -0.00  -0.00   0.00    -0.00   0.00  -0.00    -0.00  -0.00   0.00
  32   6     0.00   0.00  -0.00     0.00  -0.00   0.00    -0.00   0.00  -0.00
  33   7    -0.00   0.00  -0.00     0.00  -0.00   0.00     0.00  -0.00   0.00
  34   6     0.00   0.00  -0.00    -0.00  -0.00   0.00     0.00   0.00  -0.00
  35   6     0.00  -0.00   0.00    -0.00   0.00  -0.00    -0.00   0.00  -0.00
  36   6     0.00   0.00   0.00    -0.00  -0.00  -0.00    -0.00  -0.00  -0.00
  37   6     0.00   0.00  -0.00     0.00   0.00  -0.00     0.00   0.00  -0.00
  38   6    -0.00   0.00  -0.00     0.00  -0.00   0.00    -0.00   0.00  -0.00
  39   6    -0.00  -0.00  -0.00     0.00   0.00   0.00    -0.00  -0.00  -0.00
  40   6     0.00  -0.00   0.00    -0.00   0.00  -0.00     0.01  -0.02   0.01
  41   6     0.00   0.00  -0.00     0.00  -0.00   0.00    -0.00  -0.00   0.00
  42   6     0.00  -0.00  -0.00    -0.00   0.00  -0.00     0.00  -0.00  -0.00
  43   6    -0.00  -0.00  -0.00    -0.07   0.00  -0.01     0.00   0.00  -0.00
  44   6     0.00   0.01   0.00     0.08   0.12   0.08    -0.00  -0.00  -0.00
  45   6    -0.00   0.01   0.00    -0.08   0.12   0.06    -0.00   0.00   0.00
  46   6     0.00   0.00   0.00     0.12  -0.00   0.00    -0.01   0.00  -0.00
  47   6    -0.00  -0.00  -0.00     0.00   0.00   0.00    -0.00  -0.00  -0.00
  48   6    -0.04  -0.02   0.07     0.00   0.00  -0.00    -0.00  -0.00   0.00
  49   6     0.07  -0.04   0.12    -0.00   0.00  -0.01     0.00  -0.00   0.00
  50   1    -0.56  -0.00  -0.00     0.03   0.00  -0.00    -0.00  -0.00   0.00
  51   1    -0.24  -0.13   0.39     0.01   0.01  -0.02    -0.00  -0.00   0.00
  52   1     0.13  -0.07   0.21     0.00  -0.00   0.01     0.00  -0.00   0.00
  53   1     0.03   0.00  -0.00     0.02   0.00  -0.00     0.03   0.00  -0.00
  54   1    -0.01  -0.01  -0.01    -0.01  -0.02  -0.01     0.00   0.01   0.00
  55   1     0.01  -0.01  -0.01     0.01  -0.02  -0.01     0.00  -0.00  -0.00
  56   1    -0.01  -0.00   0.00    -0.01  -0.00   0.00    -0.01  -0.00   0.00
  57   1    -0.00   0.00  -0.00    -0.00   0.01  -0.00    -0.07   0.11  -0.07
  58   1    -0.00  -0.01   0.00     0.01   0.02  -0.01     0.48   0.69  -0.42
  59   1    -0.01   0.00  -0.00     0.00  -0.00   0.00    -0.03   0.01  -0.00
  60   1    -0.00   0.00  -0.00     0.00  -0.00   0.00    -0.00   0.01  -0.00
  61   1     0.00   0.00  -0.00    -0.00  -0.00   0.00     0.01   0.01  -0.00
  62   1     0.01  -0.00   0.00    -0.00   0.00  -0.00     0.02  -0.00   0.00
  63   1     0.01   0.01  -0.00    -0.00  -0.00   0.00     0.01   0.01  -0.00
  64   1     0.01  -0.00   0.00    -0.00   0.00  -0.00     0.00  -0.00   0.00
  65   1     0.00  -0.00   0.00    -0.00   0.00  -0.00    -0.00   0.00  -0.00
  66   1     0.00   0.00  -0.00    -0.00  -0.00   0.00     0.03   0.02  -0.00
  67   1    -0.00   0.00  -0.00     0.00  -0.00   0.00     0.00  -0.00   0.01
  68   1    -0.00  -0.00  -0.00     0.00   0.00   0.00     0.00   0.00   0.00
  69   1    -0.00  -0.00   0.00    -0.00  -0.00   0.00    -0.00  -0.00   0.00
  70   1     0.00  -0.00   0.00    -0.00   0.00  -0.00     0.00  -0.00   0.00
  71   1     0.00   0.00   0.00    -0.00  -0.00  -0.00     0.00   0.00   0.00
  72   1    -0.00   0.00  -0.00     0.00  -0.00   0.00    -0.04   0.06  -0.04
  73   1    -0.00  -0.00   0.00     0.00   0.00  -0.00     0.00   0.01  -0.00
  74   1     0.01  -0.00   0.00     0.26  -0.01   0.02    -0.00  -0.00   0.00
  75   1    -0.01  -0.02  -0.01    -0.29  -0.42  -0.28     0.00   0.01   0.00
  76   1     0.01  -0.02  -0.01     0.29  -0.43  -0.22     0.00  -0.00  -0.00
  77   1    -0.01  -0.00  -0.00    -0.45   0.01  -0.02     0.04  -0.00   0.00
  78   1     0.14   0.07  -0.22    -0.00  -0.00   0.00     0.00   0.00  -0.00
  79   1    -0.24   0.13  -0.40     0.01  -0.01   0.02    -0.00   0.00  -0.00
                    226                    227                    228
                        a                      a                      a 
 Frequencies --  3112.8290              3113.1519              3116.1349
 Red. masses --     1.8614                 1.8603                 1.8220
 Frc consts  --     0.0000                 0.0000                 0.0000
 IR Inten    --    33.2882               353.3320                60.7931
 Raman Activ --     0.0000                 0.0000                 0.0000
 Depolar     --     0.0000                 0.0000                 0.0000
 Atom AN      X      Y      Z        X      Y      Z        X      Y      Z
   1   6    -0.00   0.00  -0.00     0.00   0.00  -0.00     0.00   0.00   0.00
   2   6     0.00  -0.00  -0.00    -0.00  -0.00   0.00     0.00   0.00  -0.00
   3   6     0.00  -0.00   0.00     0.00  -0.00   0.01    -0.00   0.00  -0.00
   4   6    -0.00  -0.00  -0.00     0.00  -0.00  -0.00     0.00  -0.00  -0.00
   5   7     0.00   0.00   0.00    -0.00   0.00   0.00    -0.00   0.00   0.00
   6   6     0.00  -0.00  -0.00    -0.00   0.00   0.00     0.00  -0.00  -0.00
   7   6     0.19   0.01  -0.01    -0.14  -0.00   0.01     0.00   0.00   0.00
   8   6     0.05   0.07   0.04    -0.03  -0.05  -0.03    -0.00  -0.00  -0.00
   9   6    -0.01   0.02   0.01     0.01  -0.01  -0.01     0.00  -0.00  -0.00
  10   6     0.07   0.00  -0.01    -0.05  -0.00   0.00     0.01   0.00  -0.00
  11   6     0.00   0.00   0.00    -0.00  -0.00  -0.00     0.00   0.00   0.00
  12   7     0.00  -0.00   0.00    -0.00   0.00   0.00     0.00   0.00  -0.00
  13   6    -0.00   0.00   0.00     0.00  -0.00   0.00     0.00   0.00  -0.00
  14   6     0.00  -0.00   0.00    -0.00   0.00  -0.00     0.00  -0.00   0.00
  15   6    -0.00  -0.00   0.00     0.01   0.01  -0.01    -0.00  -0.01   0.00
  16   6     0.00   0.00  -0.00     0.00   0.00  -0.00    -0.00  -0.00   0.00
  17   6     0.00   0.00  -0.00    -0.00  -0.00   0.00    -0.00  -0.00   0.00
  18   7    -0.00  -0.00   0.00     0.00   0.00  -0.00     0.00   0.00  -0.00
  19   6     0.00  -0.00   0.00    -0.00   0.00  -0.00    -0.00   0.00  -0.00
  20   6    -0.00   0.00  -0.00    -0.00  -0.00   0.00     0.00  -0.00   0.00
  21   6    -0.00   0.00  -0.00    -0.00   0.00  -0.00     0.00  -0.00   0.00
  22   6     0.00  -0.00   0.00    -0.00   0.00  -0.00     0.00  -0.00   0.00
  23   6    -0.00  -0.00   0.00     0.00   0.00  -0.00    -0.00  -0.00   0.00
  24   6    -0.00   0.00  -0.00     0.00  -0.00   0.00    -0.00   0.00  -0.00
  25   6    -0.00  -0.00   0.00     0.00   0.00  -0.00     0.00   0.00  -0.00
  26   6     0.00   0.00  -0.00    -0.00  -0.00   0.00    -0.00  -0.00   0.00
  27   6    -0.00  -0.00   0.00     0.00   0.00  -0.00    -0.01  -0.00   0.00
  28   6     0.00   0.00  -0.00     0.00  -0.00   0.00    -0.02   0.00  -0.00
  29   6     0.00  -0.00   0.00     0.00   0.00  -0.00    -0.01   0.05  -0.01
  30   6    -0.00  -0.00   0.00     0.00   0.00  -0.00     0.20   0.17  -0.01
  31   6    -0.00  -0.00   0.00     0.00   0.00  -0.00     0.01   0.00   0.00
  32   6     0.00   0.00  -0.00    -0.00  -0.00   0.00     0.00  -0.00  -0.00
  33   7    -0.00  -0.00   0.00     0.00   0.00  -0.00    -0.00  -0.00  -0.00
  34   6     0.00   0.00  -0.00    -0.00  -0.00   0.00     0.00  -0.00   0.00
  35   6     0.00  -0.00   0.00     0.00   0.00   0.00     0.00  -0.00   0.00
  36   6     0.00   0.00   0.00    -0.00  -0.00  -0.00     0.00   0.00   0.00
  37   6     0.00   0.00  -0.00     0.00   0.00  -0.00     0.00   0.00  -0.00
  38   6    -0.00   0.00  -0.00     0.00  -0.00   0.00    -0.00   0.00  -0.00
  39   6     0.00   0.00   0.00    -0.00   0.00  -0.00    -0.00  -0.00  -0.01
  40   6     0.00  -0.00   0.00    -0.01   0.01  -0.01     0.00  -0.00   0.00
  41   6    -0.00  -0.00   0.00     0.00   0.00  -0.00     0.00   0.00  -0.00
  42   6     0.00   0.00   0.00    -0.00   0.00   0.00     0.00  -0.00  -0.00
  43   6    -0.05   0.00  -0.00    -0.07   0.00  -0.01     0.01  -0.00   0.00
  44   6     0.01   0.01   0.01     0.01   0.02   0.01     0.00   0.00   0.00
  45   6    -0.04   0.06   0.03    -0.05   0.07   0.04    -0.00   0.00   0.00
  46   6    -0.14   0.00  -0.01    -0.19   0.00  -0.01    -0.00  -0.00  -0.00
  47   6    -0.00  -0.00  -0.00    -0.00  -0.00  -0.00     0.00   0.00   0.00
  48   6    -0.00  -0.00   0.00     0.00   0.00  -0.01     0.00   0.00  -0.00
  49   6    -0.00  -0.00   0.00    -0.00   0.00  -0.00     0.00  -0.00   0.00
  50   1     0.00   0.00   0.00    -0.01   0.00   0.00    -0.00  -0.00   0.00
  51   1     0.00   0.00   0.00     0.00   0.00  -0.00    -0.00  -0.00   0.00
  52   1    -0.00   0.00  -0.00    -0.01   0.01  -0.02     0.00  -0.00   0.00
  53   1    -0.67  -0.02   0.03     0.49   0.01  -0.02    -0.00  -0.00   0.00
  54   1    -0.15  -0.23  -0.12     0.11   0.17   0.09     0.00   0.00   0.00
  55   1     0.04  -0.06  -0.04    -0.03   0.04   0.03    -0.00   0.00   0.00
  56   1    -0.23  -0.01   0.02     0.18   0.01  -0.01    -0.03  -0.00   0.00
  57   1    -0.00   0.00  -0.00     0.00  -0.00   0.00    -0.00   0.01  -0.00
  58   1     0.00   0.00  -0.00    -0.02  -0.03   0.02     0.02   0.02  -0.01
  59   1     0.00  -0.00   0.00     0.00  -0.00   0.00    -0.01   0.00  -0.00
  60   1    -0.00   0.00  -0.00     0.00  -0.00   0.00    -0.00   0.00  -0.00
  61   1     0.00   0.00  -0.00    -0.00  -0.00   0.00     0.00   0.00  -0.00
  62   1     0.00  -0.00   0.00    -0.00   0.00  -0.00     0.01  -0.00   0.00
  63   1     0.00   0.00  -0.00    -0.00  -0.00   0.00     0.02   0.02  -0.00
  64   1    -0.00   0.00  -0.00    -0.00   0.00  -0.00     0.05  -0.01   0.00
  65   1    -0.00   0.00  -0.00     0.00  -0.00   0.00     0.02  -0.12   0.01
  66   1     0.00   0.00  -0.00    -0.01  -0.01   0.00    -0.72  -0.62   0.06
  67   1    -0.00   0.00  -0.00    -0.00   0.00  -0.00    -0.00   0.00  -0.01
  68   1    -0.00  -0.00  -0.00     0.00   0.00   0.00    -0.00  -0.00  -0.01
  69   1    -0.00  -0.00   0.00    -0.00  -0.00  -0.00    -0.00  -0.01   0.00
  70   1     0.00  -0.00   0.00    -0.00   0.00  -0.00     0.00  -0.00   0.01
  71   1    -0.00  -0.00  -0.00    -0.00  -0.00  -0.00     0.01   0.01   0.01
  72   1    -0.01   0.01  -0.01     0.03  -0.04   0.03    -0.00   0.00  -0.00
  73   1     0.00   0.00  -0.00    -0.00  -0.01   0.00    -0.00  -0.00   0.00
  74   1     0.18  -0.01   0.01     0.25  -0.01   0.02    -0.04   0.00  -0.00
  75   1    -0.03  -0.05  -0.03    -0.04  -0.06  -0.04    -0.00  -0.01  -0.00
  76   1     0.12  -0.18  -0.09     0.16  -0.24  -0.12     0.00  -0.00  -0.00
  77   1     0.48  -0.01   0.02     0.65  -0.01   0.03     0.00  -0.00   0.00
  78   1     0.01   0.00  -0.01    -0.01  -0.01   0.02    -0.00  -0.00   0.00
  79   1    -0.00   0.00  -0.00     0.00  -0.00   0.00    -0.00   0.00  -0.00
                    229                    230                    231
                        a                      a                      a 
 Frequencies --  3117.2711              3117.7198              3118.7161
 Red. masses --     1.8689                 1.8656                 1.8271
 Frc consts  --     0.0000                 0.0000                 0.0000
 IR Inten    --    40.1342                34.0677                43.6673
 Raman Activ --     0.0000                 0.0000                 0.0000
 Depolar     --     0.0000                 0.0000                 0.0000
 Atom AN      X      Y      Z        X      Y      Z        X      Y      Z
   1   6     0.00  -0.00   0.00    -0.00  -0.00   0.00    -0.00   0.00  -0.00
   2   6    -0.00  -0.00   0.00     0.00   0.00  -0.00    -0.00  -0.00   0.00
   3   6     0.00   0.00   0.00    -0.00   0.00  -0.00     0.00  -0.00   0.00
   4   6     0.00  -0.00   0.00    -0.00  -0.00   0.00     0.00  -0.00   0.00
   5   7    -0.00  -0.00  -0.00     0.00  -0.00  -0.00    -0.00   0.00  -0.00
   6   6    -0.00   0.00   0.00     0.00   0.00   0.00    -0.00   0.00   0.00
   7   6    -0.04  -0.00   0.00     0.03   0.00  -0.00    -0.02  -0.00   0.00
   8   6    -0.03  -0.04  -0.02     0.02   0.03   0.01    -0.01  -0.01  -0.01
   9   6     0.04  -0.06  -0.04    -0.03   0.04   0.03     0.01  -0.01  -0.01
  10   6     0.19   0.01  -0.02    -0.15  -0.01   0.01     0.03   0.00  -0.00
  11   6     0.00   0.00   0.00    -0.00  -0.00  -0.00     0.00   0.00   0.00
  12   7     0.00   0.00   0.00    -0.00  -0.00   0.00     0.00  -0.00  -0.00
  13   6    -0.00   0.00   0.00     0.00   0.00  -0.00    -0.00   0.00  -0.00
  14   6    -0.00  -0.00   0.00     0.00  -0.00   0.00    -0.00   0.00  -0.00
  15   6     0.00   0.00  -0.00     0.00   0.00  -0.00     0.01   0.02  -0.01
  16   6     0.00   0.00  -0.00     0.00  -0.00   0.00     0.01  -0.00   0.00
  17   6    -0.00  -0.00  -0.00     0.00   0.00  -0.00     0.00  -0.00  -0.00
  18   7     0.00  -0.00  -0.00    -0.00  -0.00   0.00    -0.00  -0.00   0.00
  19   6    -0.00   0.00  -0.00     0.00  -0.00   0.00     0.00   0.00   0.00
  20   6     0.00  -0.00   0.00    -0.00  -0.00  -0.00    -0.00  -0.00  -0.00
  21   6    -0.00   0.00  -0.00     0.00   0.00   0.00    -0.00   0.00  -0.00
  22   6    -0.00   0.00  -0.00     0.00  -0.00   0.00    -0.00   0.00  -0.00
  23   6     0.00   0.00  -0.00    -0.00  -0.00   0.00     0.00   0.00  -0.00
  24   6     0.00  -0.00   0.00    -0.00   0.00  -0.00     0.00  -0.00   0.00
  25   6     0.00   0.00  -0.00    -0.00  -0.00   0.00     0.00   0.00  -0.00
  26   6     0.00  -0.00   0.00    -0.00   0.00  -0.00     0.00   0.00   0.00
  27   6     0.00   0.00  -0.00    -0.00  -0.00   0.00     0.00   0.00  -0.00
  28   6     0.00  -0.00   0.00    -0.00   0.00  -0.00     0.00  -0.00   0.00
  29   6     0.00  -0.00   0.00    -0.00   0.00  -0.00     0.00  -0.00   0.00
  30   6     0.00   0.00  -0.00     0.01   0.01  -0.00    -0.00  -0.00   0.00
  31   6    -0.00   0.00  -0.00     0.00  -0.00   0.00    -0.00   0.00  -0.00
  32   6     0.00  -0.00   0.00    -0.00   0.00  -0.00    -0.00  -0.00   0.00
  33   7     0.00  -0.00   0.00    -0.00   0.00  -0.00    -0.00  -0.00  -0.00
  34   6     0.00   0.00   0.00     0.00   0.00  -0.00     0.00   0.00  -0.00
  35   6     0.00  -0.00   0.00    -0.00   0.00  -0.00    -0.00   0.00  -0.01
  36   6     0.00   0.00   0.00    -0.00  -0.00  -0.00    -0.00  -0.00  -0.00
  37   6    -0.00  -0.00   0.00     0.00   0.00   0.00    -0.00  -0.00   0.00
  38   6     0.00  -0.00   0.00    -0.00   0.00  -0.00     0.00  -0.00   0.00
  39   6     0.00   0.00   0.00     0.00  -0.00  -0.00     0.00  -0.00   0.00
  40   6     0.00  -0.00   0.00     0.03  -0.04   0.03     0.13  -0.18   0.13
  41   6    -0.00  -0.00   0.00    -0.00  -0.00   0.00    -0.02  -0.03   0.02
  42   6    -0.00   0.00   0.00    -0.00   0.00   0.00     0.00  -0.00  -0.00
  43   6    -0.15   0.00  -0.01    -0.19   0.01  -0.01     0.04  -0.00   0.00
  44   6    -0.03  -0.05  -0.03    -0.04  -0.06  -0.04     0.01   0.02   0.01
  45   6     0.02  -0.03  -0.01     0.03  -0.04  -0.02    -0.01   0.01   0.01
  46   6     0.03  -0.00   0.00     0.04  -0.00   0.00    -0.02   0.00  -0.00
  47   6     0.00   0.00   0.00     0.00   0.00  -0.00    -0.00  -0.00  -0.00
  48   6     0.00   0.00  -0.00    -0.00  -0.00   0.00     0.00   0.00  -0.00
  49   6    -0.00   0.00  -0.00     0.00  -0.00   0.00    -0.00   0.00  -0.00
  50   1    -0.00  -0.00  -0.00     0.00  -0.00  -0.00     0.00   0.00   0.00
  51   1     0.00   0.00  -0.00    -0.00  -0.00   0.00     0.00   0.00  -0.00
  52   1    -0.00   0.00  -0.00     0.00  -0.00   0.00    -0.00   0.00  -0.00
  53   1     0.14   0.00  -0.01    -0.11  -0.00   0.01     0.06   0.00  -0.00
  54   1     0.08   0.12   0.06    -0.06  -0.09  -0.05     0.02   0.04   0.02
  55   1    -0.12   0.18   0.12     0.09  -0.13  -0.09    -0.03   0.04   0.03
  56   1    -0.68  -0.03   0.05     0.52   0.02  -0.04    -0.10  -0.00   0.01
  57   1    -0.00   0.00  -0.00    -0.01   0.01  -0.01     0.01  -0.01   0.01
  58   1    -0.01  -0.01   0.00    -0.00  -0.01   0.00    -0.04  -0.06   0.04
  59   1     0.00  -0.00   0.00    -0.00   0.00  -0.00     0.01  -0.00   0.00
  60   1     0.00  -0.00   0.00    -0.00   0.00  -0.00     0.00  -0.01   0.00
  61   1    -0.00  -0.00   0.00     0.00   0.00  -0.00    -0.00  -0.00   0.00
  62   1    -0.00   0.00  -0.00     0.00  -0.00   0.00    -0.01   0.00  -0.00
  63   1    -0.00  -0.00   0.00     0.00   0.00  -0.00    -0.01  -0.01   0.00
  64   1    -0.00   0.00  -0.00     0.00  -0.00   0.00    -0.01   0.00  -0.00
  65   1    -0.00   0.00  -0.00     0.00  -0.01   0.00    -0.00   0.01  -0.00
  66   1    -0.00  -0.00   0.00    -0.03  -0.03   0.00     0.01   0.01  -0.00
  67   1    -0.00   0.00  -0.00     0.00  -0.00   0.01     0.01  -0.01   0.03
  68   1    -0.00  -0.00  -0.00     0.00   0.00   0.00     0.01   0.01   0.01
  69   1     0.00   0.00  -0.00    -0.00  -0.00   0.00     0.00   0.01  -0.00
  70   1    -0.00   0.00  -0.00     0.00  -0.00   0.00    -0.00   0.00   0.00
  71   1    -0.00  -0.00  -0.00     0.00   0.00   0.00    -0.00  -0.00  -0.00
  72   1    -0.01   0.01  -0.01    -0.11   0.16  -0.11    -0.45   0.66  -0.46
  73   1     0.00   0.01  -0.00     0.01   0.01  -0.01     0.06   0.08  -0.06
  74   1     0.53  -0.02   0.04     0.65  -0.02   0.05    -0.15   0.00  -0.01
  75   1     0.10   0.14   0.10     0.12   0.18   0.12    -0.04  -0.05  -0.03
  76   1    -0.06   0.10   0.05    -0.08   0.12   0.06     0.03  -0.04  -0.02
  77   1    -0.11   0.00  -0.01    -0.14   0.00  -0.01     0.06  -0.00   0.00
  78   1    -0.00  -0.00   0.00     0.00   0.00  -0.00    -0.00  -0.00   0.00
  79   1     0.00  -0.00   0.00    -0.00   0.00  -0.00     0.00  -0.00   0.00
