 Entering Gaussian System
 *********************************************
 Gaussian 98:
 frequency output generated by the xtb code
 *********************************************
                         Standard orientation:
 --------------------------------------------------------------------
  Center     Atomic     Atomic              Coordinates (Angstroms)
  Number     Number      Type              X           Y           Z
 --------------------------------------------------------------------
    1          6             0       -9.870246    2.409298   -0.597811
    2          6             0       -8.678587    3.368229   -0.668557
    3          6             0       -8.838331    4.408048    0.449968
    4          6             0       -8.708302    4.066010   -2.035786
    5          6             0       -7.344931    2.657338   -0.497650
    6          6             0       -6.165086    3.413951   -0.529720
    7          6             0       -4.912817    2.858816   -0.363028
    8          6             0       -4.828092    1.491820   -0.141377
    9          6             0       -5.999145    0.701305   -0.151779
   10          6             0       -7.245706    1.285252   -0.322267
   11          6             0       -5.572715   -0.660193    0.021906
   12          6             0       -6.259445   -1.863154    0.096179
   13          6             0       -5.560638   -3.043693    0.299000
   14          6             0       -6.244554   -4.400554    0.367251
   15          6             0       -7.759556   -4.306928    0.166408
   16          6             0       -5.674086   -5.304204   -0.735508
   17          6             0       -5.984147   -5.030576    1.742927
   18          6             0       -4.169261   -2.977827    0.457967
   19          6             0       -3.461823   -1.795110    0.389408
   20          6             0       -4.165254   -0.625867    0.137557
   21          7             0       -3.723005    0.680313    0.035848
   22          6             0       -2.399388    1.091969    0.096652
   23          6             0       -2.022313    2.233589    0.830974
   24          6             0       -0.715834    2.618095    0.906850
   25          6             0        0.327557    1.879943    0.272191
   26          6             0        1.691207    2.225321    0.400013
   27          6             0        2.125705    3.542253    0.778263
   28          6             0        3.438408    3.881933    0.874651
   29          6             0        4.436893    2.906351    0.639104
   30          6             0        4.017072    1.577205    0.312762
   31          6             0        2.716017    1.248969    0.168100
   32          6             0        5.233827    0.669403    0.175533
   33          6             0        6.362166    1.657416    0.358446
   34          6             0        7.711433    1.428996    0.295575
   35          6             0        8.587004    2.492927    0.521726
   36          6             0        8.095916    3.765221    0.811621
   37          6             0        6.742994    4.011291    0.880269
   38          6             0        5.848045    2.952981    0.650377
   39          6             0        5.196397    0.007595   -1.177148
   40          6             0        5.696078    0.658975   -2.292256
   41          6             0        5.532351    0.131920   -3.561210
   42          6             0        4.828929   -1.049490   -3.720588
   43          6             0        4.329152   -1.717833   -2.620532
   44          6             0        4.527947   -1.215218   -1.333498
   45          7             0        4.066424   -1.898845   -0.216155
   46          6             0        3.180213   -2.999461   -0.357273
   47          6             0        3.622481   -4.220641   -0.853192
   48          6             0        2.733897   -5.272836   -0.985052
   49          6             0        1.407191   -5.115274   -0.619638
   50          6             0        0.969224   -3.903490   -0.112380
   51          6             0        1.851518   -2.846808    0.021751
   52          6             0        4.524042   -1.574667    1.053737
   53          6             0        4.375070   -2.477290    2.108093
   54          6             0        4.858026   -2.171685    3.364726
   55          6             0        5.505901   -0.968926    3.588874
   56          6             0        5.655766   -0.069462    2.547795
   57          6             0        5.172270   -0.355497    1.281902
   58          6             0       -0.087523    0.746494   -0.492076
   59          6             0       -1.394673    0.371269   -0.577867
   60          1             0       -9.904803    1.898603    0.361817
   61          1             0      -10.794822    2.971646   -0.712268
   62          1             0       -9.826851    1.670835   -1.395034
   63          1             0       -8.053100    5.157707    0.411118
   64          1             0       -8.797708    3.922177    1.422740
   65          1             0       -9.796781    4.914445    0.356638
   66          1             0       -9.665518    4.562148   -2.182015
   67          1             0       -8.571295    3.337524   -2.832308
   68          1             0       -7.922985    4.812024   -2.118541
   69          1             0       -6.224085    4.478507   -0.696528
   70          1             0       -4.029668    3.475929   -0.422049
   71          1             0       -8.117147    0.652057   -0.318754
   72          1             0       -7.331996   -1.852049   -0.002527
   73          1             0       -8.221491   -3.704919    0.945459
   74          1             0       -8.193317   -5.303907    0.212159
   75          1             0       -7.999739   -3.880850   -0.804997
   76          1             0       -5.838537   -4.853767   -1.712276
   77          1             0       -6.165064   -6.274944   -0.715828
   78          1             0       -4.606573   -5.460901   -0.608670
   79          1             0       -6.363801   -4.382858    2.530427
   80          1             0       -6.486448   -5.993027    1.814950
   81          1             0       -4.922961   -5.187803    1.914246
   82          1             0       -3.616198   -3.884946    0.648563
   83          1             0       -2.393949   -1.785813    0.545185
   84          1             0       -2.778631    2.774114    1.380922
   85          1             0       -0.459129    3.467304    1.520289
   86          1             0        1.375914    4.301706    0.940204
   87          1             0        3.728798    4.891462    1.127452
   88          1             0        2.436314    0.236183   -0.071925
   89          1             0        8.094572    0.442569    0.074942
   90          1             0        9.652833    2.328266    0.474244
   91          1             0        8.795403    4.571069    0.984410
   92          1             0        6.368766    4.999174    1.103671
   93          1             0        6.207123    1.601232   -2.160400
   94          1             0        5.929791    0.651864   -4.419225
   95          1             0        4.665598   -1.457091   -4.707239
   96          1             0        3.774631   -2.632762   -2.761796
   97          1             0        4.661163   -4.339528   -1.125030
   98          1             0        3.080261   -6.220308   -1.370444
   99          1             0        0.717002   -5.938696   -0.725613
  100          1             0       -0.063136   -3.778683    0.178691
  101          1             0        1.516334   -1.903113    0.426910
  102          1             0        3.883042   -3.423064    1.936748
  103          1             0        4.731274   -2.880395    4.169581
  104          1             0        5.886187   -0.727962    4.569667
  105          1             0        6.147560    0.876257    2.720121
  106          1             0        0.643850    0.207751   -1.074486
  107          1             0       -1.680739   -0.457269   -1.209522
 --------------------------------------------------------------------
     1 basis functions        1 primitive gaussians
     1 alpha electrons        1 beta electrons
 
 Harmonic frequencies (cm**-1), IR intensities (km*mol⁻¹),
 Raman scattering activities (A**4/amu), Raman depolarization ratios,
 reduced masses (AMU), force constants (mDyne/A) and normal coordinates:
                      1                      2                      3
                        a                      a                      a 
 Frequencies --     5.8460                 7.8470                11.7886
 Red. masses --    10.8659                10.6544                10.7167
 Frc consts  --     0.0000                 0.0000                 0.0000
 IR Inten    --     0.3745                 0.0348                 0.0461
 Raman Activ --     0.0000                 0.0000                 0.0000
 Depolar     --     0.0000                 0.0000                 0.0000
 Atom AN      X      Y      Z        X      Y      Z        X      Y      Z
   1   6    -0.02  -0.11   0.09    -0.00  -0.03  -0.09    -0.04   0.04   0.21
   2   6    -0.04  -0.08   0.07    -0.00  -0.03  -0.12    -0.04   0.03   0.15
   3   6    -0.04  -0.09   0.08    -0.01   0.02  -0.17     0.03   0.03   0.17
   4   6    -0.09  -0.08   0.08     0.00  -0.09  -0.15    -0.10   0.04   0.16
   5   6    -0.02  -0.05   0.04    -0.00  -0.02  -0.08    -0.03   0.03   0.08
   6   6    -0.04  -0.02   0.02    -0.00  -0.02  -0.11    -0.03   0.02   0.03
   7   6    -0.02   0.01  -0.01    -0.00  -0.01  -0.08    -0.02   0.01  -0.03
   8   6     0.01   0.01  -0.02    -0.00  -0.00  -0.03    -0.02   0.01  -0.03
   9   6     0.03  -0.02   0.01    -0.00  -0.00   0.00    -0.02   0.02   0.01
  10   6     0.01  -0.05   0.03    -0.00  -0.01  -0.03    -0.03   0.02   0.07
  11   6     0.07  -0.01  -0.01     0.00   0.00   0.06    -0.02   0.02  -0.01
  12   6     0.10  -0.03   0.00     0.00   0.01   0.11    -0.02   0.02   0.02
  13   6     0.13  -0.01  -0.01     0.01   0.02   0.16    -0.02   0.02  -0.01
  14   6     0.17  -0.03  -0.00     0.01   0.02   0.23    -0.03   0.02   0.01
  15   6     0.16  -0.06   0.03     0.01   0.01   0.22    -0.04   0.03   0.08
  16   6     0.17  -0.01  -0.01     0.01  -0.03   0.27    -0.08   0.02  -0.01
  17   6     0.21  -0.02  -0.01     0.01   0.09   0.26     0.02   0.02   0.00
  18   6     0.13   0.03  -0.04     0.01   0.02   0.15    -0.02   0.01  -0.06
  19   6     0.10   0.04  -0.05     0.00   0.02   0.10    -0.01   0.01  -0.08
  20   6     0.07   0.03  -0.03     0.00   0.01   0.05    -0.02   0.01  -0.06
  21   7     0.04   0.04  -0.05    -0.00   0.01   0.01    -0.02   0.01  -0.08
  22   6     0.03   0.06  -0.07    -0.00   0.01  -0.00    -0.02   0.01  -0.09
  23   6     0.03   0.06  -0.08    -0.00   0.03  -0.03    -0.01   0.01  -0.10
  24   6     0.03   0.07  -0.09    -0.00   0.03  -0.03    -0.01   0.02  -0.11
  25   6     0.03   0.07  -0.09    -0.00   0.01  -0.01    -0.01   0.01  -0.11
  26   6     0.03   0.05  -0.07    -0.00   0.01  -0.00    -0.01   0.02  -0.11
  27   6     0.05   0.04  -0.06     0.00   0.00   0.01    -0.02   0.02  -0.13
  28   6     0.05   0.02  -0.03     0.00  -0.00   0.03    -0.02   0.02  -0.11
  29   6     0.04  -0.00  -0.01     0.00  -0.01   0.04    -0.02   0.01  -0.06
  30   6     0.02   0.01  -0.02    -0.00  -0.00   0.02    -0.02   0.01  -0.05
  31   6     0.01   0.03  -0.06    -0.00   0.00   0.01    -0.01   0.01  -0.08
  32   6    -0.00  -0.02   0.01    -0.00  -0.01   0.02    -0.01   0.00   0.01
  33   6     0.02  -0.05   0.03    -0.00  -0.02   0.07    -0.02  -0.00   0.04
  34   6     0.01  -0.08   0.05    -0.00  -0.03   0.10    -0.01  -0.01   0.10
  35   6     0.03  -0.10   0.07     0.00  -0.04   0.14    -0.02  -0.01   0.12
  36   6     0.05  -0.08   0.06     0.00  -0.04   0.14    -0.02  -0.00   0.07
  37   6     0.06  -0.05   0.03     0.00  -0.03   0.11    -0.03   0.01   0.01
  38   6     0.04  -0.04   0.01     0.00  -0.02   0.08    -0.02   0.01  -0.01
  39   6     0.01  -0.04   0.01     0.02   0.04   0.00     0.05  -0.02   0.02
  40   6     0.07  -0.07   0.02     0.04   0.07   0.03     0.08  -0.03   0.03
  41   6     0.08  -0.08   0.02     0.06   0.11   0.01     0.15  -0.06   0.03
  42   6     0.03  -0.05   0.02     0.06   0.12  -0.04     0.19  -0.08   0.02
  43   6    -0.02  -0.02   0.01     0.04   0.08  -0.07     0.15  -0.07   0.01
  44   6    -0.03  -0.01   0.01     0.02   0.04  -0.05     0.08  -0.04   0.01
  45   7    -0.09   0.02   0.01     0.00   0.01  -0.09     0.04  -0.03   0.00
  46   6    -0.14   0.06   0.01     0.01   0.01  -0.13     0.09  -0.06  -0.03
  47   6    -0.20   0.04   0.01     0.02   0.03  -0.17     0.17  -0.06   0.06
  48   6    -0.25   0.09   0.00     0.02   0.03  -0.22     0.23  -0.10   0.03
  49   6    -0.25   0.15  -0.00     0.02   0.01  -0.23     0.19  -0.14  -0.08
  50   6    -0.19   0.17  -0.00     0.01  -0.01  -0.19     0.10  -0.13  -0.17
  51   6    -0.14   0.13   0.00     0.00  -0.01  -0.14     0.05  -0.09  -0.14
  52   6    -0.09   0.01   0.01    -0.02  -0.03  -0.06    -0.04   0.01   0.02
  53   6    -0.14   0.02   0.02    -0.04  -0.07  -0.09    -0.09   0.04   0.04
  54   6    -0.15   0.01   0.02    -0.07  -0.10  -0.07    -0.17   0.08   0.06
  55   6    -0.11  -0.01   0.02    -0.08  -0.11  -0.02    -0.19   0.09   0.06
  56   6    -0.06  -0.02   0.02    -0.06  -0.08   0.01    -0.14   0.06   0.05
  57   6    -0.05  -0.01   0.02    -0.03  -0.04  -0.01    -0.07   0.03   0.03
  58   6     0.02   0.08  -0.10    -0.00  -0.00   0.01    -0.02   0.01  -0.10
  59   6     0.03   0.07  -0.09    -0.00  -0.00   0.01    -0.02   0.01  -0.10
  60   1     0.00  -0.03   0.03    -0.00   0.00  -0.02     0.00   0.01   0.06
  61   1    -0.01  -0.04   0.03    -0.00  -0.01  -0.03    -0.01   0.01   0.08
  62   1    -0.00  -0.03   0.03     0.00  -0.02  -0.02    -0.02   0.01   0.06
  63   1    -0.02  -0.02   0.02    -0.00   0.01  -0.06     0.01   0.01   0.04
  64   1    -0.00  -0.03   0.02    -0.00   0.02  -0.04     0.02   0.01   0.05
  65   1    -0.02  -0.03   0.03    -0.00   0.00  -0.06     0.01   0.01   0.06
  66   1    -0.03  -0.03   0.03     0.00  -0.03  -0.05    -0.03   0.01   0.06
  67   1    -0.03  -0.02   0.02     0.00  -0.03  -0.03    -0.04   0.01   0.04
  68   1    -0.03  -0.02   0.02     0.00  -0.03  -0.05    -0.03   0.01   0.04
  69   1    -0.02  -0.01   0.01    -0.00  -0.01  -0.04    -0.01   0.01   0.01
  70   1    -0.01   0.01  -0.01    -0.00  -0.00  -0.03    -0.01   0.00  -0.02
  71   1     0.01  -0.02   0.01    -0.00  -0.00  -0.00    -0.01   0.01   0.03
  72   1     0.03  -0.02   0.01     0.00   0.00   0.03    -0.01   0.01   0.02
  73   1     0.05  -0.02   0.01     0.00   0.01   0.06    -0.00   0.01   0.03
  74   1     0.05  -0.02   0.01     0.00   0.00   0.08    -0.01   0.01   0.03
  75   1     0.04  -0.02   0.01     0.00  -0.01   0.06    -0.02   0.01   0.02
  76   1     0.04  -0.00  -0.00     0.00  -0.02   0.07    -0.03   0.01  -0.00
  77   1     0.06  -0.01  -0.00     0.00  -0.01   0.09    -0.02   0.01   0.00
  78   1     0.05   0.00  -0.01     0.00  -0.01   0.08    -0.02   0.00  -0.02
  79   1     0.06  -0.01   0.00     0.00   0.04   0.07     0.02   0.00   0.01
  80   1     0.07  -0.01  -0.00     0.00   0.03   0.09     0.01   0.01   0.01
  81   1     0.06   0.00  -0.01     0.00   0.03   0.08     0.01   0.00  -0.01
  82   1     0.05   0.01  -0.01     0.00   0.01   0.06    -0.00   0.00  -0.02
  83   1     0.03   0.02  -0.02     0.00   0.01   0.03    -0.00   0.00  -0.03
  84   1     0.01   0.02  -0.02    -0.00   0.01  -0.01    -0.00   0.00  -0.03
  85   1     0.01   0.02  -0.03    -0.00   0.01  -0.01    -0.00   0.01  -0.03
  86   1     0.02   0.02  -0.02     0.00   0.00  -0.00    -0.01   0.01  -0.05
  87   1     0.02   0.00  -0.01     0.00  -0.00   0.01    -0.01   0.01  -0.04
  88   1    -0.00   0.01  -0.02    -0.00   0.00  -0.00    -0.00   0.00  -0.02
  89   1    -0.00  -0.02   0.02    -0.00  -0.01   0.03    -0.00  -0.00   0.04
  90   1     0.01  -0.03   0.03    -0.00  -0.01   0.05    -0.00  -0.00   0.05
  91   1     0.02  -0.03   0.02     0.00  -0.01   0.05    -0.01  -0.00   0.03
  92   1     0.02  -0.01   0.01     0.00  -0.01   0.03    -0.01   0.00  -0.01
  93   1     0.03  -0.03   0.01     0.01   0.02   0.02     0.02  -0.01   0.01
  94   1     0.03  -0.03   0.01     0.02   0.04   0.01     0.05  -0.02   0.01
  95   1     0.01  -0.02   0.01     0.02   0.04  -0.02     0.07  -0.03   0.01
  96   1    -0.02   0.00   0.00     0.01   0.03  -0.03     0.05  -0.03   0.00
  97   1    -0.06  -0.00   0.00     0.01   0.01  -0.05     0.06  -0.01   0.04
  98   1    -0.09   0.02   0.00     0.01   0.01  -0.07     0.08  -0.03   0.03
  99   1    -0.08   0.05  -0.00     0.01   0.00  -0.08     0.07  -0.05  -0.03
 100   1    -0.05   0.07  -0.00     0.00  -0.01  -0.06     0.02  -0.05  -0.07
 101   1    -0.03   0.04   0.00    -0.00  -0.01  -0.03    -0.00  -0.03  -0.06
 102   1    -0.05   0.01   0.01    -0.01  -0.02  -0.04    -0.02   0.01   0.01
 103   1    -0.06   0.01   0.01    -0.03  -0.04  -0.03    -0.06   0.03   0.02
 104   1    -0.03  -0.00   0.01    -0.03  -0.04  -0.00    -0.07   0.03   0.02
 105   1    -0.01  -0.01   0.01    -0.02  -0.02   0.01    -0.05   0.02   0.02
 106   1     0.01   0.03  -0.03    -0.00  -0.00   0.01    -0.01   0.00  -0.03
 107   1     0.01   0.02  -0.03     0.00  -0.01   0.01    -0.01   0.00  -0.03
                      4                      5                      6
                        a                      a                      a 
 Frequencies --    19.1198                24.4006                30.5884
 Red. masses --    10.6985                10.7620                 8.8386
 Frc consts  --     0.0000                 0.0000                 0.0000
 IR Inten    --     2.3279                 0.0294                 0.1135
 Raman Activ --     0.0000                 0.0000                 0.0000
 Depolar     --     0.0000                 0.0000                 0.0000
 Atom AN      X      Y      Z        X      Y      Z        X      Y      Z
   1   6    -0.05  -0.09  -0.14    -0.05  -0.00   0.19     0.01   0.04   0.18
   2   6    -0.08  -0.05  -0.06    -0.06  -0.00   0.06     0.03  -0.00  -0.06
   3   6    -0.17  -0.07  -0.06     0.03   0.03   0.05     0.07   0.23  -0.27
   4   6    -0.04  -0.03  -0.06    -0.17  -0.04   0.05     0.01  -0.29  -0.20
   5   6    -0.06  -0.00  -0.01    -0.04   0.01  -0.03     0.02   0.00   0.03
   6   6    -0.08   0.04   0.04    -0.05   0.01  -0.11     0.02  -0.01  -0.01
   7   6    -0.07   0.08   0.08    -0.03   0.02  -0.18     0.02  -0.01   0.02
   8   6    -0.03   0.08   0.06    -0.01   0.02  -0.16     0.01  -0.00   0.07
   9   6    -0.01   0.04   0.02    -0.01   0.02  -0.09     0.00   0.00   0.10
  10   6    -0.02   0.00  -0.02    -0.02   0.01  -0.02     0.01   0.01   0.08
  11   6     0.03   0.05   0.02     0.01   0.02  -0.09     0.00   0.00   0.10
  12   6     0.07   0.03  -0.01     0.02   0.02  -0.02    -0.00   0.00   0.09
  13   6     0.10   0.05  -0.00     0.03   0.03  -0.02    -0.00  -0.01   0.03
  14   6     0.14   0.03  -0.05     0.04   0.03   0.06     0.00  -0.01  -0.04
  15   6     0.15  -0.03  -0.12     0.03   0.02   0.19    -0.03   0.02   0.23
  16   6     0.23   0.06  -0.03    -0.05   0.01   0.04    -0.18   0.17  -0.29
  17   6     0.10   0.02  -0.04     0.16   0.06   0.06     0.22  -0.24  -0.19
  18   6     0.09   0.10   0.05     0.04   0.04  -0.11     0.00  -0.02  -0.01
  19   6     0.05   0.12   0.09     0.03   0.04  -0.17     0.01  -0.02   0.01
  20   6     0.02   0.10   0.07     0.01   0.03  -0.16     0.00  -0.01   0.07
  21   7    -0.01   0.12   0.09     0.00   0.04  -0.22     0.01  -0.01   0.07
  22   6    -0.02   0.12   0.07    -0.01   0.05  -0.18     0.01  -0.00   0.05
  23   6    -0.00   0.12   0.06    -0.03   0.04  -0.16     0.01  -0.00   0.05
  24   6     0.00   0.11   0.05    -0.03   0.03  -0.09     0.00   0.01   0.03
  25   6    -0.01   0.09   0.06    -0.01   0.02  -0.04     0.00   0.01   0.02
  26   6    -0.00   0.06   0.06    -0.01  -0.00   0.04     0.00   0.01   0.02
  27   6     0.04   0.05   0.05    -0.00  -0.02   0.08     0.01   0.01   0.02
  28   6     0.05   0.02   0.03    -0.00  -0.03   0.11     0.01   0.01   0.01
  29   6     0.02  -0.00   0.01    -0.01  -0.03   0.10     0.01   0.01   0.00
  30   6    -0.02   0.01   0.02    -0.01  -0.02   0.08    -0.00   0.01   0.00
  31   6    -0.03   0.03   0.05    -0.01  -0.01   0.06    -0.00   0.01   0.01
  32   6    -0.04  -0.02  -0.00    -0.01  -0.02   0.04    -0.01   0.00  -0.00
  33   6    -0.02  -0.05  -0.03    -0.01  -0.01   0.03    -0.00  -0.00  -0.01
  34   6    -0.02  -0.08  -0.05    -0.01  -0.01  -0.01    -0.00  -0.01  -0.01
  35   6     0.01  -0.10  -0.08    -0.01  -0.01  -0.01     0.00  -0.01  -0.01
  36   6     0.04  -0.09  -0.07    -0.01  -0.02   0.03     0.01  -0.01  -0.01
  37   6     0.05  -0.06  -0.04    -0.00  -0.02   0.07     0.01  -0.00  -0.01
  38   6     0.02  -0.04  -0.02    -0.01  -0.02   0.07     0.01   0.00  -0.00
  39   6    -0.08  -0.01  -0.01    -0.06   0.02   0.03    -0.01   0.00  -0.00
  40   6    -0.12   0.00  -0.02    -0.12   0.05   0.02    -0.01   0.00  -0.00
  41   6    -0.15   0.00  -0.02    -0.18   0.09   0.01    -0.01  -0.00  -0.00
  42   6    -0.13  -0.01  -0.00    -0.18   0.09   0.02    -0.02   0.00  -0.00
  43   6    -0.09  -0.02   0.01    -0.12   0.05   0.02    -0.02   0.00   0.00
  44   6    -0.07  -0.02   0.00    -0.05   0.01   0.03    -0.02   0.01  -0.00
  45   7    -0.05  -0.03   0.01     0.01  -0.02   0.03    -0.02   0.01  -0.00
  46   6     0.02  -0.08  -0.01     0.02  -0.04   0.04    -0.01   0.00  -0.00
  47   6     0.12  -0.08   0.08     0.03  -0.02   0.00     0.01   0.00   0.02
  48   6     0.19  -0.14   0.08     0.04  -0.03   0.03     0.02  -0.01   0.01
  49   6     0.16  -0.19  -0.02     0.06  -0.07   0.09     0.01  -0.01  -0.02
  50   6     0.05  -0.19  -0.12     0.05  -0.08   0.13    -0.01  -0.01  -0.04
  51   6    -0.01  -0.13  -0.11     0.04  -0.07   0.10    -0.02  -0.00  -0.04
  52   6    -0.04  -0.03   0.00     0.06  -0.05   0.02    -0.02   0.01   0.00
  53   6    -0.05  -0.02   0.01     0.13  -0.08  -0.00    -0.04   0.02   0.00
  54   6    -0.05  -0.01   0.01     0.18  -0.11  -0.01    -0.04   0.02   0.01
  55   6    -0.05  -0.01   0.00     0.16  -0.10  -0.01    -0.03   0.01   0.00
  56   6    -0.05  -0.02  -0.00     0.09  -0.06   0.01    -0.02   0.01  -0.00
  57   6    -0.04  -0.02  -0.00     0.04  -0.04   0.02    -0.01   0.01  -0.00
  58   6    -0.02   0.11   0.05     0.02   0.04  -0.08     0.00   0.02   0.02
  59   6    -0.03   0.12   0.05     0.02   0.05  -0.15     0.00   0.01   0.03
  60   1    -0.02  -0.03  -0.04     0.01   0.00   0.06     0.02   0.05   0.08
  61   1    -0.02  -0.04  -0.05    -0.02  -0.00   0.08     0.00   0.01   0.05
  62   1     0.01  -0.02  -0.04    -0.03  -0.01   0.06    -0.02  -0.03   0.09
  63   1    -0.06  -0.01  -0.00     0.01   0.01  -0.01     0.02   0.07  -0.14
  64   1    -0.06  -0.02  -0.02     0.04   0.02   0.02     0.04   0.13  -0.05
  65   1    -0.05  -0.03  -0.03     0.01   0.00   0.03     0.02   0.06  -0.10
  66   1    -0.01  -0.02  -0.03    -0.05  -0.01   0.03     0.01  -0.08  -0.08
  67   1     0.01  -0.00  -0.02    -0.07  -0.02   0.02    -0.02  -0.13  -0.02
  68   1    -0.02   0.00  -0.00    -0.05  -0.01  -0.01     0.02  -0.10  -0.11
  69   1    -0.03   0.01   0.01    -0.02   0.00  -0.04     0.01  -0.01  -0.02
  70   1    -0.03   0.03   0.03    -0.01   0.01  -0.07     0.01  -0.01  -0.00
  71   1    -0.00  -0.01  -0.01    -0.01   0.00   0.01     0.00   0.00   0.03
  72   1     0.02  -0.00  -0.01     0.00   0.00   0.01    -0.00   0.00   0.03
  73   1     0.03  -0.02  -0.04     0.03   0.01   0.06     0.03  -0.01   0.10
  74   1     0.05  -0.01  -0.04     0.01   0.01   0.08    -0.01   0.01   0.06
  75   1     0.05  -0.01  -0.04    -0.02  -0.00   0.06    -0.06   0.03   0.09
  76   1     0.08   0.02  -0.01    -0.04  -0.01   0.01    -0.11   0.09  -0.05
  77   1     0.08   0.01  -0.02    -0.01   0.00   0.03    -0.04   0.04  -0.10
  78   1     0.07   0.03   0.01    -0.01   0.01  -0.02    -0.04   0.06  -0.15
  79   1     0.01   0.00  -0.01     0.07   0.02   0.02     0.11  -0.10  -0.01
  80   1     0.04   0.00  -0.02     0.05   0.02   0.04     0.06  -0.07  -0.07
  81   1     0.03   0.02   0.00     0.05   0.02  -0.01     0.07  -0.09  -0.12
  82   1     0.03   0.03   0.02     0.02   0.01  -0.03     0.00  -0.01  -0.02
  83   1     0.01   0.04   0.04     0.01   0.01  -0.07     0.00  -0.01  -0.00
  84   1     0.00   0.04   0.02    -0.01   0.01  -0.06     0.00  -0.00   0.01
  85   1     0.00   0.03   0.01    -0.02   0.01  -0.02     0.00   0.00   0.01
  86   1     0.02   0.02   0.02    -0.00  -0.00   0.03     0.00   0.00   0.01
  87   1     0.02   0.00   0.01    -0.00  -0.01   0.04     0.00   0.00   0.00
  88   1    -0.02   0.01   0.02    -0.00  -0.00   0.01    -0.00   0.00   0.00
  89   1    -0.01  -0.03  -0.02    -0.00   0.00  -0.01    -0.00  -0.00  -0.00
  90   1     0.00  -0.04  -0.03    -0.00  -0.00  -0.01     0.00  -0.00  -0.00
  91   1     0.02  -0.03  -0.03    -0.00  -0.01   0.01     0.00  -0.00  -0.00
  92   1     0.02  -0.01  -0.01    -0.00  -0.01   0.03     0.00  -0.00  -0.00
  93   1    -0.04   0.00  -0.01    -0.03   0.02   0.01    -0.00  -0.00  -0.00
  94   1    -0.05   0.00  -0.01    -0.07   0.03   0.00    -0.00  -0.00  -0.00
  95   1    -0.04  -0.00  -0.00    -0.07   0.03   0.00    -0.01  -0.00  -0.00
  96   1    -0.02  -0.01   0.01    -0.03   0.01   0.01    -0.01   0.00   0.00
  97   1     0.04  -0.01   0.04     0.00   0.00  -0.01     0.00   0.00   0.01
  98   1     0.08  -0.04   0.04     0.01  -0.01  -0.00     0.01  -0.00   0.01
  99   1     0.06  -0.07  -0.01     0.02  -0.02   0.03     0.00  -0.01  -0.01
 100   1     0.01  -0.07  -0.06     0.02  -0.03   0.05    -0.01  -0.00  -0.02
 101   1    -0.03  -0.04  -0.05     0.01  -0.02   0.04    -0.01   0.00  -0.02
 102   1    -0.02  -0.00   0.01     0.04  -0.03  -0.00    -0.01   0.01   0.00
 103   1    -0.02  -0.00   0.00     0.07  -0.04  -0.01    -0.02   0.01   0.00
 104   1    -0.01  -0.00   0.00     0.06  -0.03  -0.01    -0.01   0.00   0.00
 105   1    -0.01  -0.00  -0.00     0.02  -0.02   0.00    -0.00   0.00  -0.00
 106   1    -0.01   0.03   0.01     0.01   0.01  -0.02    -0.00   0.01   0.00
 107   1    -0.01   0.04   0.01     0.01   0.02  -0.05     0.00   0.00   0.01
                      7                      8                      9
                        a                      a                      a 
 Frequencies --    33.0488                36.5822                40.8417
 Red. masses --     8.6371                10.3083                10.6823
 Frc consts  --     0.0000                 0.0000                 0.0000
 IR Inten    --     0.0857                 0.3543                 0.6876
 Raman Activ --     0.0000                 0.0000                 0.0000
 Depolar     --     0.0000                 0.0000                 0.0000
 Atom AN      X      Y      Z        X      Y      Z        X      Y      Z
   1   6     0.02  -0.05  -0.39    -0.06  -0.05  -0.08    -0.09  -0.04   0.01
   2   6     0.01  -0.01  -0.06    -0.09  -0.02  -0.02    -0.11  -0.02  -0.02
   3   6    -0.13  -0.24   0.14    -0.15  -0.06   0.01    -0.15   0.03  -0.08
   4   6     0.13   0.27   0.08    -0.06   0.01   0.00    -0.11  -0.10  -0.06
   5   6     0.01  -0.01  -0.04    -0.07   0.01   0.01    -0.10   0.01   0.02
   6   6     0.00   0.00   0.02    -0.09   0.02   0.02    -0.11   0.04   0.05
   7   6     0.00   0.00   0.03    -0.08   0.05   0.04    -0.10   0.06   0.05
   8   6     0.00  -0.00  -0.00    -0.05   0.05   0.05    -0.07   0.06   0.02
   9   6     0.00  -0.00  -0.02    -0.04   0.03   0.05    -0.06   0.04   0.01
  10   6     0.01  -0.01  -0.05    -0.05   0.01   0.03    -0.07   0.01   0.01
  11   6     0.00  -0.00  -0.01    -0.03   0.04   0.06    -0.04   0.04  -0.01
  12   6    -0.00   0.00   0.03    -0.02   0.03   0.04    -0.02   0.03  -0.00
  13   6    -0.00   0.00   0.03    -0.00   0.04   0.03    -0.00   0.04  -0.01
  14   6    -0.01   0.01   0.08     0.02   0.02  -0.04     0.01   0.03   0.01
  15   6    -0.05   0.04   0.39     0.01   0.01  -0.01     0.01   0.01   0.01
  16   6    -0.23   0.09  -0.11     0.02   0.12  -0.12     0.03   0.02   0.03
  17   6     0.24  -0.11  -0.03     0.05  -0.08  -0.10     0.02   0.07   0.03
  18   6     0.00  -0.01  -0.04    -0.01   0.06   0.07    -0.00   0.06  -0.02
  19   6     0.01  -0.01  -0.06    -0.02   0.07   0.10    -0.02   0.07  -0.03
  20   6     0.00  -0.01  -0.03    -0.03   0.06   0.08    -0.04   0.06  -0.02
  21   7     0.00  -0.01  -0.02    -0.04   0.07   0.07    -0.06   0.07  -0.01
  22   6     0.00  -0.00  -0.01    -0.04   0.05   0.02    -0.05   0.06  -0.01
  23   6     0.00  -0.03   0.03    -0.00   0.09  -0.05    -0.03   0.02   0.05
  24   6     0.00  -0.02   0.04     0.01   0.07  -0.10    -0.01  -0.03   0.08
  25   6     0.00  -0.00   0.01    -0.01   0.01  -0.06    -0.02  -0.02   0.04
  26   6     0.00  -0.00   0.02    -0.01   0.00  -0.10    -0.02  -0.05   0.06
  27   6    -0.00  -0.01   0.05    -0.01   0.03  -0.20    -0.02  -0.09   0.21
  28   6    -0.00  -0.01   0.05    -0.01   0.03  -0.21    -0.03  -0.09   0.23
  29   6     0.00  -0.00   0.02    -0.01   0.00  -0.10    -0.02  -0.06   0.11
  30   6     0.00   0.00  -0.00    -0.01  -0.02  -0.03    -0.01  -0.03  -0.03
  31   6     0.00   0.00  -0.01    -0.01  -0.02  -0.03    -0.01  -0.02  -0.06
  32   6     0.00   0.00  -0.02    -0.00  -0.02   0.03     0.01  -0.00  -0.08
  33   6     0.00   0.00  -0.01    -0.01  -0.02   0.05    -0.00   0.01  -0.07
  34   6     0.00   0.01  -0.03    -0.01  -0.04   0.14    -0.00   0.05  -0.14
  35   6     0.00   0.01  -0.02    -0.01  -0.04   0.13    -0.02   0.05  -0.07
  36   6    -0.00   0.00   0.01    -0.01  -0.01   0.03    -0.04   0.01   0.09
  37   6     0.00  -0.00   0.03    -0.01   0.00  -0.06    -0.04  -0.03   0.17
  38   6     0.00  -0.00   0.02    -0.01  -0.00  -0.05    -0.02  -0.03   0.08
  39   6    -0.00  -0.00  -0.01     0.04  -0.02   0.03     0.06  -0.03  -0.07
  40   6     0.00  -0.01  -0.02     0.04   0.02   0.04     0.10  -0.07  -0.07
  41   6     0.01  -0.02  -0.01     0.07   0.04   0.03     0.21  -0.14  -0.05
  42   6     0.01  -0.02  -0.00     0.09   0.03   0.00     0.27  -0.18  -0.04
  43   6     0.00  -0.01  -0.00     0.09  -0.00  -0.02     0.22  -0.14  -0.04
  44   6    -0.00  -0.00  -0.01     0.08  -0.04  -0.00     0.12  -0.07  -0.05
  45   7    -0.01   0.01  -0.00     0.12  -0.08  -0.02     0.09  -0.04  -0.05
  46   6    -0.01   0.01  -0.00     0.08  -0.05   0.00     0.05  -0.01  -0.02
  47   6     0.01  -0.00   0.04    -0.03  -0.00  -0.22    -0.00  -0.05   0.04
  48   6     0.01  -0.01   0.04    -0.08   0.03  -0.19    -0.04  -0.02   0.08
  49   6     0.00  -0.00   0.00    -0.01   0.01   0.07    -0.04   0.06   0.06
  50   6    -0.01   0.01  -0.04     0.11  -0.04   0.30     0.00   0.10   0.00
  51   6    -0.02   0.01  -0.04     0.15  -0.08   0.26     0.05   0.06  -0.03
  52   6    -0.01   0.01  -0.00     0.08  -0.07  -0.01     0.08  -0.01  -0.05
  53   6    -0.02   0.02   0.00     0.16  -0.11  -0.03     0.11  -0.00  -0.04
  54   6    -0.02   0.03   0.00     0.12  -0.10  -0.02     0.12   0.02  -0.05
  55   6    -0.01   0.02  -0.01     0.01  -0.05   0.02     0.10   0.03  -0.07
  56   6     0.00   0.01  -0.01    -0.04  -0.02   0.04     0.06   0.03  -0.08
  57   6     0.00   0.01  -0.01    -0.00  -0.03   0.02     0.05   0.01  -0.07
  58   6     0.00   0.02  -0.02    -0.04  -0.03   0.02    -0.06   0.03  -0.02
  59   6     0.00   0.02  -0.03    -0.06  -0.00   0.05    -0.07   0.07  -0.04
  60   1    -0.04  -0.05  -0.14    -0.03  -0.02  -0.03    -0.02  -0.00   0.01
  61   1     0.01  -0.02  -0.13    -0.02  -0.02  -0.03    -0.03  -0.02  -0.00
  62   1     0.05   0.02  -0.14    -0.00  -0.01  -0.03    -0.02  -0.02   0.01
  63   1    -0.03  -0.07   0.11    -0.04  -0.01   0.02    -0.05   0.02  -0.03
  64   1    -0.08  -0.13   0.01    -0.05  -0.02  -0.00    -0.04   0.03  -0.02
  65   1    -0.03  -0.06   0.03    -0.04  -0.02  -0.00    -0.05  -0.00  -0.03
  66   1     0.03   0.07   0.02    -0.02  -0.01  -0.01    -0.03  -0.03  -0.03
  67   1     0.08   0.13  -0.02    -0.00   0.01  -0.00    -0.03  -0.04  -0.01
  68   1     0.02   0.10   0.09    -0.03   0.01   0.01    -0.03  -0.03  -0.03
  69   1     0.00   0.00   0.02    -0.03   0.01   0.00    -0.04   0.01   0.02
  70   1     0.00   0.00   0.02    -0.03   0.02   0.01    -0.03   0.02   0.02
  71   1     0.00  -0.00  -0.02    -0.01  -0.00   0.01    -0.02  -0.00  -0.00
  72   1    -0.00   0.00   0.02    -0.00   0.01   0.01    -0.01   0.01   0.00
  73   1     0.04   0.02   0.14     0.01  -0.01   0.01     0.00   0.00  -0.00
  74   1    -0.02   0.01   0.14     0.01   0.00  -0.01     0.01   0.00   0.00
  75   1    -0.07   0.01   0.13    -0.00   0.02   0.01     0.00  -0.00  -0.00
  76   1    -0.13   0.04  -0.01    -0.01   0.05  -0.02     0.01  -0.00   0.01
  77   1    -0.06   0.02  -0.02     0.01   0.03  -0.05     0.01   0.00   0.01
  78   1    -0.06   0.03  -0.10     0.01   0.04  -0.05     0.01   0.01   0.01
  79   1     0.13  -0.04   0.03     0.02  -0.04  -0.01     0.00   0.02   0.00
  80   1     0.06  -0.02   0.00     0.02  -0.03  -0.05     0.01   0.02   0.01
  81   1     0.08  -0.06  -0.07     0.02  -0.03  -0.04     0.01   0.03   0.01
  82   1     0.00  -0.00  -0.02    -0.00   0.02   0.02     0.00   0.02  -0.01
  83   1     0.00  -0.00  -0.03    -0.01   0.02   0.04    -0.01   0.03  -0.01
  84   1     0.00  -0.01   0.01     0.01   0.04  -0.02    -0.00   0.00   0.02
  85   1     0.00  -0.01   0.02     0.01   0.03  -0.04     0.00  -0.02   0.04
  86   1    -0.00  -0.01   0.02    -0.00   0.01  -0.08    -0.01  -0.03   0.09
  87   1    -0.00  -0.01   0.02    -0.00   0.01  -0.08    -0.01  -0.03   0.10
  88   1     0.00   0.00  -0.01    -0.00  -0.01   0.01    -0.00   0.00  -0.05
  89   1     0.00   0.00  -0.02    -0.00  -0.02   0.06     0.00   0.02  -0.07
  90   1     0.00   0.00  -0.01    -0.00  -0.01   0.06    -0.00   0.02  -0.04
  91   1    -0.00  -0.00   0.00    -0.00  -0.00   0.01    -0.01   0.00   0.05
  92   1    -0.00  -0.00   0.01    -0.01   0.01  -0.04    -0.02  -0.02   0.08
  93   1     0.00  -0.00  -0.01     0.00   0.01   0.02     0.01  -0.01  -0.02
  94   1     0.00  -0.01  -0.00     0.02   0.02   0.01     0.07  -0.05  -0.02
  95   1     0.00  -0.01  -0.00     0.03   0.02  -0.00     0.11  -0.07  -0.01
  96   1     0.00  -0.00   0.00     0.03  -0.00  -0.01     0.08  -0.05  -0.01
  97   1     0.00  -0.00   0.02    -0.02  -0.00  -0.11    -0.00  -0.03   0.02
  98   1     0.01  -0.00   0.02    -0.05   0.02  -0.10    -0.02  -0.01   0.04
  99   1     0.00  -0.00   0.00    -0.01   0.01   0.03    -0.02   0.02   0.02
 100   1    -0.01   0.00  -0.02     0.05  -0.02   0.14     0.00   0.04  -0.00
 101   1    -0.01   0.01  -0.02     0.07  -0.03   0.12     0.02   0.03  -0.02
 102   1    -0.01   0.01   0.00     0.07  -0.04  -0.02     0.04  -0.00  -0.01
 103   1    -0.01   0.01   0.00     0.05  -0.04  -0.01     0.04   0.01  -0.01
 104   1    -0.00   0.01  -0.00    -0.01  -0.01   0.01     0.03   0.01  -0.02
 105   1     0.00   0.00  -0.01    -0.03   0.01   0.02     0.01   0.01  -0.03
 106   1     0.00   0.01  -0.01    -0.02  -0.03   0.02    -0.02   0.01  -0.01
 107   1     0.00   0.01  -0.02    -0.02  -0.01   0.03    -0.03   0.03  -0.02
                     10                     11                     12
                        a                      a                      a 
 Frequencies --    46.5698                52.3808                58.3695
 Red. masses --    10.4534                10.7318                 9.9840
 Frc consts  --     0.0000                 0.0000                 0.0000
 IR Inten    --     0.3829                 0.3790                 0.9184
 Raman Activ --     0.0000                 0.0000                 0.0000
 Depolar     --     0.0000                 0.0000                 0.0000
 Atom AN      X      Y      Z        X      Y      Z        X      Y      Z
   1   6    -0.04  -0.03   0.01     0.02   0.00  -0.06    -0.00  -0.05  -0.06
   2   6    -0.05  -0.02   0.01     0.02   0.00  -0.01    -0.02  -0.03  -0.02
   3   6    -0.05  -0.04   0.03    -0.02   0.01  -0.03    -0.18   0.07  -0.14
   4   6    -0.08   0.01   0.02     0.08  -0.01  -0.02     0.13  -0.16  -0.09
   5   6    -0.04  -0.00  -0.01     0.01  -0.00   0.04    -0.02   0.01   0.15
   6   6    -0.05   0.00  -0.03     0.02  -0.01   0.05    -0.03   0.04   0.29
   7   6    -0.04   0.01  -0.04     0.01  -0.01   0.06    -0.03   0.05   0.28
   8   6    -0.03   0.02  -0.02     0.00  -0.01   0.07    -0.00   0.02   0.12
   9   6    -0.02   0.01  -0.01    -0.00  -0.00   0.08     0.01   0.01   0.06
  10   6    -0.03  -0.00  -0.00     0.00   0.00   0.07     0.00   0.00   0.07
  11   6    -0.02   0.02   0.01    -0.01  -0.01   0.07     0.02   0.00  -0.06
  12   6    -0.02   0.02   0.01    -0.01  -0.00   0.06     0.01   0.01  -0.08
  13   6    -0.02   0.02   0.02    -0.02  -0.01   0.03     0.01  -0.01  -0.15
  14   6    -0.01   0.01  -0.01    -0.02  -0.01  -0.01    -0.03   0.02   0.02
  15   6    -0.02   0.01  -0.01    -0.02  -0.00  -0.06    -0.03   0.04   0.06
  16   6    -0.01   0.06  -0.05     0.00   0.01  -0.01    -0.11  -0.16   0.12
  17   6    -0.01  -0.04  -0.04    -0.07  -0.03  -0.02     0.01   0.21   0.10
  18   6    -0.02   0.03   0.05    -0.02  -0.02   0.03     0.02  -0.03  -0.29
  19   6    -0.03   0.03   0.06    -0.01  -0.02   0.04     0.03  -0.04  -0.28
  20   6    -0.02   0.02   0.02    -0.00  -0.01   0.06     0.02  -0.01  -0.13
  21   7    -0.03   0.02   0.00     0.00  -0.02   0.06     0.01   0.01  -0.00
  22   6    -0.02   0.02  -0.00     0.00  -0.02  -0.00     0.01   0.01   0.00
  23   6    -0.02   0.04  -0.05     0.02  -0.00  -0.03     0.03  -0.06   0.11
  24   6    -0.01   0.03  -0.05     0.02   0.02  -0.10     0.03  -0.05   0.09
  25   6    -0.01  -0.01   0.01    -0.00   0.03  -0.15     0.01   0.01  -0.01
  26   6    -0.01  -0.02   0.00    -0.00   0.04  -0.17     0.01   0.01  -0.02
  27   6    -0.02   0.02  -0.11    -0.01   0.04  -0.15     0.01   0.03  -0.07
  28   6    -0.02   0.03  -0.15    -0.01   0.02  -0.07     0.01   0.03  -0.11
  29   6    -0.02   0.01  -0.05    -0.01   0.01  -0.02     0.00   0.02  -0.06
  30   6    -0.00  -0.03   0.07    -0.00   0.03  -0.09     0.00  -0.00   0.01
  31   6    -0.00  -0.04   0.10     0.00   0.04  -0.17     0.00  -0.00   0.01
  32   6     0.01  -0.01   0.10     0.00   0.03  -0.06     0.00  -0.01   0.05
  33   6    -0.00   0.01   0.06    -0.00   0.02  -0.00     0.00  -0.01   0.04
  34   6     0.00   0.03   0.08     0.00   0.01   0.08     0.00  -0.02   0.08
  35   6    -0.01   0.06  -0.02    -0.00  -0.02   0.26     0.00  -0.00   0.02
  36   6    -0.03   0.09  -0.16    -0.01  -0.05   0.36     0.00   0.02  -0.08
  37   6    -0.03   0.07  -0.18    -0.02  -0.04   0.26     0.00   0.03  -0.12
  38   6    -0.02   0.03  -0.06    -0.01  -0.00   0.07     0.00   0.02  -0.06
  39   6     0.02   0.00   0.09    -0.00   0.02  -0.06     0.01  -0.00   0.04
  40   6     0.08  -0.03   0.10     0.05  -0.03  -0.06     0.04  -0.01   0.05
  41   6     0.11  -0.04   0.10    -0.00  -0.04  -0.06     0.03   0.01   0.05
  42   6     0.09  -0.03   0.09    -0.10   0.02  -0.05    -0.00   0.03   0.03
  43   6     0.03   0.00   0.08    -0.14   0.06  -0.04    -0.03   0.04   0.02
  44   6    -0.01   0.02   0.07    -0.09   0.06  -0.05    -0.02   0.02   0.03
  45   7    -0.06   0.05   0.07    -0.12   0.10  -0.04    -0.03   0.02   0.02
  46   6    -0.05   0.04   0.03    -0.07   0.05  -0.01    -0.01   0.01   0.01
  47   6     0.01   0.00   0.18     0.01   0.03   0.13    -0.00   0.03  -0.03
  48   6     0.02   0.01   0.09     0.08  -0.04   0.24     0.01   0.01  -0.04
  49   6    -0.04   0.05  -0.15     0.07  -0.09   0.20     0.02  -0.02  -0.01
  50   6    -0.11   0.09  -0.30    -0.02  -0.05   0.04     0.01  -0.04   0.03
  51   6    -0.11   0.08  -0.21    -0.09   0.02  -0.06    -0.01  -0.03   0.04
  52   6     0.03  -0.03   0.05    -0.02   0.04  -0.06    -0.01  -0.01   0.02
  53   6     0.07  -0.08   0.02     0.03   0.01  -0.07     0.00  -0.03   0.01
  54   6     0.21  -0.17  -0.01     0.14  -0.05  -0.10     0.02  -0.05   0.01
  55   6     0.29  -0.21  -0.01     0.18  -0.07  -0.11     0.03  -0.06   0.02
  56   6     0.21  -0.14   0.03     0.12  -0.03  -0.09     0.02  -0.04   0.03
  57   6     0.07  -0.05   0.06     0.02   0.02  -0.07    -0.00  -0.02   0.04
  58   6    -0.01  -0.04   0.05    -0.02   0.02  -0.12    -0.00   0.07  -0.09
  59   6    -0.02  -0.02   0.04    -0.02  -0.01  -0.05    -0.00   0.08  -0.10
  60   1    -0.01  -0.01   0.00    -0.01   0.00  -0.02    -0.02  -0.00  -0.01
  61   1    -0.01  -0.01   0.01     0.01   0.00  -0.03    -0.00  -0.02  -0.05
  62   1    -0.01  -0.01  -0.00     0.02  -0.00  -0.02     0.02  -0.03  -0.01
  63   1    -0.02  -0.01   0.01    -0.00  -0.00   0.00    -0.06   0.03  -0.03
  64   1    -0.01  -0.02   0.01    -0.02   0.00  -0.01    -0.08   0.05  -0.02
  65   1    -0.02  -0.01   0.01    -0.00   0.01  -0.02    -0.05   0.01  -0.08
  66   1    -0.03  -0.00   0.01     0.02  -0.00  -0.02     0.04  -0.05  -0.07
  67   1    -0.02   0.01   0.00     0.04  -0.00  -0.00     0.07  -0.07  -0.00
  68   1    -0.03   0.01   0.01     0.02   0.00   0.00     0.04  -0.05  -0.02
  69   1    -0.02   0.00  -0.01     0.01  -0.00   0.01    -0.01   0.01   0.11
  70   1    -0.01   0.01  -0.01     0.00  -0.00   0.02    -0.01   0.02   0.11
  71   1    -0.01  -0.00   0.00    -0.00   0.00   0.02     0.00  -0.00  -0.00
  72   1    -0.01   0.00  -0.00    -0.00   0.00   0.02     0.00   0.01   0.00
  73   1    -0.00  -0.00   0.00    -0.01  -0.01  -0.02     0.00   0.03   0.01
  74   1    -0.00   0.00  -0.01    -0.01  -0.00  -0.03    -0.02   0.02   0.05
  75   1    -0.01   0.01   0.00     0.00   0.01  -0.02    -0.02  -0.01   0.01
  76   1    -0.01   0.03  -0.01     0.01   0.01  -0.00    -0.04  -0.08   0.02
  77   1     0.00   0.01  -0.02    -0.00   0.00  -0.01    -0.04  -0.04   0.08
  78   1    -0.00   0.02  -0.02    -0.00  -0.00   0.01    -0.03  -0.06   0.03
  79   1    -0.00  -0.02  -0.00    -0.03  -0.01  -0.00     0.02   0.10   0.01
  80   1    -0.00  -0.01  -0.02    -0.02  -0.01  -0.01    -0.00   0.07   0.07
  81   1    -0.00  -0.01  -0.01    -0.02  -0.01   0.01     0.00   0.06   0.02
  82   1    -0.01   0.01   0.02    -0.01  -0.01   0.00     0.01  -0.01  -0.11
  83   1    -0.01   0.01   0.02    -0.00  -0.01   0.01     0.01  -0.02  -0.11
  84   1    -0.00   0.02  -0.02     0.01  -0.00   0.00     0.01  -0.04   0.05
  85   1    -0.00   0.02  -0.02     0.01   0.01  -0.04     0.01  -0.03   0.05
  86   1    -0.01   0.01  -0.06    -0.00   0.01  -0.06     0.00   0.01  -0.03
  87   1    -0.01   0.02  -0.07    -0.00   0.00  -0.01     0.00   0.01  -0.05
  88   1    -0.00  -0.02   0.06     0.00   0.02  -0.07    -0.00  -0.00   0.02
  89   1     0.01   0.00   0.05     0.00   0.01   0.01     0.00  -0.01   0.05
  90   1    -0.00   0.02  -0.00    -0.00  -0.01   0.10     0.00  -0.00   0.02
  91   1    -0.01   0.03  -0.07    -0.01  -0.02   0.15     0.00   0.01  -0.04
  92   1    -0.01   0.03  -0.08    -0.01  -0.02   0.10     0.00   0.01  -0.06
  93   1     0.03  -0.01   0.03     0.04  -0.02  -0.02     0.02  -0.01   0.02
  94   1     0.04  -0.02   0.03     0.01  -0.02  -0.02     0.02   0.00   0.02
  95   1     0.04  -0.01   0.02    -0.04   0.01  -0.01    -0.00   0.01   0.01
  96   1     0.01   0.00   0.02    -0.06   0.03  -0.01    -0.02   0.02   0.00
  97   1     0.02  -0.01   0.10     0.01   0.02   0.04    -0.00   0.01  -0.01
  98   1     0.02  -0.01   0.06     0.04  -0.02   0.10     0.01   0.01  -0.02
  99   1    -0.01   0.02  -0.07     0.04  -0.04   0.09     0.01  -0.01  -0.01
 100   1    -0.05   0.04  -0.14    -0.01  -0.02   0.00     0.00  -0.02   0.02
 101   1    -0.05   0.03  -0.09    -0.04   0.01  -0.05    -0.01  -0.01   0.02
 102   1     0.00  -0.01   0.00    -0.00   0.01  -0.02    -0.00  -0.01  -0.00
 103   1     0.08  -0.06  -0.01     0.05  -0.02  -0.03     0.01  -0.02  -0.00
 104   1     0.12  -0.08  -0.01     0.08  -0.03  -0.04     0.01  -0.02   0.00
 105   1     0.07  -0.05   0.01     0.04  -0.01  -0.03     0.01  -0.01   0.01
 106   1    -0.00  -0.02   0.02    -0.01   0.01  -0.04    -0.00   0.04  -0.04
 107   1    -0.01  -0.01   0.02    -0.01  -0.01  -0.01    -0.00   0.04  -0.05
                     13                     14                     15
                        a                      a                      a 
 Frequencies --    59.0357                68.6964                71.8055
 Red. masses --    10.5285                10.2547                10.5127
 Frc consts  --     0.0000                 0.0000                 0.0000
 IR Inten    --     0.1458                 2.4477                 0.1598
 Raman Activ --     0.0000                 0.0000                 0.0000
 Depolar     --     0.0000                 0.0000                 0.0000
 Atom AN      X      Y      Z        X      Y      Z        X      Y      Z
   1   6     0.01   0.00  -0.04    -0.03  -0.26   0.02    -0.00   0.07  -0.08
   2   6     0.02  -0.00  -0.01    -0.11  -0.16   0.01     0.02   0.05  -0.01
   3   6    -0.02   0.01  -0.02    -0.18  -0.18   0.01    -0.03   0.07  -0.03
   4   6     0.06  -0.02  -0.01    -0.17  -0.18   0.01     0.11   0.04  -0.02
   5   6     0.01  -0.00   0.04    -0.05  -0.07   0.01    -0.00   0.03   0.06
   6   6     0.01  -0.00   0.05    -0.08  -0.03  -0.00     0.01   0.02   0.04
   7   6     0.01  -0.01   0.05    -0.05   0.02  -0.01    -0.00   0.01   0.02
   8   6     0.00  -0.01   0.04     0.02   0.02  -0.00    -0.02   0.01   0.04
   9   6     0.00  -0.00   0.05     0.03   0.01   0.00    -0.03   0.02   0.10
  10   6     0.00  -0.00   0.04     0.01  -0.06   0.01    -0.02   0.04   0.12
  11   6    -0.00  -0.01   0.03     0.03   0.02   0.00    -0.03   0.01   0.10
  12   6    -0.01  -0.01   0.03    -0.02   0.06  -0.00    -0.01   0.00   0.11
  13   6    -0.01  -0.01  -0.00    -0.08   0.03  -0.01     0.02   0.01   0.05
  14   6    -0.02  -0.01  -0.00    -0.17   0.08  -0.03     0.05  -0.02   0.00
  15   6    -0.02   0.00  -0.02    -0.17   0.19  -0.04     0.06  -0.06  -0.05
  16   6    -0.02  -0.02   0.01    -0.23   0.05  -0.04     0.12   0.03  -0.00
  17   6    -0.03   0.00   0.00    -0.23   0.05  -0.03     0.03  -0.04  -0.01
  18   6    -0.01  -0.02  -0.02    -0.08  -0.01   0.00     0.02   0.01   0.02
  19   6    -0.00  -0.02  -0.02    -0.03  -0.03   0.01     0.01   0.02  -0.00
  20   6     0.00  -0.01   0.01     0.03   0.01   0.01    -0.02   0.01   0.02
  21   7     0.00  -0.02   0.02     0.04   0.02  -0.00    -0.02   0.00  -0.02
  22   6     0.00  -0.01  -0.01     0.04   0.01  -0.01    -0.01  -0.01  -0.08
  23   6     0.01  -0.01  -0.01     0.05   0.07  -0.10     0.01  -0.02  -0.07
  24   6     0.01   0.01  -0.05     0.06   0.06  -0.10     0.02  -0.04  -0.09
  25   6    -0.00   0.02  -0.08     0.08   0.00  -0.01    -0.01  -0.04  -0.12
  26   6    -0.00   0.02  -0.08     0.08   0.00   0.00    -0.01  -0.05  -0.10
  27   6     0.00   0.02  -0.09     0.10  -0.01   0.02    -0.03  -0.06  -0.03
  28   6     0.00   0.01  -0.05     0.10  -0.02   0.04    -0.04  -0.06   0.06
  29   6     0.00  -0.00  -0.00     0.11  -0.01   0.03    -0.03  -0.05   0.07
  30   6    -0.01  -0.00  -0.00     0.09   0.01  -0.00    -0.00  -0.04  -0.01
  31   6    -0.00   0.01  -0.05     0.09   0.01  -0.01     0.01  -0.04  -0.10
  32   6    -0.02  -0.01   0.01     0.09  -0.00  -0.02     0.02  -0.02   0.01
  33   6    -0.01  -0.02   0.01     0.10  -0.02  -0.02     0.00   0.02  -0.02
  34   6    -0.01  -0.04   0.02     0.09  -0.03  -0.05     0.01   0.08  -0.09
  35   6    -0.00  -0.06   0.05     0.11  -0.05  -0.02    -0.03   0.10  -0.07
  36   6     0.01  -0.06   0.07     0.13  -0.06   0.05    -0.06   0.06   0.04
  37   6     0.01  -0.04   0.05     0.13  -0.05   0.07    -0.07   0.00   0.12
  38   6     0.00  -0.02   0.02     0.11  -0.02   0.03    -0.03  -0.02   0.07
  39   6    -0.05   0.01   0.00     0.05  -0.01  -0.01     0.01  -0.07   0.03
  40   6    -0.25   0.13  -0.02     0.03  -0.02  -0.03     0.00  -0.12   0.00
  41   6    -0.30   0.16  -0.03    -0.05  -0.01  -0.02    -0.07  -0.14   0.02
  42   6    -0.10   0.04  -0.00    -0.11   0.02   0.00    -0.15  -0.09   0.07
  43   6     0.10  -0.08   0.02    -0.08   0.03   0.02    -0.14  -0.05   0.11
  44   6     0.10  -0.07   0.01    -0.00   0.02   0.02    -0.04  -0.05   0.09
  45   7     0.26  -0.17   0.02     0.02   0.03   0.04    -0.02  -0.01   0.14
  46   6     0.13  -0.07   0.02     0.02   0.03   0.03     0.01  -0.03   0.10
  47   6     0.03  -0.16   0.15     0.03   0.05  -0.00     0.02   0.05  -0.07
  48   6    -0.10  -0.05   0.12     0.03   0.05  -0.07     0.02   0.08  -0.31
  49   6    -0.13   0.16  -0.06     0.03   0.04  -0.09     0.00   0.04  -0.35
  50   6    -0.02   0.25  -0.19     0.02   0.02  -0.05     0.00  -0.06  -0.12
  51   6     0.11   0.13  -0.14     0.02   0.01   0.01     0.00  -0.09   0.10
  52   6     0.15  -0.08   0.02     0.02   0.04   0.03     0.01   0.03   0.11
  53   6     0.20  -0.08   0.03    -0.04   0.09   0.06     0.02   0.07   0.15
  54   6     0.09   0.00   0.05    -0.05   0.11   0.06     0.07   0.11   0.12
  55   6    -0.07   0.09   0.06     0.01   0.09   0.03     0.11   0.09   0.05
  56   6    -0.11   0.08   0.05     0.07   0.04  -0.00     0.10   0.05   0.02
  57   6     0.01  -0.00   0.02     0.07   0.02   0.00     0.05   0.02   0.05
  58   6    -0.01   0.02  -0.08     0.07  -0.05   0.07    -0.03  -0.02  -0.14
  59   6    -0.01   0.01  -0.05     0.06  -0.04   0.08    -0.04  -0.00  -0.12
  60   1    -0.01   0.00  -0.01     0.00  -0.07   0.01    -0.02   0.03  -0.02
  61   1     0.00   0.00  -0.02    -0.02  -0.09   0.01     0.00   0.02  -0.04
  62   1     0.01  -0.00  -0.01     0.00  -0.07   0.01     0.01   0.02  -0.02
  63   1    -0.00   0.00  -0.00    -0.07  -0.04   0.00     0.00   0.01   0.01
  64   1    -0.02   0.01  -0.00    -0.04  -0.05   0.00    -0.04   0.02  -0.01
  65   1    -0.00   0.00  -0.02    -0.06  -0.07   0.00    -0.00   0.03  -0.03
  66   1     0.02  -0.01  -0.02    -0.06  -0.07   0.00     0.03   0.01  -0.03
  67   1     0.03  -0.01  -0.00    -0.04  -0.05   0.00     0.05   0.01  -0.00
  68   1     0.02  -0.00   0.00    -0.06  -0.03   0.00     0.03   0.02   0.01
  69   1     0.00  -0.00   0.02    -0.03  -0.01  -0.00     0.00   0.01   0.01
  70   1     0.00  -0.00   0.02    -0.02   0.02  -0.01     0.00  -0.00  -0.00
  71   1     0.00   0.00   0.01     0.01  -0.03   0.01    -0.01   0.02   0.04
  72   1    -0.00   0.00   0.01    -0.01   0.03  -0.00    -0.00  -0.00   0.05
  73   1    -0.01  -0.00  -0.01    -0.04   0.06  -0.01     0.00  -0.03  -0.01
  74   1    -0.01   0.00  -0.01    -0.07   0.06  -0.02     0.03  -0.02  -0.03
  75   1    -0.00   0.00  -0.01    -0.04   0.06  -0.01     0.02  -0.00  -0.01
  76   1     0.00  -0.01   0.00    -0.06   0.02  -0.01     0.05   0.02   0.00
  77   1    -0.01  -0.00   0.00    -0.09   0.03  -0.01     0.04   0.01  -0.02
  78   1    -0.01  -0.01   0.01    -0.07  -0.00  -0.01     0.03   0.01   0.01
  79   1    -0.01   0.00  -0.00    -0.06   0.02  -0.01    -0.01  -0.03  -0.00
  80   1    -0.01  -0.00   0.00    -0.09   0.02  -0.01     0.02  -0.02  -0.02
  81   1    -0.01   0.00   0.00    -0.07  -0.01  -0.01     0.01   0.00   0.01
  82   1    -0.00  -0.01  -0.01    -0.03  -0.01   0.00     0.01   0.01  -0.00
  83   1     0.00  -0.01  -0.01    -0.01  -0.02   0.01     0.00   0.01  -0.01
  84   1     0.01  -0.01   0.00     0.02   0.04  -0.05     0.01  -0.01  -0.01
  85   1     0.00   0.00  -0.02     0.01   0.03  -0.05     0.01  -0.02  -0.02
  86   1     0.00   0.01  -0.04     0.03  -0.00   0.01    -0.01  -0.02  -0.01
  87   1     0.00   0.00  -0.02     0.03  -0.01   0.02    -0.02  -0.02   0.03
  88   1    -0.00   0.00  -0.02     0.03   0.00  -0.01     0.00  -0.01  -0.05
  89   1    -0.01  -0.01   0.00     0.02  -0.01  -0.03     0.01   0.03  -0.05
  90   1    -0.00  -0.02   0.02     0.03  -0.02  -0.01    -0.01   0.04  -0.04
  91   1     0.01  -0.02   0.03     0.04  -0.02   0.02    -0.02   0.02   0.02
  92   1     0.01  -0.01   0.02     0.04  -0.01   0.03    -0.03  -0.01   0.06
  93   1    -0.11   0.06  -0.01     0.02  -0.01  -0.01     0.01  -0.04  -0.01
  94   1    -0.14   0.08  -0.01    -0.02  -0.01  -0.01    -0.02  -0.05  -0.00
  95   1    -0.03   0.01  -0.00    -0.05   0.01   0.00    -0.07  -0.03   0.03
  96   1     0.07  -0.05   0.01    -0.04   0.02   0.01    -0.06  -0.00   0.04
  97   1     0.01  -0.09   0.08     0.01   0.02   0.00     0.01   0.03  -0.02
  98   1    -0.05  -0.04   0.06     0.01   0.02  -0.03     0.01   0.04  -0.14
  99   1    -0.07   0.07  -0.03     0.01   0.01  -0.04    -0.00   0.02  -0.16
 100   1    -0.01   0.12  -0.10     0.00   0.00  -0.02    -0.00  -0.03  -0.04
 101   1     0.06   0.06  -0.07     0.00  -0.00   0.01    -0.00  -0.04   0.07
 102   1     0.09  -0.04   0.00    -0.03   0.03   0.03    -0.00   0.02   0.06
 103   1     0.04   0.00   0.02    -0.03   0.04   0.02     0.02   0.04   0.04
 104   1    -0.05   0.05   0.02     0.00   0.03   0.01     0.05   0.03   0.01
 105   1    -0.07   0.04   0.02     0.03   0.01  -0.01     0.04   0.01  -0.01
 106   1    -0.00   0.01  -0.03     0.02  -0.03   0.04    -0.01  -0.01  -0.04
 107   1    -0.00   0.00  -0.01     0.02  -0.03   0.04    -0.02   0.00  -0.04
                     16                     17                     18
                        a                      a                      a 
 Frequencies --    77.7184                82.9639                97.4000
 Red. masses --    10.4325                10.7535                10.2006
 Frc consts  --     0.0000                 0.0000                 0.0000
 IR Inten    --     0.4328                 0.0479                 0.3051
 Raman Activ --     0.0000                 0.0000                 0.0000
 Depolar     --     0.0000                 0.0000                 0.0000
 Atom AN      X      Y      Z        X      Y      Z        X      Y      Z
   1   6    -0.03   0.03   0.10    -0.05   0.01  -0.03     0.01   0.01   0.08
   2   6    -0.03   0.02   0.00    -0.06   0.03   0.00     0.01   0.00   0.01
   3   6     0.05   0.03   0.01    -0.11   0.04  -0.03     0.04   0.02  -0.00
   4   6    -0.12   0.02   0.01    -0.02   0.00  -0.01    -0.01  -0.02   0.00
   5   6    -0.02   0.02  -0.08    -0.05   0.04   0.04     0.02  -0.00  -0.02
   6   6    -0.03   0.03   0.03    -0.05   0.05   0.05     0.00   0.02   0.18
   7   6    -0.03   0.04   0.06    -0.05   0.05   0.02    -0.00   0.02   0.21
   8   6    -0.03   0.02  -0.04    -0.03   0.05  -0.02     0.01  -0.00   0.04
   9   6    -0.01   0.00  -0.19    -0.03   0.05   0.02     0.02  -0.03  -0.19
  10   6    -0.01  -0.00  -0.22    -0.04   0.04   0.04     0.03  -0.03  -0.25
  11   6    -0.01   0.00  -0.19    -0.03   0.04   0.01     0.02  -0.03  -0.20
  12   6     0.02  -0.02  -0.22    -0.01   0.03   0.04     0.02  -0.03  -0.26
  13   6     0.02   0.01  -0.08     0.01   0.05   0.04     0.00  -0.01  -0.05
  14   6     0.05   0.00   0.01     0.05   0.02   0.01    -0.01  -0.01   0.00
  15   6     0.04  -0.03   0.12     0.06  -0.02  -0.01    -0.02   0.00   0.08
  16   6     0.01  -0.03   0.02     0.11   0.08  -0.01    -0.05  -0.03  -0.00
  17   6     0.15   0.06   0.03     0.06  -0.00  -0.00     0.04   0.01   0.01
  18   6     0.01   0.04   0.03     0.01   0.07   0.05    -0.02   0.01   0.15
  19   6    -0.01   0.05   0.05    -0.01   0.07   0.02    -0.02   0.01   0.19
  20   6    -0.02   0.03  -0.04    -0.03   0.05  -0.02     0.00  -0.01   0.03
  21   7    -0.03   0.04   0.04    -0.03   0.05  -0.07    -0.00   0.00   0.13
  22   6    -0.02  -0.00   0.11    -0.01  -0.02  -0.08     0.00  -0.01   0.08
  23   6     0.01  -0.05   0.16     0.06  -0.07  -0.04     0.04   0.03  -0.00
  24   6     0.03  -0.10   0.18     0.08  -0.18   0.01     0.04   0.06  -0.13
  25   6     0.00  -0.09   0.14     0.05  -0.22   0.00     0.01   0.04  -0.17
  26   6     0.01  -0.07   0.04     0.05  -0.22  -0.02     0.01   0.04  -0.20
  27   6    -0.00  -0.03  -0.07    -0.00  -0.19  -0.04    -0.00   0.04  -0.17
  28   6    -0.01   0.00  -0.17    -0.02  -0.14  -0.03    -0.01  -0.01   0.03
  29   6     0.00   0.01  -0.15     0.01  -0.10  -0.00    -0.01  -0.04   0.15
  30   6     0.02  -0.01  -0.09     0.08  -0.12   0.00    -0.00  -0.01   0.04
  31   6     0.01  -0.05   0.00     0.09  -0.17  -0.02     0.01   0.03  -0.16
  32   6     0.03   0.00  -0.07     0.13  -0.06   0.02    -0.00  -0.01   0.06
  33   6     0.02   0.01  -0.05     0.08  -0.00   0.03    -0.00  -0.01   0.05
  34   6     0.02  -0.01   0.11     0.10   0.09   0.04    -0.00   0.06  -0.19
  35   6     0.01  -0.03   0.26     0.03   0.16   0.00    -0.01   0.08  -0.27
  36   6    -0.01  -0.03   0.22    -0.05   0.14  -0.04    -0.02   0.03  -0.07
  37   6    -0.01  -0.00   0.03    -0.07   0.05  -0.04    -0.02  -0.03   0.17
  38   6     0.00   0.01  -0.09     0.01  -0.02   0.00    -0.01  -0.04   0.17
  39   6     0.01  -0.04  -0.05     0.12  -0.01  -0.00     0.01   0.00   0.05
  40   6    -0.00  -0.08  -0.08     0.07   0.03   0.00    -0.01   0.04   0.06
  41   6    -0.08  -0.10  -0.06    -0.06   0.13  -0.02     0.00   0.06   0.05
  42   6    -0.14  -0.07  -0.02    -0.14   0.18  -0.04     0.03   0.05   0.03
  43   6    -0.10  -0.04   0.02    -0.07   0.12  -0.05     0.03   0.02   0.02
  44   6    -0.02  -0.03  -0.00     0.05   0.03  -0.03     0.02   0.00   0.03
  45   7     0.02  -0.01   0.03     0.07  -0.00  -0.05    -0.00  -0.01   0.02
  46   6     0.01  -0.01   0.04     0.03   0.02  -0.05    -0.00  -0.00  -0.00
  47   6     0.01   0.00   0.01     0.02  -0.02   0.04    -0.00  -0.00  -0.01
  48   6    -0.00   0.03  -0.08     0.01  -0.02   0.15     0.00  -0.01   0.01
  49   6    -0.01   0.04  -0.14     0.01   0.02   0.16     0.01  -0.01   0.02
  50   6    -0.01   0.02  -0.08     0.02   0.07   0.03     0.00  -0.01   0.02
  51   6     0.01  -0.01   0.01     0.03   0.07  -0.07    -0.00  -0.01   0.01
  52   6     0.04   0.03   0.01     0.02  -0.02  -0.02    -0.02  -0.02   0.02
  53   6     0.05   0.06   0.04    -0.15   0.02  -0.01    -0.05  -0.03   0.01
  54   6     0.07   0.11   0.03    -0.24   0.02   0.02    -0.04  -0.06   0.02
  55   6     0.06   0.12  -0.02    -0.14  -0.04   0.04    -0.01  -0.08   0.03
  56   6     0.05   0.08  -0.05     0.03  -0.08   0.03     0.01  -0.07   0.05
  57   6     0.04   0.04  -0.04     0.09  -0.07   0.00    -0.01  -0.03   0.04
  58   6    -0.02  -0.09   0.15    -0.01  -0.19  -0.01    -0.03  -0.01  -0.08
  59   6    -0.03  -0.04   0.13    -0.04  -0.08  -0.06    -0.03  -0.04   0.05
  60   1     0.02   0.00   0.03    -0.02   0.01  -0.01     0.03  -0.01   0.02
  61   1    -0.01   0.01   0.06    -0.01  -0.00  -0.02     0.00   0.01   0.05
  62   1    -0.04   0.02   0.02    -0.00   0.00  -0.00    -0.02   0.01   0.01
  63   1     0.00   0.02  -0.02    -0.03   0.01  -0.00    -0.00   0.02  -0.02
  64   1     0.05   0.01   0.00    -0.04   0.02  -0.00     0.05   0.01   0.00
  65   1     0.00  -0.01   0.03    -0.03   0.01  -0.02     0.00  -0.01   0.02
  66   1    -0.03   0.02   0.03    -0.01  -0.01  -0.02     0.01   0.02   0.02
  67   1    -0.07   0.00  -0.00     0.01  -0.00   0.00    -0.04  -0.01   0.00
  68   1    -0.02  -0.01  -0.02    -0.01   0.01   0.00     0.02  -0.03  -0.02
  69   1    -0.01   0.01   0.03    -0.02   0.02   0.02    -0.00   0.01   0.09
  70   1    -0.01   0.02   0.05    -0.01   0.02   0.01    -0.00   0.02   0.10
  71   1    -0.00  -0.00  -0.10    -0.01   0.01   0.01     0.01  -0.01  -0.12
  72   1     0.01  -0.01  -0.09    -0.00   0.00   0.02     0.01  -0.01  -0.13
  73   1     0.03   0.01   0.03     0.01  -0.02  -0.00     0.01   0.02   0.01
  74   1     0.02  -0.01   0.07     0.03  -0.01  -0.01    -0.01   0.00   0.06
  75   1    -0.01  -0.04   0.03     0.02  -0.00  -0.00    -0.02  -0.03   0.02
  76   1    -0.03  -0.03   0.00     0.03   0.03   0.00    -0.05  -0.03  -0.00
  77   1     0.02  -0.02   0.04     0.04   0.02  -0.02     0.00  -0.02   0.03
  78   1     0.01   0.02  -0.02     0.03   0.03   0.00    -0.01   0.02  -0.03
  79   1     0.07   0.03   0.01     0.01  -0.01   0.00     0.05   0.02   0.00
  80   1     0.03   0.03   0.03     0.03  -0.01  -0.01    -0.02   0.02   0.02
  81   1     0.04   0.00  -0.02     0.02   0.01   0.00     0.01  -0.03  -0.02
  82   1     0.00   0.02   0.03     0.01   0.02   0.02    -0.01   0.01   0.08
  83   1    -0.01   0.02   0.05    -0.00   0.03   0.01    -0.01   0.01   0.10
  84   1     0.01  -0.01   0.05     0.02  -0.01  -0.01     0.02   0.01   0.01
  85   1     0.02  -0.04   0.06     0.04  -0.06   0.02     0.02   0.03  -0.06
  86   1    -0.00  -0.01  -0.02    -0.01  -0.06  -0.02     0.00   0.02  -0.08
  87   1    -0.00   0.01  -0.07    -0.02  -0.03  -0.02    -0.00  -0.00   0.02
  88   1     0.01  -0.02   0.02     0.04  -0.05  -0.01     0.00   0.02  -0.08
  89   1     0.01  -0.00   0.05     0.05   0.03   0.02     0.00   0.03  -0.10
  90   1     0.00  -0.01   0.12     0.01   0.07   0.00    -0.00   0.04  -0.14
  91   1    -0.01  -0.01   0.10    -0.03   0.06  -0.02    -0.01   0.01  -0.03
  92   1    -0.01  -0.00   0.00    -0.04   0.01  -0.02    -0.01  -0.02   0.09
  93   1     0.01  -0.03  -0.03     0.04  -0.00   0.01    -0.01   0.01   0.02
  94   1    -0.03  -0.04  -0.03    -0.03   0.05  -0.01    -0.00   0.02   0.02
  95   1    -0.06  -0.02  -0.00    -0.07   0.08  -0.02     0.01   0.02   0.01
  96   1    -0.04  -0.01   0.01    -0.04   0.04  -0.02     0.01   0.00   0.00
  97   1     0.01   0.00   0.01     0.00  -0.01   0.01    -0.00   0.00  -0.00
  98   1    -0.00   0.01  -0.03     0.00  -0.02   0.07     0.00  -0.00   0.00
  99   1    -0.01   0.02  -0.06     0.00   0.00   0.07     0.00  -0.01   0.01
 100   1    -0.01   0.01  -0.04     0.01   0.03   0.00     0.00  -0.01   0.01
 101   1     0.00  -0.01   0.01     0.01   0.03  -0.04     0.00  -0.00   0.00
 102   1     0.02   0.02   0.02    -0.06   0.02  -0.01    -0.02  -0.01  -0.00
 103   1     0.02   0.04   0.01    -0.11   0.02   0.01    -0.02  -0.02   0.00
 104   1     0.02   0.04  -0.01    -0.06  -0.01   0.02    -0.00  -0.03   0.01
 105   1     0.01   0.03  -0.02     0.03  -0.03   0.01     0.01  -0.02   0.02
 106   1    -0.01  -0.03   0.05    -0.01  -0.07   0.00    -0.02  -0.01  -0.03
 107   1    -0.02  -0.01   0.03    -0.02  -0.02  -0.02    -0.02  -0.02   0.04
                     19                     20                     21
                        a                      a                      a 
 Frequencies --   106.5775               114.2689               120.3971
 Red. masses --     9.8693                10.0017                10.4697
 Frc consts  --     0.0000                 0.0000                 0.0000
 IR Inten    --     5.3744                 0.2688                 1.7726
 Raman Activ --     0.0000                 0.0000                 0.0000
 Depolar     --     0.0000                 0.0000                 0.0000
 Atom AN      X      Y      Z        X      Y      Z        X      Y      Z
   1   6     0.05  -0.13   0.05    -0.07   0.11  -0.02     0.10  -0.10   0.01
   2   6     0.01  -0.07  -0.02    -0.03   0.06   0.01     0.06  -0.05   0.01
   3   6     0.05  -0.12   0.02    -0.03   0.08  -0.01     0.03  -0.07   0.02
   4   6    -0.12  -0.05   0.00     0.04   0.05  -0.00     0.03  -0.06   0.01
   5   6     0.04  -0.03  -0.10    -0.05   0.01   0.04     0.08  -0.00   0.01
   6   6     0.03  -0.01  -0.07    -0.05  -0.00   0.07     0.07   0.01  -0.04
   7   6     0.04   0.01  -0.02    -0.05  -0.02   0.04     0.07   0.03  -0.03
   8   6     0.05   0.01  -0.03    -0.06  -0.03   0.00     0.08   0.04   0.04
   9   6     0.06   0.01  -0.05    -0.07  -0.02  -0.02     0.09   0.03   0.06
  10   6     0.06  -0.02  -0.10    -0.06  -0.00  -0.01     0.09   0.01   0.06
  11   6     0.05   0.02   0.01    -0.06  -0.03  -0.04     0.09   0.04   0.04
  12   6     0.03   0.04   0.04    -0.05  -0.05  -0.05     0.08   0.05  -0.01
  13   6     0.01   0.04   0.10    -0.04  -0.04  -0.02     0.07   0.03  -0.08
  14   6    -0.04   0.07   0.02     0.00  -0.06   0.00     0.02   0.07  -0.04
  15   6    -0.03   0.13  -0.03    -0.00  -0.12   0.02     0.02   0.14  -0.01
  16   6    -0.03   0.13  -0.02     0.02  -0.06   0.01    -0.06  -0.02  -0.01
  17   6    -0.12  -0.04  -0.01     0.04  -0.05   0.01     0.03   0.14  -0.01
  18   6     0.01   0.03   0.14    -0.05  -0.02   0.02     0.08   0.01  -0.11
  19   6     0.03   0.02   0.09    -0.06  -0.01   0.02     0.09   0.01  -0.03
  20   6     0.04   0.02   0.04    -0.06  -0.02  -0.01     0.09   0.03   0.03
  21   7     0.04   0.01   0.01    -0.05  -0.02  -0.01     0.08   0.04   0.06
  22   6     0.04   0.01   0.01    -0.05  -0.02  -0.02     0.05   0.03   0.05
  23   6     0.06  -0.16   0.25    -0.04   0.04  -0.10     0.02   0.13  -0.08
  24   6     0.06  -0.16   0.25    -0.04   0.05  -0.12     0.01   0.12  -0.09
  25   6     0.00   0.01  -0.05    -0.00   0.02  -0.03     0.01   0.00   0.04
  26   6     0.01   0.01  -0.07     0.00   0.01  -0.00    -0.00  -0.01   0.04
  27   6    -0.01  -0.02   0.05     0.03  -0.03   0.13    -0.03   0.01  -0.01
  28   6    -0.02  -0.01   0.05     0.03  -0.04   0.14    -0.04   0.00  -0.01
  29   6    -0.02  -0.01  -0.01     0.05   0.00   0.03    -0.07  -0.02   0.01
  30   6    -0.01  -0.00  -0.05     0.02   0.03  -0.04    -0.03  -0.03  -0.00
  31   6    -0.01   0.02  -0.14     0.02   0.04  -0.06    -0.03  -0.04   0.06
  32   6    -0.01  -0.01   0.02     0.01   0.01  -0.00    -0.01  -0.01  -0.02
  33   6    -0.01  -0.00   0.03     0.03  -0.02   0.02    -0.03   0.04  -0.00
  34   6    -0.01   0.02   0.08     0.02  -0.09   0.03    -0.01   0.18  -0.03
  35   6    -0.03   0.05   0.02     0.06  -0.11  -0.04    -0.10   0.25  -0.01
  36   6    -0.05   0.06  -0.08     0.10  -0.08  -0.12    -0.18   0.21   0.06
  37   6    -0.05   0.04  -0.09     0.10  -0.03  -0.09    -0.19   0.09   0.08
  38   6    -0.03   0.01  -0.02     0.06  -0.01  -0.00    -0.09   0.01   0.03
  39   6     0.03  -0.03   0.02     0.08  -0.01   0.01    -0.01  -0.05  -0.02
  40   6     0.09  -0.07   0.03     0.26  -0.12   0.03     0.06  -0.13  -0.03
  41   6     0.04  -0.05   0.03     0.18  -0.09   0.02     0.03  -0.14  -0.02
  42   6    -0.08   0.03   0.01    -0.14   0.10  -0.00    -0.09  -0.06  -0.02
  43   6    -0.11   0.05   0.01    -0.24   0.16  -0.01    -0.13  -0.01  -0.01
  44   6    -0.03   0.00   0.02    -0.06   0.07  -0.00    -0.06  -0.03  -0.02
  45   7     0.00  -0.02   0.01     0.02   0.04   0.00    -0.01  -0.08  -0.03
  46   6     0.00  -0.02   0.01     0.02   0.04   0.01    -0.02  -0.07  -0.01
  47   6     0.00  -0.02   0.00     0.04   0.04   0.05    -0.04  -0.09   0.01
  48   6    -0.00  -0.01  -0.00     0.05   0.03   0.06    -0.06  -0.08   0.02
  49   6    -0.00  -0.01  -0.01     0.03   0.04   0.00    -0.06  -0.05  -0.01
  50   6    -0.00  -0.01  -0.01     0.01   0.06  -0.06    -0.04  -0.03  -0.04
  51   6     0.00  -0.01   0.00     0.01   0.06  -0.04    -0.02  -0.05  -0.04
  52   6     0.03  -0.03   0.01     0.09  -0.01  -0.01     0.04  -0.07  -0.04
  53   6     0.12  -0.08  -0.02     0.26  -0.10  -0.06     0.13  -0.12  -0.07
  54   6     0.08  -0.07  -0.01     0.16  -0.05  -0.03     0.04  -0.09  -0.05
  55   6    -0.07   0.00   0.03    -0.16   0.11   0.05    -0.16   0.01   0.01
  56   6    -0.12   0.03   0.05    -0.23   0.14   0.08    -0.18   0.02   0.02
  57   6    -0.05   0.00   0.03    -0.05   0.05   0.03    -0.05  -0.02  -0.02
  58   6    -0.02   0.19  -0.29    -0.02  -0.03   0.04     0.04  -0.09   0.16
  59   6    -0.02   0.17  -0.24    -0.02  -0.05   0.05     0.05  -0.07   0.16
  60   1     0.04  -0.04   0.01    -0.03   0.03  -0.01     0.03  -0.03   0.00
  61   1     0.01  -0.05   0.03    -0.01   0.04  -0.01     0.02  -0.04  -0.00
  62   1     0.01  -0.03   0.01    -0.02   0.03  -0.01     0.04  -0.03   0.00
  63   1    -0.00  -0.01  -0.02     0.00   0.01   0.00     0.00  -0.02   0.01
  64   1     0.06  -0.04   0.00    -0.03   0.03  -0.00     0.01  -0.02   0.00
  65   1    -0.00  -0.06   0.04     0.00   0.04  -0.02     0.01  -0.02   0.00
  66   1    -0.04  -0.01   0.03     0.02   0.02  -0.01    -0.00  -0.04  -0.00
  67   1    -0.06  -0.01  -0.01     0.01   0.01   0.00     0.03  -0.01   0.00
  68   1    -0.03  -0.02  -0.02     0.02   0.01   0.01    -0.01   0.00   0.01
  69   1     0.01  -0.00  -0.02    -0.01   0.00   0.03     0.02  -0.00  -0.03
  70   1     0.01   0.01   0.01    -0.01  -0.01   0.01     0.02   0.01  -0.02
  71   1     0.02  -0.01  -0.03    -0.02   0.00  -0.01     0.03  -0.00   0.03
  72   1     0.01   0.02   0.00    -0.01  -0.02  -0.02     0.02   0.02   0.00
  73   1    -0.01   0.04  -0.01    -0.00  -0.04   0.00     0.02   0.05  -0.00
  74   1    -0.02   0.04  -0.02     0.01  -0.04   0.01    -0.01   0.05   0.00
  75   1     0.01   0.05  -0.01    -0.01  -0.04   0.01     0.01   0.04  -0.00
  76   1     0.02   0.07   0.00    -0.01  -0.03   0.00    -0.03  -0.02  -0.01
  77   1    -0.03   0.05  -0.04     0.02  -0.03   0.01    -0.02  -0.00   0.02
  78   1    -0.01   0.02   0.01     0.01   0.00  -0.00    -0.02  -0.01  -0.02
  79   1    -0.05  -0.03   0.00     0.01  -0.01   0.00     0.04   0.07  -0.01
  80   1    -0.04  -0.01  -0.04     0.02  -0.02   0.01    -0.02   0.06   0.03
  81   1    -0.04  -0.01   0.01     0.01  -0.01  -0.00     0.01   0.01  -0.02
  82   1    -0.00   0.01   0.05    -0.01  -0.00   0.01     0.02  -0.00  -0.05
  83   1     0.01   0.01   0.02    -0.02   0.00   0.02     0.02  -0.01  -0.01
  84   1     0.02  -0.09   0.12    -0.01   0.03  -0.04     0.00   0.06  -0.05
  85   1     0.03  -0.10   0.13    -0.02   0.03  -0.05     0.00   0.06  -0.06
  86   1    -0.01  -0.01   0.03     0.01  -0.01   0.07    -0.01   0.00  -0.02
  87   1    -0.00  -0.01   0.03     0.01  -0.02   0.07    -0.01  -0.00  -0.01
  88   1    -0.01   0.01  -0.06     0.01   0.01  -0.04    -0.01  -0.01   0.03
  89   1     0.00   0.00   0.04    -0.01  -0.03   0.02     0.03   0.06  -0.02
  90   1    -0.01   0.02   0.01     0.02  -0.04  -0.01    -0.03   0.10  -0.01
  91   1    -0.02   0.03  -0.04     0.04  -0.02  -0.06    -0.07   0.07   0.03
  92   1    -0.02   0.01  -0.05     0.04  -0.00  -0.04    -0.08   0.01   0.04
  93   1     0.05  -0.03   0.01     0.13  -0.06   0.01     0.04  -0.05  -0.01
  94   1     0.03  -0.02   0.01     0.09  -0.05   0.01     0.03  -0.05  -0.01
  95   1    -0.04   0.02   0.00    -0.08   0.05  -0.00    -0.04  -0.01  -0.01
  96   1    -0.06   0.03   0.00    -0.12   0.08  -0.00    -0.06   0.01   0.00
  97   1    -0.00  -0.00  -0.00     0.01   0.01   0.02    -0.01  -0.03   0.00
  98   1    -0.00  -0.00  -0.00     0.02   0.00   0.03    -0.02  -0.03   0.01
  99   1    -0.00  -0.00  -0.01     0.01   0.01  -0.00    -0.02  -0.01  -0.00
 100   1    -0.00  -0.00  -0.01    -0.00   0.02  -0.03    -0.01  -0.00  -0.02
 101   1     0.00  -0.00  -0.00    -0.00   0.02  -0.02    -0.00  -0.01  -0.01
 102   1     0.06  -0.04  -0.02     0.13  -0.05  -0.03     0.07  -0.05  -0.03
 103   1     0.04  -0.03  -0.01     0.08  -0.03  -0.02     0.03  -0.04  -0.02
 104   1    -0.04   0.01   0.01    -0.09   0.05   0.03    -0.08   0.02   0.01
 105   1    -0.06   0.02   0.02    -0.12   0.07   0.04    -0.08   0.02   0.02
 106   1    -0.01   0.10  -0.13    -0.01  -0.02   0.02     0.02  -0.04   0.07
 107   1    -0.02   0.08  -0.11     0.00  -0.03   0.03     0.01  -0.03   0.07
                     22                     23                     24
                        a                      a                      a 
 Frequencies --   121.9960               133.0033               154.6719
 Red. masses --    10.2643                10.1511                 9.8487
 Frc consts  --     0.0000                 0.0000                 0.0000
 IR Inten    --     1.0086                 0.3942                 0.0508
 Raman Activ --     0.0000                 0.0000                 0.0000
 Depolar     --     0.0000                 0.0000                 0.0000
 Atom AN      X      Y      Z        X      Y      Z        X      Y      Z
   1   6    -0.05   0.03  -0.02     0.02  -0.04   0.00     0.07  -0.09   0.01
   2   6    -0.04   0.01  -0.08    -0.01  -0.00   0.04     0.01  -0.02   0.01
   3   6     0.11  -0.06   0.01    -0.13   0.03  -0.01    -0.05  -0.03   0.00
   4   6    -0.19   0.11  -0.02     0.05  -0.06   0.01    -0.04  -0.03   0.00
   5   6    -0.04  -0.01  -0.16     0.00   0.03   0.08     0.04   0.04   0.01
   6   6    -0.02  -0.04  -0.29     0.00   0.04   0.06     0.05   0.03  -0.08
   7   6    -0.03  -0.02  -0.13     0.02   0.02  -0.06     0.05   0.03  -0.06
   8   6    -0.06   0.01   0.11     0.03   0.01  -0.13     0.04   0.05   0.02
   9   6    -0.06   0.02   0.16     0.02   0.02  -0.06     0.04   0.06   0.06
  10   6    -0.06   0.01   0.07     0.01   0.03   0.04     0.04   0.05   0.08
  11   6    -0.06   0.02   0.16     0.01   0.02  -0.05     0.01   0.05   0.04
  12   6    -0.04  -0.00   0.10    -0.01   0.04   0.06     0.01   0.05  -0.04
  13   6    -0.01  -0.02  -0.12    -0.01   0.04   0.10     0.03   0.05  -0.09
  14   6     0.01  -0.03  -0.05     0.01   0.04   0.05     0.04   0.05  -0.06
  15   6     0.01  -0.06  -0.01     0.02   0.02  -0.01     0.04   0.04  -0.02
  16   6    -0.03  -0.14   0.01     0.08   0.14  -0.00     0.01  -0.01  -0.02
  17   6     0.09   0.11  -0.00    -0.03  -0.06   0.01     0.10   0.17  -0.02
  18   6     0.01  -0.03  -0.27    -0.00   0.04   0.07     0.02   0.04  -0.02
  19   6    -0.02  -0.01  -0.13     0.01   0.02  -0.06     0.01   0.04   0.07
  20   6    -0.05   0.02   0.11     0.01   0.00  -0.14     0.00   0.03   0.06
  21   7    -0.06   0.03   0.18     0.03  -0.01  -0.23     0.02   0.02   0.04
  22   6    -0.04   0.02   0.15     0.03  -0.06  -0.08     0.03  -0.08   0.01
  23   6     0.02  -0.02   0.19     0.00  -0.14   0.06     0.06  -0.08  -0.01
  24   6     0.04  -0.05   0.13     0.00  -0.17   0.17     0.07  -0.14  -0.03
  25   6     0.00  -0.02   0.03     0.01  -0.11   0.13     0.02  -0.16  -0.07
  26   6     0.02   0.00  -0.10    -0.01  -0.01   0.03    -0.01  -0.09  -0.14
  27   6     0.02   0.03  -0.20    -0.03   0.07  -0.22    -0.06  -0.13   0.06
  28   6     0.02   0.01  -0.13    -0.03   0.10  -0.23    -0.07  -0.08   0.16
  29   6     0.03  -0.02   0.03    -0.00   0.06  -0.01    -0.03   0.00   0.05
  30   6     0.02  -0.01  -0.01    -0.01   0.05   0.03    -0.01   0.03  -0.06
  31   6     0.02   0.01  -0.09     0.00   0.00   0.09     0.03  -0.01  -0.25
  32   6     0.03  -0.02   0.03    -0.05   0.03   0.02    -0.04   0.03   0.00
  33   6     0.03  -0.02   0.03    -0.03   0.01  -0.00    -0.04  -0.01   0.03
  34   6     0.02  -0.01  -0.14    -0.05  -0.01  -0.23    -0.05  -0.09   0.10
  35   6     0.04  -0.01  -0.18     0.00  -0.06  -0.22    -0.01  -0.11   0.05
  36   6     0.05  -0.05   0.00     0.05  -0.11   0.08     0.02  -0.07  -0.10
  37   6     0.05  -0.06   0.14     0.06  -0.07   0.23     0.03  -0.01  -0.11
  38   6     0.03  -0.04   0.10     0.00   0.00   0.10    -0.02   0.00   0.00
  39   6     0.05  -0.01   0.03    -0.05   0.04   0.02    -0.05   0.04   0.00
  40   6     0.08  -0.01   0.04    -0.01   0.03   0.03    -0.15   0.12   0.01
  41   6     0.04   0.03   0.03     0.06  -0.00   0.04    -0.09   0.10   0.01
  42   6    -0.03   0.07   0.02     0.06  -0.00   0.02     0.12  -0.03   0.03
  43   6    -0.04   0.06   0.01    -0.00   0.03   0.01     0.13  -0.05   0.02
  44   6     0.02   0.02   0.02    -0.05   0.04   0.01    -0.02   0.02   0.02
  45   7     0.03   0.01   0.01    -0.07   0.05   0.01    -0.15   0.13   0.03
  46   6     0.02   0.02   0.00    -0.05   0.04   0.01    -0.11   0.09   0.03
  47   6     0.02   0.02   0.01    -0.01   0.04   0.02    -0.02   0.12   0.03
  48   6     0.02   0.02   0.02     0.02   0.02   0.01     0.05   0.07  -0.00
  49   6     0.02   0.03   0.01     0.01  -0.01  -0.01     0.04  -0.02  -0.02
  50   6     0.02   0.03  -0.00    -0.03  -0.02  -0.01    -0.04  -0.06  -0.00
  51   6     0.02   0.03  -0.00    -0.06   0.00  -0.00    -0.12   0.00   0.03
  52   6     0.02  -0.01   0.02    -0.00   0.01  -0.00    -0.07   0.06   0.02
  53   6     0.00  -0.01   0.01     0.11  -0.05  -0.04     0.06   0.00  -0.01
  54   6    -0.02  -0.02   0.02     0.09  -0.05  -0.03     0.13  -0.02  -0.03
  55   6    -0.02  -0.02   0.04    -0.08   0.03   0.02     0.01   0.04  -0.00
  56   6     0.01  -0.02   0.04    -0.14   0.07   0.04    -0.10   0.09   0.03
  57   6     0.02  -0.01   0.03    -0.07   0.04   0.02    -0.09   0.07   0.03
  58   6    -0.06   0.01   0.03     0.07  -0.12   0.13    -0.00  -0.22   0.01
  59   6    -0.08   0.04   0.08     0.06  -0.08  -0.00    -0.01  -0.18   0.06
  60   1    -0.01   0.01  -0.00    -0.00  -0.01   0.00     0.03  -0.02   0.01
  61   1    -0.01   0.01   0.00     0.00  -0.02  -0.01     0.01  -0.04   0.00
  62   1    -0.03   0.01  -0.00     0.02  -0.01   0.00     0.03  -0.03   0.00
  63   1     0.03  -0.02  -0.02    -0.03   0.00   0.02    -0.01  -0.01   0.01
  64   1     0.07  -0.03  -0.01    -0.08   0.02   0.00    -0.03  -0.01   0.00
  65   1     0.03  -0.01   0.05    -0.03   0.02  -0.04    -0.01  -0.01  -0.01
  66   1    -0.05   0.05   0.05     0.00  -0.05  -0.03    -0.03  -0.05  -0.01
  67   1    -0.10   0.05  -0.03     0.07  -0.02   0.02     0.03  -0.00   0.00
  68   1    -0.05   0.02  -0.03    -0.01   0.01   0.02    -0.04   0.03   0.01
  69   1    -0.00  -0.02  -0.15    -0.00   0.01   0.04     0.01   0.01  -0.04
  70   1    -0.00  -0.01  -0.05     0.00   0.01  -0.02     0.02   0.01  -0.03
  71   1    -0.02   0.01   0.04     0.00   0.01   0.03     0.01   0.02   0.04
  72   1    -0.01  -0.00   0.05    -0.00   0.01   0.03     0.00   0.01  -0.02
  73   1     0.00  -0.02   0.00    -0.01  -0.00  -0.00     0.01   0.00   0.00
  74   1     0.01  -0.02   0.00     0.01   0.00  -0.02     0.01   0.01  -0.01
  75   1    -0.01  -0.02   0.00     0.02   0.01  -0.00     0.00   0.02  -0.00
  76   1    -0.03  -0.07  -0.01     0.06   0.08   0.01    -0.08  -0.06  -0.02
  77   1    -0.01  -0.04   0.04     0.01   0.05  -0.05     0.06  -0.03   0.07
  78   1    -0.01  -0.04  -0.01     0.02   0.02   0.03     0.02   0.07  -0.06
  79   1     0.04   0.06  -0.01    -0.05  -0.05   0.01     0.12   0.11  -0.01
  80   1     0.03   0.03   0.04     0.02  -0.04  -0.04    -0.05   0.09   0.06
  81   1     0.03   0.04  -0.01    -0.01   0.02   0.03     0.02  -0.03  -0.05
  82   1     0.01  -0.02  -0.14    -0.00   0.01   0.04     0.00   0.01  -0.01
  83   1    -0.00  -0.01  -0.06     0.00   0.01  -0.03     0.00   0.01   0.04
  84   1     0.02  -0.00   0.06    -0.01  -0.05   0.01     0.02  -0.01  -0.01
  85   1     0.03  -0.02   0.05     0.00  -0.07   0.08     0.03  -0.04  -0.01
  86   1     0.01   0.02  -0.09    -0.01   0.03  -0.12    -0.02  -0.05   0.04
  87   1     0.01   0.01  -0.06    -0.02   0.04  -0.12    -0.04  -0.03   0.09
  88   1     0.01   0.00  -0.04     0.01  -0.01   0.05     0.03   0.00  -0.12
  89   1     0.00   0.00  -0.07    -0.03   0.00  -0.11    -0.03  -0.03   0.05
  90   1     0.01   0.00  -0.09    -0.00  -0.02  -0.12    -0.00  -0.04   0.03
  91   1     0.02  -0.02   0.00     0.03  -0.04   0.05     0.01  -0.02  -0.06
  92   1     0.02  -0.02   0.08     0.04  -0.03   0.12     0.02   0.01  -0.06
  93   1     0.03  -0.01   0.02    -0.01   0.01   0.01    -0.07   0.05   0.00
  94   1     0.02   0.01   0.01     0.03  -0.01   0.01    -0.05   0.04   0.00
  95   1    -0.02   0.03   0.00     0.03  -0.01   0.01     0.07  -0.03   0.01
  96   1    -0.02   0.03  -0.00    -0.00   0.01  -0.00     0.07  -0.03   0.00
  97   1     0.01   0.00   0.00    -0.00   0.02   0.01    -0.00   0.06   0.02
  98   1     0.01   0.00   0.01     0.01   0.01   0.01     0.04   0.03  -0.00
  99   1     0.01   0.01   0.00     0.01  -0.01  -0.00     0.03  -0.02  -0.01
 100   1     0.01   0.01  -0.00    -0.01  -0.01  -0.01    -0.02  -0.04  -0.00
[...]
  83   1    -0.03  -0.00  -0.00    -0.04  -0.00  -0.01     0.00   0.00   0.00
  84   1     0.00  -0.00  -0.00     0.02  -0.02  -0.01    -0.01   0.00   0.00
  85   1    -0.00  -0.01  -0.01     0.03   0.09   0.07     0.01   0.04   0.03
  86   1     0.00  -0.00  -0.00    -0.03   0.03   0.01    -0.01   0.01   0.00
  87   1     0.00   0.00   0.00     0.00   0.01   0.00    -0.00  -0.00  -0.00
  88   1     0.00   0.01   0.00     0.00   0.00   0.00     0.00   0.01   0.00
  89   1     0.01  -0.02  -0.01    -0.00   0.00   0.00    -0.00   0.01   0.00
  90   1     0.03  -0.00  -0.00    -0.01   0.00   0.00    -0.02   0.00   0.00
  91   1     0.01   0.01   0.00    -0.00  -0.00  -0.00    -0.01  -0.01  -0.00
  92   1    -0.00   0.01   0.00     0.00  -0.00  -0.00     0.00  -0.01  -0.00
  93   1     0.21   0.38   0.05     0.01   0.01   0.00    -0.01  -0.03  -0.00
  94   1     0.21   0.27  -0.45     0.01   0.01  -0.02    -0.02  -0.02   0.04
  95   1     0.00   0.00   0.01    -0.00  -0.01  -0.02     0.00   0.01   0.02
  96   1     0.32   0.53   0.08    -0.02  -0.03  -0.00    -0.01  -0.01  -0.00
  97   1    -0.06   0.01   0.02     0.04  -0.00  -0.01    -0.26   0.03   0.07
  98   1    -0.01   0.02   0.01     0.02  -0.06  -0.02    -0.15   0.40   0.16
  99   1     0.01   0.02   0.00    -0.06  -0.07  -0.01     0.40   0.48   0.06
 100   1     0.01  -0.00  -0.00    -0.06   0.01   0.02     0.40  -0.05  -0.11
 101   1     0.00  -0.01  -0.01    -0.01   0.03   0.01     0.07  -0.18  -0.08
 102   1     0.02   0.03   0.01    -0.01  -0.01  -0.00    -0.01  -0.02  -0.00
 103   1     0.00   0.01  -0.01    -0.00  -0.02   0.02    -0.00  -0.01   0.01
 104   1     0.00   0.00   0.01     0.02   0.01   0.05     0.01   0.01   0.02
 105   1     0.01   0.02   0.00     0.02   0.03   0.01     0.01   0.02   0.00
 106   1    -0.00   0.00   0.00     0.01  -0.01  -0.01    -0.00   0.00   0.00
 107   1     0.00   0.01   0.00    -0.00  -0.00  -0.00     0.00   0.00   0.00
                    310                    311                    312
                        a                      a                      a 
 Frequencies --  3099.3945              3100.4355              3101.4094
 Red. masses --     1.9092                 1.8930                 1.8520
 Frc consts  --     0.0000                 0.0000                 0.0000
 IR Inten    --    48.4726                50.3726                43.5660
 Raman Activ --     0.0000                 0.0000                 0.0000
 Depolar     --     0.0000                 0.0000                 0.0000
 Atom AN      X      Y      Z        X      Y      Z        X      Y      Z
   1   6    -0.00   0.00  -0.00    -0.00   0.00  -0.00    -0.00   0.00   0.00
   2   6    -0.00   0.00  -0.00    -0.00   0.00  -0.00     0.00   0.00  -0.00
   3   6     0.00   0.00   0.00    -0.00   0.00  -0.00     0.00   0.00   0.00
   4   6     0.00   0.00  -0.00    -0.00   0.00  -0.00     0.00   0.00  -0.00
   5   6    -0.00   0.00  -0.00    -0.00   0.00  -0.00    -0.00   0.00  -0.00
   6   6    -0.00   0.01  -0.00    -0.00   0.00  -0.00    -0.00   0.02  -0.00
   7   6     0.01   0.01  -0.00     0.00   0.00  -0.00     0.02   0.02  -0.00
   8   6     0.00  -0.00   0.00    -0.00  -0.00  -0.00     0.00  -0.00   0.00
   9   6    -0.00   0.00  -0.00    -0.00   0.00  -0.00    -0.00   0.00  -0.00
  10   6     0.00   0.00   0.00     0.00   0.00   0.00     0.00   0.00   0.00
  11   6     0.00  -0.00   0.00     0.00  -0.00   0.00     0.00  -0.00   0.00
  12   6     0.00   0.00   0.00     0.00   0.00   0.00     0.00   0.00   0.00
  13   6    -0.00  -0.00   0.00    -0.00  -0.00   0.00     0.00  -0.00   0.00
  14   6     0.00  -0.00   0.00     0.00  -0.00  -0.00    -0.00  -0.00   0.00
  15   6    -0.00  -0.00   0.00    -0.00  -0.00  -0.00    -0.00  -0.00   0.00
  16   6     0.00  -0.00   0.00     0.00  -0.00  -0.00     0.00  -0.00  -0.00
  17   6     0.00  -0.00   0.00     0.00  -0.00   0.00     0.00  -0.00   0.00
  18   6     0.00  -0.01   0.00     0.00  -0.01   0.00     0.00  -0.00   0.00
  19   6     0.01  -0.00   0.00     0.01  -0.00   0.00     0.00  -0.00   0.00
  20   6     0.00   0.00  -0.00     0.00   0.00  -0.00     0.00  -0.00   0.00
  21   7     0.00  -0.00   0.00    -0.00  -0.00   0.00     0.00   0.00   0.00
  22   6     0.00   0.00   0.00     0.00   0.00   0.00    -0.00  -0.00  -0.00
  23   6     0.01  -0.01  -0.01     0.02  -0.01  -0.01    -0.06   0.04   0.04
  24   6    -0.01  -0.03  -0.02    -0.02  -0.06  -0.04     0.06   0.18   0.13
  25   6    -0.00  -0.00  -0.00    -0.00  -0.00  -0.00     0.01   0.00   0.00
  26   6     0.00  -0.00  -0.00     0.00  -0.00  -0.00    -0.00   0.00   0.00
  27   6     0.01  -0.01  -0.00     0.02  -0.02  -0.00    -0.06   0.06   0.01
  28   6    -0.00  -0.00  -0.00    -0.00  -0.00  -0.00     0.01   0.02   0.01
  29   6    -0.00   0.00   0.00    -0.00   0.00   0.00     0.00  -0.00  -0.00
  30   6     0.00  -0.00   0.00     0.00   0.00  -0.00     0.00  -0.00  -0.00
  31   6     0.00  -0.00  -0.00    -0.00  -0.00  -0.00    -0.00  -0.00  -0.00
  32   6     0.00   0.00   0.00    -0.00  -0.00  -0.00    -0.00   0.00  -0.00
  33   6    -0.00  -0.00  -0.00    -0.00  -0.00  -0.00     0.00  -0.00  -0.00
  34   6     0.00  -0.01  -0.00     0.00  -0.00  -0.00     0.00  -0.00  -0.00
  35   6     0.01  -0.00  -0.00     0.01  -0.00  -0.00     0.01  -0.00  -0.00
  36   6     0.00   0.00   0.00     0.00   0.00   0.00     0.00   0.01   0.00
  37   6    -0.00   0.00   0.00    -0.00   0.00   0.00    -0.00   0.01   0.00
  38   6    -0.00   0.00  -0.00     0.00   0.00   0.00    -0.00   0.00   0.00
  39   6    -0.00  -0.00  -0.00     0.00   0.00   0.00     0.00   0.00   0.00
  40   6    -0.00  -0.01  -0.00     0.03   0.06   0.01     0.01   0.02   0.00
  41   6    -0.01  -0.01   0.01     0.05   0.07  -0.11     0.02   0.02  -0.04
  42   6     0.00   0.00   0.01    -0.02  -0.05  -0.11    -0.01  -0.01  -0.03
  43   6     0.01   0.02   0.00    -0.09  -0.15  -0.02    -0.02  -0.04  -0.01
  44   6     0.00   0.00  -0.00    -0.00  -0.00   0.00    -0.00  -0.00   0.00
  45   7    -0.00  -0.00   0.00    -0.00  -0.00  -0.00    -0.00  -0.00  -0.00
  46   6     0.00   0.00  -0.00    -0.00   0.00   0.00    -0.00   0.00   0.00
  47   6     0.00  -0.00  -0.00     0.00  -0.00   0.00     0.00  -0.00  -0.00
  48   6     0.00  -0.00  -0.00    -0.00   0.01   0.00     0.00  -0.00  -0.00
  49   6    -0.00  -0.00  -0.00     0.01   0.01   0.00    -0.00  -0.00  -0.00
  50   6    -0.00   0.00   0.00     0.01  -0.00  -0.00    -0.00   0.00   0.00
  51   6    -0.00   0.00   0.00     0.00  -0.00  -0.00     0.00   0.00   0.00
  52   6    -0.00  -0.00  -0.00    -0.00  -0.00  -0.00    -0.00  -0.00  -0.00
  53   6    -0.03  -0.07  -0.01    -0.00  -0.01  -0.00    -0.01  -0.01  -0.00
  54   6    -0.01  -0.08   0.09    -0.00  -0.00   0.01    -0.00  -0.01   0.02
  55   6     0.07   0.05   0.18     0.00   0.00   0.01     0.01   0.01   0.03
  56   6     0.06   0.12   0.02     0.00   0.00   0.00     0.01   0.02   0.00
  57   6     0.00   0.00  -0.00     0.00   0.00   0.00     0.00   0.00  -0.00
  58   6     0.00  -0.00  -0.00     0.00  -0.00  -0.00     0.01  -0.01  -0.01
  59   6    -0.00  -0.00  -0.00    -0.00  -0.00  -0.00    -0.00  -0.00  -0.00
  60   1    -0.00  -0.00   0.00    -0.00  -0.00   0.00    -0.00  -0.00   0.00
  61   1     0.00  -0.00   0.00     0.00  -0.00   0.00     0.00  -0.00   0.00
  62   1    -0.00  -0.00  -0.00    -0.00   0.00   0.00    -0.00  -0.00  -0.00
  63   1    -0.00  -0.00   0.00    -0.00  -0.00   0.00    -0.01  -0.00   0.00
  64   1     0.00   0.00  -0.00    -0.00   0.00  -0.00     0.00   0.00  -0.00
  65   1     0.00  -0.00   0.00     0.00  -0.00   0.00     0.00  -0.00   0.00
  66   1     0.00  -0.00   0.00     0.00  -0.00   0.00     0.00  -0.00   0.00
  67   1    -0.00   0.00   0.00    -0.00   0.00   0.00     0.00   0.00   0.00
  68   1    -0.00  -0.00   0.00    -0.00  -0.00   0.00    -0.01  -0.00   0.00
  69   1     0.00  -0.04   0.01     0.00  -0.01   0.00     0.01  -0.08   0.01
  70   1    -0.03  -0.02   0.00    -0.00  -0.00   0.00    -0.09  -0.06   0.01
  71   1    -0.00  -0.00   0.00    -0.00  -0.00   0.00    -0.00  -0.00  -0.00
  72   1    -0.00  -0.00  -0.00    -0.00  -0.00  -0.00    -0.00  -0.00  -0.00
  73   1    -0.00   0.00   0.00    -0.00   0.00   0.00     0.00  -0.00  -0.00
  74   1     0.00   0.00  -0.00     0.00   0.00  -0.00     0.00   0.00  -0.00
  75   1    -0.00   0.00  -0.00    -0.00  -0.00   0.00    -0.00  -0.00  -0.00
  76   1     0.00  -0.00   0.00     0.00  -0.00   0.00     0.00  -0.00   0.00
  77   1     0.00   0.00   0.00     0.00   0.00  -0.00     0.00   0.00  -0.00
  78   1    -0.00   0.00  -0.00    -0.00   0.00  -0.00    -0.00   0.00  -0.00
  79   1     0.00  -0.00  -0.00     0.00  -0.00   0.00     0.00  -0.00  -0.00
  80   1     0.00   0.00  -0.00     0.00   0.00  -0.00     0.00   0.00  -0.00
  81   1    -0.00   0.00  -0.00    -0.00   0.00  -0.00    -0.00   0.00  -0.00
  82   1    -0.01   0.02  -0.00    -0.01   0.02  -0.00    -0.01   0.01  -0.00
  83   1    -0.02  -0.00  -0.00    -0.03  -0.00  -0.00    -0.01  -0.00  -0.00
  84   1    -0.03   0.02   0.02    -0.06   0.04   0.04     0.19  -0.14  -0.14
  85   1     0.04   0.11   0.08     0.06   0.21   0.15    -0.20  -0.63  -0.45
  86   1    -0.03   0.03   0.01    -0.06   0.06   0.01     0.21  -0.20  -0.05
  87   1     0.00   0.00   0.00     0.00   0.01   0.00    -0.02  -0.07  -0.02
  88   1    -0.00   0.00   0.00     0.00   0.01   0.00     0.00   0.00   0.00
  89   1    -0.01   0.02   0.00    -0.00   0.01   0.00    -0.00   0.01   0.00
  90   1    -0.03   0.00   0.00    -0.02   0.00   0.00    -0.03   0.00   0.00
  91   1    -0.01  -0.01  -0.00    -0.01  -0.01  -0.00    -0.01  -0.02  -0.00
  92   1     0.00  -0.01  -0.00     0.00  -0.01  -0.00     0.01  -0.03  -0.01
  93   1     0.01   0.02   0.00    -0.11  -0.20  -0.03    -0.04  -0.07  -0.01
  94   1     0.02   0.02  -0.04    -0.18  -0.24   0.39    -0.06  -0.08   0.12
  95   1    -0.01  -0.01  -0.04     0.06   0.15   0.37     0.02   0.05   0.11
  96   1    -0.03  -0.05  -0.01     0.31   0.52   0.08     0.09   0.14   0.02
  97   1    -0.01   0.00   0.00    -0.00   0.00   0.00    -0.02   0.00   0.00
  98   1    -0.01   0.01   0.01     0.01  -0.02  -0.01    -0.01   0.02   0.01
  99   1     0.01   0.02   0.00    -0.02  -0.03  -0.00     0.01   0.02   0.00
 100   1     0.01  -0.00  -0.00    -0.03   0.00   0.01     0.01  -0.00  -0.00
 101   1     0.00  -0.00  -0.00    -0.01   0.02   0.01     0.00  -0.00  -0.00
 102   1     0.12   0.22   0.04     0.01   0.02   0.00     0.02   0.05   0.01
 103   1     0.05   0.26  -0.29     0.00   0.01  -0.02     0.01   0.05  -0.05
 104   1    -0.23  -0.15  -0.60    -0.01  -0.01  -0.02    -0.04  -0.03  -0.10
 105   1    -0.21  -0.41  -0.08    -0.00  -0.01  -0.00    -0.03  -0.06  -0.01
 106   1    -0.01   0.01   0.01    -0.01   0.01   0.01    -0.04   0.03   0.03
 107   1     0.00   0.01   0.01     0.00   0.01   0.01     0.00   0.01   0.01
                    313                    314                    315
                        a                      a                      a 
 Frequencies --  3108.9347              3115.7007              3119.3927
 Red. masses --     1.8011                 1.8212                 1.8167
 Frc consts  --     0.0000                 0.0000                 0.0000
 IR Inten    --     7.1583                 3.0047                24.4066
 Raman Activ --     0.0000                 0.0000                 0.0000
 Depolar     --     0.0000                 0.0000                 0.0000
 Atom AN      X      Y      Z        X      Y      Z        X      Y      Z
   1   6     0.00  -0.00  -0.00     0.00  -0.00   0.00    -0.00   0.00  -0.00
   2   6     0.00  -0.00  -0.00    -0.00  -0.00   0.00     0.00   0.00  -0.00
   3   6     0.00  -0.00   0.00    -0.00  -0.00   0.00     0.00   0.00  -0.00
   4   6     0.00  -0.00  -0.00    -0.00  -0.00  -0.00     0.00   0.00   0.00
   5   6    -0.00   0.00  -0.00    -0.01   0.00  -0.00     0.01  -0.00   0.00
   6   6     0.00  -0.00   0.00     0.00   0.01  -0.00    -0.00  -0.00   0.00
   7   6    -0.00  -0.00   0.00     0.00   0.00  -0.00    -0.00  -0.00   0.00
   8   6     0.00   0.00  -0.00     0.00   0.00  -0.00    -0.00  -0.00   0.00
   9   6    -0.00  -0.00   0.00    -0.00  -0.01   0.00     0.00   0.01  -0.00
  10   6     0.00   0.00   0.00    -0.17  -0.13   0.00     0.13   0.10  -0.00
  11   6    -0.00   0.00  -0.00     0.00  -0.00   0.00     0.00  -0.00   0.00
  12   6    -0.00   0.00  -0.00     0.17  -0.00   0.02     0.21  -0.00   0.02
  13   6    -0.00  -0.00  -0.00     0.00   0.00  -0.00     0.00   0.01  -0.00
  14   6     0.00   0.00  -0.00     0.00  -0.00   0.00     0.00  -0.00   0.00
  15   6    -0.00   0.00  -0.00     0.00  -0.00   0.00     0.00  -0.00   0.00
  16   6     0.00   0.00  -0.00     0.00  -0.00   0.00     0.00  -0.00   0.00
  17   6     0.00   0.00   0.00     0.00  -0.00  -0.00     0.00  -0.00  -0.00
  18   6     0.00  -0.00   0.00    -0.00   0.00  -0.00    -0.00   0.00  -0.00
  19   6     0.00  -0.00   0.00    -0.00   0.00  -0.00    -0.00   0.00  -0.00
  20   6     0.00   0.00  -0.00    -0.00   0.00  -0.00    -0.00   0.00  -0.00
  21   7     0.00  -0.00   0.00    -0.00  -0.00  -0.00     0.00   0.00   0.00
  22   6    -0.00   0.00   0.00    -0.00   0.00   0.00    -0.00  -0.00  -0.00
  23   6     0.00  -0.00  -0.00     0.00  -0.00  -0.00     0.00   0.00  -0.00
  24   6    -0.00  -0.00  -0.00    -0.00  -0.00  -0.00    -0.00  -0.00  -0.00
  25   6     0.00  -0.00  -0.00     0.00   0.00   0.00    -0.00  -0.00  -0.00
  26   6    -0.00  -0.01  -0.00    -0.00  -0.00  -0.00     0.00   0.00   0.00
  27   6    -0.00   0.00   0.00     0.00  -0.00  -0.00     0.00  -0.00  -0.00
  28   6     0.00   0.00  -0.00    -0.00  -0.00  -0.00    -0.00  -0.00  -0.00
  29   6    -0.00   0.00   0.00     0.00   0.00   0.00    -0.00  -0.00  -0.00
  30   6     0.01  -0.01  -0.00     0.00  -0.00  -0.00     0.00   0.00   0.00
  31   6    -0.07  -0.24  -0.06    -0.00  -0.00  -0.00    -0.00  -0.00  -0.00
  32   6     0.00  -0.00  -0.00    -0.00  -0.00  -0.00     0.00   0.00  -0.00
  33   6    -0.00  -0.00  -0.00    -0.00   0.00   0.00     0.00   0.00   0.00
  34   6    -0.00  -0.00  -0.00     0.00  -0.00  -0.00    -0.00   0.00   0.00
  35   6     0.00  -0.00  -0.00     0.00  -0.00  -0.00    -0.00   0.00   0.00
  36   6     0.00   0.00   0.00     0.00   0.00   0.00    -0.00  -0.00  -0.00
  37   6     0.00   0.00  -0.00     0.00  -0.00  -0.00     0.00  -0.00  -0.00
  38   6    -0.00  -0.00  -0.00    -0.00   0.00  -0.00     0.00  -0.00  -0.00
  39   6    -0.00   0.00   0.00     0.00   0.00   0.00    -0.00  -0.00  -0.00
  40   6    -0.00  -0.00  -0.00     0.00   0.00   0.00    -0.00  -0.00  -0.00
  41   6    -0.00  -0.00   0.00     0.00   0.00  -0.00    -0.00  -0.00   0.00
  42   6     0.00   0.00   0.00    -0.00  -0.00  -0.00     0.00   0.00   0.00
  43   6     0.00   0.00   0.00    -0.00  -0.00  -0.00     0.00   0.00   0.00
  44   6     0.00   0.00   0.00    -0.00  -0.00   0.00    -0.00  -0.00   0.00
  45   7     0.00  -0.00   0.00     0.00   0.00  -0.00     0.00   0.00  -0.00
  46   6    -0.00  -0.00  -0.00    -0.00  -0.00  -0.00     0.00   0.00  -0.00
  47   6    -0.00   0.00   0.00    -0.00   0.00   0.00    -0.00   0.00   0.00
  48   6    -0.00   0.00   0.00     0.00  -0.00  -0.00    -0.00   0.00   0.00
  49   6     0.00   0.00   0.00    -0.00  -0.00  -0.00     0.00   0.00   0.00
  50   6     0.00  -0.00  -0.00    -0.00   0.00   0.00     0.00  -0.00  -0.00
  51   6     0.00  -0.01  -0.00    -0.00   0.00   0.00    -0.00   0.00   0.00
  52   6    -0.00   0.00  -0.00     0.00  -0.00  -0.00    -0.00   0.00  -0.00
  53   6     0.00   0.00   0.00    -0.00  -0.00  -0.00     0.00   0.00   0.00
  54   6     0.00   0.00  -0.00    -0.00  -0.00   0.00     0.00   0.00  -0.00
  55   6    -0.00  -0.00  -0.00     0.00   0.00   0.00    -0.00  -0.00  -0.00
  56   6    -0.00  -0.00  -0.00     0.00   0.00   0.00    -0.00  -0.00  -0.00
  57   6    -0.00   0.00  -0.00     0.00   0.00  -0.00    -0.00  -0.00   0.00
  58   6     0.05  -0.04  -0.04     0.00  -0.00  -0.00     0.00   0.00  -0.00
  59   6    -0.00  -0.01  -0.01    -0.00  -0.00  -0.00    -0.00  -0.00  -0.00
  60   1    -0.00   0.00  -0.00    -0.00   0.01  -0.01    -0.00  -0.01   0.01
  61   1    -0.00   0.00  -0.00    -0.00   0.00  -0.00     0.00  -0.00   0.00
  62   1    -0.00   0.00   0.00    -0.00   0.01   0.01     0.00  -0.01  -0.01
  63   1    -0.00   0.00  -0.00     0.00   0.00  -0.00    -0.00  -0.00   0.00
  64   1    -0.00   0.00  -0.00    -0.00   0.00  -0.00     0.00  -0.00   0.00
  65   1    -0.00   0.00  -0.00    -0.00   0.00   0.00    -0.00   0.00  -0.00
  66   1    -0.00   0.00  -0.00    -0.00   0.00  -0.00    -0.00   0.00   0.00
  67   1    -0.00   0.00   0.00    -0.00   0.00   0.00     0.00  -0.00  -0.00
  68   1    -0.00  -0.00  -0.00     0.00   0.00  -0.00    -0.00  -0.00   0.00
  69   1    -0.00   0.00  -0.00     0.00  -0.02   0.00     0.00   0.01  -0.00
  70   1     0.00   0.00  -0.00    -0.00  -0.00   0.00     0.00   0.00  -0.00
  71   1    -0.00  -0.00  -0.00     0.62   0.44  -0.00    -0.48  -0.34   0.00
  72   1     0.00  -0.00   0.00    -0.59  -0.00  -0.05    -0.75  -0.00  -0.07
  73   1    -0.00   0.00   0.00    -0.00   0.01   0.01    -0.01   0.01   0.01
  74   1    -0.00  -0.00  -0.00     0.00   0.00  -0.00     0.00   0.01  -0.00
  75   1     0.00  -0.00   0.00    -0.00   0.01  -0.01    -0.00   0.01  -0.01
  76   1     0.00  -0.00   0.00     0.00   0.00  -0.00     0.00   0.00  -0.00
  77   1    -0.00  -0.00   0.00     0.00   0.00   0.00    -0.00  -0.00   0.00
  78   1    -0.00   0.00  -0.00    -0.00   0.00  -0.00    -0.00   0.00  -0.00
  79   1     0.00  -0.00  -0.00    -0.00   0.00   0.00    -0.00   0.00   0.00
  80   1    -0.00  -0.00   0.00     0.00   0.00  -0.00     0.00  -0.00  -0.00
  81   1    -0.00   0.00  -0.00    -0.00   0.00  -0.00    -0.00   0.00  -0.00
  82   1    -0.00   0.00  -0.00     0.01  -0.01   0.00     0.01  -0.01   0.00
  83   1    -0.01   0.00  -0.00     0.00  -0.00   0.00     0.00   0.00   0.00
  84   1    -0.01   0.00   0.00    -0.00   0.00   0.00    -0.00  -0.00  -0.00
  85   1     0.00   0.01   0.01     0.00   0.00   0.00     0.00   0.00   0.00
  86   1     0.01  -0.01  -0.00    -0.00   0.00   0.00    -0.00   0.00   0.00
  87   1    -0.00  -0.00   0.00     0.00   0.00   0.00     0.00   0.00   0.00
  88   1     0.25   0.86   0.21     0.00   0.00   0.00     0.00   0.00   0.00
  89   1    -0.00   0.00   0.00    -0.00   0.00   0.00     0.00  -0.00  -0.00
  90   1    -0.00   0.00   0.00    -0.00   0.00   0.00     0.00  -0.00  -0.00
  91   1    -0.00  -0.00  -0.00    -0.00  -0.00  -0.00     0.00   0.00   0.00
  92   1    -0.00   0.00   0.00    -0.00   0.00   0.00    -0.00   0.00   0.00
  93   1     0.00   0.01   0.00    -0.00  -0.00  -0.00     0.00   0.00   0.00
  94   1     0.00   0.00  -0.00    -0.00  -0.00   0.00     0.00   0.00  -0.00
  95   1    -0.00  -0.00  -0.00     0.00   0.00   0.00    -0.00  -0.00  -0.00
  96   1    -0.01  -0.02  -0.00     0.00   0.00   0.00    -0.00  -0.00  -0.00
  97   1     0.01  -0.00  -0.00     0.00  -0.00  -0.00     0.00  -0.00  -0.00
  98   1     0.00  -0.00  -0.00    -0.00   0.00   0.00     0.00  -0.00  -0.00
  99   1    -0.00  -0.00  -0.00     0.00   0.00   0.00    -0.00  -0.00  -0.00
 100   1    -0.01   0.00   0.00     0.00  -0.00  -0.00    -0.00   0.00   0.00
 101   1    -0.01   0.02   0.01     0.00  -0.00  -0.00     0.00  -0.00  -0.00
 102   1    -0.00  -0.01  -0.00     0.00   0.00   0.00    -0.00  -0.00  -0.00
 103   1    -0.00  -0.00   0.00     0.00   0.00  -0.00    -0.00  -0.00   0.00
 104   1     0.00   0.00   0.00    -0.00  -0.00  -0.00     0.00   0.00   0.00
 105   1     0.00   0.01   0.00    -0.00  -0.00  -0.00     0.00   0.00   0.00
 106   1    -0.20   0.14   0.15    -0.00   0.00   0.00    -0.00   0.00   0.00
 107   1     0.01   0.04   0.03     0.00   0.00   0.00     0.00   0.00   0.00
