$hessian                                                                        
        0.5803240805  -0.1286744026   0.1385463806  -0.2900306276   0.0249231052
       -0.1050280967  -0.0353434129   0.0685894564   0.0341000084  -0.0386133839
       -0.0143548464  -0.0309071193   0.0004367939   0.0008207536   0.0026426146
       -0.0004748403  -0.0006106848  -0.0005527569   0.0000448461   0.0003667123
        0.0002891425  -0.0002044283  -0.0002306327   0.0000161155   0.0001650451
       -0.0000844365  -0.0002891914   0.0002085534   0.0002240415   0.0002762476
        0.0001264174  -0.0004917905   0.0000068957  -0.0005504168  -0.0001458917
        0.0001684589   0.0004564611  -0.0002659467  -0.0000027594  -0.0002949656
       -0.0002425502   0.0001241060  -0.0000376659   0.0003362060  -0.0001114969
        0.0000534459  -0.0000113246  -0.0000520940  -0.0000066562  -0.0000037270
       -0.0000040911   0.0000059278   0.0000011074   0.0000037069  -0.0000032902
       -0.0000037287  -0.0000014956  -0.0000107205   0.0000012438   0.0000025200
        0.0000028004  -0.0000035925  -0.0000029322  -0.0000076955  -0.0000053688
        0.0000009930  -0.0000106678  -0.0000000363   0.0000025294   0.0000169960
        0.0000043896  -0.0000040144  -0.0000048258   0.0000043046  -0.0000073675
        0.0000031955   0.0000002929  -0.0000005145  -0.0000029478  -0.0000016605
        0.0000016581   0.0000006489   0.0000010096  -0.0000017173  -0.0000025308
       -0.0000011030   0.0000009328  -0.0000008503   0.0000009220  -0.0000013283
        0.0000031315   0.0000013578  -0.0000006389  -0.0000032024   0.0000000809
        0.0000002909   0.0000008630  -0.0000004484   0.0000016366  -0.0000045543
       -0.0000033535   0.0000006955   0.0000088137   0.0000012451  -0.0000011056
       -0.0000124589  -0.0000000202  -0.0000003574   0.0000004214   0.0000048909
       -0.0000017925  -0.0000009314  -0.0000010158   0.0000004073   0.0000003670
        0.0000008653  -0.0000010132  -0.0000010372  -0.0000009195  -0.0000003718
       -0.0000008136   0.0000009743  -0.0000020993  -0.0000006363  -0.0000004653
        0.0000006085   0.0000046567  -0.0000061129   0.0000026158  -0.0000020041
        0.0000006888  -0.0000007109   0.0000000777  -0.0000007854   0.0000010654
       -0.0000016797   0.0000012894  -0.0000000194   0.0000007365  -0.0000002129
        0.0000005180  -0.0000007635   0.0000014837  -0.0000011486  -0.0000031554
        0.0000028013  -0.0000001978  -0.0000007284   0.0000004400  -0.0000014231
       -0.0000033571   0.0000001082   0.0000004527   0.0000002960   0.0000014722
       -0.0000000171  -0.0000011935  -0.0000002466   0.0000008833   0.0000035546
        0.0000001074   0.0000009921   0.0000023319  -0.0000024948   0.0000035286
        0.0000003747  -0.0000023959   0.0000044849   0.0000016988   0.0000018442
       -0.0000026953  -0.0000033883  -0.0000007507   0.0000012643  -0.0000041449
       -0.0000003817   0.0000038540  -0.0000025131   0.0000016567   0.0000014320
       -0.0000045086  -0.0000037361  -0.0000024669  -0.0000083483  -0.0000006030
        0.0000030375   0.0000322348  -0.0000002633   0.0000010755  -0.0000267800
       -0.0000031357   0.0000039402   0.0003824310  -0.0000273035   0.0001227333
       -0.0005609870   0.0003265340   0.0003636629   0.0492916940  -0.0283734219
        0.0011773312  -0.1305666714  -0.0197678110  -0.0584796244  -0.1069566186
        0.1035854592   0.0448071059  -0.0139584225   0.0011541058  -0.0061652578
        0.0006748093   0.0039622711  -0.0004768702   0.0000049445  -0.0000020341
       -0.0000462857   0.0000117861  -0.0000117637   0.0000059807  -0.0000336587
        0.0000243339  -0.0000402232   0.0000321295   0.0000031487  -0.0000001346
        0.0000018946  -0.0000351834  -0.0001098883  -0.0000172475  -0.0000482628
        0.0000326914  -0.0000001422  -0.0000049444   0.0000095565  -0.0000027046
       -0.0000090873  -0.0000153429  -0.0000003086   0.0000034342   0.0000075056
       -0.0000033560   0.0000023457   0.0000045742  -0.0000057985   0.0000014426
        0.0000040816   0.0000005864  -0.0000008811   0.0000008053  -0.0000052129
       -0.0000031530   0.0000031157  -0.0000019962  -0.0000011388   0.0000005168
       -0.0000020043  -0.0000006365   0.0000002139   0.0000000992  -0.0000002966
        0.0000002913  -0.0000012395   0.0000006378   0.0000006183  -0.0000006162
       -0.0000006724  -0.0000006031  -0.0000006705  -0.0000009192  -0.0000006145
       -0.0000010484  -0.0000009272  -0.0000008353  -0.0000011272  -0.0000006351
       -0.0000010695  -0.0000011048   0.0000002842  -0.0000010635  -0.0000008285
       -0.0000003594   0.0000001859  -0.0000012741   0.0000005604   0.0000004342
       -0.0000008243   0.0000007982   0.0000001877  -0.0000005219   0.0000010448
        0.0000000510  -0.0000004483   0.0000007024   0.0000004889  -0.0000009785
       -0.0000002640  -0.0000005004  -0.0000005887   0.0000014104   0.0000001401
       -0.0000013709   0.0000004498   0.0000002648  -0.0000002071   0.0000000513
        0.0000014048  -0.0000010805   0.0000013721  -0.0000005550  -0.0000000369
       -0.0000014753   0.0000017392  -0.0000063354  -0.0000023595  -0.0000003067
       -0.0000053777  -0.0000008615  -0.0000006218  -0.0000048855   0.0000024747
       -0.0000035719   0.0000073057   0.0000243069   0.0000151405  -0.0000167086
        0.0000133207   0.0000301554  -0.0002154480   0.0001110423   0.0000045381
        0.0004440086   0.0044700738  -0.0000795620  -0.0146924835  -0.0155329991
       -0.0204046442
       -0.1286744026   0.4853594765   0.2335668140   0.0821522577  -0.0877744410
        0.0100528526   0.0255400109  -0.0027164209   0.0106517793  -0.0152240599
       -0.0008944683  -0.0043651503   0.0013522022  -0.0018636352  -0.0001965864
        0.0000026768  -0.0000447657   0.0003481163  -0.0000267896   0.0001157013
        0.0000806033  -0.0001436878  -0.0000787208   0.0001274945   0.0000913454
        0.0000502869  -0.0000643068   0.0000639365   0.0000422664   0.0000144655
        0.0000119545  -0.0003145947  -0.0000893950  -0.0004937800   0.0001794529
       -0.0003486444   0.0000805689  -0.0000226688   0.0000029614  -0.0000582447
        0.0000526249  -0.0000034836  -0.0000697475   0.0000730551  -0.0000348418
       -0.0000516063   0.0000118344  -0.0000015088   0.0000205198   0.0000049167
        0.0000007062  -0.0000217706   0.0000000386   0.0000008630   0.0000023698
       -0.0000001616  -0.0000033930   0.0000126023  -0.0000021325  -0.0000072971
        0.0000011107   0.0000089283   0.0000076308   0.0000126002   0.0000035214
        0.0000040580   0.0000231180   0.0000041769  -0.0000010449  -0.0000242643
       -0.0000027044   0.0000072318  -0.0000011443  -0.0000088169   0.0000132541
       -0.0000041343   0.0000014804   0.0000005992   0.0000030311   0.0000015896
       -0.0000013457   0.0000007881   0.0000018241  -0.0000012368   0.0000048315
        0.0000017664  -0.0000014968  -0.0000001305  -0.0000017895   0.0000016667
        0.0000018796  -0.0000008826  -0.0000001476   0.0000036981   0.0000003298
       -0.0000007750   0.0000010968  -0.0000013122  -0.0000011016   0.0000010794
       -0.0000009058  -0.0000002458   0.0000046197   0.0000005005  -0.0000007515
       -0.0000001204   0.0000015750  -0.0000007500   0.0000001878  -0.0000014084
        0.0000021913   0.0000008652   0.0000004919   0.0000016417   0.0000000937
        0.0000010456   0.0000008508   0.0000012615   0.0000024843   0.0000009098
        0.0000007223   0.0000000290   0.0000022878   0.0000000972   0.0000000223
        0.0000004414   0.0000013049  -0.0000004759  -0.0000004522  -0.0000000522
        0.0000005504   0.0000003944   0.0000008338   0.0000005874  -0.0000013669
        0.0000013742  -0.0000007053  -0.0000009012   0.0000009224  -0.0000009382
       -0.0000004457   0.0000009626   0.0000002627  -0.0000018243   0.0000000197
        0.0000008029   0.0000000129   0.0000010218  -0.0000002422   0.0000001004
        0.0000044762  -0.0000022815   0.0000014411  -0.0000000055  -0.0000045304
        0.0000024121   0.0000019305   0.0000003809  -0.0000026435  -0.0000059318
       -0.0000009457  -0.0000000684   0.0000022791   0.0000059050  -0.0000077033
       -0.0000082021   0.0000031829  -0.0000044761  -0.0000035099  -0.0000032444
        0.0000032480   0.0000026804   0.0000004028  -0.0000012386   0.0000155881
       -0.0000036617  -0.0000047846  -0.0000102883  -0.0000076822  -0.0000050230
        0.0000198429   0.0000094297   0.0000041431   0.0000054227  -0.0000060649
       -0.0000113531   0.0000065852   0.0000095434   0.0000020254   0.0000089617
       -0.0000157839  -0.0000149133   0.0001140266  -0.0000341362   0.0000377099
        0.0000816889  -0.0000460797   0.0000843787   0.0137569529  -0.0393411931
       -0.0271876182  -0.0766235612  -0.1592265269  -0.1296650312   0.1034738620
       -0.1979947223  -0.0797198784  -0.0159355171   0.0030066662  -0.0067105395
        0.0044323271  -0.0008504966  -0.0047306061  -0.0000203877  -0.0000213434
        0.0000741139  -0.0000150035   0.0000024538  -0.0000131207   0.0000050480
       -0.0000171068   0.0000047435  -0.0000127159  -0.0000340073   0.0000224506
       -0.0000388197  -0.0001384596  -0.0000704136  -0.0000043574   0.0000640859
       -0.0000413511  -0.0000065301   0.0000063857  -0.0000043533  -0.0000006982
        0.0000022395   0.0000075397  -0.0000000712   0.0000025027   0.0000003816
        0.0000008923   0.0000009888  -0.0000019718   0.0000034961  -0.0000001914
       -0.0000020531  -0.0000008126   0.0000026140  -0.0000036903   0.0000046907
        0.0000027779  -0.0000022930   0.0000013182   0.0000001951   0.0000010928
       -0.0000000345   0.0000002668   0.0000007795   0.0000004357   0.0000002749
       -0.0000013818   0.0000005818   0.0000004459  -0.0000010524   0.0000003402
        0.0000007588  -0.0000000118   0.0000006118   0.0000017907   0.0000010105
        0.0000006038   0.0000012956   0.0000016947   0.0000006622   0.0000009349
        0.0000013251   0.0000008835   0.0000000333   0.0000007520   0.0000010351
        0.0000008279  -0.0000005568   0.0000009628   0.0000002345  -0.0000007857
        0.0000007777  -0.0000004776  -0.0000012531   0.0000009400  -0.0000014194
       -0.0000011326   0.0000003727  -0.0000008731  -0.0000001905   0.0000006223
       -0.0000004633   0.0000007561   0.0000007840  -0.0000008453   0.0000004715
       -0.0000001231  -0.0000003086  -0.0000023954   0.0000009470  -0.0000004636
       -0.0000030407   0.0000021421  -0.0000034095   0.0000006514  -0.0000019005
       -0.0000022748  -0.0000006532   0.0000002069   0.0000006234   0.0000035838
       -0.0000014544  -0.0000018048   0.0000020938   0.0000070166   0.0000033231
        0.0000147504  -0.0000228540  -0.0000257697  -0.0000092818   0.0000311649
        0.0000096527  -0.0000026552   0.0000830220  -0.0000293509  -0.0000898259
        0.0042003909  -0.0006868924  -0.0049427512   0.0018321743   0.0031731627
        0.0032271094
        0.1385463806   0.2335668140   0.3729363463  -0.0590497439  -0.0202487657
       -0.0938551690   0.0011631287   0.0326346829   0.0276278208  -0.0290673237
       -0.0032255318  -0.0256163148   0.0015750030  -0.0009059037   0.0011637957
       -0.0002459750  -0.0004146704  -0.0000051079   0.0000011564   0.0003380252
        0.0002676260  -0.0002412552  -0.0002122390   0.0001217758   0.0001727160
       -0.0000037254  -0.0002233806   0.0001970650   0.0001706173   0.0001983584
        0.0001135535  -0.0006332333  -0.0001177922  -0.0007319251   0.0000908466
       -0.0001575066   0.0003521374  -0.0001954327   0.0000081509  -0.0002257860
       -0.0001066962   0.0000800093  -0.0000583320   0.0002586735  -0.0001001215
       -0.0000116607  -0.0000003876  -0.0000352649   0.0000064298   0.0000034910
        0.0000015386  -0.0000090893   0.0000019041   0.0000052489  -0.0000013552
       -0.0000021553  -0.0000018312   0.0000001778  -0.0000004858  -0.0000023705
        0.0000055594   0.0000019426   0.0000007141  -0.0000022517  -0.0000041002
        0.0000007490   0.0000018586   0.0000018166   0.0000025555   0.0000012154
        0.0000029115   0.0000000262  -0.0000012803   0.0000007012  -0.0000004651
       -0.0000003480   0.0000008256  -0.0000001517   0.0000000168   0.0000001505
        0.0000000190   0.0000019189   0.0000011600  -0.0000009024   0.0000004660
       -0.0000002214   0.0000005388   0.0000004998  -0.0000003553  -0.0000001476
        0.0000025246   0.0000000897  -0.0000005126  -0.0000000931  -0.0000001611
       -0.0000001892   0.0000000068   0.0000004212   0.0000001560  -0.0000009898
       -0.0000019316  -0.0000002050   0.0000011135   0.0000002359  -0.0000001786
       -0.0000052517  -0.0000012353   0.0000009508   0.0000024284   0.0000063596
       -0.0000032300   0.0000003087   0.0000005888  -0.0000003450   0.0000018714
        0.0000018733   0.0000008968  -0.0000010706  -0.0000012561   0.0000016741
       -0.0000002422   0.0000020312  -0.0000013949   0.0000003756   0.0000003469
        0.0000015090   0.0000044917  -0.0000042493   0.0000012747   0.0000013719
       -0.0000005778  -0.0000007095   0.0000000730  -0.0000003446   0.0000008137
       -0.0000008655   0.0000014308  -0.0000018050   0.0000023992  -0.0000011146
       -0.0000008085   0.0000000730   0.0000001493   0.0000002333  -0.0000012859
        0.0000016178   0.0000004748  -0.0000001744  -0.0000014404  -0.0000004146
        0.0000005091  -0.0000006536  -0.0000000009   0.0000008021  -0.0000004265
       -0.0000005358   0.0000001886  -0.0000009417  -0.0000001966   0.0000011940
        0.0000006498  -0.0000011073   0.0000027923  -0.0000005172   0.0000007093
       -0.0000018829   0.0000001726  -0.0000003717   0.0000010422  -0.0000008833
        0.0000004717   0.0000003364  -0.0000004565   0.0000000066   0.0000022707
       -0.0000013648   0.0000032581  -0.0000057821  -0.0000003859   0.0000024498
        0.0000069517   0.0000025082   0.0000017712  -0.0000006108  -0.0000077502
       -0.0000071097   0.0000335216   0.0000063872   0.0000006869  -0.0000188174
       -0.0000181208  -0.0000115332   0.0003285187  -0.0000344486   0.0001276443
       -0.0003235793   0.0002120153   0.0003083928   0.0360135071  -0.0479299657
       -0.0203124449  -0.1051503602  -0.0997565920  -0.1817482859   0.0449979014
       -0.0795473006  -0.0736953091  -0.0206237114   0.0023469261  -0.0077428353
       -0.0003160722  -0.0052139825   0.0039866368  -0.0000211751  -0.0000172766
        0.0000392494  -0.0000075250  -0.0000031604  -0.0000033183  -0.0000184758
        0.0000035433  -0.0000209063   0.0000020255  -0.0000363682   0.0000163656
       -0.0000183100  -0.0001910161  -0.0001180194  -0.0000118867   0.0000195886
       -0.0000177302  -0.0000047279   0.0000009428   0.0000032748  -0.0000010081
       -0.0000020781  -0.0000032697   0.0000004159   0.0000039207   0.0000034949
       -0.0000000101   0.0000024645   0.0000007699   0.0000003000   0.0000006557
        0.0000002533   0.0000004545   0.0000000738   0.0000000532  -0.0000003091
       -0.0000001027   0.0000010052  -0.0000004301  -0.0000001584   0.0000009891
       -0.0000006145  -0.0000000120   0.0000004666   0.0000005823  -0.0000002404
       -0.0000009921   0.0000002892   0.0000005635  -0.0000006446   0.0000002653
        0.0000001965   0.0000002067  -0.0000000908   0.0000006838   0.0000007589
        0.0000001143   0.0000007947   0.0000009054   0.0000000351   0.0000000327
        0.0000008830   0.0000000170  -0.0000000359   0.0000001760  -0.0000000453
        0.0000004440   0.0000001571   0.0000001545   0.0000006375  -0.0000007132
        0.0000005009  -0.0000002663  -0.0000006895   0.0000001564  -0.0000005931
       -0.0000006059   0.0000001751  -0.0000001184  -0.0000005182   0.0000002913
       -0.0000004398   0.0000002280   0.0000004311   0.0000002183   0.0000002431
       -0.0000000762  -0.0000006227  -0.0000010102   0.0000002808  -0.0000012953
       -0.0000006256   0.0000006069  -0.0000023071   0.0000003747  -0.0000016313
       -0.0000018079  -0.0000005115  -0.0000031556  -0.0000006017   0.0000023034
       -0.0000036807  -0.0000018049   0.0000001751   0.0000034624   0.0000060297
        0.0000085532  -0.0000112844  -0.0000056704  -0.0000008221   0.0000057100
        0.0000132212   0.0000167708  -0.0000856340   0.0000592661  -0.0000336041
       -0.0006525458  -0.0047508093   0.0040576349  -0.0066223929  -0.0062748537
       -0.0071605464
       -0.2900306276   0.0821522577  -0.0590497439   0.5817511520  -0.1144165242
        0.1504993963  -0.1491774009   0.0798032935   0.0104450484   0.0481385587
        0.0129785601   0.0389109433   0.0001968305  -0.0028730187  -0.0066385499
        0.0003672663   0.0004306822  -0.0001551901  -0.0001319967  -0.0005120784
       -0.0002820203   0.0002145426   0.0001676066   0.0000223695  -0.0001540334
        0.0001517795   0.0003439595  -0.0001949347  -0.0003187577  -0.0003952999
       -0.0000431077   0.0007082734   0.0000286118   0.0002531603   0.0000040792
       -0.0003173637  -0.0002661739   0.0001224652   0.0000720589   0.0002632102
        0.0002356929  -0.0000658019   0.0000257341  -0.0002478525   0.0000705450
       -0.0000435538   0.0000101208   0.0000322615   0.0000080031   0.0000058606
       -0.0000026260   0.0000024411   0.0000029075  -0.0000004435   0.0000029896
        0.0000040608   0.0000026096   0.0000074604   0.0000017038  -0.0000007668
       -0.0000127515   0.0000063422   0.0000074969   0.0000177303   0.0000104191
        0.0000044412   0.0000048620   0.0000018227  -0.0000010069  -0.0000334441
       -0.0000053024   0.0000084904   0.0000042510  -0.0000097661   0.0000154890
       -0.0000056866  -0.0000013619   0.0000016372   0.0000027202   0.0000021680
       -0.0000020485  -0.0000008125  -0.0000026213   0.0000036970   0.0000014061
        0.0000020363  -0.0000021054   0.0000040638  -0.0000026438   0.0000039560
       -0.0000063316  -0.0000027881   0.0000015384   0.0000056994  -0.0000000190
       -0.0000006104  -0.0000042815   0.0000041808  -0.0000033090   0.0000066262
        0.0000059638  -0.0000020593  -0.0000286832  -0.0000052602   0.0000029228
        0.0000312631   0.0000046689  -0.0000028235  -0.0000029568  -0.0000115719
        0.0000039743   0.0000003443   0.0000032022  -0.0000029812   0.0000012907
       -0.0000002626   0.0000032384   0.0000008089  -0.0000003773   0.0000028133
       -0.0000015221   0.0000000871  -0.0000002638   0.0000031966   0.0000022527
        0.0000009302  -0.0000056980   0.0000093426  -0.0000010777   0.0000033959
       -0.0000012324   0.0000006208  -0.0000014096   0.0000004152   0.0000013071
       -0.0000000576   0.0000008064  -0.0000014519  -0.0000000630   0.0000005313
       -0.0000018660   0.0000013781  -0.0000027751   0.0000032306   0.0000065339
       -0.0000031631   0.0000013604  -0.0000031995  -0.0000050085   0.0000031042
        0.0000044438   0.0000009254  -0.0000021084  -0.0000005710  -0.0000028467
       -0.0000005031   0.0000028454   0.0000010617  -0.0000022045  -0.0000093981
       -0.0000019432  -0.0000000808   0.0000010285   0.0000065703  -0.0000101157
       -0.0000026765   0.0000032918  -0.0000078081  -0.0000026096  -0.0000040118
        0.0000051102   0.0000028869   0.0000009462  -0.0000020197   0.0000218336
        0.0000008119  -0.0000062640  -0.0000137353  -0.0000083299  -0.0000053588
        0.0000053558  -0.0000008685  -0.0000086959  -0.0000184105   0.0000025636
        0.0000120811   0.0000120000  -0.0000013421   0.0000012433   0.0000193594
       -0.0000165861  -0.0000134249  -0.0001082544  -0.0000543215  -0.0000578921
        0.0004217618  -0.0002407472  -0.0003381232  -0.0425599325   0.0298573742
        0.0050841512  -0.0264379017  -0.0556932611  -0.0602237937  -0.0164173684
        0.0052510023  -0.0040372841  -0.0896774918  -0.0608733579  -0.0791617214
       -0.0170855122   0.0229888707   0.0086986435   0.0000109936  -0.0000045406
        0.0000426036  -0.0000165159  -0.0000007952  -0.0000262766   0.0000393061
       -0.0000437421   0.0000376147  -0.0000364042   0.0000013813   0.0000070200
        0.0000121625   0.0000549757   0.0001098406  -0.0000174283   0.0000451905
       -0.0000294560  -0.0000082799  -0.0000061430  -0.0000015066  -0.0000008966
        0.0000038876   0.0000106326  -0.0000039257  -0.0000033819  -0.0000083475
        0.0000027785  -0.0000035284  -0.0000094350   0.0000098074  -0.0000011628
       -0.0000044142  -0.0000024788   0.0000043793  -0.0000050014   0.0000075842
        0.0000063295  -0.0000066935   0.0000028196   0.0000026092  -0.0000017731
        0.0000025142   0.0000009671  -0.0000002282  -0.0000001345   0.0000001265
       -0.0000002374   0.0000023438  -0.0000008527  -0.0000008330   0.0000008340
        0.0000010646   0.0000014525   0.0000000364   0.0000015913   0.0000008410
        0.0000013724   0.0000025422   0.0000010561   0.0000018215   0.0000013765
        0.0000024866   0.0000005351  -0.0000003519   0.0000013634   0.0000007485
        0.0000010629  -0.0000001416   0.0000020489  -0.0000001508  -0.0000011350
        0.0000017496  -0.0000016263   0.0000002508   0.0000002181  -0.0000013768
        0.0000000984   0.0000006504  -0.0000007611  -0.0000010540   0.0000012956
        0.0000007463   0.0000008905   0.0000013511  -0.0000018168  -0.0000003492
        0.0000014158  -0.0000006244  -0.0000000171   0.0000002074  -0.0000002006
       -0.0000020828   0.0000025160  -0.0000031064   0.0000022739   0.0000007158
        0.0000002418  -0.0000013109   0.0000105038   0.0000019388   0.0000007394
       -0.0000023718   0.0000023540   0.0000048953   0.0000024603   0.0000017961
        0.0000073230   0.0000411979   0.0000004256  -0.0000192839   0.0000013418
        0.0000081199  -0.0000173590   0.0001175387  -0.0000274925   0.0001378858
       -0.0002513963   0.0004886210   0.0001709472   0.0007231170  -0.0001570733
       -0.0038957532
        0.0249231052  -0.0877744410  -0.0202487657  -0.1144165242   0.4796155396
        0.2347464861   0.1358858027  -0.2275807553  -0.0786742085  -0.0271593407
       -0.0392673199  -0.0466572168   0.0002660507   0.0018055663  -0.0015459936
       -0.0007414993  -0.0008679088  -0.0015371618  -0.0000174221   0.0001958104
        0.0002813676  -0.0001017003  -0.0003281710  -0.0000065565   0.0001433795
       -0.0000341689  -0.0002278536   0.0001585807   0.0000969515   0.0002919304
        0.0002641734  -0.0002200771   0.0000610117  -0.0004891869  -0.0003584207
       -0.0001722541   0.0004102257  -0.0002967380   0.0000527920  -0.0003582722
       -0.0002707904   0.0002165324  -0.0000743017   0.0004356644  -0.0001642861
        0.0001095873   0.0000023308  -0.0000756561  -0.0000346196  -0.0000030868
        0.0000090838   0.0000124501  -0.0000019122  -0.0000042341  -0.0000113326
       -0.0000004006   0.0000002005   0.0000024597  -0.0000036640  -0.0000081533
        0.0000142875  -0.0000051890  -0.0000072823  -0.0000188265  -0.0000109484
       -0.0000025572   0.0000019272  -0.0000009651  -0.0000006870   0.0000436210
        0.0000061996  -0.0000112182  -0.0000107442   0.0000056188  -0.0000127119
        0.0000075519   0.0000029203  -0.0000038221  -0.0000024458  -0.0000013506
        0.0000020679   0.0000034519   0.0000044914  -0.0000074500   0.0000002371
       -0.0000018363   0.0000010415  -0.0000049315   0.0000029447  -0.0000042965
        0.0000110858   0.0000032380  -0.0000020625  -0.0000048164   0.0000002844
       -0.0000000806   0.0000062749  -0.0000052674   0.0000035695  -0.0000083778
       -0.0000086294   0.0000022771   0.0000382139   0.0000068202  -0.0000032434
       -0.0000372646  -0.0000049417   0.0000010825   0.0000036570   0.0000122076
       -0.0000017388   0.0000012756  -0.0000040574   0.0000047572   0.0000008503
        0.0000010636  -0.0000026962   0.0000004988   0.0000005522  -0.0000022811
        0.0000022233  -0.0000004112   0.0000005426  -0.0000023167  -0.0000031140
       -0.0000002577   0.0000092683  -0.0000124251   0.0000029122  -0.0000045137
        0.0000013330  -0.0000002261   0.0000021197  -0.0000011904  -0.0000005843
       -0.0000000416  -0.0000007616   0.0000007891   0.0000010563  -0.0000015106
        0.0000019789  -0.0000010150   0.0000030926  -0.0000047623  -0.0000087588
        0.0000055576  -0.0000019982   0.0000034448   0.0000072394  -0.0000047356
       -0.0000047951  -0.0000044069   0.0000048429   0.0000007806  -0.0000005491
        0.0000012837  -0.0000027861   0.0000003482   0.0000003354   0.0000079308
       -0.0000009979   0.0000011321   0.0000024622  -0.0000051065   0.0000055421
       -0.0000029403  -0.0000048450   0.0000118722   0.0000008812   0.0000041533
       -0.0000055684  -0.0000037241  -0.0000016961   0.0000030935  -0.0000274163
       -0.0000030765   0.0000057868   0.0000278227   0.0000088913  -0.0000007357
       -0.0000022431   0.0000047429   0.0000119399  -0.0000233536   0.0000132559
        0.0000280204   0.0000256792   0.0000033063  -0.0000079958  -0.0000511575
        0.0000046535   0.0000163264   0.0003852010   0.0000309675   0.0000759201
       -0.0006551197   0.0001375722   0.0007661085   0.0282764701  -0.0207094181
        0.0012879802  -0.0133750634   0.0333832660   0.0193885325   0.0228557821
       -0.0064824015   0.0064147915  -0.0613463198  -0.1263848719  -0.1065570866
        0.0054632977  -0.0059904187  -0.0021329375  -0.0000663889   0.0000001757
       -0.0000011113  -0.0000179141   0.0000037415   0.0000126719  -0.0000188491
        0.0000529727  -0.0000314204   0.0000487817   0.0000123326  -0.0000210608
       -0.0000265051  -0.0001750287  -0.0001992631  -0.0000048771   0.0000287125
       -0.0000137366  -0.0000199062   0.0000299434  -0.0000113031  -0.0000147749
       -0.0000149033  -0.0000207902   0.0000035735   0.0000013411   0.0000058449
       -0.0000063809   0.0000061070   0.0000130460  -0.0000152700   0.0000040078
        0.0000062557   0.0000039568  -0.0000003557   0.0000020802  -0.0000073009
       -0.0000058138   0.0000078996  -0.0000019518  -0.0000026969   0.0000032833
       -0.0000037660  -0.0000004522   0.0000013399   0.0000005168  -0.0000008393
       -0.0000002656  -0.0000017226   0.0000007759   0.0000007167  -0.0000008511
       -0.0000013338  -0.0000016982   0.0000006568  -0.0000008458  -0.0000008284
       -0.0000003740  -0.0000024157  -0.0000004237  -0.0000010964  -0.0000013387
       -0.0000018160  -0.0000000731   0.0000002657  -0.0000012056   0.0000004060
       -0.0000007659  -0.0000001175  -0.0000010110  -0.0000002080   0.0000009399
       -0.0000009584   0.0000010527   0.0000000155   0.0000003848   0.0000008665
       -0.0000002551   0.0000000529   0.0000004859   0.0000015684  -0.0000011112
       -0.0000018900  -0.0000001367   0.0000003388   0.0000012882   0.0000012794
       -0.0000026126   0.0000020091  -0.0000018978   0.0000007095   0.0000021544
        0.0000003093  -0.0000006112   0.0000048219  -0.0000027905  -0.0000014336
       -0.0000021391   0.0000045508  -0.0000148432  -0.0000069474  -0.0000034063
       -0.0000122626  -0.0000134380  -0.0000138488  -0.0000018126  -0.0000143876
       -0.0000222567   0.0000021227   0.0000252980   0.0000441182  -0.0000108209
       -0.0000079557   0.0000482541  -0.0001067310   0.0000974279  -0.0002487335
        0.0004615609  -0.0000915369   0.0005599502  -0.0005308471   0.0009211689
       -0.0057183332
       -0.1050280967   0.0100528526  -0.0938551690   0.1504993963   0.2347464861
        0.3852164337   0.0544620206  -0.1068868004  -0.1029542455   0.0049408340
       -0.0247123371  -0.0192478724  -0.0055360244  -0.0030885618   0.0020404252
        0.0004086688  -0.0017816256  -0.0008532737  -0.0001549363  -0.0001698107
        0.0000279679  -0.0001164083  -0.0000544928  -0.0000935374   0.0000503875
        0.0000843919   0.0000229770  -0.0000640494  -0.0000776716  -0.0000543688
        0.0002564182   0.0000482239  -0.0000891528   0.0007797730   0.0002739524
        0.0006869394  -0.0002768444   0.0000527236   0.0000780875   0.0001723341
        0.0000779723  -0.0000654434  -0.0000134680  -0.0000697161   0.0000310982
        0.0000776708   0.0000101791  -0.0000060726  -0.0000483750   0.0000050947
        0.0000145764   0.0000096049  -0.0000029300  -0.0000030448  -0.0000125196
       -0.0000017074   0.0000005076   0.0000089004  -0.0000032293  -0.0000081807
        0.0000083836  -0.0000046127  -0.0000047246  -0.0000111659  -0.0000013037
       -0.0000023707  -0.0000014513  -0.0000018614  -0.0000020420   0.0000304756
        0.0000029975  -0.0000078268  -0.0000076544   0.0000045870  -0.0000098969
        0.0000043092   0.0000017592  -0.0000028047  -0.0000013743  -0.0000003021
        0.0000010154   0.0000037792   0.0000025602  -0.0000048657   0.0000000332
       -0.0000016526   0.0000010740  -0.0000018820   0.0000015268  -0.0000023165
        0.0000076407   0.0000020331  -0.0000015546  -0.0000022696   0.0000000294
       -0.0000001447   0.0000018522  -0.0000013567   0.0000019937  -0.0000039156
       -0.0000055745   0.0000007196   0.0000158874   0.0000033711  -0.0000007698
       -0.0000198545  -0.0000046868   0.0000013721   0.0000043539   0.0000117648
       -0.0000040669   0.0000014387  -0.0000014526   0.0000011815   0.0000031281
        0.0000017220  -0.0000002163  -0.0000008326  -0.0000024220   0.0000004697
        0.0000009577   0.0000013447  -0.0000017416  -0.0000000283  -0.0000011680
        0.0000012498   0.0000079239  -0.0000090164   0.0000031818  -0.0000003979
       -0.0000004751  -0.0000007543   0.0000009178  -0.0000014906   0.0000016079
       -0.0000012975   0.0000011590  -0.0000010530   0.0000023951  -0.0000014257
        0.0000002421  -0.0000004428   0.0000008850  -0.0000007915  -0.0000054298
        0.0000037665  -0.0000006162   0.0000010574   0.0000026591  -0.0000027778
       -0.0000022406  -0.0000028576   0.0000025777   0.0000004343  -0.0000004565
       -0.0000004498  -0.0000016835  -0.0000000924   0.0000002445   0.0000051850
       -0.0000004245  -0.0000006177   0.0000026023  -0.0000046508   0.0000041016