 Entering Gaussian System
 *********************************************
 Gaussian 98:
 frequency output generated by the xtb code
 *********************************************
                         Standard orientation:
 --------------------------------------------------------------------
  Center     Atomic     Atomic              Coordinates (Angstroms)
  Number     Number      Type              X           Y           Z
 --------------------------------------------------------------------
    1          6             0      -11.857955    3.794414   -2.180662
    2          6             0      -10.629251    3.903913   -1.550069
    3          6             0      -10.107540    2.837764   -0.844091
    4          6             0      -10.810699    1.635462   -0.766008
    5          7             0      -10.283623    0.550732   -0.056215
    6          6             0      -11.134387   -0.283023    0.678126
    7          6             0      -10.902441   -1.657471    0.733738
    8          6             0      -11.743553   -2.475712    1.461959
    9          6             0      -12.829289   -1.943014    2.137781
   10          6             0      -13.066289   -0.579093    2.082611
   11          6             0      -12.226721    0.248825    1.363505
   12          6             0       -8.911615    0.297830   -0.085313
   13          6             0       -8.252826   -0.194818    1.044129
   14          6             0       -6.901393   -0.452777    1.008779
   15          6             0       -6.145401   -0.210576   -0.144024
   16          6             0       -4.711459   -0.474754   -0.174252
   17          6             0       -4.220008   -1.768927    0.168197
   18          6             0       -5.084474   -2.832259    0.463704
   19          6             0       -4.603056   -4.062076    0.882498
   20          6             0       -3.241248   -4.253960    1.030614
   21          6             0       -2.360802   -3.239223    0.687007
   22          6             0       -2.815814   -2.012286    0.189924
   23          6             0       -1.904136   -0.992168   -0.231231
   24          6             0       -0.489578   -1.284767   -0.308852
   25          6             0       -0.065775   -2.390460   -1.065665
   26          6             0        1.261492   -2.652389   -1.277607
   27          6             0        2.259929   -1.840767   -0.708782
   28          6             0        3.636082   -2.090679   -0.907074
   29          6             0        4.588827   -1.293559   -0.349427
   30          6             0        4.238711   -0.183366    0.462833
   31          6             0        5.206796    0.659206    1.054090
   32          6             0        6.634061    0.543712    0.739324
   33          6             0        7.584504    0.502485    1.759466
   34          6             0        8.930460    0.415273    1.476054
   35          6             0        9.374040    0.388282    0.153114
   36          7             0       10.737975    0.303354   -0.139954
   37          6             0       11.171002   -0.445783   -1.239375
   38          6             0       10.531643   -1.638372   -1.578337
   39          6             0       10.959544   -2.372445   -2.667091
   40          6             0       12.031934   -1.938328   -3.429074
   41          6             0       12.673116   -0.756772   -3.094412
   42          6             0       12.247556   -0.011111   -2.012545
   43          6             0       11.669047    0.968645    0.665074
   44          6             0       12.906569    0.388385    0.943440
   45          6             0       13.823267    1.051289    1.735744
   46          6             0       13.522068    2.293938    2.268963
   47          6             0       12.292854    2.872914    1.998844
   48          6             0       11.372449    2.221854    1.201102
   49          6             0        8.429625    0.452565   -0.872709
   50          6             0        7.084647    0.523498   -0.581643
   51          6             0        4.798722    1.649368    1.946823
   52          6             0        3.468971    1.860945    2.228949
   53          6             0        2.476246    1.083360    1.616639
   54          6             0        1.097836    1.280066    1.877940
   55          6             0        0.147362    0.529413    1.259601
   56          6             0        0.496047   -0.482811    0.330735
   57          6             0        1.870320   -0.755063    0.114495
   58          6             0        2.863370    0.049924    0.728586
   59          6             0       -2.408606    0.285859   -0.639854
   60          6             0       -1.572519    1.265505   -1.187555
   61          6             0       -2.050004    2.521424   -1.524663
   62          6             0       -3.382241    2.830668   -1.312883
   63          6             0       -4.247140    1.858689   -0.839262
   64          6             0       -3.804727    0.558518   -0.555779
   65          6             0       -6.812751    0.292066   -1.267025
   66          6             0       -8.167749    0.531677   -1.244788
   67          6             0      -12.046024    1.529451   -1.405154
   68          6             0      -12.562587    2.604134   -2.102054
   69          1             0      -12.263627    4.630745   -2.729215
   70          1             0      -10.075895    4.830044   -1.600850
   71          1             0       -9.155213    2.929287   -0.342653
   72          1             0      -10.063939   -2.076455    0.196970
   73          1             0      -11.554712   -3.538625    1.494456
   74          1             0      -13.486282   -2.586210    2.703106
   75          1             0      -13.907277   -0.154545    2.610810
   76          1             0      -12.407231    1.313342    1.330501
   77          1             0       -8.812178   -0.360745    1.953394
   78          1             0       -6.403115   -0.807784    1.899110
   79          1             0       -6.149472   -2.692591    0.357981
   80          1             0       -5.295243   -4.860107    1.107629
   81          1             0       -2.857978   -5.193221    1.400891
   82          1             0       -1.300659   -3.400153    0.810049
   83          1             0       -0.816633   -3.000087   -1.548514
   84          1             0        1.557682   -3.479136   -1.907655
   85          1             0        3.921669   -2.941298   -1.510296
   86          1             0        5.634073   -1.518932   -0.498592
   87          1             0        7.256328    0.505880    2.788765
   88          1             0        9.651415    0.360091    2.278703
   89          1             0        9.702602   -1.985097   -0.978902
   90          1             0       10.457036   -3.295369   -2.916920
   91          1             0       12.365565   -2.516492   -4.277307
   92          1             0       13.506610   -0.407478   -3.686008
   93          1             0       12.742592    0.915309   -1.760342
   94          1             0       13.139854   -0.585108    0.537454
   95          1             0       14.776981    0.589598    1.945445
   96          1             0       14.240008    2.807341    2.890309
   97          1             0       12.051473    3.844091    2.405394
   98          1             0       10.418989    2.680252    0.982776
   99          1             0        8.762468    0.455525   -1.900508
  100          1             0        6.368750    0.600820   -1.387052
  101          1             0        5.550045    2.280591    2.400509
  102          1             0        3.175337    2.641094    2.916599
  103          1             0        0.813860    2.044468    2.587371
  104          1             0       -0.897593    0.692440    1.478069
  105          1             0       -0.528600    1.042655   -1.345408
  106          1             0       -1.375475    3.257878   -1.935278
  107          1             0       -3.754557    3.821451   -1.528090
  108          1             0       -5.285056    2.109286   -0.681587
  109          1             0       -6.258187    0.451835   -2.180189
  110          1             0       -8.668508    0.891573   -2.131840
  111          1             0      -12.592059    0.598783   -1.354532
  112          1             0      -13.518840    2.508196   -2.594873
 --------------------------------------------------------------------
     1 basis functions        1 primitive gaussians
     1 alpha electrons        1 beta electrons
 
 Harmonic frequencies (cm**-1), IR intensities (km*mol⁻¹),
 Raman scattering activities (A**4/amu), Raman depolarization ratios,
 reduced masses (AMU), force constants (mDyne/A) and normal coordinates:
                      1                      2                      3
                        a                      a                      a 
 Frequencies --     5.2207                 6.4291                 9.3302
 Red. masses --    11.2772                11.2552                10.8613
 Frc consts  --     0.0000                 0.0000                 0.0000
 IR Inten    --     0.5613                 0.7929                 0.6391
 Raman Activ --     0.0000                 0.0000                 0.0000
 Depolar     --     0.0000                 0.0000                 0.0000
 Atom AN      X      Y      Z        X      Y      Z        X      Y      Z
   1   6     0.05   0.00  -0.11    -0.13  -0.14  -0.03     0.01   0.13   0.20
   2   6     0.03   0.00  -0.07    -0.14  -0.09  -0.02     0.01   0.08   0.21
   3   6     0.01   0.00  -0.06    -0.11  -0.07  -0.02     0.01   0.04   0.15
   4   6     0.01  -0.00  -0.10    -0.07  -0.09  -0.01     0.00   0.04   0.07
   5   7    -0.01  -0.01  -0.09    -0.04  -0.08  -0.00    -0.00  -0.01   0.01
   6   6    -0.03  -0.02  -0.13    -0.01  -0.10  -0.01    -0.00  -0.06  -0.05
   7   6    -0.02  -0.02  -0.13     0.04  -0.09  -0.00     0.01  -0.06  -0.13
   8   6    -0.04  -0.03  -0.17     0.06  -0.12  -0.01     0.01  -0.11  -0.19
   9   6    -0.07  -0.05  -0.21     0.04  -0.15  -0.01    -0.00  -0.17  -0.17
  10   6    -0.08  -0.05  -0.21    -0.01  -0.16  -0.02    -0.02  -0.16  -0.09
  11   6    -0.06  -0.04  -0.16    -0.03  -0.14  -0.02    -0.02  -0.11  -0.03
  12   6    -0.00   0.00  -0.04    -0.02  -0.03   0.01    -0.00  -0.00   0.00
  13   6    -0.04  -0.00  -0.02    -0.02  -0.00   0.01    -0.00  -0.04  -0.01
  14   6    -0.04   0.00   0.02    -0.01   0.03   0.02    -0.00  -0.04  -0.02
  15   6     0.00   0.01   0.05    -0.01   0.05   0.02     0.00   0.01  -0.01
  16   6     0.00   0.02   0.09    -0.01   0.07   0.02     0.00   0.01  -0.01
  17   6    -0.00   0.01   0.09     0.01   0.08   0.03     0.00   0.00  -0.04
  18   6    -0.01   0.01   0.07     0.03   0.07   0.03     0.00  -0.01  -0.07
  19   6    -0.01   0.01   0.07     0.05   0.08   0.03    -0.00  -0.01  -0.08
  20   6    -0.01   0.01   0.09     0.06   0.10   0.03    -0.00  -0.01  -0.06
  21   6    -0.01   0.01   0.11     0.04   0.11   0.02    -0.00   0.00  -0.03
  22   6    -0.00   0.02   0.11     0.02   0.10   0.02     0.00   0.01  -0.03
  23   6     0.00   0.02   0.13     0.00   0.11   0.01     0.00   0.01  -0.01
  24   6    -0.00   0.01   0.12     0.00   0.12  -0.01     0.00   0.01  -0.00
  25   6    -0.01   0.01   0.11    -0.01   0.12  -0.02     0.00   0.01   0.00
  26   6    -0.02   0.00   0.09    -0.01   0.12  -0.03     0.00   0.01   0.01
  27   6    -0.01  -0.01   0.09    -0.00   0.11  -0.04     0.00   0.01   0.01
  28   6    -0.01  -0.01   0.07    -0.01   0.10  -0.04     0.00  -0.00   0.03
  29   6    -0.00  -0.01   0.06     0.00   0.09  -0.04     0.00   0.00   0.02
  30   6     0.01  -0.02   0.07     0.01   0.09  -0.04     0.00   0.02   0.00
  31   6     0.02  -0.02   0.06     0.02   0.08  -0.03     0.00   0.03  -0.01
  32   6     0.02  -0.02   0.03     0.02   0.05  -0.02     0.00   0.02  -0.01
  33   6     0.04  -0.02   0.01     0.02   0.02  -0.01     0.00   0.07  -0.01
  34   6     0.04  -0.01  -0.03     0.01  -0.02  -0.00     0.00   0.06  -0.00
  35   6     0.00  -0.00  -0.04     0.03  -0.03   0.00     0.00   0.00  -0.00
  36   7    -0.01   0.01  -0.08     0.03  -0.08   0.01     0.00  -0.01   0.00
  37   6    -0.03   0.02  -0.09     0.01  -0.08   0.01    -0.00  -0.09   0.06
  38   6    -0.03   0.02  -0.09    -0.03  -0.06  -0.01    -0.01  -0.11   0.14
  39   6    -0.06   0.03  -0.10    -0.05  -0.06  -0.01    -0.01  -0.20   0.20
  40   6    -0.08   0.04  -0.13    -0.03  -0.10   0.01    -0.01  -0.26   0.17
  41   6    -0.08   0.04  -0.14     0.01  -0.12   0.02    -0.00  -0.24   0.08
  42   6    -0.05   0.03  -0.12     0.03  -0.11   0.02     0.00  -0.16   0.03
  43   6     0.01   0.00  -0.10     0.04  -0.12   0.03    -0.00   0.05  -0.05
  44   6     0.02   0.01  -0.13     0.02  -0.17   0.03     0.01   0.08  -0.01
  45   6     0.04   0.00  -0.15     0.04  -0.21   0.05     0.00   0.15  -0.06
  46   6     0.05  -0.00  -0.14     0.08  -0.21   0.06    -0.01   0.18  -0.14
  47   6     0.04  -0.00  -0.10     0.10  -0.16   0.05    -0.02   0.15  -0.17
  48   6     0.02  -0.00  -0.08     0.09  -0.11   0.04    -0.01   0.08  -0.13
  49   6    -0.02   0.00  -0.02     0.04   0.01  -0.01     0.00  -0.04  -0.00
  50   6    -0.02  -0.00   0.02     0.04   0.05  -0.02     0.00  -0.03  -0.01
  51   6     0.04  -0.04   0.08     0.04   0.08  -0.03    -0.00   0.04  -0.03
  52   6     0.04  -0.04   0.11     0.04   0.09  -0.03    -0.00   0.04  -0.03
  53   6     0.03  -0.03   0.11     0.03   0.11  -0.03    -0.00   0.03  -0.02
  54   6     0.04  -0.03   0.14     0.03   0.12  -0.02    -0.00   0.03  -0.02
  55   6     0.03  -0.02   0.14     0.02   0.12  -0.02     0.00   0.02  -0.01
  56   6     0.01  -0.01   0.12     0.01   0.12  -0.02     0.00   0.02  -0.01
  57   6     0.01  -0.01   0.10     0.01   0.11  -0.03     0.00   0.01   0.00
  58   6     0.02  -0.02   0.10     0.02   0.10  -0.03     0.00   0.02  -0.01
  59   6     0.01   0.02   0.14    -0.02   0.11   0.02     0.00   0.02   0.00
  60   6     0.02   0.03   0.17    -0.03   0.12   0.02    -0.00   0.02   0.01
  61   6     0.02   0.04   0.18    -0.06   0.12   0.02     0.00   0.03   0.03
  62   6     0.02   0.03   0.17    -0.06   0.09   0.02     0.00   0.03   0.05
  63   6     0.01   0.03   0.14    -0.04   0.08   0.02     0.00   0.02   0.04
  64   6     0.01   0.02   0.13    -0.02   0.09   0.02     0.00   0.02   0.01
  65   6     0.04   0.02   0.03    -0.02   0.03   0.02     0.00   0.05   0.01
  66   6     0.04   0.02  -0.01    -0.02  -0.01   0.01     0.00   0.05   0.02
  67   6     0.04  -0.01  -0.14    -0.06  -0.14  -0.02     0.00   0.08   0.06
  68   6     0.06  -0.00  -0.15    -0.09  -0.16  -0.03     0.01   0.12   0.13
  69   1     0.02   0.00  -0.04    -0.05  -0.04  -0.01     0.00   0.05   0.07
  70   1     0.01   0.00  -0.01    -0.05  -0.02  -0.01     0.00   0.02   0.08
  71   1    -0.00   0.00  -0.01    -0.03  -0.01  -0.00     0.00   0.00   0.04
  72   1     0.00  -0.00  -0.03     0.02  -0.02   0.00     0.01  -0.01  -0.04
  73   1    -0.01  -0.01  -0.05     0.03  -0.03  -0.00     0.01  -0.03  -0.07
  74   1    -0.03  -0.02  -0.07     0.02  -0.05  -0.01    -0.00  -0.06  -0.06
  75   1    -0.03  -0.02  -0.07    -0.01  -0.06  -0.01    -0.01  -0.06  -0.02
  76   1    -0.02  -0.01  -0.05    -0.02  -0.04  -0.01    -0.01  -0.03   0.01
  77   1    -0.02  -0.00  -0.01    -0.00  -0.00   0.00    -0.00  -0.02  -0.01
  78   1    -0.02  -0.00   0.01    -0.00   0.02   0.01    -0.00  -0.02  -0.01
  79   1    -0.00   0.00   0.02     0.01   0.01   0.01     0.00  -0.00  -0.02
  80   1    -0.00   0.00   0.02     0.02   0.02   0.01     0.00  -0.00  -0.03
  81   1    -0.01   0.00   0.03     0.02   0.03   0.01    -0.00  -0.00  -0.02
  82   1    -0.00   0.00   0.04     0.01   0.04   0.01    -0.00   0.00  -0.01
  83   1    -0.01   0.00   0.03    -0.00   0.04  -0.00     0.00   0.00  -0.00
  84   1    -0.01   0.00   0.02    -0.01   0.04  -0.01     0.00   0.00   0.00
  85   1    -0.01  -0.00   0.02    -0.00   0.03  -0.01     0.00  -0.00   0.01
  86   1    -0.00  -0.00   0.01    -0.00   0.02  -0.01     0.00  -0.00   0.01
  87   1     0.02  -0.01   0.00     0.00   0.01  -0.00     0.00   0.03  -0.00
  88   1     0.02  -0.00  -0.01     0.00  -0.01   0.00     0.00   0.03  -0.00
  89   1    -0.00   0.00  -0.02    -0.01  -0.01  -0.00    -0.00  -0.02   0.05
  90   1    -0.02   0.01  -0.03    -0.02  -0.01  -0.01    -0.00  -0.06   0.08
  91   1    -0.03   0.01  -0.04    -0.01  -0.03   0.00    -0.00  -0.09   0.06
  92   1    -0.03   0.01  -0.05     0.01  -0.04   0.01     0.00  -0.08   0.02
  93   1    -0.01   0.01  -0.04     0.02  -0.04   0.01     0.00  -0.04  -0.01
  94   1     0.00   0.00  -0.04    -0.00  -0.05   0.01     0.00   0.02   0.02
  95   1     0.01   0.00  -0.05     0.00  -0.07   0.01     0.00   0.05  -0.01
  96   1     0.02  -0.00  -0.04     0.03  -0.07   0.02    -0.00   0.07  -0.05
  97   1     0.01  -0.00  -0.02     0.04  -0.04   0.02    -0.01   0.05  -0.07
  98   1     0.00  -0.00  -0.01     0.03  -0.02   0.01    -0.01   0.02  -0.04
  99   1    -0.01   0.00  -0.01     0.01   0.00  -0.00     0.00  -0.03  -0.00
 100   1    -0.01  -0.00   0.01     0.01   0.02  -0.01     0.00  -0.02  -0.00
 101   1     0.01  -0.01   0.02     0.01   0.02  -0.01    -0.00   0.02  -0.01
 102   1     0.02  -0.01   0.04     0.01   0.03  -0.01    -0.00   0.02  -0.01
 103   1     0.01  -0.01   0.04     0.01   0.03  -0.01    -0.00   0.01  -0.01
 104   1     0.01  -0.00   0.04     0.01   0.04  -0.00     0.00   0.01  -0.00
 105   1     0.01   0.01   0.05    -0.01   0.04   0.01    -0.00   0.01  -0.00
 106   1     0.01   0.01   0.06    -0.02   0.04   0.01    -0.00   0.01   0.01
 107   1     0.01   0.01   0.05    -0.02   0.03   0.01     0.00   0.01   0.02
 108   1     0.00   0.01   0.04    -0.01   0.02   0.01     0.00   0.01   0.01
 109   1     0.02   0.01   0.02    -0.01   0.01   0.01     0.00   0.02   0.00
 110   1     0.02   0.01  -0.01    -0.01  -0.01   0.00     0.00   0.02   0.01
 111   1     0.01  -0.00  -0.05    -0.01  -0.05  -0.01     0.00   0.02   0.00
 112   1     0.02  -0.00  -0.05    -0.03  -0.06  -0.01     0.00   0.05   0.03
                      4                      5                      6
                        a                      a                      a 
 Frequencies --    14.7939                16.2814                18.4861
 Red. masses --    11.0142                11.0679                10.9684
 Frc consts  --     0.0000                 0.0000                 0.0000
 IR Inten    --     1.0599                 0.6781                 0.0360
 Raman Activ --     0.0000                 0.0000                 0.0000
 Depolar     --     0.0000                 0.0000                 0.0000
 Atom AN      X      Y      Z        X      Y      Z        X      Y      Z
   1   6    -0.17  -0.14  -0.12     0.01  -0.04  -0.03     0.14  -0.03  -0.10
   2   6    -0.17  -0.06  -0.13     0.02  -0.03  -0.06     0.12  -0.04  -0.06
   3   6    -0.12  -0.01  -0.09     0.03  -0.02  -0.05     0.07  -0.04  -0.03
   4   6    -0.06  -0.04  -0.04     0.03  -0.02  -0.02     0.04  -0.03  -0.03
   5   7    -0.01   0.01   0.01     0.04  -0.01  -0.01    -0.01  -0.03   0.00
   6   6     0.02   0.01   0.04     0.04   0.01   0.03    -0.06   0.03   0.02
   7   6     0.05   0.02   0.07     0.01   0.01   0.05    -0.12   0.02   0.07
   8   6     0.09   0.02   0.11     0.02   0.04   0.09    -0.18   0.09   0.09
   9   6     0.09   0.01   0.12     0.05   0.07   0.11    -0.16   0.17   0.05
  10   6     0.06   0.00   0.09     0.08   0.08   0.10    -0.09   0.18   0.00
  11   6     0.02   0.00   0.05     0.07   0.05   0.05    -0.04   0.11  -0.01
  12   6    -0.00   0.06   0.00     0.03  -0.03  -0.03    -0.02  -0.08   0.02
  13   6     0.01   0.08   0.00     0.04  -0.03  -0.04    -0.04  -0.10   0.02
  14   6     0.01   0.09  -0.00     0.04  -0.04  -0.06    -0.04  -0.11   0.04
  15   6     0.00   0.09  -0.01     0.03  -0.04  -0.07    -0.02  -0.10   0.05
  16   6     0.00   0.08  -0.02     0.03  -0.03  -0.08    -0.02  -0.07   0.07
  17   6    -0.01   0.07  -0.05     0.03  -0.04  -0.10     0.02  -0.07   0.02
  18   6    -0.03   0.07  -0.08     0.03  -0.05  -0.14     0.04  -0.09  -0.00
  19   6    -0.04   0.05  -0.12     0.02  -0.06  -0.17     0.08  -0.10  -0.06
  20   6    -0.05   0.03  -0.14     0.02  -0.06  -0.16     0.09  -0.08  -0.10
  21   6    -0.03   0.03  -0.11     0.03  -0.05  -0.12     0.06  -0.05  -0.07
  22   6    -0.02   0.05  -0.06     0.03  -0.03  -0.09     0.02  -0.04  -0.01
  23   6    -0.00   0.05  -0.03     0.03  -0.02  -0.04    -0.00   0.00   0.01
  24   6    -0.01   0.03  -0.04     0.03   0.00  -0.01    -0.00   0.03  -0.03
  25   6    -0.03   0.06  -0.08     0.07   0.02  -0.03    -0.01   0.07  -0.09
  26   6    -0.03   0.03  -0.08     0.07   0.04  -0.00    -0.01   0.09  -0.13
  27   6    -0.02  -0.01  -0.04     0.05   0.04   0.03    -0.00   0.08  -0.12
  28   6    -0.02  -0.04  -0.03     0.06   0.07   0.06    -0.01   0.10  -0.15
  29   6    -0.01  -0.08   0.00     0.03   0.07   0.09    -0.00   0.08  -0.14
  30   6     0.01  -0.09   0.03     0.00   0.06   0.10     0.01   0.05  -0.09
  31   6     0.03  -0.13   0.06    -0.02   0.07   0.12     0.01   0.03  -0.07
  32   6     0.02  -0.12   0.05    -0.02   0.11   0.10     0.01   0.04  -0.06
  33   6     0.03  -0.11   0.04    -0.00   0.10   0.08    -0.00   0.02  -0.05
  34   6     0.03  -0.08   0.02    -0.01   0.09   0.06     0.00   0.01  -0.03
  35   6     0.02  -0.07   0.02    -0.04   0.08   0.05     0.02   0.02  -0.03
  36   7     0.02  -0.02   0.01    -0.05   0.03   0.01     0.02   0.01  -0.01
  37   6     0.04  -0.03   0.02    -0.12  -0.01   0.01     0.04  -0.03   0.02
  38   6     0.07  -0.05   0.05    -0.18   0.00   0.06     0.02  -0.02   0.03
  39   6     0.08  -0.06   0.06    -0.26  -0.04   0.06     0.03  -0.06   0.07
  40   6     0.06  -0.05   0.04    -0.28  -0.09  -0.00     0.06  -0.11   0.09
  41   6     0.03  -0.02   0.01    -0.22  -0.11  -0.05     0.08  -0.11   0.08
  42   6     0.01  -0.01  -0.00    -0.14  -0.07  -0.05     0.07  -0.07   0.04
  43   6    -0.00   0.05  -0.02     0.01  -0.01  -0.03     0.01   0.02   0.00
  44   6     0.03   0.12  -0.03    -0.00  -0.05  -0.08     0.00   0.02   0.04
  45   6     0.01   0.19  -0.06     0.06  -0.08  -0.12    -0.02   0.03   0.05
  46   6    -0.05   0.19  -0.09     0.12  -0.07  -0.11    -0.02   0.04   0.02
  47   6    -0.09   0.11  -0.08     0.13  -0.03  -0.06    -0.02   0.04  -0.02
  48   6    -0.06   0.04  -0.05     0.07   0.00  -0.01     0.00   0.03  -0.03
  49   6     0.01  -0.09   0.03    -0.06   0.11   0.07     0.03   0.04  -0.04
  50   6     0.01  -0.11   0.04    -0.05   0.12   0.09     0.03   0.05  -0.06
  51   6     0.04  -0.15   0.10    -0.05   0.04   0.13     0.01   0.00  -0.04
  52   6     0.04  -0.14   0.11    -0.06   0.01   0.13     0.02  -0.01  -0.01
  53   6     0.03  -0.10   0.07    -0.04   0.00   0.10     0.01  -0.01  -0.01
  54   6     0.03  -0.08   0.07    -0.05  -0.03   0.08     0.02  -0.03   0.03
  55   6     0.02  -0.04   0.04    -0.02  -0.03   0.04     0.01  -0.03   0.03
  56   6     0.01  -0.01   0.00     0.01  -0.00   0.03     0.00   0.02  -0.03
  57   6     0.00  -0.03  -0.00     0.02   0.02   0.05     0.00   0.04  -0.07
  58   6     0.02  -0.08   0.04    -0.01   0.03   0.08     0.01   0.03  -0.06
  59   6     0.01   0.08   0.02     0.03  -0.01  -0.03    -0.04   0.01   0.09
  60   6     0.03   0.09   0.06     0.03   0.00   0.01    -0.07   0.06   0.13
  61   6     0.04   0.10   0.10     0.03   0.01   0.01    -0.10   0.07   0.20
  62   6     0.04   0.10   0.08     0.02  -0.01  -0.01    -0.11   0.02   0.23
  63   6     0.03   0.09   0.04     0.02  -0.02  -0.04    -0.08  -0.02   0.19
  64   6     0.01   0.09   0.01     0.03  -0.02  -0.05    -0.04  -0.03   0.12
  65   6    -0.00   0.09  -0.00     0.01  -0.03  -0.06    -0.00  -0.09   0.05
  66   6    -0.01   0.07   0.00     0.02  -0.03  -0.04    -0.00  -0.08   0.03
  67   6    -0.06  -0.12  -0.02     0.01  -0.02   0.01     0.06  -0.01  -0.07
  68   6    -0.12  -0.17  -0.06     0.00  -0.03   0.01     0.10  -0.01  -0.11
  69   1    -0.06  -0.05  -0.04     0.00  -0.01  -0.01     0.05  -0.01  -0.04
  70   1    -0.06  -0.01  -0.05     0.01  -0.01  -0.02     0.04  -0.02  -0.02
  71   1    -0.03   0.02  -0.03     0.01  -0.01  -0.02     0.02  -0.02   0.00
  72   1     0.02   0.01   0.02    -0.00  -0.00   0.01    -0.04  -0.01   0.03
  73   1     0.03   0.01   0.04     0.00   0.01   0.03    -0.07   0.02   0.04
  74   1     0.03   0.00   0.04     0.02   0.03   0.04    -0.06   0.06   0.02
  75   1     0.02  -0.00   0.03     0.03   0.03   0.03    -0.02   0.07  -0.01
  76   1    -0.00  -0.00   0.01     0.03   0.01   0.01     0.00   0.03  -0.02
  77   1     0.01   0.02   0.00     0.02  -0.01  -0.01    -0.02  -0.03   0.00
  78   1     0.01   0.03  -0.00     0.01  -0.02  -0.02    -0.02  -0.04   0.01
  79   1    -0.01   0.03  -0.02     0.01  -0.01  -0.04     0.01  -0.03   0.01
  80   1    -0.02   0.02  -0.04     0.01  -0.02  -0.06     0.03  -0.04  -0.02
  81   1    -0.02   0.00  -0.05     0.01  -0.02  -0.05     0.03  -0.02  -0.04
  82   1    -0.01   0.00  -0.03     0.01  -0.01  -0.03     0.02  -0.01  -0.03
  83   1    -0.01   0.03  -0.03     0.02   0.01  -0.02    -0.00   0.02  -0.03
  84   1    -0.01   0.02  -0.03     0.03   0.02  -0.00    -0.00   0.04  -0.05
  85   1    -0.01  -0.01  -0.02     0.02   0.02   0.01    -0.00   0.04  -0.06
  86   1    -0.00  -0.03   0.00     0.01   0.03   0.03    -0.00   0.03  -0.05
  87   1     0.01  -0.04   0.01     0.00   0.03   0.03    -0.00   0.00  -0.02
  88   1     0.01  -0.02   0.00     0.00   0.02   0.01    -0.00   0.00  -0.01
  89   1     0.02  -0.02   0.02    -0.05   0.01   0.03    -0.00   0.00   0.01
  90   1     0.03  -0.02   0.02    -0.09  -0.01   0.03     0.00  -0.02   0.02
  91   1     0.02  -0.02   0.01    -0.10  -0.04  -0.00     0.02  -0.04   0.03
  92   1     0.00  -0.00  -0.00    -0.07  -0.04  -0.03     0.03  -0.04   0.03
  93   1    -0.00   0.00  -0.01    -0.03  -0.02  -0.03     0.02  -0.02   0.01
  94   1     0.02   0.04  -0.00    -0.01  -0.02  -0.03     0.00   0.00   0.02
  95   1     0.01   0.07  -0.02     0.01  -0.03  -0.05    -0.01   0.01   0.02
  96   1    -0.02   0.07  -0.03     0.05  -0.03  -0.04    -0.01   0.01   0.01
  97   1    -0.04   0.03  -0.03     0.05  -0.01  -0.01    -0.01   0.01  -0.01
  98   1    -0.03  -0.00  -0.01     0.02   0.01   0.01     0.00   0.01  -0.02
  99   1    -0.00  -0.02   0.01    -0.02   0.03   0.02     0.01   0.01  -0.01
 100   1     0.00  -0.03   0.01    -0.02   0.04   0.03     0.01   0.02  -0.02
 101   1     0.01  -0.05   0.03    -0.02   0.01   0.04     0.00  -0.00  -0.01
 102   1     0.02  -0.05   0.04    -0.02  -0.00   0.04     0.01  -0.01   0.01
 103   1     0.01  -0.03   0.03    -0.02  -0.01   0.03     0.01  -0.02   0.02
 104   1     0.01  -0.01   0.01    -0.01  -0.01   0.01     0.00  -0.01   0.02
 105   1     0.01   0.03   0.02     0.01   0.00   0.01    -0.02   0.03   0.03
 106   1     0.01   0.03   0.04     0.01   0.00   0.01    -0.04   0.03   0.07
 107   1     0.01   0.03   0.03     0.01  -0.00  -0.00    -0.04   0.01   0.08
 108   1     0.01   0.03   0.01     0.00  -0.01  -0.02    -0.03  -0.02   0.06
 109   1    -0.00   0.03  -0.00     0.00  -0.01  -0.02     0.00  -0.02   0.02
 110   1    -0.00   0.02   0.00     0.00  -0.01  -0.01     0.00  -0.02   0.01
 111   1    -0.01  -0.04   0.01     0.00  -0.01   0.01     0.01   0.00  -0.02
 112   1    -0.03  -0.07  -0.01    -0.00  -0.01   0.01     0.03   0.00  -0.04
                      7                      8                      9
                        a                      a                      a 
 Frequencies --    27.9857                31.5851                37.0361
 Red. masses --    10.9587                10.7777                10.4842
 Frc consts  --     0.0000                 0.0000                 0.0000
 IR Inten    --     0.1760                11.0654                 0.8571
 Raman Activ --     0.0000                 0.0000                 0.0000
 Depolar     --     0.0000                 0.0000                 0.0000
 Atom AN      X      Y      Z        X      Y      Z        X      Y      Z
   1   6     0.08   0.07   0.09     0.11  -0.03  -0.07    -0.06   0.07   0.05
   2   6     0.10  -0.02   0.06     0.06   0.01   0.03     0.03   0.00  -0.11
   3   6     0.06  -0.06   0.02     0.02   0.03   0.08     0.06  -0.02  -0.16
   4   6    -0.00  -0.02   0.01     0.05   0.01   0.04    -0.01   0.02  -0.05
   5   7    -0.04  -0.07  -0.03     0.03   0.04   0.09     0.01   0.01  -0.11
   6   6    -0.05  -0.03  -0.01     0.02  -0.00   0.03     0.04  -0.00  -0.06
   7   6    -0.10  -0.04  -0.00     0.09   0.01   0.08     0.01  -0.01  -0.15
   8   6    -0.12  -0.00   0.02     0.07  -0.02   0.02     0.07  -0.02  -0.10
   9   6    -0.09   0.04   0.03    -0.02  -0.07  -0.10     0.15  -0.03   0.03
  10   6    -0.04   0.05   0.03    -0.10  -0.09  -0.15     0.18  -0.02   0.12
  11   6    -0.02   0.01   0.01    -0.08  -0.05  -0.09     0.12  -0.00   0.07
  12   6    -0.05  -0.11  -0.05     0.03   0.05   0.10     0.01  -0.01  -0.10
  13   6    -0.03  -0.09  -0.05     0.04   0.10   0.12    -0.01   0.03  -0.07
  14   6    -0.03  -0.08  -0.06     0.04   0.11   0.13    -0.01   0.02  -0.05
  15   6    -0.04  -0.08  -0.07     0.03   0.06   0.12    -0.00  -0.03  -0.05
  16   6    -0.03  -0.03  -0.07     0.03   0.03   0.09     0.00  -0.02  -0.01
  17   6     0.03   0.01  -0.01     0.02   0.03   0.11     0.01  -0.00   0.06
  18   6     0.07  -0.02   0.03     0.03   0.07   0.22     0.02   0.01   0.12
  19   6     0.13   0.02   0.08     0.03   0.06   0.21     0.03   0.03   0.18
  20   6     0.14   0.09   0.10     0.04   0.03   0.07     0.03   0.04   0.17
  21   6     0.09   0.12   0.06     0.04  -0.01  -0.03     0.02   0.03   0.11
  22   6     0.04   0.08   0.01     0.02   0.00  -0.00     0.01   0.01   0.07
  23   6    -0.01   0.10  -0.02     0.01  -0.02  -0.08     0.00   0.00   0.04
  24   6    -0.00   0.12  -0.04     0.01  -0.02  -0.12     0.00  -0.00   0.02
  25   6    -0.02   0.11  -0.04     0.02   0.02  -0.16    -0.01   0.03  -0.03
  26   6    -0.02   0.09  -0.04     0.02   0.05  -0.19    -0.01   0.06  -0.08
  27   6    -0.01   0.05  -0.01     0.01   0.04  -0.15    -0.01   0.06  -0.08
  28   6    -0.01  -0.00   0.02     0.01   0.07  -0.16    -0.01   0.10  -0.15
  29   6     0.00  -0.05   0.06     0.00   0.04  -0.11    -0.01   0.09  -0.13
  30   6     0.02  -0.04   0.07    -0.01  -0.01  -0.04    -0.00   0.02  -0.03
  31   6     0.04  -0.09   0.10    -0.03  -0.04   0.02    -0.00  -0.01   0.01
  32   6     0.04  -0.11   0.10    -0.02  -0.01   0.03    -0.01   0.02  -0.02
  33   6     0.05  -0.13   0.09    -0.03  -0.07   0.04     0.00  -0.05  -0.03
  34   6     0.05  -0.12   0.07    -0.03  -0.05   0.04    -0.00  -0.04  -0.05
  35   6     0.03  -0.09   0.07    -0.02   0.02   0.04    -0.02   0.04  -0.06
  36   7     0.03  -0.07   0.05    -0.02   0.01   0.04    -0.02   0.03  -0.07
  37   6     0.02  -0.02   0.01    -0.05  -0.00   0.04    -0.01  -0.00  -0.03
  38   6     0.06  -0.05   0.04    -0.08   0.00   0.07    -0.09   0.05  -0.08
  39   6     0.04  -0.02   0.00    -0.13  -0.01   0.06    -0.08   0.02  -0.05
  40   6    -0.03   0.05  -0.05    -0.15  -0.04   0.02     0.01  -0.08   0.03
  41   6    -0.07   0.08  -0.07    -0.12  -0.04  -0.01     0.09  -0.14   0.07
  42   6    -0.05   0.04  -0.04    -0.07  -0.02  -0.00     0.08  -0.10   0.04
  43   6     0.03  -0.02   0.01    -0.02   0.02   0.02    -0.03   0.02  -0.03
  44   6     0.08   0.06  -0.07     0.01   0.06  -0.03    -0.06   0.01   0.05
  45   6     0.09   0.10  -0.12     0.02   0.07  -0.05    -0.10   0.00   0.10
  46   6     0.05   0.08  -0.09    -0.01   0.05  -0.01    -0.11   0.02   0.06
  47   6    -0.00   0.01  -0.01    -0.04   0.01   0.05    -0.08   0.03  -0.02
  48   6    -0.01  -0.04   0.04    -0.04  -0.00   0.06    -0.05   0.04  -0.07
  49   6     0.02  -0.09   0.08    -0.01   0.08   0.04    -0.02   0.11  -0.04
  50   6     0.02  -0.10   0.10    -0.02   0.07   0.03    -0.02   0.11  -0.03
  51   6     0.06  -0.10   0.12    -0.04  -0.09   0.08     0.01  -0.08   0.09
  52   6     0.06  -0.05   0.08    -0.05  -0.11   0.07     0.01  -0.12   0.14
  53   6     0.04   0.01   0.03    -0.03  -0.08   0.01     0.01  -0.09   0.10
  54   6     0.04   0.08  -0.02    -0.04  -0.09  -0.01     0.01  -0.12   0.14
  55   6     0.03   0.12  -0.05    -0.03  -0.06  -0.06     0.01  -0.08   0.10
  56   6     0.01   0.10  -0.04    -0.01  -0.03  -0.09     0.00  -0.03   0.04
  57   6     0.01   0.06  -0.01    -0.00  -0.00  -0.10     0.00   0.00  -0.01
  58   6     0.02   0.01   0.03    -0.02  -0.03  -0.04     0.00  -0.02   0.02
  59   6    -0.06   0.07  -0.05     0.01  -0.02  -0.08     0.00  -0.00   0.03
  60   6    -0.09   0.10  -0.05     0.00  -0.05  -0.14     0.01   0.00   0.05
  61   6    -0.14   0.06  -0.10     0.01  -0.05  -0.15     0.00  -0.01   0.02
  62   6    -0.16   0.00  -0.15     0.03  -0.02  -0.09    -0.01  -0.03  -0.05
  63   6    -0.13  -0.03  -0.14     0.03   0.01  -0.01    -0.01  -0.04  -0.07
  64   6    -0.07   0.00  -0.09     0.02   0.01  -0.00    -0.00  -0.02  -0.02
  65   6    -0.06  -0.13  -0.08     0.03   0.02   0.10     0.01  -0.08  -0.08
  66   6    -0.06  -0.14  -0.07     0.03   0.02   0.10     0.01  -0.06  -0.10
  67   6    -0.02   0.06   0.04     0.10  -0.02  -0.06    -0.10   0.09   0.10
  68   6     0.02   0.10   0.08     0.13  -0.04  -0.12    -0.12   0.11   0.16
  69   1     0.03   0.03   0.03     0.04  -0.01  -0.03    -0.02   0.03   0.03
  70   1     0.04  -0.01   0.02     0.01   0.01   0.02     0.02  -0.01  -0.06
  71   1     0.02  -0.04  -0.00    -0.00   0.01   0.05     0.04  -0.02  -0.08
  72   1    -0.04  -0.02  -0.00     0.05   0.01   0.05    -0.01   0.00  -0.07
  73   1    -0.04  -0.00   0.01     0.04  -0.00   0.02     0.01  -0.01  -0.05
  74   1    -0.03   0.02   0.01    -0.01  -0.03  -0.04     0.06  -0.01   0.02
  75   1    -0.00   0.02   0.01    -0.05  -0.04  -0.07     0.07  -0.01   0.07
  76   1     0.00   0.01   0.00    -0.04  -0.02  -0.04     0.04   0.00   0.04
  77   1    -0.01  -0.02  -0.01     0.01   0.04   0.04    -0.01   0.02  -0.02
  78   1    -0.00  -0.02  -0.02     0.01   0.04   0.04    -0.01   0.02  -0.01
  79   1     0.02  -0.02   0.00     0.01   0.02   0.09     0.00  -0.00   0.04
  80   1     0.05  -0.00   0.03     0.01   0.03   0.09     0.01   0.01   0.07
  81   1     0.05   0.04   0.04     0.02   0.01   0.01     0.01   0.02   0.06
  82   1     0.03   0.05   0.02     0.01  -0.01  -0.04     0.01   0.01   0.03
  83   1    -0.01   0.04  -0.01     0.01   0.01  -0.05    -0.00   0.01  -0.01
  84   1    -0.01   0.02  -0.01     0.01   0.03  -0.06    -0.00   0.03  -0.04
  85   1    -0.01  -0.00   0.01     0.01   0.03  -0.06    -0.00   0.04  -0.06
  86   1    -0.00  -0.03   0.03     0.00   0.02  -0.03    -0.00   0.03  -0.05
  87   1     0.02  -0.04   0.03    -0.01  -0.04   0.01     0.00  -0.03  -0.01
  88   1     0.02  -0.04   0.02    -0.01  -0.03   0.01     0.00  -0.03  -0.02
  89   1     0.03  -0.03   0.02    -0.02   0.01   0.03    -0.05   0.03  -0.04
  90   1     0.02  -0.01   0.01    -0.04  -0.00   0.03    -0.04   0.02  -0.02
  91   1    -0.01   0.02  -0.02    -0.05  -0.01   0.00     0.00  -0.03   0.01
  92   1    -0.04   0.04  -0.03    -0.04  -0.02  -0.01     0.05  -0.06   0.04
  93   1    -0.02   0.02  -0.02    -0.02  -0.01  -0.01     0.04  -0.04   0.02
  94   1     0.03   0.02  -0.03     0.01   0.02  -0.02    -0.02  -0.00   0.02
  95   1     0.04   0.05  -0.05     0.01   0.03  -0.03    -0.03  -0.00   0.05
  96   1     0.02   0.03  -0.04    -0.00   0.02  -0.01    -0.04   0.00   0.03
  97   1    -0.01  -0.00   0.01    -0.02  -0.00   0.02    -0.03   0.01  -0.02
  98   1    -0.02  -0.03   0.03    -0.02  -0.01   0.03    -0.01   0.01  -0.04
  99   1     0.00  -0.02   0.02    -0.00   0.04   0.01    -0.01   0.05  -0.01
 100   1     0.00  -0.03   0.03    -0.00   0.03   0.01    -0.01   0.05  -0.00
 101   1     0.02  -0.04   0.04    -0.01  -0.03   0.04     0.00  -0.03   0.04
 102   1     0.02  -0.01   0.03    -0.02  -0.04   0.03     0.00  -0.05   0.06
 103   1     0.01   0.03  -0.01    -0.01  -0.04   0.01     0.00  -0.05   0.06
 104   1     0.01   0.05  -0.03    -0.01  -0.02  -0.02     0.00  -0.03   0.04
 105   1    -0.02   0.04  -0.00    -0.00  -0.02  -0.06     0.01   0.01   0.03
 106   1    -0.05   0.03  -0.03    -0.00  -0.02  -0.06     0.00  -0.00   0.01
 107   1    -0.06  -0.01  -0.06     0.01  -0.01  -0.03    -0.01  -0.01  -0.03
 108   1    -0.04  -0.02  -0.05     0.01   0.01   0.01    -0.01  -0.01  -0.03
 109   1    -0.02  -0.04  -0.03     0.01  -0.00   0.03     0.01  -0.04  -0.02
 110   1    -0.02  -0.05  -0.02     0.01  -0.00   0.03     0.01  -0.03  -0.03
 111   1    -0.02   0.02   0.01     0.03  -0.01  -0.03    -0.04   0.04   0.05
 112   1    -0.00   0.05   0.03     0.05  -0.02  -0.06    -0.06   0.05   0.08
                     10                     11                     12
                        a                      a                      a 
 Frequencies --    41.1777                48.0798                50.9772
 Red. masses --    10.4321                10.8434                10.3711
 Frc consts  --     0.0000                 0.0000                 0.0000
 IR Inten    --     0.4029                18.1404                 0.5133
 Raman Activ --     0.0000                 0.0000                 0.0000
 Depolar     --     0.0000                 0.0000                 0.0000
 Atom AN      X      Y      Z        X      Y      Z        X      Y      Z
   1   6     0.13  -0.02   0.00     0.07  -0.02  -0.09    -0.04  -0.03  -0.06
   2   6     0.06  -0.01   0.13     0.10  -0.03  -0.15    -0.01  -0.02  -0.14
   3   6     0.02  -0.02   0.15     0.09  -0.01  -0.10     0.01   0.02  -0.10
   4   6     0.03  -0.03   0.04     0.05   0.02  -0.01    -0.01   0.03   0.01
   5   7     0.00  -0.05   0.06     0.05   0.04   0.01    -0.00   0.07   0.05
   6   6    -0.01  -0.03   0.04     0.06   0.01  -0.01    -0.01   0.04   0.01
   7   6     0.04  -0.02   0.16     0.04   0.00  -0.10    -0.05   0.03  -0.10
   8   6     0.02  -0.00   0.15     0.07  -0.02  -0.10    -0.07  -0.01  -0.16
   9   6    -0.06  -0.01   0.02     0.11  -0.04  -0.01    -0.04  -0.02  -0.10
  10   6    -0.12  -0.02  -0.09     0.13  -0.04   0.08     0.01  -0.01   0.03
  11   6    -0.09  -0.03  -0.08     0.10  -0.01   0.08     0.03   0.02   0.08
  12   6     0.00  -0.04   0.03     0.05   0.02   0.02    -0.00   0.04   0.05
  13   6     0.04  -0.01   0.02     0.02   0.00   0.03    -0.02   0.04   0.06
  14   6     0.04   0.01  -0.01     0.01  -0.02   0.05    -0.03   0.01   0.08
  15   6     0.01   0.02  -0.03     0.03  -0.01   0.07    -0.01  -0.01   0.09
  16   6     0.01   0.03  -0.06     0.03  -0.01   0.07    -0.01  -0.01   0.08
  17   6     0.01   0.03  -0.06     0.04  -0.02   0.03     0.01  -0.01   0.05
  18   6     0.02   0.02  -0.08     0.06  -0.03   0.04     0.03  -0.00   0.12
  19   6     0.02   0.03  -0.08     0.07  -0.04  -0.01     0.06  -0.01   0.08
  20   6     0.01   0.03  -0.05     0.08  -0.03  -0.06     0.07  -0.02  -0.04
  21   6     0.01   0.04  -0.03     0.07  -0.02  -0.06     0.05  -0.02  -0.10
  22   6     0.01   0.04  -0.03     0.04  -0.01  -0.03     0.01  -0.01  -0.05
  23   6     0.01   0.05  -0.01     0.02   0.00  -0.04    -0.01  -0.01  -0.09
  24   6     0.01   0.05   0.01     0.02   0.02  -0.05    -0.00   0.01  -0.11
  25   6     0.01   0.05   0.01     0.04   0.01  -0.03     0.01   0.03  -0.13
  26   6     0.02   0.03   0.04     0.04  -0.00   0.02     0.01   0.02  -0.09
  27   6     0.01   0.01   0.07     0.03  -0.00   0.04     0.00  -0.02  -0.02
  28   6     0.01  -0.01   0.09     0.03  -0.03   0.11     0.01  -0.06   0.06
  29   6     0.01  -0.01   0.11     0.02  -0.02   0.11     0.00  -0.09   0.11
  30   6     0.01  -0.01   0.10    -0.00   0.02   0.04    -0.01  -0.06   0.08
  31   6     0.01  -0.01   0.09    -0.02   0.04   0.03    -0.02  -0.06   0.09
  32   6    -0.00   0.00   0.05    -0.02  -0.02   0.05    -0.02  -0.01   0.08
  33   6     0.03  -0.00   0.01    -0.03  -0.09   0.05     0.02   0.15   0.05
  34   6     0.02  -0.02  -0.04    -0.03  -0.16   0.04     0.01   0.19   0.03
  35   6    -0.03  -0.02  -0.06    -0.04  -0.14   0.04    -0.01   0.05   0.02
  36   7    -0.04  -0.03  -0.10    -0.04  -0.16   0.05    -0.03   0.04  -0.00
  37   6    -0.01  -0.02  -0.07    -0.04  -0.09   0.00    -0.00   0.04   0.00
  38   6    -0.09   0.06  -0.20    -0.08  -0.05  -0.08     0.02   0.04  -0.03
  39   6    -0.04   0.07  -0.19    -0.12   0.03  -0.15     0.09   0.05  -0.02
  40   6     0.09  -0.01  -0.05    -0.12   0.06  -0.13     0.12   0.06   0.04
  41   6     0.17  -0.09   0.08    -0.07   0.01  -0.04     0.09   0.07   0.07
  42   6     0.12  -0.10   0.06    -0.04  -0.06   0.03     0.03   0.06   0.05
  43   6    -0.06  -0.01  -0.06    -0.08  -0.07   0.02     0.02   0.00  -0.01
  44   6    -0.13  -0.07   0.12    -0.05   0.02   0.06    -0.07  -0.14   0.09
  45   6    -0.18  -0.06   0.17    -0.11   0.10   0.06    -0.01  -0.17   0.04
  46   6    -0.16   0.00   0.03    -0.20   0.10   0.02     0.15  -0.06  -0.12
  47   6    -0.09   0.07  -0.16    -0.23   0.02  -0.03     0.23   0.07  -0.22
  48   6    -0.04   0.05  -0.21    -0.17  -0.07  -0.03     0.16   0.10  -0.17
  49   6    -0.07  -0.00  -0.03    -0.04  -0.08   0.04    -0.05  -0.09   0.04
  50   6    -0.06   0.01   0.03    -0.03  -0.03   0.05    -0.04  -0.12   0.07
  51   6     0.01  -0.02   0.11    -0.02   0.10  -0.04    -0.04  -0.06   0.08
  52   6     0.01  -0.03   0.11    -0.03   0.14  -0.10    -0.05  -0.06   0.05
  53   6     0.01  -0.01   0.09    -0.02   0.11  -0.09    -0.04  -0.04   0.01
  54   6     0.00   0.01   0.06    -0.03   0.13  -0.14    -0.04  -0.02  -0.04
  55   6     0.00   0.03   0.03    -0.01   0.09  -0.11    -0.03   0.00  -0.08
  56   6     0.01   0.03   0.03     0.01   0.05  -0.06    -0.02   0.00  -0.08
  57   6     0.01   0.01   0.06     0.01   0.04  -0.02    -0.01  -0.02  -0.03
  58   6     0.01  -0.00   0.09    -0.01   0.06  -0.02    -0.02  -0.04   0.02
  59   6     0.01   0.04  -0.04     0.01   0.01  -0.00    -0.04  -0.01  -0.05
  60   6     0.02   0.04  -0.03    -0.02   0.02  -0.03    -0.07  -0.00  -0.09
  61   6     0.01   0.03  -0.07    -0.04   0.03   0.05    -0.08  -0.00  -0.05
  62   6     0.00   0.01  -0.13    -0.02   0.04   0.16    -0.07  -0.00   0.03
  63   6    -0.00   0.02  -0.12     0.00   0.02   0.17    -0.04  -0.00   0.08
  64   6     0.01   0.03  -0.07     0.01   0.01   0.08    -0.03  -0.01   0.04
  65   6    -0.03  -0.01  -0.02     0.06   0.00   0.06     0.01  -0.01   0.07
  66   6    -0.03  -0.04   0.01     0.07   0.02   0.03     0.01   0.02   0.06
  67   6     0.09  -0.04  -0.08     0.02   0.03   0.05    -0.05   0.03   0.09
  68   6     0.14  -0.03  -0.10     0.03   0.01   0.01    -0.07  -0.00   0.06
  69   1     0.05  -0.00  -0.00     0.02  -0.01  -0.04    -0.02  -0.01  -0.03
  70   1     0.01   0.00   0.06     0.04  -0.02  -0.06     0.00  -0.01  -0.07
  71   1    -0.01  -0.01   0.07     0.03  -0.00  -0.04     0.01   0.01  -0.05
  72   1     0.03  -0.01   0.07     0.00   0.01  -0.05    -0.02   0.01  -0.04
  73   1     0.02   0.00   0.07     0.01  -0.01  -0.05    -0.03  -0.00  -0.07
  74   1    -0.02   0.00   0.00     0.04  -0.02  -0.00    -0.02  -0.01  -0.04
  75   1    -0.05  -0.01  -0.06     0.05  -0.02   0.04     0.01  -0.01   0.02
  76   1    -0.04  -0.01  -0.05     0.03  -0.00   0.04     0.02   0.01   0.05
  77   1     0.02  -0.00   0.01    -0.00   0.00   0.00    -0.01   0.01   0.02
  78   1     0.02   0.01  -0.01    -0.00  -0.01   0.02    -0.01   0.01   0.03
  79   1     0.00   0.01  -0.03     0.01  -0.01   0.02     0.01   0.00   0.06
  80   1     0.00   0.01  -0.03     0.02  -0.01  -0.00     0.02  -0.00   0.04
  81   1     0.00   0.01  -0.01     0.03  -0.01  -0.03     0.03  -0.01  -0.02
  82   1     0.00   0.01  -0.00     0.02  -0.01  -0.03     0.02  -0.01  -0.05
  83   1     0.00   0.02  -0.00     0.01   0.00  -0.01     0.00   0.02  -0.05
  84   1     0.01   0.01   0.01     0.02  -0.01   0.01     0.01   0.01  -0.03
  85   1     0.00  -0.00   0.03     0.01  -0.02   0.05     0.01  -0.02   0.02
  86   1     0.00  -0.01   0.04     0.01  -0.01   0.05     0.00  -0.04   0.05
  87   1     0.02  -0.00   0.01    -0.01  -0.02   0.01     0.01   0.07   0.02
  88   1     0.01  -0.01  -0.02    -0.01  -0.06   0.01     0.01   0.09   0.01
  89   1    -0.05   0.03  -0.09    -0.02  -0.02  -0.03     0.00   0.01  -0.02
  90   1    -0.03   0.04  -0.08    -0.04   0.02  -0.06     0.03   0.01  -0.01
  91   1     0.04  -0.00  -0.01    -0.04   0.04  -0.06     0.05   0.02   0.02
  92   1     0.08  -0.04   0.06    -0.02   0.01  -0.01     0.03   0.02   0.03
  93   1     0.05  -0.05   0.04    -0.00  -0.03   0.03     0.00   0.02   0.02
  94   1    -0.04  -0.04   0.07     0.01   0.01   0.03    -0.06  -0.06   0.06
  95   1    -0.07  -0.03   0.09    -0.02   0.05   0.03    -0.02  -0.08   0.04
  96   1    -0.06   0.00   0.02    -0.07   0.05   0.01     0.06  -0.02  -0.05
  97   1    -0.02   0.03  -0.08    -0.09   0.00  -0.02     0.10   0.05  -0.10
  98   1     0.00   0.03  -0.10    -0.06  -0.04  -0.02     0.07   0.06  -0.07
  99   1    -0.03  -0.00  -0.01    -0.01  -0.02   0.01    -0.02  -0.05   0.01
 100   1    -0.03   0.00   0.02    -0.01   0.00   0.02    -0.02  -0.07   0.02
 101   1     0.00  -0.01   0.03    -0.01   0.03  -0.01    -0.02  -0.01   0.03
 102   1     0.00  -0.01   0.04    -0.01   0.05  -0.05    -0.02  -0.02   0.01
 103   1    -0.00   0.00   0.02    -0.01   0.05  -0.05    -0.02  -0.01  -0.01
 104   1     0.00   0.02   0.00    -0.00   0.03  -0.04    -0.01   0.01  -0.04
 105   1     0.01   0.01   0.01    -0.01   0.00  -0.03    -0.02  -0.00  -0.04
 106   1     0.00   0.01  -0.02    -0.02   0.01   0.01    -0.03   0.00  -0.03
 107   1    -0.00   0.00  -0.05    -0.01   0.02   0.07    -0.02   0.00   0.02
 108   1    -0.00   0.00  -0.05     0.00   0.01   0.07    -0.01  -0.00   0.04
 109   1    -0.02  -0.00  -0.01     0.03   0.00   0.02     0.01  -0.01   0.02
 110   1    -0.02  -0.02   0.01     0.03   0.01   0.01     0.01   0.00   0.01
 111   1     0.03  -0.02  -0.04    -0.00   0.02   0.04    -0.02   0.01   0.05
 112   1     0.06  -0.01  -0.06     0.00   0.01   0.02    -0.03  -0.00   0.03
                     13                     14                     15
                        a                      a                      a 
 Frequencies --    52.9022                60.1420                60.9545
 Red. masses --    10.4197                10.6718                10.8641
 Frc consts  --     0.0000                 0.0000                 0.0000
 IR Inten    --    10.2760                 1.9044                 3.2265
 Raman Activ --     0.0000                 0.0000                 0.0000
 Depolar     --     0.0000                 0.0000                 0.0000
 Atom AN      X      Y      Z        X      Y      Z        X      Y      Z
   1   6    -0.25  -0.07   0.09     0.09  -0.11  -0.19    -0.00   0.01  -0.02
   2   6    -0.27   0.03   0.10     0.12  -0.08  -0.25     0.01   0.00  -0.04
   3   6    -0.15   0.06   0.06     0.07   0.01  -0.08    -0.00   0.01  -0.02
   4   6    -0.03  -0.01   0.01     0.01   0.05   0.13    -0.02   0.02   0.01
   5   7     0.03   0.02   0.02     0.01   0.13   0.24    -0.02   0.04   0.03
   6   6    -0.02   0.04   0.01    -0.01   0.05   0.13    -0.01   0.01   0.02
   7   6    -0.17   0.02  -0.09    -0.05   0.04  -0.04     0.03   0.02   0.03
   8   6    -0.28   0.06  -0.16    -0.11  -0.04  -0.20     0.04  -0.00   0.02
   9   6    -0.22   0.14  -0.13    -0.13  -0.10  -0.18     0.01  -0.03  -0.02
  10   6    -0.05   0.17  -0.01    -0.07  -0.08   0.01    -0.04  -0.04  -0.03
  11   6     0.05   0.12   0.06    -0.01  -0.01   0.17    -0.05  -0.02  -0.01
  12   6     0.02   0.01   0.02    -0.00   0.06   0.15    -0.02   0.03   0.02
  13   6    -0.00  -0.13  -0.03     0.03   0.05   0.13    -0.01   0.06   0.03
  14   6    -0.00  -0.13  -0.03     0.03   0.02   0.07    -0.01   0.04   0.01
  15   6     0.03  -0.01   0.02    -0.02  -0.00   0.04    -0.02  -0.01  -0.01
  16   6     0.03  -0.02   0.01    -0.02   0.00  -0.01    -0.02  -0.02  -0.01
  17   6     0.04  -0.02   0.01    -0.01  -0.00  -0.04    -0.04  -0.03  -0.00
  18   6     0.05  -0.03  -0.00    -0.02  -0.02  -0.11    -0.06  -0.02  -0.04
  19   6     0.06  -0.02   0.03    -0.03  -0.04  -0.17    -0.09  -0.04  -0.07
  20   6     0.06   0.00   0.07    -0.04  -0.04  -0.13    -0.10  -0.06  -0.04
  21   6     0.05   0.00   0.06    -0.03  -0.01  -0.03    -0.07  -0.06   0.01
  22   6     0.04  -0.01   0.03    -0.01   0.01   0.00    -0.04  -0.04   0.03
  23   6     0.04  -0.03  -0.01    -0.01   0.02   0.06    -0.02  -0.04   0.08
  24   6     0.05  -0.02  -0.00    -0.00   0.03   0.08    -0.02  -0.03   0.09
  25   6     0.06  -0.02   0.01    -0.01   0.03   0.08    -0.01  -0.02   0.07
  26   6     0.06  -0.01   0.01    -0.01   0.03   0.06    -0.01   0.04  -0.00
  27   6     0.05   0.00  -0.00    -0.01   0.03   0.04    -0.02   0.07  -0.05
  28   6     0.06   0.02  -0.01    -0.01   0.04   0.01    -0.02   0.13  -0.13
  29   6     0.05   0.02  -0.01    -0.00   0.04  -0.01    -0.02   0.14  -0.14
  30   6     0.04   0.01   0.01     0.01   0.03   0.01    -0.01   0.09  -0.07
  31   6     0.04  -0.00   0.03     0.03   0.01   0.01    -0.00   0.07  -0.04
  32   6     0.04  -0.00   0.03     0.02   0.01  -0.02     0.01   0.03   0.01
  33   6     0.04  -0.08   0.03     0.03  -0.05  -0.03    -0.04  -0.04   0.05
  34   6     0.04  -0.09   0.02     0.03  -0.05  -0.04    -0.03  -0.11   0.10
  35   6     0.03  -0.01   0.02     0.02   0.02  -0.05     0.03  -0.13   0.12
  36   7     0.03  -0.03   0.01     0.02   0.05  -0.07     0.04  -0.23   0.20
  37   6     0.01  -0.02   0.00     0.02   0.02  -0.04     0.04  -0.10   0.11
  38   6    -0.07   0.04  -0.06     0.03   0.00  -0.01    -0.01  -0.03  -0.05
  39   6    -0.12   0.05  -0.08     0.05  -0.05   0.03    -0.03   0.10  -0.16
  40   6    -0.06  -0.00  -0.04     0.06  -0.08   0.03    -0.01   0.16  -0.09
  41   6     0.03  -0.07   0.02     0.04  -0.05  -0.02     0.05   0.08   0.08
  42   6     0.07  -0.08   0.04     0.02  -0.01  -0.06     0.07  -0.05   0.18
  43   6     0.02  -0.00   0.00     0.01   0.02  -0.04     0.04  -0.12   0.11
  44   6     0.03   0.03   0.03     0.04   0.05  -0.09     0.06  -0.07   0.12
  45   6     0.01   0.06   0.02     0.01   0.03  -0.05     0.12   0.07  -0.06
  46   6    -0.02   0.06   0.00    -0.04  -0.03   0.06     0.15   0.16  -0.25
  47   6    -0.04   0.03  -0.01    -0.06  -0.06   0.11     0.12   0.09  -0.23
  48   6    -0.01  -0.00  -0.01    -0.04  -0.03   0.06     0.06  -0.05  -0.05
  49   6     0.03   0.08   0.02     0.01   0.06  -0.04     0.08  -0.04   0.09
  50   6     0.03   0.08   0.03     0.01   0.05  -0.02     0.07   0.04   0.03
  51   6     0.03  -0.02   0.04     0.04  -0.00   0.03    -0.01   0.05  -0.03
  52   6     0.03  -0.01   0.02     0.05   0.00   0.05    -0.01   0.04  -0.01
  53   6     0.03   0.00  -0.00     0.03   0.02   0.05    -0.01   0.03   0.00
  54   6     0.03   0.02  -0.03     0.04   0.03   0.06    -0.00  -0.01   0.05
  55   6     0.03   0.02  -0.04     0.02   0.04   0.06    -0.01  -0.03   0.08
  56   6     0.04  -0.00  -0.02     0.01   0.03   0.07    -0.02  -0.01   0.06
  57   6     0.04   0.00  -0.01     0.00   0.03   0.05    -0.01   0.04  -0.01
  58   6     0.04   0.01  -0.00     0.02   0.02   0.04    -0.01   0.06  -0.03
  59   6     0.04  -0.04  -0.05    -0.01   0.01   0.02    -0.01  -0.04   0.05
  60   6     0.03  -0.07  -0.10    -0.01  -0.00  -0.00     0.01  -0.06   0.05
  61   6     0.04  -0.07  -0.11    -0.02  -0.04  -0.11     0.02  -0.07  -0.02
  62   6     0.06  -0.04  -0.05    -0.03  -0.05  -0.19     0.01  -0.06  -0.08
  63   6     0.06  -0.01   0.01    -0.03  -0.03  -0.14    -0.00  -0.05  -0.07
  64   6     0.04  -0.02  -0.01    -0.02  -0.00  -0.04    -0.01  -0.04  -0.01
  65   6     0.05   0.13   0.06    -0.06  -0.03   0.05    -0.03  -0.04  -0.01
  66   6     0.05   0.15   0.07    -0.05  -0.00   0.11    -0.03  -0.02  -0.00
  67   6    -0.01  -0.12  -0.02    -0.03   0.03   0.20    -0.03   0.03   0.03
  68   6    -0.12  -0.15   0.02     0.01  -0.05   0.04    -0.02   0.02   0.01
  69   1    -0.10  -0.03   0.04     0.04  -0.05  -0.10     0.00   0.00  -0.01
  70   1    -0.11   0.03   0.04     0.05  -0.04  -0.12     0.01  -0.00  -0.02
  71   1    -0.05   0.04   0.02     0.03   0.01  -0.04     0.00   0.00  -0.01
  72   1    -0.06  -0.01  -0.03    -0.01   0.03  -0.02     0.02   0.01   0.02
  73   1    -0.12   0.01  -0.07    -0.04  -0.01  -0.10     0.02   0.00   0.01
  74   1    -0.09   0.05  -0.05    -0.05  -0.05  -0.09     0.00  -0.01  -0.01
  75   1    -0.00   0.07   0.01    -0.02  -0.04   0.01    -0.02  -0.02  -0.02
  76   1     0.05   0.04   0.04     0.01   0.00   0.09    -0.02  -0.01  -0.01
  77   1    -0.01  -0.07  -0.02     0.02   0.02   0.04     0.00   0.03   0.01
  78   1    -0.01  -0.07  -0.01     0.02   0.00   0.01    -0.00   0.02   0.00
  79   1     0.02  -0.02  -0.01    -0.01  -0.00  -0.04    -0.02   0.00  -0.02
  80   1     0.02  -0.01   0.01    -0.01  -0.02  -0.07    -0.03  -0.01  -0.03
  81   1     0.02   0.00   0.03    -0.01  -0.02  -0.05    -0.03  -0.02  -0.02
  82   1     0.02   0.01   0.02    -0.01  -0.00   0.01    -0.02  -0.02   0.01
  83   1     0.02  -0.01   0.01    -0.00   0.01   0.02    -0.00  -0.01   0.03
  84   1     0.02  -0.00   0.01    -0.01   0.01   0.02    -0.00   0.02  -0.01
  85   1     0.02   0.01  -0.01    -0.01   0.01  -0.00    -0.00   0.05  -0.05
  86   1     0.01   0.01  -0.01    -0.00   0.01  -0.01    -0.01   0.05  -0.06
  87   1     0.01  -0.04   0.01     0.01  -0.03  -0.01    -0.02  -0.01   0.01
  88   1     0.01  -0.04   0.00     0.01  -0.03  -0.02    -0.02  -0.04   0.04
  89   1    -0.03   0.02  -0.03     0.01   0.01  -0.00    -0.01  -0.02  -0.03
  90   1    -0.05   0.03  -0.04     0.02  -0.02   0.02    -0.02   0.05  -0.08
  91   1    -0.03   0.00  -0.02     0.02  -0.03   0.02    -0.01   0.08  -0.05
  92   1     0.02  -0.03   0.02     0.01  -0.02  -0.01     0.02   0.04   0.04
  93   1     0.04  -0.04   0.02     0.00   0.00  -0.03     0.03  -0.03   0.09
  94   1     0.02   0.01   0.01     0.02   0.03  -0.05     0.01  -0.04   0.07
  95   1     0.00   0.02   0.01     0.01   0.01  -0.03     0.04   0.03  -0.02
  96   1    -0.01   0.02   0.00    -0.02  -0.02   0.03     0.06   0.08  -0.12
  97   1    -0.02   0.01  -0.01    -0.03  -0.03   0.06     0.04   0.05  -0.11
  98   1    -0.01  -0.01  -0.01    -0.02  -0.01   0.03     0.01  -0.03  -0.01
  99   1     0.01   0.04   0.01    -0.00   0.03  -0.01     0.03  -0.01   0.03
 100   1     0.01   0.04   0.01     0.00   0.03  -0.00     0.03   0.03  -0.00
 101   1     0.01  -0.01   0.02     0.02  -0.01   0.01    -0.00   0.01  -0.00
 102   1     0.01  -0.01   0.01     0.02  -0.00   0.02    -0.00   0.01   0.00
 103   1     0.01   0.01  -0.01     0.01   0.01   0.02     0.00  -0.01   0.02
 104   1     0.01   0.01  -0.02     0.01   0.02   0.02    -0.00  -0.02   0.04
 105   1     0.01  -0.03  -0.04     0.00   0.00   0.02     0.00  -0.02   0.03
 106   1     0.01  -0.03  -0.05    -0.01  -0.02  -0.04     0.01  -0.02  -0.01
 107   1     0.02  -0.01  -0.01    -0.01  -0.02  -0.08     0.01  -0.02  -0.04
 108   1     0.02   0.01   0.02    -0.01  -0.01  -0.05    -0.00  -0.01  -0.03
 109   1     0.02   0.06   0.03    -0.03  -0.02   0.00    -0.01  -0.02  -0.01
 110   1     0.02   0.07   0.03    -0.03  -0.01   0.03    -0.01  -0.01  -0.00
 111   1     0.03  -0.05  -0.02    -0.02   0.02   0.10    -0.01   0.01   0.01
 112   1    -0.03  -0.07   0.00    -0.00  -0.02   0.03    -0.01   0.01   0.01
                     16                     17                     18
                        a                      a                      a 
 Frequencies --    68.6862                72.7478                74.2941
 Red. masses --    10.7041                10.5926                10.2240
 Frc consts  --     0.0000                 0.0000                 0.0000
 IR Inten    --     4.5003                 1.8263                 1.4785
 Raman Activ --     0.0000                 0.0000                 0.0000
 Depolar     --     0.0000                 0.0000                 0.0000
 Atom AN      X      Y      Z        X      Y      Z        X      Y      Z
   1   6    -0.05  -0.01   0.03    -0.20   0.09   0.08     0.14  -0.00  -0.16
   2   6    -0.07   0.03   0.07    -0.17   0.11   0.01     0.02   0.06   0.06
   3   6    -0.03   0.04   0.05    -0.08   0.10  -0.07    -0.04   0.08   0.14
   4   6     0.02   0.00  -0.01    -0.03   0.07  -0.06     0.00   0.05   0.01
   5   7     0.04   0.01  -0.01    -0.01   0.10  -0.05    -0.01   0.04   0.01
   6   6     0.03   0.01  -0.01     0.01   0.08  -0.05     0.01   0.00  -0.01
   7   6     0.01   0.01  -0.03     0.15   0.10   0.09    -0.00  -0.00  -0.12
   8   6    -0.01   0.02  -0.04     0.20   0.08   0.11     0.10  -0.03  -0.05
   9   6     0.02   0.03  -0.01     0.09   0.01  -0.02     0.20  -0.05   0.14
  10   6     0.04   0.04   0.01    -0.06  -0.02  -0.17     0.18  -0.05   0.21
  11   6     0.05   0.03   0.01    -0.10   0.01  -0.17     0.08  -0.02   0.12
  12   6     0.04   0.01  -0.00     0.00   0.09  -0.01    -0.02   0.03   0.01
  13   6     0.02  -0.03  -0.01    -0.02   0.15   0.03    -0.05  -0.12  -0.04
  14   6     0.02  -0.04  -0.01    -0.04   0.05   0.05    -0.06  -0.15  -0.05
  15   6     0.03  -0.02   0.00    -0.03  -0.10   0.03    -0.03  -0.03  -0.01
  16   6     0.03  -0.02   0.01    -0.02  -0.11   0.05    -0.04  -0.03  -0.01
  17   6     0.03  -0.02   0.02     0.01  -0.10   0.03    -0.04  -0.03  -0.02
  18   6     0.04  -0.03   0.04     0.03  -0.11   0.06    -0.02  -0.06  -0.08
  19   6     0.05  -0.02   0.03     0.06  -0.13  -0.03    -0.01  -0.04  -0.03
  20   6     0.05  -0.03   0.01     0.07  -0.13  -0.12    -0.01   0.01   0.08
  21   6     0.04  -0.02  -0.00     0.05  -0.10  -0.09    -0.02   0.03   0.10
  22   6     0.03  -0.02   0.01     0.02  -0.08  -0.02    -0.03   0.00   0.04
  23   6     0.02  -0.02   0.01     0.00  -0.04   0.01    -0.05   0.00   0.01
  24   6     0.02   0.00   0.02     0.01   0.01   0.01    -0.04   0.01   0.02
  25   6     0.04   0.06  -0.04     0.03   0.01   0.02    -0.05  -0.02   0.06
  26   6     0.05   0.11  -0.07     0.04   0.02   0.03    -0.05  -0.01   0.04
  27   6     0.02   0.12  -0.03     0.03   0.02   0.05    -0.05   0.01   0.00
  28   6     0.03   0.16  -0.04     0.03   0.01   0.07    -0.05   0.02  -0.02
  29   6     0.00   0.15   0.01     0.03   0.01   0.07    -0.05   0.02  -0.03
  30   6    -0.03   0.12   0.03     0.02   0.02   0.06    -0.04  -0.00   0.00
  31   6    -0.05   0.14   0.04     0.02   0.00   0.07    -0.03  -0.04   0.04
  32   6    -0.06   0.11   0.02     0.02  -0.00   0.05    -0.03  -0.04   0.03
  33   6    -0.05   0.09   0.01     0.04  -0.08   0.02    -0.02  -0.11   0.02
  34   6    -0.06  -0.02  -0.01     0.04  -0.08  -0.01    -0.02  -0.08   0.00
  35   6    -0.08  -0.11  -0.02     0.01   0.01  -0.03    -0.03   0.03  -0.00
  36   7    -0.09  -0.13  -0.02     0.01   0.05  -0.07    -0.03   0.05  -0.03
  37   6    -0.03  -0.07  -0.04     0.01   0.03  -0.05    -0.01   0.05  -0.02
  38   6     0.17  -0.19   0.02    -0.02   0.05  -0.07    -0.04   0.07  -0.06
  39   6     0.32  -0.17   0.05     0.03   0.00  -0.02     0.04   0.03  -0.00
  40   6     0.23  -0.00   0.03     0.11  -0.07   0.05     0.13  -0.04   0.10
  41   6    -0.01   0.15  -0.06     0.12  -0.08   0.05     0.14  -0.04   0.12
  42   6    -0.13   0.11  -0.08     0.07  -0.03  -0.00     0.06  -0.00   0.05
  43   6    -0.09  -0.09  -0.04     0.01   0.02  -0.04    -0.01   0.01  -0.01
  44   6    -0.08  -0.06  -0.06     0.04   0.04  -0.11     0.01   0.00  -0.09
  45   6    -0.08  -0.04  -0.07     0.04   0.03  -0.10     0.06  -0.01  -0.14
  46   6    -0.11  -0.06  -0.06     0.01  -0.02  -0.01     0.10  -0.02  -0.11
  47   6    -0.12  -0.08  -0.04    -0.02  -0.05   0.07     0.07  -0.02   0.00
  48   6    -0.12  -0.10  -0.03    -0.02  -0.03   0.05     0.02  -0.01   0.05
  49   6    -0.09  -0.13  -0.01    -0.01   0.08   0.00    -0.04   0.10   0.01
  50   6    -0.08   0.00   0.01    -0.01   0.07   0.04    -0.03   0.07   0.03
  51   6    -0.07   0.11   0.07     0.02   0.00   0.07    -0.02  -0.07   0.08
  52   6    -0.07   0.04   0.10     0.02   0.03   0.03    -0.02  -0.04   0.05
  53   6    -0.05   0.02   0.10     0.01   0.05   0.00    -0.03   0.01  -0.01
  54   6    -0.06  -0.05   0.13     0.01   0.08  -0.05    -0.03   0.06  -0.05
  55   6    -0.04  -0.05   0.11     0.01   0.08  -0.05    -0.04   0.08  -0.06
  56   6    -0.01   0.00   0.06     0.01   0.04  -0.01    -0.04   0.04  -0.02
  57   6    -0.00   0.06   0.03     0.01   0.04   0.02    -0.04   0.03  -0.01
  58   6    -0.03   0.07   0.06     0.01   0.03   0.02    -0.04   0.02  -0.01
  59   6     0.02  -0.03  -0.01    -0.05  -0.05   0.02    -0.06  -0.02  -0.02
  60   6     0.03  -0.04  -0.02    -0.09  -0.04  -0.01    -0.07  -0.03  -0.08
  61   6     0.03  -0.05  -0.05    -0.14  -0.06  -0.03    -0.08  -0.03  -0.07
  62   6     0.03  -0.04  -0.07    -0.14  -0.09   0.01    -0.06  -0.01   0.02
  63   6     0.03  -0.03  -0.04    -0.10  -0.10   0.05    -0.05  -0.00   0.07
  64   6     0.02  -0.03  -0.02    -0.05  -0.09   0.05    -0.05  -0.01   0.02
  65   6     0.04   0.02   0.01     0.00  -0.13  -0.00    -0.00   0.12   0.04
  66   6     0.05   0.05   0.01     0.02  -0.03  -0.02     0.01   0.16   0.05
  67   6     0.05  -0.05  -0.05    -0.05   0.04  -0.02     0.09  -0.00  -0.15
  68   6     0.01  -0.05  -0.04    -0.14   0.05   0.05     0.17  -0.03  -0.25
  69   1    -0.02  -0.00   0.01    -0.08   0.03   0.05     0.06  -0.01  -0.07
  70   1    -0.04   0.02   0.03    -0.06   0.04   0.00    -0.00   0.03   0.04
  71   1    -0.02   0.02   0.02    -0.02   0.03  -0.03    -0.04   0.03   0.08
  72   1    -0.00  -0.00  -0.01     0.07   0.04   0.05    -0.02   0.01  -0.07
  73   1    -0.01   0.00  -0.02     0.09   0.03   0.06     0.03  -0.01  -0.04
  74   1     0.00   0.01  -0.00     0.03  -0.00  -0.00     0.08  -0.02   0.06
  75   1     0.02   0.02   0.01    -0.04  -0.02  -0.08     0.07  -0.02   0.10
  76   1     0.02   0.01   0.01    -0.06  -0.00  -0.08     0.02  -0.01   0.05
  77   1     0.00  -0.02  -0.01    -0.01   0.08   0.01    -0.02  -0.06  -0.02
  78   1     0.00  -0.02  -0.00    -0.02   0.02   0.02    -0.02  -0.08  -0.02
  79   1     0.01  -0.01   0.01     0.01  -0.03   0.04    -0.01  -0.03  -0.05
  80   1     0.01  -0.01   0.01     0.02  -0.04  -0.01     0.00  -0.02  -0.02
  81   1     0.02  -0.01  -0.00     0.03  -0.04  -0.06    -0.00   0.01   0.04
  82   1     0.01  -0.01  -0.01     0.02  -0.03  -0.04    -0.01   0.02   0.05
  83   1     0.02   0.02  -0.02     0.01   0.00   0.00    -0.02  -0.01   0.03
  84   1     0.02   0.05  -0.03     0.01   0.00   0.01    -0.02  -0.01   0.02
  85   1     0.02   0.05  -0.02     0.01  -0.00   0.02    -0.02   0.01  -0.01
  86   1     0.00   0.05   0.01     0.01   0.00   0.03    -0.01   0.01  -0.01
  87   1    -0.01   0.05   0.00     0.02  -0.04   0.01    -0.00  -0.05   0.01
  88   1    -0.01  -0.01  -0.01     0.02  -0.04  -0.01    -0.00  -0.04  -0.00
  89   1     0.07  -0.09   0.01    -0.02   0.03  -0.03    -0.03   0.03  -0.04
  90   1     0.14  -0.08   0.03     0.00   0.00  -0.01     0.01   0.01  -0.01
  91   1     0.10   0.00   0.02     0.04  -0.03   0.03     0.06  -0.02   0.04
  92   1    -0.03   0.08  -0.03     0.05  -0.04   0.03     0.06  -0.03   0.05
  93   1    -0.09   0.06  -0.04     0.02  -0.01  -0.00     0.02  -0.00   0.02
  94   1    -0.02  -0.01  -0.02     0.02   0.02  -0.05    -0.00   0.00  -0.03
  95   1    -0.02  -0.01  -0.03     0.02   0.01  -0.05     0.02  -0.00  -0.06
  96   1    -0.03  -0.01  -0.02     0.00  -0.01   0.00     0.04  -0.01  -0.05
  97   1    -0.04  -0.03  -0.01    -0.01  -0.03   0.04     0.03  -0.01   0.01
  98   1    -0.04  -0.03  -0.01    -0.01  -0.01   0.03     0.00  -0.00   0.04
  99   1    -0.03  -0.06  -0.00    -0.01   0.04  -0.00    -0.01   0.05   0.00
 100   1    -0.02   0.01   0.01    -0.01   0.03   0.02    -0.01   0.03   0.01
 101   1    -0.02   0.04   0.02     0.01  -0.00   0.03    -0.00  -0.03   0.03
 102   1    -0.03   0.00   0.04     0.00   0.01   0.01    -0.00  -0.01   0.02
 103   1    -0.02  -0.03   0.05    -0.00   0.03  -0.02    -0.01   0.02  -0.02
 104   1    -0.01  -0.03   0.04     0.00   0.03  -0.02    -0.01   0.03  -0.03
 105   1     0.01  -0.01  -0.00    -0.03  -0.00  -0.01    -0.02  -0.01  -0.04
 106   1     0.01  -0.02  -0.02    -0.05  -0.01  -0.02    -0.03  -0.01  -0.04
 107   1     0.01  -0.01  -0.03    -0.05  -0.03   0.00    -0.02  -0.00   0.02
 108   1     0.01  -0.01  -0.01    -0.03  -0.04   0.02    -0.01   0.01   0.04
 109   1     0.01   0.01   0.01     0.00  -0.06  -0.00     0.00   0.06   0.02
 110   1     0.02   0.02   0.01     0.01  -0.02  -0.01     0.01   0.08   0.02
 111   1     0.03  -0.02  -0.03    -0.00   0.00  -0.01     0.03  -0.01  -0.06
 112   1     0.01  -0.03  -0.02    -0.05   0.01   0.03     0.07  -0.02  -0.12
                     19                     20                     21
                        a                      a                      a 
 Frequencies --    75.4197                81.3290                92.6744
 Red. masses --    10.7285                10.4922                10.1547
 Frc consts  --     0.0000                 0.0000                 0.0000
 IR Inten    --     3.3818                 0.6776                11.0651
 Raman Activ --     0.0000                 0.0000                 0.0000
 Depolar     --     0.0000                 0.0000                 0.0000
 Atom AN      X      Y      Z        X      Y      Z        X      Y      Z
   1   6     0.06   0.04   0.10    -0.00   0.05   0.00    -0.00  -0.01   0.00
   2   6     0.12  -0.09   0.01    -0.03   0.04   0.05     0.07  -0.05  -0.12
   3   6     0.08  -0.17  -0.08    -0.03   0.02   0.02     0.06  -0.05  -0.10
   4   6    -0.00  -0.12  -0.09    -0.02   0.00  -0.06     0.00  -0.01   0.01
   5   7    -0.05  -0.20  -0.17    -0.03  -0.02  -0.10     0.01  -0.01   0.02
   6   6    -0.05  -0.11  -0.08    -0.02  -0.01  -0.07     0.01  -0.00   0.02
   7   6    -0.12  -0.12  -0.03    -0.02  -0.01  -0.08     0.06   0.01   0.12
   8   6    -0.13  -0.04   0.05     0.05  -0.00   0.01     0.05   0.01   0.11
   9   6    -0.06   0.05   0.09     0.11   0.01   0.10    -0.04  -0.01  -0.02
  10   6     0.01   0.06   0.04     0.09   0.00   0.08    -0.10  -0.02  -0.12
  11   6     0.01  -0.02  -0.04     0.02  -0.01  -0.01    -0.07  -0.02  -0.08
  12   6    -0.03  -0.12  -0.06    -0.02   0.00  -0.02     0.01  -0.01  -0.00
  13   6    -0.06  -0.03  -0.00    -0.08  -0.01   0.01     0.02  -0.07  -0.03
  14   6    -0.03   0.10   0.10    -0.08  -0.01   0.08     0.01  -0.08  -0.06
  15   6     0.02   0.13   0.14    -0.02   0.01   0.12     0.02   0.00  -0.04
  16   6     0.03   0.13   0.17    -0.02   0.01   0.16     0.01  -0.01  -0.04
  17   6    -0.02   0.10   0.09    -0.02  -0.00   0.10    -0.01  -0.02  -0.08
  18   6    -0.06   0.13   0.08    -0.02  -0.02  -0.00    -0.02  -0.04  -0.16
  19   6    -0.11   0.06  -0.06    -0.03  -0.08  -0.16    -0.05  -0.01  -0.06
  20   6    -0.12  -0.04  -0.18    -0.03  -0.10  -0.18    -0.06   0.04   0.14
  21   6    -0.08  -0.06  -0.14    -0.03  -0.06  -0.04    -0.04   0.03   0.17
  22   6    -0.03   0.01  -0.01    -0.02  -0.01   0.08    -0.01  -0.01   0.03
  23   6    -0.00  -0.01   0.00    -0.01   0.01   0.13     0.01  -0.04  -0.00
  24   6    -0.00  -0.01   0.00    -0.01   0.04   0.10     0.00  -0.03   0.02
  25   6     0.01   0.00   0.00    -0.03   0.05   0.07     0.01  -0.11   0.14
  26   6     0.02   0.01   0.01    -0.04   0.07  -0.01     0.01  -0.05   0.08
  27   6     0.01   0.01   0.03    -0.02   0.06  -0.03     0.01   0.05  -0.05
  28   6     0.01   0.02   0.03    -0.03   0.05  -0.07     0.00   0.10  -0.12
  29   6     0.00   0.02   0.04    -0.00   0.02  -0.06     0.00   0.10  -0.12
  30   6    -0.01   0.02   0.03     0.03  -0.00  -0.02     0.00   0.05  -0.05
  31   6    -0.01   0.02   0.04     0.06  -0.05  -0.00     0.01  -0.04   0.08
  32   6    -0.01   0.01   0.04     0.06  -0.04  -0.01     0.01  -0.04   0.08
  33   6    -0.00  -0.07   0.02     0.07   0.05  -0.01     0.03  -0.11   0.06
  34   6    -0.00  -0.08  -0.00     0.07   0.08  -0.01     0.02  -0.08   0.02
  35   6    -0.02  -0.00  -0.01     0.06   0.01  -0.01    -0.01   0.00   0.00
  36   7    -0.02   0.01  -0.03     0.07   0.02  -0.01    -0.03   0.03  -0.04
  37   6    -0.01   0.02  -0.03     0.04  -0.01   0.00    -0.02   0.02  -0.03
  38   6    -0.02   0.03  -0.07     0.06  -0.05   0.09     0.05  -0.04   0.05
  39   6     0.06   0.01  -0.02    -0.05  -0.04   0.05     0.09  -0.07   0.08
  40   6     0.14  -0.04   0.06    -0.17   0.02  -0.09     0.03  -0.02   0.03
  41   6     0.13  -0.04   0.08    -0.16   0.03  -0.16    -0.06   0.06  -0.06
  42   6     0.05  -0.01   0.03    -0.04   0.01  -0.10    -0.08   0.07  -0.08
  43   6    -0.01  -0.01  -0.02     0.05   0.04  -0.01    -0.02   0.02  -0.03
  44   6     0.02   0.02  -0.10    -0.00  -0.01   0.13    -0.07  -0.05   0.05
  45   6     0.05   0.02  -0.14    -0.07  -0.03   0.22    -0.08  -0.08   0.09
  46   6     0.04  -0.01  -0.07    -0.07   0.00   0.15    -0.03  -0.03   0.01
  47   6     0.00  -0.05   0.03    -0.00   0.07  -0.03     0.03   0.04  -0.10
  48   6    -0.02  -0.04   0.06     0.06   0.08  -0.11     0.03   0.06  -0.11
  49   6    -0.03   0.08   0.01     0.06  -0.09  -0.01    -0.03   0.06   0.03
  50   6    -0.03   0.08   0.03     0.06  -0.11  -0.01    -0.02   0.06   0.06
  51   6    -0.02   0.01   0.05     0.09  -0.07   0.04     0.01  -0.13   0.18
  52   6    -0.02   0.02   0.02     0.10  -0.04   0.05     0.01  -0.07   0.10
  53   6    -0.02   0.03   0.00     0.07   0.01   0.02     0.00   0.04  -0.05
  54   6    -0.03   0.04  -0.03     0.08   0.05   0.02    -0.00   0.12  -0.14
  55   6    -0.02   0.03  -0.03     0.05   0.08   0.03    -0.00   0.13  -0.16
  56   6    -0.01   0.01  -0.00     0.01   0.05   0.04     0.00   0.06  -0.08
  57   6    -0.01   0.01   0.02     0.01   0.05   0.00     0.00   0.07  -0.09
  58   6    -0.01   0.02   0.02     0.04   0.02  -0.00     0.00   0.07  -0.07
  59   6     0.03   0.00  -0.00    -0.03  -0.01   0.07     0.02  -0.05  -0.04
  60   6     0.04  -0.08  -0.13    -0.05  -0.07  -0.08     0.01  -0.08  -0.10
  61   6     0.08  -0.07  -0.16    -0.08  -0.13  -0.23     0.05  -0.04   0.00
  62   6     0.11   0.02  -0.05    -0.06  -0.09  -0.18     0.09   0.03   0.17
  63   6     0.10   0.10   0.08    -0.03  -0.02   0.01     0.07   0.03   0.15
  64   6     0.05   0.08   0.10    -0.03  -0.00   0.10     0.03  -0.01   0.03
  65   6     0.05   0.05   0.08     0.03   0.03   0.09     0.02   0.08  -0.00
  66   6     0.03  -0.09  -0.02     0.03   0.03   0.03     0.01   0.06   0.01
  67   6    -0.06   0.01   0.00     0.01   0.01  -0.11    -0.06   0.04   0.12
  68   6    -0.03   0.09   0.10     0.02   0.04  -0.08    -0.06   0.04   0.13
  69   1     0.02   0.03   0.05     0.00   0.02   0.01    -0.00  -0.00   0.00
  70   1     0.05  -0.04   0.00    -0.01   0.02   0.03     0.04  -0.03  -0.06
  71   1     0.04  -0.07  -0.04    -0.01   0.00   0.02     0.03  -0.02  -0.05
  72   1    -0.05  -0.05  -0.01    -0.02  -0.00  -0.04     0.03   0.00   0.06
  73   1    -0.05  -0.01   0.03     0.02  -0.00   0.00     0.03   0.01   0.06
  74   1    -0.02   0.03   0.04     0.05   0.00   0.05    -0.02  -0.00  -0.01
  75   1     0.02   0.04   0.02     0.04   0.00   0.04    -0.05  -0.01  -0.06
  76   1     0.02  -0.00  -0.02     0.00  -0.00  -0.01    -0.03  -0.01  -0.04
  77   1    -0.03  -0.02  -0.01    -0.04  -0.01  -0.01     0.01  -0.03  -0.01
  78   1    -0.02   0.05   0.04    -0.04  -0.01   0.03     0.00  -0.04  -0.02
  79   1    -0.02   0.06   0.05    -0.01  -0.00   0.01    -0.00  -0.02  -0.08
  80   1    -0.04   0.02  -0.02    -0.01  -0.03  -0.08    -0.01  -0.01  -0.03
  81   1    -0.04  -0.03  -0.09    -0.01  -0.04  -0.09    -0.02   0.02   0.08
  82   1    -0.02  -0.04  -0.06    -0.01  -0.02  -0.01    -0.01   0.02   0.08
  83   1     0.01   0.00  -0.01    -0.01   0.01   0.02     0.01  -0.06   0.07
  84   1     0.01   0.00   0.00    -0.02   0.03  -0.01     0.01  -0.03   0.04
  85   1     0.01   0.01   0.01    -0.02   0.02  -0.03     0.00   0.04  -0.04
  86   1     0.00   0.01   0.01    -0.00  -0.00  -0.02     0.00   0.03  -0.04
  87   1     0.00  -0.04   0.01     0.02   0.03  -0.00     0.01  -0.05   0.02
  88   1     0.00  -0.04  -0.00     0.02   0.05  -0.00     0.01  -0.03  -0.00
  89   1    -0.02   0.02  -0.04     0.04  -0.02   0.06     0.03  -0.02   0.03
  90   1     0.02   0.00  -0.01    -0.01  -0.02   0.03     0.05  -0.04   0.04
  91   1     0.06  -0.02   0.03    -0.08   0.01  -0.04     0.02  -0.01   0.01
  92   1     0.05  -0.02   0.04    -0.07   0.02  -0.07    -0.03   0.03  -0.03
  93   1     0.01  -0.00   0.01    -0.01   0.01  -0.04    -0.04   0.04  -0.04
  94   1     0.01   0.01  -0.04    -0.00  -0.01   0.05    -0.03  -0.02   0.03
  95   1     0.02   0.01  -0.06    -0.03  -0.02   0.10    -0.04  -0.04   0.05
  96   1     0.02  -0.00  -0.03    -0.04  -0.01   0.07    -0.01  -0.02   0.01
  97   1    -0.00  -0.02   0.03     0.00   0.03  -0.03     0.02   0.02  -0.05
  98   1    -0.01  -0.02   0.04     0.03   0.03  -0.07     0.02   0.03  -0.05
  99   1    -0.01   0.04   0.00     0.02  -0.04  -0.00    -0.01   0.03   0.01
 100   1    -0.01   0.04   0.01     0.02  -0.05  -0.00    -0.01   0.04   0.02
 101   1    -0.01   0.00   0.02     0.03  -0.03   0.02     0.01  -0.07   0.09
 102   1    -0.01   0.01   0.00     0.04  -0.02   0.02     0.00  -0.04   0.04
 103   1    -0.01   0.02  -0.01     0.03   0.02   0.01    -0.00   0.04  -0.05
 104   1    -0.01   0.01  -0.01     0.02   0.03   0.01    -0.00   0.05  -0.06
 105   1     0.00  -0.04  -0.06    -0.02  -0.03  -0.03    -0.00  -0.04  -0.06
 106   1     0.02  -0.04  -0.08    -0.03  -0.05  -0.11     0.01  -0.02  -0.01
 107   1     0.04   0.01  -0.02    -0.02  -0.03  -0.08     0.04   0.02   0.08
 108   1     0.04   0.04   0.05    -0.00   0.00   0.02     0.03   0.02   0.07
 109   1     0.03   0.02   0.03     0.02   0.01   0.04     0.01   0.05   0.00
 110   1     0.02  -0.05  -0.02     0.02   0.01   0.00     0.00   0.03   0.01
 111   1    -0.04   0.01  -0.00     0.01   0.00  -0.05    -0.03   0.02   0.06
 112   1    -0.02   0.06   0.05     0.01   0.01  -0.04    -0.03   0.02   0.07
                     22                     23                     24
                        a                      a                      a 
 Frequencies --   104.3064               109.8218               115.0960
 Red. masses --    10.0549                10.3520                10.7977
 Frc consts  --     0.0000                 0.0000                 0.0000
 IR Inten    --     8.3954                 1.9170                 2.8067
 Raman Activ --     0.0000                 0.0000                 0.0000
 Depolar     --     0.0000                 0.0000                 0.0000
 Atom AN      X      Y      Z        X      Y      Z        X      Y      Z
   1   6    -0.01  -0.02   0.04    -0.03   0.00   0.03     0.06   0.05  -0.14
   2   6    -0.07   0.03   0.15     0.00  -0.01  -0.03     0.02   0.02  -0.05
   3   6    -0.04   0.02   0.12     0.03  -0.01  -0.05    -0.09   0.02   0.03
   4   6     0.02  -0.02   0.00     0.03  -0.00  -0.02    -0.14   0.05   0.03
   5   7     0.03  -0.01   0.01     0.03  -0.00  -0.02    -0.16   0.02   0.01
   6   6     0.03   0.00   0.02     0.03   0.00  -0.02    -0.14  -0.01  -0.00
   7   6    -0.05  -0.01  -0.10     0.04   0.01   0.02    -0.10  -0.00  -0.01
   8   6    -0.10  -0.01  -0.15     0.04   0.02   0.03    -0.01  -0.03   0.05
   9   6    -0.03   0.02  -0.05     0.02   0.02  -0.01     0.01  -0.08   0.12
  10   6     0.09   0.05   0.10    -0.00   0.01  -0.05    -0.07  -0.09   0.09
  11   6     0.11   0.04   0.11     0.00   0.01  -0.05    -0.15  -0.06   0.03
  12   6     0.02  -0.01  -0.01     0.03  -0.00   0.01    -0.14   0.02  -0.01
  13   6     0.06   0.21   0.06     0.00  -0.07  -0.00    -0.12  -0.06  -0.05
  14   6     0.06   0.22   0.06    -0.00  -0.07   0.02    -0.11  -0.06  -0.07
  15   6    -0.00   0.00  -0.03     0.03  -0.00   0.05    -0.08   0.01  -0.04
  16   6     0.00  -0.01  -0.03     0.02   0.03   0.06    -0.07  -0.02  -0.06
  17   6    -0.02  -0.01  -0.01     0.04   0.03   0.06    -0.03  -0.01  -0.03
  18   6    -0.06   0.05   0.09     0.08  -0.02  -0.00    -0.03   0.04   0.14
  19   6    -0.10   0.03   0.07     0.13  -0.03  -0.09    -0.04   0.05   0.19
  20   6    -0.10  -0.04  -0.06     0.13   0.00  -0.08    -0.03  -0.01   0.00
  21   6    -0.07  -0.08  -0.10     0.09   0.06   0.01    -0.03  -0.06  -0.16
  22   6    -0.03  -0.05  -0.06     0.04   0.06   0.06    -0.02  -0.04  -0.12
  23   6    -0.00  -0.04  -0.01     0.01   0.08   0.04     0.01  -0.06  -0.12
  24   6    -0.00  -0.02   0.02    -0.00   0.03   0.00     0.04  -0.02  -0.06
  25   6     0.02  -0.06   0.07    -0.04   0.06  -0.05     0.11   0.00  -0.07
  26   6     0.02  -0.04   0.05    -0.05  -0.02   0.01     0.12  -0.01   0.02
  27   6     0.01   0.01  -0.00    -0.03  -0.09   0.07     0.10  -0.03   0.07
  28   6     0.01   0.03  -0.03    -0.03  -0.11   0.07     0.12  -0.01   0.11
  29   6     0.01   0.04  -0.03    -0.03  -0.09   0.02     0.10   0.03   0.08
  30   6     0.01   0.02  -0.01    -0.03  -0.07  -0.00     0.06   0.04   0.05
  31   6     0.02  -0.03   0.05    -0.04  -0.02  -0.08     0.05   0.08   0.02
  32   6     0.02  -0.05   0.06    -0.03  -0.05  -0.08     0.07   0.09   0.01
  33   6     0.02  -0.19   0.05    -0.09  -0.31  -0.04     0.07  -0.06   0.00
  34   6     0.02  -0.15   0.02    -0.08  -0.27  -0.01     0.07  -0.11  -0.01
  35   6    -0.00   0.01   0.01    -0.06   0.02  -0.00     0.07  -0.01  -0.01
  36   7    -0.01   0.05  -0.04    -0.06   0.04   0.03     0.08  -0.05  -0.01
  37   6    -0.02   0.04  -0.02    -0.05   0.05   0.03     0.06  -0.04  -0.02
  38   6     0.03  -0.01   0.04     0.01  -0.00   0.09     0.09  -0.07   0.03
  39   6     0.06  -0.04   0.08     0.05  -0.02   0.13     0.07  -0.06   0.01
  40   6     0.02  -0.02   0.04    -0.00   0.02   0.08     0.00  -0.02  -0.06
  41   6    -0.05   0.04  -0.04    -0.08   0.09   0.01    -0.03   0.01  -0.11
  42   6    -0.06   0.06  -0.07    -0.10   0.10  -0.01     0.01  -0.00  -0.08
  43   6    -0.01   0.02  -0.02    -0.05   0.01   0.04     0.07  -0.02  -0.02
  44   6    -0.05  -0.04   0.05    -0.11  -0.08   0.11     0.06  -0.01   0.05
  45   6    -0.05  -0.07   0.07    -0.06  -0.09   0.05     0.01   0.01   0.10
  46   6    -0.00  -0.02  -0.00     0.06   0.00  -0.10    -0.02   0.02   0.05
  47   6     0.05   0.05  -0.09     0.10   0.07  -0.14    -0.00   0.02  -0.04
  48   6     0.04   0.06  -0.09     0.03   0.06  -0.05     0.04  -0.00  -0.08
  49   6    -0.01   0.12   0.02    -0.00   0.24  -0.04     0.07   0.15   0.00
  50   6    -0.01   0.10   0.05    -0.01   0.21  -0.07     0.07   0.20   0.01
  51   6     0.02  -0.04   0.06    -0.00   0.06  -0.17     0.02   0.08  -0.00
  52   6     0.01   0.03  -0.02     0.00   0.06  -0.12     0.01   0.03   0.02
  53   6     0.01   0.07  -0.08     0.00  -0.03   0.00     0.03  -0.01   0.04
  54   6     0.01   0.11  -0.12     0.01  -0.06   0.07     0.01  -0.06   0.04
  55   6     0.01   0.08  -0.09     0.00  -0.06   0.10     0.03  -0.06   0.01
  56   6     0.00   0.03  -0.04    -0.00  -0.05   0.07     0.04  -0.05  -0.00
  57   6     0.01   0.04  -0.04    -0.01  -0.08   0.07     0.06  -0.03   0.05
  58   6     0.01   0.05  -0.05    -0.01  -0.07   0.04     0.05  -0.01   0.05
  59   6     0.01  -0.01   0.04     0.00   0.07   0.03    -0.02  -0.06  -0.08
  60   6     0.02   0.03   0.13    -0.00   0.07   0.02    -0.01  -0.04  -0.03
  61   6     0.02   0.04   0.16    -0.04   0.04  -0.07     0.02  -0.01   0.05
[...]
  98   1    -0.01   0.00  -0.00    -0.00   0.00  -0.00     0.00  -0.00   0.00
  99   1     0.00   0.00  -0.00     0.00   0.00  -0.00     0.00   0.00  -0.01
 100   1    -0.00   0.00  -0.00    -0.00   0.00  -0.00    -0.01   0.00  -0.01
 101   1    -0.00  -0.00  -0.00     0.00   0.00   0.00     0.01   0.01   0.00
 102   1    -0.00   0.00   0.00    -0.00   0.00   0.00    -0.00   0.01   0.01
 103   1    -0.00   0.01   0.01    -0.00   0.01   0.01     0.00  -0.01  -0.01
 104   1    -0.03   0.00   0.01    -0.03   0.00   0.01     0.06  -0.01  -0.01
 105   1     0.01  -0.00  -0.00    -0.08   0.02   0.01    -0.24   0.05   0.04
 106   1    -0.01  -0.01   0.01     0.01   0.02  -0.01     0.08   0.09  -0.05
 107   1     0.01  -0.02   0.00    -0.03   0.08  -0.02    -0.13   0.34  -0.07
 108   1     0.04  -0.01  -0.01    -0.17   0.04   0.03    -0.76   0.18   0.11
 109   1     0.03   0.01  -0.05     0.00   0.00  -0.01     0.07   0.02  -0.11
 110   1    -0.04   0.03  -0.07    -0.00   0.00  -0.00    -0.03   0.02  -0.05
 111   1     0.20   0.34  -0.02     0.00   0.01  -0.00     0.02   0.03  -0.00
 112   1     0.27   0.03   0.14     0.01   0.00   0.00     0.03   0.00   0.02
                    325                    326                    327
                        a                      a                      a 
 Frequencies --  3096.4132              3097.5581              3097.9430
 Red. masses --     1.8878                 1.9192                 1.9190
 Frc consts  --     0.0000                 0.0000                 0.0000
 IR Inten    --   118.8998                69.6274               224.7258
 Raman Activ --     0.0000                 0.0000                 0.0000
 Depolar     --     0.0000                 0.0000                 0.0000
 Atom AN      X      Y      Z        X      Y      Z        X      Y      Z
   1   6     0.00  -0.01   0.00    -0.00   0.00  -0.00    -0.01   0.02  -0.01
   2   6    -0.00  -0.01   0.00     0.00   0.00  -0.00     0.01   0.01  -0.00
   3   6    -0.00  -0.00  -0.00     0.00   0.00   0.00     0.01   0.00   0.00
   4   6    -0.00   0.00  -0.00     0.00  -0.00   0.00     0.00  -0.00   0.00
   5   7     0.00   0.00  -0.00    -0.00   0.00   0.00    -0.00   0.00   0.00
   6   6    -0.00  -0.00   0.00     0.00   0.00  -0.00     0.00   0.00  -0.00
   7   6    -0.00   0.00   0.00     0.00  -0.00  -0.00     0.01  -0.00  -0.00
   8   6    -0.00   0.01  -0.00     0.00  -0.00   0.00     0.00  -0.02   0.00
   9   6     0.01   0.01  -0.01    -0.00  -0.00   0.00    -0.02  -0.02   0.02
  10   6     0.01  -0.00  -0.01    -0.00   0.00   0.00    -0.01   0.01   0.01
  11   6     0.00  -0.01   0.00    -0.00   0.00  -0.00    -0.00   0.01  -0.00
  12   6    -0.00   0.00  -0.00     0.00  -0.00  -0.00     0.00  -0.00   0.00
  13   6    -0.00  -0.00   0.01     0.00   0.00  -0.00     0.00   0.00  -0.00
  14   6     0.01  -0.00   0.01    -0.00   0.00  -0.00    -0.00   0.00  -0.00
  15   6     0.00   0.00  -0.00    -0.00   0.00  -0.00    -0.00   0.00   0.00
  16   6    -0.00   0.00  -0.00     0.00  -0.00  -0.00     0.00  -0.00   0.00
  17   6    -0.00   0.00  -0.00    -0.00   0.00  -0.00     0.00  -0.00   0.00
  18   6    -0.13   0.02  -0.01     0.00  -0.00   0.00     0.02  -0.00   0.00
  19   6    -0.07  -0.08   0.02     0.00   0.00  -0.00     0.01   0.01  -0.00
  20   6     0.05  -0.11   0.04     0.00  -0.00   0.00    -0.01   0.01  -0.01
  21   6     0.17  -0.03   0.02     0.00  -0.00   0.00    -0.02   0.00  -0.00
  22   6     0.00   0.00  -0.00     0.00   0.00  -0.00    -0.00  -0.00   0.00
  23   6     0.00   0.00  -0.00    -0.00   0.00   0.00    -0.00  -0.00   0.00
  24   6    -0.00   0.00  -0.00    -0.00   0.00   0.00     0.00  -0.00   0.00
  25   6    -0.01  -0.01  -0.01    -0.00  -0.00  -0.00     0.00   0.00   0.00
  26   6     0.00  -0.00  -0.00     0.00  -0.00  -0.00    -0.00   0.00   0.00
  27   6     0.00   0.00   0.00    -0.00  -0.00  -0.00     0.00   0.00   0.00
  28   6     0.00  -0.00  -0.00     0.00  -0.00  -0.00    -0.00   0.00   0.00
  29   6     0.01  -0.00  -0.00     0.00  -0.00  -0.00    -0.00   0.00   0.00
  30   6     0.00   0.00  -0.00     0.00   0.00   0.00    -0.00  -0.00  -0.00
  31   6     0.00  -0.00  -0.00    -0.00  -0.00   0.00     0.00   0.00  -0.00
  32   6    -0.00   0.00   0.00     0.00  -0.00   0.00    -0.00  -0.00  -0.00
  33   6    -0.00   0.00   0.00     0.00   0.00  -0.00     0.00   0.00  -0.00
  34   6     0.00  -0.00   0.00    -0.00   0.00  -0.00    -0.00   0.00  -0.00
  35   6     0.00  -0.00  -0.00     0.00  -0.00  -0.00     0.00  -0.00  -0.00
  36   7    -0.00   0.00   0.00    -0.00  -0.00  -0.00    -0.00   0.00   0.00
  37   6     0.00  -0.00  -0.00    -0.00   0.00   0.00     0.00  -0.00  -0.00
  38   6     0.00   0.00  -0.00    -0.04  -0.01   0.03     0.04   0.02  -0.03
  39   6     0.00   0.01   0.00    -0.04  -0.07  -0.02     0.04   0.08   0.02
  40   6    -0.01   0.01   0.02     0.04  -0.08  -0.11    -0.05   0.08   0.12
  41   6    -0.01  -0.00   0.01     0.06   0.03  -0.04    -0.07  -0.03   0.05
  42   6    -0.00  -0.01  -0.00     0.02   0.04   0.01    -0.02  -0.04  -0.01
  43   6     0.00   0.00   0.00     0.00   0.00   0.00     0.00   0.00   0.00
  44   6    -0.00   0.01   0.00    -0.01   0.05   0.02    -0.01   0.04   0.02
  45   6    -0.01   0.00  -0.00    -0.08   0.04  -0.02    -0.07   0.03  -0.01
  46   6    -0.01  -0.01  -0.01    -0.10  -0.07  -0.09    -0.09  -0.06  -0.08
  47   6     0.00  -0.01  -0.00     0.02  -0.08  -0.03     0.02  -0.07  -0.03
  48   6     0.00  -0.00   0.00     0.05  -0.02   0.01     0.04  -0.02   0.01
  49   6     0.00   0.00  -0.00    -0.00   0.00   0.00    -0.00  -0.00   0.00
  50   6    -0.00   0.00  -0.00    -0.00   0.00  -0.00     0.00  -0.00   0.00
  51   6     0.00   0.00   0.00    -0.00  -0.00  -0.00    -0.00  -0.00  -0.00
  52   6    -0.00   0.00   0.00     0.00  -0.00  -0.00     0.00  -0.00  -0.00
  53   6    -0.00   0.00   0.00     0.00  -0.00  -0.00    -0.00  -0.00  -0.00
  54   6    -0.00   0.01   0.00     0.00  -0.00  -0.00     0.00  -0.00  -0.00
  55   6    -0.01   0.00   0.00     0.00  -0.00  -0.00    -0.00  -0.00   0.00
  56   6    -0.00  -0.00  -0.00     0.00   0.00   0.00     0.00   0.00   0.00
  57   6     0.00   0.00   0.00    -0.00   0.00   0.00     0.00  -0.00  -0.00
  58   6     0.00  -0.00  -0.00    -0.00   0.00   0.00     0.00   0.00   0.00
  59   6     0.00  -0.00   0.00     0.00  -0.00   0.00     0.00  -0.00   0.00
  60   6     0.01  -0.00  -0.00     0.00  -0.00  -0.00     0.02  -0.00  -0.00
  61   6     0.00   0.00  -0.00    -0.00  -0.00   0.00     0.00   0.00  -0.00
  62   6     0.00  -0.00   0.00     0.00  -0.00   0.00    -0.00   0.00  -0.00
  63   6     0.01  -0.00  -0.00     0.00  -0.00  -0.00     0.00  -0.00  -0.00
  64   6    -0.00  -0.00  -0.00     0.00   0.00  -0.00    -0.00   0.00   0.00
  65   6     0.00   0.00   0.00    -0.00  -0.00   0.00    -0.00  -0.00   0.00
  66   6     0.00  -0.00   0.00     0.00  -0.00   0.00     0.00  -0.00   0.00
  67   6     0.00   0.00  -0.00    -0.00  -0.00   0.00    -0.00  -0.01   0.00
  68   6     0.00   0.00   0.00    -0.00  -0.00  -0.00    -0.01  -0.00  -0.01
  69   1    -0.01   0.02  -0.02     0.00  -0.00   0.00     0.03  -0.07   0.04
  70   1     0.01   0.02  -0.00    -0.00  -0.00   0.00    -0.02  -0.04   0.00
  71   1     0.02   0.00   0.01    -0.00  -0.00  -0.00    -0.03  -0.00  -0.01
  72   1     0.00  -0.00  -0.00    -0.00   0.00   0.00    -0.02   0.01   0.02
  73   1     0.00  -0.02   0.00    -0.00   0.00  -0.00    -0.01   0.05  -0.00
  74   1    -0.03  -0.03   0.03     0.00   0.00  -0.00     0.06   0.06  -0.05
  75   1    -0.03   0.01   0.02     0.00  -0.00  -0.00     0.04  -0.02  -0.03
  76   1    -0.00   0.02  -0.00     0.00  -0.00   0.00     0.01  -0.03   0.00
  77   1     0.01   0.00  -0.02    -0.00  -0.00   0.00    -0.00  -0.00   0.01
  78   1    -0.02   0.02  -0.04     0.00  -0.00   0.00     0.00  -0.00   0.01
  79   1     0.46  -0.06   0.04    -0.00   0.00  -0.00    -0.05   0.01  -0.01
  80   1     0.22   0.26  -0.07    -0.00  -0.00   0.00    -0.03  -0.03   0.01
  81   1    -0.15   0.37  -0.15    -0.00   0.00  -0.00     0.02  -0.05   0.02
  82   1    -0.60   0.09  -0.07    -0.00   0.00  -0.00     0.07  -0.01   0.01
  83   1     0.03   0.02   0.02     0.00   0.00   0.00    -0.01  -0.00  -0.00
  84   1    -0.00   0.01   0.01    -0.00   0.00   0.00     0.00  -0.01  -0.00
  85   1    -0.00   0.01   0.01    -0.00   0.00   0.00     0.00  -0.01  -0.00
  86   1    -0.03   0.01   0.00    -0.00   0.00   0.00     0.01  -0.00  -0.00
  87   1     0.00   0.00  -0.01    -0.00  -0.00   0.00    -0.00   0.00   0.01
  88   1    -0.01   0.00  -0.01     0.00  -0.00   0.00     0.01  -0.00   0.01
  89   1    -0.02  -0.01   0.01     0.12   0.05  -0.09    -0.13  -0.06   0.09
  90   1    -0.02  -0.03  -0.01     0.12   0.22   0.06    -0.13  -0.24  -0.07
  91   1     0.02  -0.04  -0.06    -0.15   0.25   0.37     0.16  -0.28  -0.40
  92   1     0.03   0.01  -0.02    -0.20  -0.08   0.14     0.22   0.09  -0.16
  93   1     0.01   0.03   0.01    -0.07  -0.13  -0.04     0.08   0.15   0.04
  94   1     0.01  -0.02  -0.01     0.04  -0.16  -0.06     0.03  -0.14  -0.06
  95   1     0.03  -0.02   0.01     0.26  -0.13   0.06     0.23  -0.11   0.05
  96   1     0.04   0.03   0.04     0.35   0.25   0.30     0.30   0.22   0.26
  97   1    -0.01   0.03   0.01    -0.07   0.26   0.11    -0.06   0.23   0.10
  98   1    -0.01   0.01  -0.00    -0.15   0.07  -0.03    -0.14   0.07  -0.03
  99   1    -0.00  -0.00   0.01     0.00  -0.00  -0.00     0.00   0.00  -0.01
 100   1     0.01  -0.00   0.01     0.00  -0.00   0.00    -0.00   0.00  -0.01
 101   1    -0.01  -0.01  -0.01     0.00   0.00   0.00     0.00   0.00   0.00
 102   1     0.00  -0.01  -0.01    -0.00   0.00   0.00    -0.00   0.00   0.00
 103   1     0.01  -0.02  -0.02    -0.00   0.00   0.00    -0.00   0.00   0.00
 104   1     0.05  -0.01  -0.01    -0.00   0.00   0.00     0.00  -0.00  -0.00
 105   1    -0.02   0.00   0.00    -0.00   0.00   0.00    -0.06   0.01   0.01
 106   1    -0.00  -0.00   0.00     0.00   0.00  -0.00    -0.01  -0.01   0.01
 107   1    -0.00   0.01  -0.00    -0.00   0.00  -0.00     0.00  -0.00   0.00
 108   1    -0.02   0.00   0.00    -0.00   0.00   0.00    -0.01   0.00   0.00
 109   1     0.00  -0.00  -0.00     0.00   0.00  -0.00     0.00   0.00  -0.01
 110   1    -0.00   0.00  -0.00    -0.00   0.00  -0.00    -0.00   0.00  -0.01
 111   1    -0.00  -0.01   0.00     0.00   0.00  -0.00     0.01   0.02  -0.00
 112   1    -0.01  -0.00  -0.01     0.00   0.00   0.00     0.04   0.00   0.02
                    328                    329                    330
                        a                      a                      a 
 Frequencies --  3098.6606              3099.0288              3099.9593
 Red. masses --     1.9192                 1.9173                 1.8666
 Frc consts  --     0.0000                 0.0000                 0.0000
 IR Inten    --    69.3465               112.6902                77.8532
 Raman Activ --     0.0000                 0.0000                 0.0000
 Depolar     --     0.0000                 0.0000                 0.0000
 Atom AN      X      Y      Z        X      Y      Z        X      Y      Z
   1   6     0.05  -0.11   0.07    -0.06   0.12  -0.08     0.01  -0.02   0.01
   2   6    -0.04  -0.07   0.00     0.04   0.07  -0.00    -0.01  -0.01   0.00
   3   6    -0.04  -0.00  -0.02     0.04   0.00   0.02    -0.01  -0.00  -0.00
   4   6    -0.00   0.00  -0.00     0.00  -0.00   0.00    -0.00   0.00  -0.00
   5   7    -0.00  -0.00   0.00    -0.00   0.00  -0.00    -0.00   0.00   0.00
   6   6     0.00   0.00  -0.00     0.00   0.00  -0.00    -0.00  -0.00   0.00
   7   6     0.04  -0.02  -0.02     0.04  -0.02  -0.02    -0.00   0.00   0.00
   8   6     0.02  -0.09   0.00     0.01  -0.08   0.00    -0.00   0.01  -0.00
   9   6    -0.09  -0.09   0.08    -0.08  -0.08   0.07     0.01   0.01  -0.01
  10   6    -0.07   0.03   0.04    -0.06   0.03   0.04     0.01  -0.00  -0.01
  11   6    -0.01   0.05  -0.00    -0.01   0.04  -0.00     0.00  -0.01   0.00
  12   6     0.00  -0.00   0.00     0.00  -0.00  -0.00     0.00  -0.00  -0.00
  13   6    -0.00  -0.00   0.00    -0.00  -0.00   0.00     0.00   0.00  -0.00
  14   6     0.00  -0.00   0.00     0.00  -0.00   0.00    -0.00   0.00  -0.00
  15   6     0.00   0.00  -0.00     0.00   0.00  -0.00    -0.00   0.00  -0.00
  16   6    -0.00   0.00  -0.00    -0.00   0.00  -0.00     0.00   0.00  -0.00
  17   6    -0.00   0.00  -0.00    -0.00   0.00  -0.00     0.00  -0.00  -0.00
  18   6    -0.00   0.00  -0.00    -0.02   0.00  -0.00    -0.00   0.00  -0.00
  19   6    -0.00  -0.00   0.00    -0.01  -0.01   0.00    -0.00  -0.00   0.00
  20   6     0.00  -0.00   0.00     0.01  -0.01   0.00    -0.00   0.00  -0.00
  21   6     0.00  -0.00   0.00     0.01  -0.00   0.00    -0.00   0.00  -0.00
  22   6     0.00   0.00  -0.00     0.00   0.00  -0.00    -0.00  -0.00   0.00
  23   6     0.00   0.00  -0.00     0.00   0.00  -0.00    -0.00   0.00  -0.00
  24   6    -0.00   0.00   0.00    -0.00   0.00  -0.00     0.00   0.00  -0.00
  25   6    -0.00  -0.00  -0.00    -0.00  -0.00  -0.00     0.00   0.00   0.00
  26   6     0.00  -0.00  -0.00     0.00  -0.00  -0.00    -0.00   0.00   0.00
  27   6     0.00  -0.00  -0.00     0.00  -0.00  -0.00    -0.00   0.00   0.00
  28   6     0.00  -0.00  -0.00     0.00  -0.00  -0.00    -0.00   0.00   0.00
  29   6     0.00  -0.00  -0.00     0.00  -0.00  -0.00    -0.01   0.00   0.00
  30   6     0.00   0.00   0.00     0.00   0.00   0.00    -0.00   0.00   0.00
  31   6     0.00   0.00  -0.00     0.00  -0.00  -0.00    -0.00  -0.00   0.00
  32   6    -0.00   0.00   0.00    -0.00   0.00   0.00     0.00  -0.00  -0.00
  33   6    -0.00   0.00   0.00    -0.00   0.00   0.00     0.00  -0.00  -0.00
  34   6     0.00  -0.00   0.00     0.00  -0.00   0.00    -0.00   0.00  -0.00
  35   6     0.00  -0.00  -0.00     0.00  -0.00  -0.00    -0.00  -0.00   0.00
  36   7     0.00   0.00  -0.00    -0.00  -0.00   0.00     0.00  -0.00  -0.00
  37   6    -0.00   0.00   0.00    -0.00   0.00   0.00     0.00  -0.00  -0.00
  38   6    -0.00  -0.00   0.00    -0.01  -0.00   0.00     0.00   0.00  -0.00
  39   6    -0.00  -0.00  -0.00    -0.01  -0.01  -0.00     0.00   0.01   0.00
  40   6     0.00  -0.00  -0.00     0.01  -0.01  -0.02    -0.00   0.01   0.01
  41   6     0.00   0.00  -0.00     0.01   0.00  -0.01    -0.01  -0.00   0.00
  42   6     0.00   0.00   0.00     0.00   0.01   0.00    -0.00  -0.00  -0.00
  43   6    -0.00  -0.00  -0.00    -0.00  -0.00  -0.00     0.00   0.00   0.00
  44   6     0.00  -0.00  -0.00     0.00  -0.01  -0.00    -0.00   0.00   0.00
  45   6     0.00  -0.00   0.00     0.01  -0.01   0.00    -0.01   0.00  -0.00
  46   6     0.00   0.00   0.00     0.01   0.01   0.01    -0.01  -0.01  -0.01
  47   6    -0.00   0.00   0.00    -0.00   0.01   0.00     0.00  -0.01  -0.00
  48   6    -0.00   0.00  -0.00    -0.01   0.00  -0.00     0.00  -0.00   0.00
  49   6     0.00   0.00  -0.00     0.00   0.00  -0.00    -0.00  -0.00   0.00
  50   6    -0.00   0.00  -0.00    -0.00   0.00  -0.00     0.00  -0.00   0.00
  51   6     0.00   0.00   0.00     0.00   0.00   0.00    -0.00  -0.00  -0.00
  52   6    -0.00   0.00   0.00    -0.00   0.00   0.00     0.00  -0.00  -0.00
  53   6     0.00   0.00   0.00    -0.00   0.00   0.00    -0.00  -0.00  -0.00
  54   6    -0.00   0.00   0.00     0.00   0.00   0.00     0.00  -0.01  -0.01
  55   6    -0.00   0.00   0.00     0.00  -0.00  -0.00     0.03  -0.00  -0.01
  56   6    -0.00  -0.00   0.00     0.00   0.00  -0.00     0.00   0.00  -0.00
  57   6     0.00   0.00   0.00    -0.00   0.00  -0.00    -0.00   0.00  -0.00
  58   6     0.00  -0.00  -0.00    -0.00  -0.00  -0.00    -0.00  -0.00   0.00
  59   6     0.00  -0.00   0.00    -0.00   0.00  -0.00    -0.00   0.01  -0.00
  60   6     0.00  -0.00  -0.00    -0.04   0.01   0.01    -0.23   0.05   0.03
  61   6     0.00   0.00  -0.00    -0.01  -0.01   0.01    -0.07  -0.08   0.04
  62   6     0.00  -0.00   0.00     0.00  -0.00   0.00     0.02  -0.05   0.01
  63   6     0.00  -0.00  -0.00    -0.00   0.00   0.00     0.04  -0.01  -0.01
  64   6     0.00   0.00  -0.00     0.00  -0.00   0.00     0.00  -0.00  -0.00
  65   6    -0.00  -0.00   0.00     0.00   0.00  -0.00    -0.00  -0.00   0.00
  66   6    -0.00   0.00   0.00    -0.00   0.00  -0.00     0.00  -0.00   0.00
  67   6     0.02   0.04  -0.00    -0.02  -0.04   0.00     0.00   0.01  -0.00
  68   6     0.07   0.01   0.04    -0.08  -0.01  -0.04     0.01   0.00   0.01
  69   1    -0.18   0.38  -0.25     0.19  -0.39   0.25    -0.03   0.07  -0.04
  70   1     0.14   0.23  -0.01    -0.14  -0.24   0.01     0.03   0.04  -0.00
  71   1     0.13   0.01   0.07    -0.14  -0.01  -0.07     0.02   0.00   0.01
  72   1    -0.13   0.06   0.08    -0.12   0.06   0.07     0.01  -0.01  -0.01
  73   1    -0.05   0.29  -0.01    -0.05   0.26  -0.01     0.01  -0.04   0.00
  74   1     0.32   0.31  -0.27     0.28   0.28  -0.24    -0.04  -0.04   0.03
  75   1     0.22  -0.11  -0.14     0.20  -0.10  -0.13    -0.03   0.02   0.02
  76   1     0.03  -0.16   0.00     0.02  -0.14   0.00    -0.00   0.02  -0.00
  77   1     0.00   0.00  -0.00     0.01   0.00  -0.01    -0.00  -0.00   0.00
  78   1    -0.00   0.00  -0.00    -0.01   0.00  -0.01     0.00  -0.00   0.00
  79   1     0.02  -0.00   0.00     0.06  -0.01   0.01     0.01  -0.00   0.00
  80   1     0.01   0.01  -0.00     0.03   0.03  -0.01     0.00   0.00  -0.00
  81   1    -0.00   0.01  -0.00    -0.02   0.04  -0.02     0.00  -0.00   0.00
  82   1    -0.01   0.00  -0.00    -0.05   0.01  -0.01     0.01  -0.00   0.00
  83   1     0.00   0.00   0.00     0.00   0.00   0.00    -0.01  -0.01  -0.00
  84   1    -0.00   0.00   0.00    -0.00   0.01   0.00     0.00  -0.01  -0.00
  85   1    -0.00   0.00   0.00    -0.00   0.01   0.00     0.00  -0.01  -0.00
  86   1    -0.00   0.00   0.00    -0.01   0.00   0.00     0.02  -0.00  -0.00
  87   1     0.00  -0.00  -0.00     0.00  -0.00  -0.01    -0.00  -0.00   0.00
  88   1    -0.00   0.00  -0.00    -0.01   0.00  -0.01     0.00  -0.00   0.00
  89   1     0.00   0.00  -0.00     0.02   0.01  -0.01    -0.01  -0.00   0.01
  90   1     0.00   0.00   0.00     0.02   0.04   0.01    -0.01  -0.02  -0.01
  91   1    -0.00   0.00   0.01    -0.02   0.04   0.06     0.01  -0.02  -0.04
  92   1    -0.00  -0.00   0.00    -0.03  -0.01   0.02     0.02   0.01  -0.01
  93   1    -0.00  -0.00  -0.00    -0.01  -0.02  -0.01     0.01   0.01   0.00
  94   1    -0.00   0.00   0.00    -0.01   0.02   0.01     0.00  -0.01  -0.00
  95   1    -0.00   0.00  -0.00    -0.04   0.02  -0.01     0.02  -0.01   0.00
  96   1    -0.01  -0.00  -0.00    -0.05  -0.04  -0.04     0.03   0.02   0.02
  97   1     0.00  -0.00  -0.00     0.01  -0.04  -0.02    -0.01   0.02   0.01
  98   1     0.00  -0.00   0.00     0.02  -0.01   0.00    -0.02   0.01  -0.00
  99   1    -0.00  -0.00   0.00    -0.00  -0.00   0.01     0.00   0.00  -0.01
 100   1     0.00  -0.00   0.00     0.00  -0.00   0.00    -0.01   0.00  -0.01
 101   1    -0.00  -0.00  -0.00    -0.00  -0.00  -0.00     0.01   0.01   0.00
 102   1     0.00  -0.00  -0.00     0.00  -0.00  -0.00    -0.01   0.01   0.01
 103   1     0.00  -0.00  -0.00     0.00  -0.00  -0.00    -0.01   0.03   0.03
 104   1     0.00  -0.00  -0.00    -0.01   0.00   0.00    -0.11   0.02   0.02
 105   1    -0.01   0.00   0.00     0.15  -0.03  -0.02     0.80  -0.17  -0.12
 106   1    -0.00  -0.00   0.00     0.03   0.04  -0.02     0.23   0.25  -0.14
 107   1    -0.00   0.00  -0.00    -0.00   0.01  -0.00    -0.06   0.17  -0.04
 108   1    -0.01   0.00   0.00     0.01  -0.00  -0.00    -0.13   0.03   0.02
 109   1     0.00   0.00  -0.00    -0.01  -0.00   0.01     0.00   0.00  -0.00
 110   1    -0.00   0.00  -0.00     0.01  -0.00   0.01    -0.00   0.00  -0.00
 111   1    -0.07  -0.13   0.01     0.08   0.14  -0.01    -0.01  -0.02   0.00
 112   1    -0.24  -0.02  -0.12     0.25   0.03   0.13    -0.04  -0.00  -0.02
