      -----------------------------------------------------------      
     |                   =====================                   |     
     |                           x T B                           |     
     |                   =====================                   |     
     |                         S. Grimme                         |     
     |          Mulliken Center for Theoretical Chemistry        |     
     |                    University of Bonn                     |     
      -----------------------------------------------------------      

   * xtb version 6.7.1 (edcfbbe) compiled by 'albert@albert-system' on 2024-07-22

   xtb is free software: you can redistribute it and/or modify it under
   the terms of the GNU Lesser General Public License as published by
   the Free Software Foundation, either version 3 of the License, or
   (at your option) any later version.
   
   xtb is distributed in the hope that it will be useful,
   but WITHOUT ANY WARRANTY; without even the implied warranty of
   MERCHANTABILITY or FITNESS FOR A PARTICULAR PURPOSE.  See the
   GNU Lesser General Public License for more details.
   
   Cite this work as:
   * C. Bannwarth, E. Caldeweyher, S. Ehlert, A. Hansen, P. Pracht,
     J. Seibert, S. Spicher, S. Grimme, WIREs Comput. Mol. Sci., 2020, 11,
     e01493. DOI: 10.1002/wcms.1493
   
   for GFN2-xTB:
   * C. Bannwarth, S. Ehlert and S. Grimme., J. Chem. Theory Comput., 2019,
     15, 1652-1671. DOI: 10.1021/acs.jctc.8b01176
   for GFN1-xTB:
   * S. Grimme, C. Bannwarth, P. Shushkov, J. Chem. Theory Comput., 2017,
     13, 1989-2009. DOI: 10.1021/acs.jctc.7b00118
   for GFN0-xTB:
   * P. Pracht, E. Caldeweyher, S. Ehlert, S. Grimme, ChemRxiv, 2019, preprint.
     DOI: 10.26434/chemrxiv.8326202.v1
   for GFN-FF:
   * S. Spicher and S. Grimme, Angew. Chem. Int. Ed., 2020, 59, 15665-15673.
     DOI: 10.1002/anie.202004239
   
   for ALPB and GBSA implicit solvation:
   * S. Ehlert, M. Stahn, S. Spicher, S. Grimme, J. Chem. Theory Comput.,
     2021, 17, 4250-4261. DOI: 10.1021/acs.jctc.1c00471
   
   for ddCOSMO and CPCM-X implicit solvation:
   * M. Stahn, S. Ehlert, S. Grimme, J. Phys. Chem. A,
     2023, XX, XXXX-XXXX. DOI: 10.1021/acs.jpca.3c04382
   
   for DFT-D4:
   * E. Caldeweyher, C. Bannwarth and S. Grimme, J. Chem. Phys., 2017,
     147, 034112. DOI: 10.1063/1.4993215
   * E. Caldeweyher, S. Ehlert, A. Hansen, H. Neugebauer, S. Spicher,
     C. Bannwarth and S. Grimme, J. Chem. Phys., 2019, 150, 154122.
     DOI: 10.1063/1.5090222
   * E. Caldeweyher, J.-M. Mewes, S. Ehlert and S. Grimme, Phys. Chem. Chem. Phys.
     2020, 22, 8499-8512. DOI: 10.1039/D0CP00502A
   
   for sTDA-xTB:
   * S. Grimme and C. Bannwarth, J. Chem. Phys., 2016, 145, 054103.
     DOI: 10.1063/1.4959605
   
   in the mass-spec context:
   * V. Asgeirsson, C. Bauer and S. Grimme, Chem. Sci., 2017, 8, 4879.
     DOI: 10.1039/c7sc00601b
   * J. Koopman and S. Grimme, ACS Omega 2019, 4, 12, 15120-15133.
     DOI: 10.1021/acsomega.9b02011
   
   for metadynamics refer to:
   * S. Grimme, J. Chem. Theory Comput., 2019, 155, 2847-2862
     DOI: 10.1021/acs.jctc.9b00143
   
   for SPH calculations refer to:
   * S. Spicher and S. Grimme, J. Chem. Theory Comput., 2021, 17, 1701-1714
     DOI: 10.1021/acs.jctc.0c01306
   
   for ONIOM refer to:
   * C. Plett, A. Katbashev, S. Ehlert, S. Grimme, M. Bursch,
     Phys. Chem. Chem. Phys., 2023, 25, 17860-17868. DOI: 10.1039/D3CP02178E
   
   for DIPRO refer to:
   * J. Kohn, N. Gildemeister, S. Grimme, D. Fazzi, A. Hansen,
     J. Chem. Phys., 2023, just accepted.
   
   for PTB refer to:
   * S. Grimme, M. Mueller, A. Hansen, J. Chem. Phys., 2023, 158, 124111.
     DOI: 10.1063/5.0137838
   
   with help from (in alphabetical order)
   P. Atkinson, C. Bannwarth, F. Bohle, G. Brandenburg, E. Caldeweyher
   M. Checinski, S. Dohm, S. Ehlert, S. Ehrlich, I. Gerasimov, C. Hölzer
   A. Katbashev, J. Kohn, J. Koopman, C. Lavigne, S. Lehtola, F. März, M. Müller,
   F. Musil, H. Neugebauer, J. Pisarek, C. Plett, P. Pracht, F. Pultar,
   J. Seibert, P. Shushkov, S. Spicher, M. Stahn, M. Steiner, T. Strunk,
   J. Stückrath, T. Rose, and J. Unsleber
   
 * started run on 2025/08/30 at 12:38:32.414     
   ID    Z sym.   atoms
    1    6 C      1-5, 7-10, 12-17, 19-26, 28-36
    2    7 N      6, 11, 27
    3    8 O      18
    4    1 H      37-57

           -------------------------------------------------
          |                Calculation Setup                |
           -------------------------------------------------

          program call               : xtb data2507/gas/SBDBQ-PXZ/SBDBQ-PXZ_gas_S0_crest.xyz --gfn 2 --ohess vtight --parallel 40 --molden --ceasefiles --namespace data2507/gas/SBDBQ-PXZ/SBDBQ-PXZ_gas_S0_finalOpt
          calculation namespace      : data2507/gas/SBDBQ-PXZ/SBDBQ-PXZ_gas_S0_finalOpt
          coordinate file            : data2507/gas/SBDBQ-PXZ/SBDBQ-PXZ_gas_S0_crest.xyz
          omp threads                :                    40


           -------------------------------------------------
          |                 G F N 2 - x T B                 |
           -------------------------------------------------

        Reference                      10.1021/acs.jctc.8b01176
      * Hamiltonian:
        H0-scaling (s, p, d)           1.850000    2.230000    2.230000
        zeta-weighting                 0.500000
      * Dispersion:
        s8                             2.700000
        a1                             0.520000
        a2                             5.000000
        s9                             5.000000
      * Repulsion:
        kExp                           1.500000    1.000000
        rExp                           1.000000
      * Coulomb:
        alpha                          2.000000
        third order                    shell-resolved
        anisotropic                    true
        a3                             3.000000
        a5                             4.000000
        cn-shift                       1.200000
        cn-exp                         4.000000
        max-rad                        5.000000


          ...................................................
          :                      SETUP                      :
          :.................................................:
          :  # basis functions                 165          :
          :  # atomic orbitals                 165          :
          :  # shells                           93          :
          :  # electrons                       170          :
          :  max. iterations                   250          :
          :  Hamiltonian                  GFN2-xTB          :
          :  restarted?                      false          :
          :  GBSA solvation                  false          :
          :  PC potential                    false          :
          :  electronic temp.          300.0000000     K    :
          :  accuracy                    1.0000000          :
          :  -> integral cutoff          0.2500000E+02      :
          :  -> integral neglect         0.1000000E-07      :
          :  -> SCF convergence          0.1000000E-05 Eh   :
          :  -> wf. convergence          0.1000000E-03 e    :
          :  Broyden damping             0.4000000          :
          :  net charge                          0          :
          :  unpaired electrons                  0          :
          ...................................................

 iter      E             dE          RMSdq      gap      omega  full diag
   1    -93.6412268 -0.936412E+02  0.429E+00    1.38       0.0  T
   2    -93.7002978 -0.590710E-01  0.266E+00    1.66       1.0  T
   3    -93.6187191  0.815787E-01  0.128E+00    0.78       1.0  T
   4    -93.7122066 -0.934875E-01  0.424E-01    1.46       1.0  T
   5    -93.7250624 -0.128558E-01  0.119E-01    1.28       1.0  T
   6    -93.7256922 -0.629820E-03  0.400E-02    1.28       1.0  T
   7    -93.7257222 -0.299786E-04  0.208E-02    1.28       1.0  T
   8    -93.7257249 -0.271880E-05  0.101E-02    1.28       1.3  T
   9    -93.7257283 -0.340999E-05  0.284E-03    1.28       4.7  T
  10    -93.7257285 -0.179082E-06  0.946E-04    1.28      14.0  T
  11    -93.7257285 -0.368105E-07  0.435E-04    1.28      30.5  T

   *** convergence criteria satisfied after 11 iterations ***

         #    Occupation            Energy/Eh            Energy/eV
      -------------------------------------------------------------
         1        2.0000           -0.7262179             -19.7614
       ...           ...                  ...                  ...
        79        2.0000           -0.4109767             -11.1832
        80        2.0000           -0.4081979             -11.1076
        81        2.0000           -0.4026587             -10.9569
        82        2.0000           -0.3918993             -10.6641
        83        2.0000           -0.3879171             -10.5558
        84        2.0000           -0.3526741              -9.5968
        85        2.0000           -0.3418357              -9.3018 (HOMO)
        86                         -0.2947740              -8.0212 (LUMO)
        87                         -0.2658054              -7.2329
        88                         -0.2366956              -6.4408
        89                         -0.2310788              -6.2880
        90                         -0.2284054              -6.2152
       ...                                ...                  ...
       165                          0.6942251              18.8908
      -------------------------------------------------------------
                  HL-Gap            0.0470617 Eh            1.2806 eV
             Fermi-level           -0.3183049 Eh           -8.6615 eV

 SCC (total)                   0 d,  0 h,  0 min,  0.120 sec
 SCC setup                      ...        0 min,  0.001 sec (  0.551%)
 Dispersion                     ...        0 min,  0.003 sec (  2.207%)
 classical contributions        ...        0 min,  0.001 sec (  0.594%)
 integral evaluation            ...        0 min,  0.005 sec (  4.110%)
 iterations                     ...        0 min,  0.100 sec ( 83.488%)
 molecular gradient             ...        0 min,  0.010 sec (  8.379%)
 printout                       ...        0 min,  0.001 sec (  0.593%)

         :::::::::::::::::::::::::::::::::::::::::::::::::::::
         ::                     SUMMARY                     ::
         :::::::::::::::::::::::::::::::::::::::::::::::::::::
         :: total energy             -92.083411683126 Eh    ::
         :: gradient norm              0.000230911058 Eh/a0 ::
         :: HOMO-LUMO gap              1.280615185789 eV    ::
         ::.................................................::
         :: SCC energy               -93.725867402835 Eh    ::
         :: -> isotropic ES            0.032934169091 Eh    ::
         :: -> anisotropic ES          0.008374814713 Eh    ::
         :: -> anisotropic XC          0.057069449952 Eh    ::
         :: -> dispersion             -0.077403964025 Eh    ::
         :: repulsion energy           1.642455719709 Eh    ::
         :: add. restraining           0.000000000000 Eh    ::
         :: total charge              -0.000000000000 e     ::
         :::::::::::::::::::::::::::::::::::::::::::::::::::::

      ----------------------------------------------------------- 
     |                   =====================                   |
     |                        A N C O P T                        |
     |                   =====================                   |
     |               Approximate Normal Coordinate               |
     |                Rational Function Optimizer                |
      ----------------------------------------------------------- 

Optimization log is written to '/dev/null'
      ----------------------------------------------------------- 
     |                   =====================                   |
     |                        A N C O P T                        |
     |                   =====================                   |
     |               Approximate Normal Coordinate               |
     |                Rational Function Optimizer                |
      ----------------------------------------------------------- 

          ...................................................
          :                      SETUP                      :
          :.................................................:
          :   optimization level         verytight          :
          :   max. optcycles                  1140          :
          :   ANC micro-cycles                  20          :
          :   degrees of freedom               165          :
          :.................................................:
          :   RF solver                   davidson          :
          :   write xtbopt.log                true          :
          :   linear?                        false          :
          :   energy convergence         0.1000000E-06 Eh   :
          :   grad. convergence          0.2000000E-03 Eh/α :
          :   maxmium RF displ.          1.0000000          :
          :   Hlow (freq-cutoff)         0.1000000E-01      :
          :   Hmax (freq-cutoff)         5.0000000          :
          :   S6 in model hess.         20.0000000          :
          ...................................................

generating ANC from exact Hessian ...
Using Lindh-Hessian (1995)
 Shifting diagonal of input Hessian by   9.829678675973905E-003
 Lowest  eigenvalues of input Hessian
    0.000000    0.000000    0.000000    0.000000    0.000000    0.000000
    0.010000    0.010055    0.010514    0.010712    0.011014    0.011127
    0.011352    0.011726    0.012570    0.012809    0.013601    0.015974
 Highest eigenvalues
    2.069088    2.080242    2.093978    2.180182    2.219579    2.248286
 

........................................................................
.............................. CYCLE    1 ..............................
........................................................................

 iter      E             dE          RMSdq      gap      omega  full diag
   1    -93.7257285 -0.937257E+02  0.151E-04    1.28       0.0  T
   2    -93.7257285 -0.329138E-09  0.102E-04    1.28     129.5  T
   3    -93.7257285 -0.385285E-09  0.607E-05    1.28     218.1  T
     SCC iter.                  ...        0 min,  0.020 sec
     gradient                   ...        0 min,  0.008 sec
 * total energy  :   -92.0834117 Eh     change       -0.1526075E-08 Eh
   gradient norm :     0.0002319 Eh/α   predicted     0.0000000E+00 (-100.00%)
   displ. norm   :     0.0060755 α      lambda       -0.7952043E-07
   maximum displ.:     0.0033383 α      in ANC's #5, #6, #11, ...

........................................................................
.............................. CYCLE    2 ..............................
........................................................................

 iter      E             dE          RMSdq      gap      omega  full diag
   1    -93.7258077 -0.937258E+02  0.319E-03    1.28       0.0  T
   2    -93.7258077 -0.227635E-08  0.189E-03    1.28       7.0  T
   3    -93.7258077  0.526185E-08  0.327E-04    1.28      40.5  T
   4    -93.7258077 -0.636254E-08  0.600E-05    1.28     220.8  T
     SCC iter.                  ...        0 min,  0.024 sec
     gradient                   ...        0 min,  0.007 sec
 * total energy  :   -92.0834120 Eh     change       -0.3380115E-06 Eh
   gradient norm :     0.0001446 Eh/α   predicted    -0.2687141E-06 ( -20.50%)
   displ. norm   :     0.0056913 α      lambda       -0.1898010E-06
   maximum displ.:     0.0037797 α      in ANC's #5, #6, #11, ...

........................................................................
.............................. CYCLE    3 ..............................
........................................................................

 iter      E             dE          RMSdq      gap      omega  full diag
   1    -93.7258136 -0.937258E+02  0.205E-03    1.28       0.0  T
   2    -93.7258136 -0.915506E-09  0.120E-03    1.28      11.0  T
   3    -93.7258136  0.183992E-08  0.180E-04    1.28      73.4  T
   4    -93.7258136 -0.219904E-08  0.403E-05    1.28     328.3  T
     SCC iter.                  ...        0 min,  0.023 sec
     gradient                   ...        0 min,  0.007 sec
 * total energy  :   -92.0834123 Eh     change       -0.2429910E-06 Eh
   gradient norm :     0.0000817 Eh/α   predicted    -0.9548279E-07 ( -60.71%)
   displ. norm   :     0.0159384 α      lambda       -0.3740115E-06
   maximum displ.:     0.0095336 α      in ANC's #5, #6, #11, ...

........................................................................
.............................. CYCLE    4 ..............................
........................................................................

 iter      E             dE          RMSdq      gap      omega  full diag
   1    -93.7257935 -0.937258E+02  0.553E-03    1.28       0.0  T
   2    -93.7257935 -0.660930E-08  0.324E-03    1.28       4.1  T
   3    -93.7257935  0.858596E-08  0.425E-04    1.28      31.1  T
   4    -93.7257935 -0.108653E-07  0.101E-04    1.28     131.4  T
     SCC iter.                  ...        0 min,  0.024 sec
     gradient                   ...        0 min,  0.007 sec
 * total energy  :   -92.0834127 Eh     change       -0.4264334E-06 Eh
   gradient norm :     0.0000839 Eh/α   predicted    -0.1906875E-06 ( -55.28%)
   displ. norm   :     0.0176468 α      lambda       -0.2514928E-06
   maximum displ.:     0.0104240 α      in ANC's #5, #6, #11, ...

........................................................................
.............................. CYCLE    5 ..............................
........................................................................

 iter      E             dE          RMSdq      gap      omega  full diag
   1    -93.7257978 -0.937258E+02  0.603E-03    1.28       0.0  T
   2    -93.7257978 -0.717202E-08  0.353E-03    1.28       3.8  T
   3    -93.7257978  0.141764E-07  0.509E-04    1.28      26.0  T
   4    -93.7257978 -0.170527E-07  0.112E-04    1.28     118.6  T
     SCC iter.                  ...        0 min,  0.024 sec
     gradient                   ...        0 min,  0.006 sec
 * total energy  :   -92.0834130 Eh     change       -0.2753187E-06 Eh
   gradient norm :     0.0000861 Eh/α   predicted    -0.1261198E-06 ( -54.19%)
   displ. norm   :     0.0129414 α      lambda       -0.1219520E-06
   maximum displ.:     0.0075951 α      in ANC's #5, #6, #1, ...

........................................................................
.............................. CYCLE    6 ..............................
........................................................................

 iter      E             dE          RMSdq      gap      omega  full diag
   1    -93.7258009 -0.937258E+02  0.431E-03    1.28       0.0  T
   2    -93.7258009 -0.290326E-08  0.253E-03    1.28       5.2  T
   3    -93.7258009  0.692711E-08  0.341E-04    1.28      38.8  T
   4    -93.7258009 -0.823327E-08  0.734E-05    1.28     180.4  T
     SCC iter.                  ...        0 min,  0.023 sec
     gradient                   ...        0 min,  0.006 sec
 * total energy  :   -92.0834131 Eh     change       -0.1385127E-06 Eh
   gradient norm :     0.0000509 Eh/α   predicted    -0.6240852E-07 ( -54.94%)
   displ. norm   :     0.0109770 α      lambda       -0.8405759E-07
   maximum displ.:     0.0061004 α      in ANC's #5, #6, #1, ...

........................................................................
.............................. CYCLE    7 ..............................
........................................................................

 iter      E             dE          RMSdq      gap      omega  full diag
   1    -93.7257966 -0.937258E+02  0.350E-03    1.28       0.0  T
   2    -93.7257966 -0.155876E-08  0.205E-03    1.28       6.5  T
   3    -93.7257966  0.418264E-08  0.259E-04    1.28      51.2  T
   4    -93.7257966 -0.496613E-08  0.542E-05    1.28     244.4  T
     SCC iter.                  ...        0 min,  0.023 sec
     gradient                   ...        0 min,  0.007 sec
 * total energy  :   -92.0834132 Eh     change       -0.9551751E-07 Eh
   gradient norm :     0.0000262 Eh/α   predicted    -0.4269278E-07 ( -55.30%)
   displ. norm   :     0.0098501 α      lambda       -0.6010823E-07
   maximum displ.:     0.0053101 α      in ANC's #6, #5, #1, ...

   *** GEOMETRY OPTIMIZATION CONVERGED AFTER 7 ITERATIONS ***

------------------------------------------------------------------------
 total energy gain   :        -0.0000015 Eh       -0.0010 kcal/mol
 total RMSD          :         0.0088379 a0        0.0047 Å
 total power (kW/mol):        -0.0005695 (step)   -0.0148 (real)
------------------------------------------------------------------------

 ANCopt (total)                0 d,  0 h,  0 min,  0.270 sec
 optimizer setup                ...        0 min,  0.000 sec (  0.083%)
 model hessian                  ...        0 min,  0.022 sec (  7.958%)
 ANC generation                 ...        0 min,  0.003 sec (  1.201%)
 coordinate transformation      ...        0 min,  0.001 sec (  0.255%)
 single point calculation       ...        0 min,  0.241 sec ( 88.995%)
 optimization log               ...        0 min,  0.001 sec (  0.544%)
 hessian update                 ...        0 min,  0.001 sec (  0.385%)
 rational function              ...        0 min,  0.001 sec (  0.284%)

================
 final structure:
================
57
 xtb: 6.7.1 (edcfbbe)
C           -6.91513420717378        1.66218009487525        1.67051709490696
C           -6.04300868647038        2.67393467484652        1.30337651038340
C           -4.75605535222286        2.36833956356694        0.90379654770206
C           -4.33247686360064        1.04251956207891        0.85189996527842
C           -2.95969391074543        0.74007986654047        0.43192093377773
N           -2.01912914627879        1.54797409246779        0.86183857396502
C           -0.73516570911331        1.23835233133235        0.61298335375426
C            0.30081393151174        2.09137173692523        1.04379933803272
C            1.60244086726475        1.72060519353613        0.86865582497247
C            1.93096384625199        0.48892554089287        0.25676860628083
N            3.28905623634587        0.13826337927448        0.12201289326175
C            3.80865611102565       -0.99369083445034        0.75741018396658
C            3.02920206052358       -1.83411383858391        1.54207233054729
C            3.58286449335099       -2.94229109453986        2.16493703365974
C            4.92560882977004       -3.22615842696421        2.02150762897491
C            5.72390464928816       -2.38153915616425        1.26488465888026
C            5.17771746013683       -1.27256456081336        0.64579785339283
O            6.04197893192535       -0.46669062184650       -0.05299025091315
C            5.51166185673505        0.62478834959182       -0.69322387409169
C            6.38345119400375        1.40663370955969       -1.42786270629648
C            5.91529609495914        2.50890255729449       -2.12782785520783
C            4.56817281253695        2.80738311215527       -2.10439318968316
C            3.68968684529374        2.02644624207893       -1.36880281821807
C            4.14828684204089        0.94174194678172       -0.63151132376685
C            0.94008200157533       -0.35090451299587       -0.19345198386053
C           -0.40691994961883        0.01572016287178       -0.03526884268076
N           -1.38180988028490       -0.75628581975248       -0.55280947018479
C           -2.63057277428495       -0.39493445466630       -0.38187929554548
C           -3.64794534659927       -1.18324486198322       -1.08703007510849
C           -4.73017601963856       -0.56858038510243       -1.71324216541443
C           -5.66681538603136       -1.33139480478291       -2.38415234314869
C           -5.53719948036550       -2.70991878948453       -2.43684115389968
C           -4.45321697387948       -3.32484943113627       -1.83205164917527
C           -3.50828841623204       -2.56654976479993       -1.16749576228952
C           -5.20814949642372        0.03070979810337        1.24039913123835
C           -6.49110013008354        0.34327701965817        1.64730894010786
H           -7.92139829500712        1.90082405128830        1.98181451529948
H           -6.36743220292215        3.70387599127551        1.33117435674563
H           -4.06425815231023        3.14663482007763        0.61973934710452
H            0.03512187157483        3.01809555330741        1.52773698607764
H            2.40616401495782        2.35520075149041        1.21255532644997
H            1.98137660068197       -1.61759895768725        1.67716180902336
H            2.95102586086068       -3.57841957165884        2.76550625775200
H            5.36019759464367       -4.08988919653969        2.49930549067818
H            6.78054881458609       -2.56168423424161        1.14765171343806
H            7.42625206556083        1.13277601514462       -1.44240220258006
H            6.60352448420409        3.11574260260128       -2.69466465746245
H            4.18500559555591        3.64812165294448       -2.66197097656227
H            2.63633662713984        2.25950572531786       -1.37449988772710
H            1.17179380785414       -1.28386142571400       -0.68356679493289
H           -4.82757668932558        0.50698260482075       -1.68856002163858
H           -6.50175239687359       -0.84782678148019       -2.86951897078652
H           -6.27629209608347       -3.30258848538271       -2.95541038558487
H           -4.34378183318863       -4.39833568170320       -1.88129829110355
H           -2.65581063761604       -3.03165070119759       -0.69638373017070
H           -4.87782692219494       -0.99778970465700        1.23980077793601
H           -7.16342838349061       -0.44621460417187        1.94939940504556
 
 Bond Distances (Angstroems)
 ---------------------------
C1-C2=1.3853         C1-C36=1.3856        C1-H37=1.0800        C2-C1=1.3853         C2-C3=1.3818         C2-H38=1.0802        
C3-C2=1.3818         C3-C4=1.3928         C3-H39=1.0794        C4-C3=1.3928         C4-C5=1.4671         C4-C35=1.3934        
C5-C4=1.4671         C5-N6=1.3123         C5-C28=1.4349        N6-C5=1.3123         N6-C7=1.3440         C7-N6=1.3440         
C7-C8=1.4094         C7-C26=1.4223        C8-C7=1.4094         C8-C9=1.3647         C8-H40=1.0787        C9-C8=1.3647         
C9-C10=1.4140        C9-H41=1.0803        C10-C9=1.4140        C10-N11=1.4091       C10-C25=1.3747       N11-C10=1.4091       
N11-C12=1.3982       N11-C24=1.3970       C12-N11=1.3982       C12-C13=1.3891       C12-C17=1.4016       C13-C12=1.3891       
C13-C14=1.3866       C13-H42=1.0785       C14-C13=1.3866       C14-C15=1.3799       C14-H43=1.0791       C15-C14=1.3799       
C15-C16=1.3868       C15-H44=1.0785       C16-C15=1.3868       C16-C17=1.3825       C16-H45=1.0783       C17-C12=1.4016       
C17-C16=1.3825       C17-O18=1.3728       O18-C17=1.3728       O18-C19=1.3720       C19-O18=1.3720       C19-C20=1.3824       
C19-C24=1.4011       C20-C19=1.3824       C20-C21=1.3871       C20-H46=1.0783       C21-C20=1.3871       C21-C22=1.3800       
C21-H47=1.0785       C22-C21=1.3800       C22-C23=1.3866       C22-H48=1.0791       C23-C22=1.3866       C23-C24=1.3894       
C23-H49=1.0788       C24-N11=1.3970       C24-C19=1.4011       C24-C23=1.3894       C25-C10=1.3747       C25-C26=1.4049       
C25-H50=1.0790       C26-C7=1.4223        C26-C25=1.4049       C26-N27=1.3469       N27-C26=1.3469       N27-C28=1.3112       
C28-C5=1.4349        C28-N27=1.3112       C28-C29=1.4676       C29-C28=1.4676       C29-C30=1.3933       C29-C34=1.3927       
C30-C29=1.3933       C30-C31=1.3818       C30-H51=1.0802       C31-C30=1.3818       C31-C32=1.3856       C31-H52=1.0801       
C32-C31=1.3856       C32-C33=1.3853       C32-H53=1.0800       C33-C32=1.3853       C33-C34=1.3819       C33-H54=1.0802       
C34-C29=1.3927       C34-C33=1.3819       C34-H55=1.0793       C35-C4=1.3934        C35-C36=1.3818       C35-H56=1.0802       
C36-C1=1.3856        C36-C35=1.3818       C36-H57=1.0801       H37-C1=1.0800        H38-C2=1.0802        H39-C3=1.0794        
H40-C8=1.0787        H41-C9=1.0803        H42-C13=1.0785       H43-C14=1.0791       H44-C15=1.0785       H45-C16=1.0783       
H46-C20=1.0783       H47-C21=1.0785       H48-C22=1.0791       H49-C23=1.0788       H50-C25=1.0790       H51-C30=1.0802       
H52-C31=1.0801       H53-C32=1.0800       H54-C33=1.0802       H55-C34=1.0793       H56-C35=1.0802       H57-C36=1.0801       
 C  H  Rav=1.0794 sigma=0.0007  Rmin=1.0783  Rmax=1.0803    21
 C  C  Rav=1.3956 sigma=0.0227  Rmin=1.3647  Rmax=1.4676    33
 N  C  Rav=1.3598 sigma=0.0384  Rmin=1.3112  Rmax=1.4091     7
 O  C  Rav=1.3724 sigma=0.0004  Rmin=1.3720  Rmax=1.3728     2
 
 selected bond angles (degree)
 --------------------
C36-C1-C2=119.87               H37-C1-C2=120.10               H37-C1-C36=120.02              C3-C2-C1=120.10                
H38-C2-C1=120.03               H38-C2-C3=119.87               C4-C3-C2=120.30                H39-C3-C2=120.90               
H39-C3-C4=118.79               C5-C4-C3=119.44                C35-C4-C3=119.32               C35-C4-C5=121.21               
N6-C5-C4=116.74                C28-C5-C4=122.69               C28-C5-N6=120.56               C7-N6-C5=118.83                
C8-C7-N6=120.41                C26-C7-N6=120.19               C26-C7-C8=119.34               C9-C8-C7=119.83                
H40-C8-C7=118.43               H40-C8-C9=121.73               C10-C9-C8=120.92               H41-C9-C8=120.61               
H41-C9-C10=118.46              N11-C10-C9=118.82              C25-C10-C9=120.42              C25-C10-N11=120.75             
 
 selected dihedral angles (degree)
 ---------------------------------
C3-C2-C1-C36=  0.55           C3-C2-C1-H37=180.07           H38-C2-C1-C36=180.69          H38-C2-C1-H37=  0.21          
C4-C3-C2-C1=  0.78            C4-C3-C2-H38=180.64           H39-C3-C2-C1=180.31           H39-C3-C2-H38=  0.17          
C5-C4-C3-C2=180.33            C5-C4-C3-H39=  0.79           C35-C4-C3-C2=358.33           C35-C4-C3-H39=178.79          
N6-C5-C4-C3= 39.35            N6-C5-C4-C35=221.40           C28-C5-C4-C3=217.89           C28-C5-C4-C35= 39.93          
C7-N6-C5-C4=173.56            C7-N6-C5-C28=354.99           C8-C7-N6-C5=179.15            C26-C7-N6-C5=356.31           
C9-C8-C7-N6=175.39            C9-C8-C7-C26=358.21           H40-C8-C7-N6=356.77           H40-C8-C7-C26=179.59          
C10-C9-C8-C7=  0.10           C10-C9-C8-H40=178.68          H41-C9-C8-C7=181.28           H41-C9-C8-H40=359.85          
N11-C10-C9-C8=181.24          N11-C10-C9-H41=  0.09         C25-C10-C9-C8=  1.03          C25-C10-C9-H41=179.88         
           -------------------------------------------------
          |                Final Singlepoint                |
           -------------------------------------------------

          ...................................................
          :                      SETUP                      :
          :.................................................:
          :  # basis functions                 165          :
          :  # atomic orbitals                 165          :
          :  # shells                           93          :
          :  # electrons                       170          :
          :  max. iterations                   250          :
          :  Hamiltonian                  GFN2-xTB          :
          :  restarted?                      false          :
          :  GBSA solvation                  false          :
          :  PC potential                    false          :
          :  electronic temp.          300.0000000     K    :
          :  accuracy                    1.0000000          :
          :  -> integral cutoff          0.2500000E+02      :
          :  -> integral neglect         0.1000000E-07      :
          :  -> SCF convergence          0.1000000E-05 Eh   :
          :  -> wf. convergence          0.1000000E-03 e    :
          :  Broyden damping             0.4000000          :
          :  net charge                          0          :
          :  unpaired electrons                  0          :
          ...................................................

 iter      E             dE          RMSdq      gap      omega  full diag
   1    -93.7257966 -0.937258E+02  0.308E-05    1.28       0.0  T
   2    -93.7257966 -0.707701E-11  0.220E-05    1.28     601.1  T
   3    -93.7257966 -0.312639E-10  0.102E-05    1.28    1303.1  T

   *** convergence criteria satisfied after 3 iterations ***

         #    Occupation            Energy/Eh            Energy/eV
      -------------------------------------------------------------
         1        2.0000           -0.7261719             -19.7601
       ...           ...                  ...                  ...
        79        2.0000           -0.4109673             -11.1830
        80        2.0000           -0.4081950             -11.1076
        81        2.0000           -0.4026898             -10.9577
        82        2.0000           -0.3919099             -10.6644
        83        2.0000           -0.3879144             -10.5557
        84        2.0000           -0.3526961              -9.5973
        85        2.0000           -0.3418006              -9.3009 (HOMO)
        86                         -0.2948244              -8.0226 (LUMO)
        87                         -0.2658434              -7.2340
        88                         -0.2366622              -6.4399
        89                         -0.2311316              -6.2894
        90                         -0.2283913              -6.2148
       ...                                ...                  ...
       165                          0.6941993              18.8901
      -------------------------------------------------------------
                  HL-Gap            0.0469762 Eh            1.2783 eV
             Fermi-level           -0.3183125 Eh           -8.6617 eV

 SCC (total)                   0 d,  0 h,  0 min,  0.028 sec
 SCC setup                      ...        0 min,  0.000 sec (  0.475%)
 Dispersion                     ...        0 min,  0.001 sec (  1.855%)
 classical contributions        ...        0 min,  0.000 sec (  0.106%)
 integral evaluation            ...        0 min,  0.002 sec (  8.955%)
 iterations                     ...        0 min,  0.018 sec ( 63.624%)
 molecular gradient             ...        0 min,  0.006 sec ( 23.423%)
 printout                       ...        0 min,  0.000 sec (  1.274%)

         :::::::::::::::::::::::::::::::::::::::::::::::::::::
         ::                     SUMMARY                     ::
         :::::::::::::::::::::::::::::::::::::::::::::::::::::
         :: total energy             -92.083413201544 Eh    ::
         :: gradient norm              0.000026219160 Eh/a0 ::
         :: HOMO-LUMO gap              1.278288114724 eV    ::
         ::.................................................::
         :: SCC energy               -93.725936299805 Eh    ::
         :: -> isotropic ES            0.032937951241 Eh    ::
         :: -> anisotropic ES          0.008377909298 Eh    ::
         :: -> anisotropic XC          0.057076397774 Eh    ::
         :: -> dispersion             -0.077414057591 Eh    ::
         :: repulsion energy           1.642523098261 Eh    ::
         :: add. restraining           0.000000000000 Eh    ::
         :: total charge               0.000000000000 e     ::
         :::::::::::::::::::::::::::::::::::::::::::::::::::::

           ------------------------------------------------- 
          |                Numerical Hessian                |
           ------------------------------------------------- 
step length          :   0.00500
SCC accuracy         :   0.30000
Hessian scale factor :   1.00000
frozen atoms in %    :   0.00000    0
RMS gradient         :   0.00003
estimated CPU  time     15.98 min
estimated wall time      0.41 min

writing file <hessian>.

 projected vibrational frequencies (cm⁻¹)
eigval :       -0.00    -0.00     0.00     0.00     0.00     0.00
eigval :       13.56    19.24    24.15    39.90    44.69    49.55
eigval :       60.21    62.67    79.01    82.31   115.23   140.10
eigval :      143.87   169.31   182.48   220.47   237.57   247.58
eigval :      254.30   262.54   272.83   294.72   312.84   339.77
eigval :      362.46   370.50   376.19   387.14   395.83   404.31
eigval :      427.15   429.88   444.47   455.81   466.06   507.26
eigval :      509.99   517.61   523.35   546.55   555.43   559.63
eigval :      576.39   586.01   591.09   595.60   621.26   627.44
eigval :      659.26   660.51   661.54   666.14   674.17   695.80
eigval :      702.59   715.23   750.06   759.68   776.47   778.48
eigval :      779.12   793.23   823.88   840.31   855.51   856.17
eigval :      862.90   865.46   875.85   876.87   885.36   896.91
eigval :      899.90   902.00   905.18   914.03   915.58   917.27
eigval :      926.04   927.96   928.86   931.85   932.67   942.44
eigval :      973.95   988.99  1018.25  1079.62  1082.52  1090.33
eigval :     1090.88  1098.44  1108.57  1114.73  1120.17  1120.51
eigval :     1145.16  1164.71  1175.68  1181.37  1181.39  1183.60
eigval :     1193.70  1196.53  1199.88  1202.09  1218.98  1241.27
eigval :     1247.75  1262.10  1268.67  1276.08  1277.98  1286.12
eigval :     1297.47  1311.13  1320.10  1322.34  1332.24  1340.68
eigval :     1351.91  1379.44  1405.18  1422.02  1427.70  1431.25
eigval :     1439.30  1444.71  1469.84  1476.91  1481.41  1487.82
eigval :     1503.30  1514.26  1529.16  1567.62  1580.33  1580.60
eigval :     1580.91  1589.43  1595.11  1595.26  1597.50  1603.45
eigval :     3074.84  3075.18  3078.06  3078.52  3085.58  3085.62
eigval :     3085.88  3088.89  3089.26  3092.81  3093.31  3098.21
eigval :     3099.06  3099.24  3099.41  3101.76  3103.24  3105.12
eigval :     3107.73  3112.82  3113.36
           -------------------------------------------------
          |                Property Printout                |
           -------------------------------------------------

    * Orbital Energies and Occupations

         #    Occupation            Energy/Eh            Energy/eV
      -------------------------------------------------------------
         1        2.0000           -0.7261718             -19.7601
       ...           ...                  ...                  ...
        73        2.0000           -0.4252088             -11.5705
        74        2.0000           -0.4205420             -11.4435
        75        2.0000           -0.4175984             -11.3634
        76        2.0000           -0.4146713             -11.2838
        77        2.0000           -0.4140929             -11.2680
        78        2.0000           -0.4120146             -11.2115
        79        2.0000           -0.4109673             -11.1830
        80        2.0000           -0.4081951             -11.1076
        81        2.0000           -0.4026898             -10.9577
        82        2.0000           -0.3919100             -10.6644
        83        2.0000           -0.3879144             -10.5557
        84        2.0000           -0.3526962              -9.5974
        85        2.0000           -0.3418005              -9.3009 (HOMO)
        86                         -0.2948244              -8.0226 (LUMO)
        87                         -0.2658435              -7.2340
        88                         -0.2366621              -6.4399
        89                         -0.2311316              -6.2894
        90                         -0.2283913              -6.2148
        91                         -0.2272568              -6.1840
        92                         -0.2249180              -6.1203
        93                         -0.2236866              -6.0868
        94                         -0.2126627              -5.7868
        95                         -0.2100840              -5.7167
        96                         -0.1939156              -5.2767
       ...                                ...                  ...
       165                          0.6941993              18.8901
      -------------------------------------------------------------
                  HL-Gap            0.0469761 Eh            1.2783 eV
             Fermi-level           -0.3183125 Eh           -8.6617 eV

     #   Z          covCN         q      C6AA      α(0)
     1   6 C        2.920    -0.028    28.689     8.783
     2   6 C        2.919    -0.028    28.691     8.784
     3   6 C        2.925    -0.026    28.650     8.778
     4   6 C        2.982     0.008    27.836     8.654
     5   6 C        2.951     0.085    26.105     8.380
     6   7 N        1.851    -0.233    26.955     7.695
     7   6 C        2.964     0.076    26.294     8.411
     8   6 C        2.916    -0.040    28.993     8.830
     9   6 C        2.919    -0.039    28.979     8.828
    10   6 C        2.918     0.066    26.517     8.444
    11   7 N        2.752    -0.068    22.561     7.055
    12   6 C        2.921     0.043    27.047     8.528
    13   6 C        2.924    -0.059    29.476     8.903
    14   6 C        2.919    -0.038    28.947     8.823
    15   6 C        2.919    -0.040    28.993     8.830
    16   6 C        2.920    -0.056    29.390     8.890
    17   6 C        2.884     0.125    25.258     8.239
    18   8 O        1.709    -0.254    18.214     5.762
    19   6 C        2.884     0.125    25.255     8.239
    20   6 C        2.920    -0.056    29.398     8.891
    21   6 C        2.919    -0.040    28.992     8.830
    22   6 C        2.919    -0.039    28.960     8.825
    23   6 C        2.924    -0.059    29.467     8.902
    24   6 C        2.923     0.043    27.044     8.528
    25   6 C        2.920    -0.055    29.372     8.887
    26   6 C        2.964     0.078    26.247     8.403
    27   7 N        1.852    -0.235    27.005     7.702
    28   6 C        2.951     0.087    26.054     8.372
    29   6 C        2.982     0.008    27.834     8.654
    30   6 C        2.923    -0.029    28.724     8.789
    31   6 C        2.919    -0.028    28.697     8.785
    32   6 C        2.920    -0.027    28.684     8.783
    33   6 C        2.919    -0.027    28.688     8.783
    34   6 C        2.925    -0.026    28.643     8.777
    35   6 C        2.923    -0.029    28.732     8.790
    36   6 C        2.919    -0.028    28.699     8.785
    37   1 H        0.926     0.034     2.527     2.486
    38   1 H        0.926     0.035     2.510     2.478
    39   1 H        0.926     0.047     2.359     2.402
    40   1 H        0.926     0.057     2.236     2.338
    41   1 H        0.926     0.047     2.354     2.400
    42   1 H        0.926     0.036     2.505     2.475
    43   1 H        0.926     0.036     2.497     2.471
    44   1 H        0.926     0.038     2.472     2.459
    45   1 H        0.926     0.051     2.312     2.378
    46   1 H        0.926     0.051     2.313     2.379
    47   1 H        0.926     0.038     2.473     2.459
    48   1 H        0.926     0.036     2.501     2.473
    49   1 H        0.926     0.035     2.523     2.484
    50   1 H        0.926     0.059     2.210     2.325
    51   1 H        0.926     0.030     2.590     2.517
    52   1 H        0.926     0.034     2.536     2.490
    53   1 H        0.926     0.034     2.524     2.484
    54   1 H        0.926     0.036     2.505     2.475
    55   1 H        0.926     0.047     2.356     2.400
    56   1 H        0.926     0.029     2.594     2.519
    57   1 H        0.926     0.033     2.539     2.492

 Mol. C6AA /au·bohr⁶  :      49155.321148
 Mol. C8AA /au·bohr⁸  :    1245312.802250
 Mol. α(0) /au        :        357.725035


MOs/occ written to file <molden.input>


molecular dipole:
                 x           y           z       tot (Debye)
 q only:       -0.795       0.050       0.007
   full:       -0.880       0.083       0.022       2.248
molecular quadrupole (traceless):
                xx          xy          yy          xz          yz          zz
 q only:        2.975       3.042       2.629       1.318      -0.953      -5.604
  q+dip:        8.333       2.809       5.621       1.982      -3.184     -13.954
   full:        3.479       4.008       2.347       2.317      -3.316      -5.825

           -------------------------------------------------
          |                Geometry Summary                 |
           -------------------------------------------------

      molecular mass/u    :      463.5298191
   center of mass at/Å    :        0.0001332      -0.0000212      -0.0002211
  moments of inertia/u·Å² :        0.2312379E+04   0.9725552E+04   0.1039243E+05
rotational constants/cm⁻¹ :        0.7290167E-02   0.1733334E-02   0.1622106E-02

 * 61 selected distances

     #   Z          #   Z                                           value/Å
     1   6 C        2   6 C                                       1.3852952
     2   6 C        3   6 C                                       1.3817749
     3   6 C        4   6 C                                       1.3928069
     5   6 C        6   7 N                                       1.3123203
     6   7 N        7   6 C                                       1.3440078
     7   6 C        8   6 C                                       1.4094320
     8   6 C        9   6 C                                       1.3646890
     9   6 C       10   6 C                                       1.4139903
    10   6 C       11   7 N                                       1.4090913
    11   7 N       12   6 C                                       1.3982255
    12   6 C       13   6 C                                       1.3890840
    13   6 C       14   6 C                                       1.3865640
    14   6 C       15   6 C                                       1.3798969
    15   6 C       16   6 C                                       1.3867720
    12   6 C       17   6 C                                       1.4016266
    16   6 C       17   6 C                                       1.3825389
    17   6 C       18   8 O                                       1.3728386
    18   8 O       19   6 C                                       1.3720284
    19   6 C       20   6 C                                       1.3823868
    20   6 C       21   6 C                                       1.3871256
    21   6 C       22   6 C                                       1.3799932
    22   6 C       23   6 C                                       1.3866123
    11   7 N       24   6 C                                       1.3970162
    19   6 C       24   6 C                                       1.4010924
    23   6 C       24   6 C                                       1.3894231
    10   6 C       25   6 C                                       1.3747219
     7   6 C       26   6 C                                       1.4222538
    25   6 C       26   6 C                                       1.4049378
    26   6 C       27   7 N                                       1.3469418
     5   6 C       28   6 C                                       1.4348691 (max)
    27   7 N       28   6 C                                       1.3111831
    29   6 C       30   6 C                                       1.3932615
    30   6 C       31   6 C                                       1.3817742
    31   6 C       32   6 C                                       1.3856064
    32   6 C       33   6 C                                       1.3852539
    29   6 C       34   6 C                                       1.3926635
    33   6 C       34   6 C                                       1.3818622
     4   6 C       35   6 C                                       1.3933749
     1   6 C       36   6 C                                       1.3855862
    35   6 C       36   6 C                                       1.3817513
     1   6 C       37   1 H                                       1.0800114
     2   6 C       38   1 H                                       1.0801864
     3   6 C       39   1 H                                       1.0793589
     8   6 C       40   1 H                                       1.0787053
     9   6 C       41   1 H                                       1.0802544
    13   6 C       42   1 H                                       1.0784555
    14   6 C       43   1 H                                       1.0791493
    15   6 C       44   1 H                                       1.0785125
    16   6 C       45   1 H                                       1.0782824
    20   6 C       46   1 H                                       1.0782594 (min)
    21   6 C       47   1 H                                       1.0785255
    22   6 C       48   1 H                                       1.0791439
    23   6 C       49   1 H                                       1.0788402
    25   6 C       50   1 H                                       1.0790328
    30   6 C       51   1 H                                       1.0802463
    31   6 C       52   1 H                                       1.0800643
    32   6 C       53   1 H                                       1.0800137
    33   6 C       54   1 H                                       1.0801732
    34   6 C       55   1 H                                       1.0793442
    35   6 C       56   1 H                                       1.0802429
    36   6 C       57   1 H                                       1.0800839

 * 4 distinct bonds (by element types)

   Z      Z             #   av. dist./Å        max./Å        min./Å
   1 H    6 C          21     1.0793755     1.0802544     1.0782594
   6 C    6 C          31     1.3909362     1.4348691     1.3646890
   6 C    7 N           7     1.3598266     1.4090913     1.3111831
   6 C    8 O           2     1.3724335     1.3728386     1.3720284

           -------------------------------------------------
          |               Frequency Printout                |
           -------------------------------------------------
 projected vibrational frequencies (cm⁻¹)
eigval :       -0.00    -0.00     0.00     0.00     0.00     0.00
eigval :       13.56    19.24    24.15    39.90    44.69    49.55
eigval :       60.21    62.67    79.01    82.31   115.23   140.10
eigval :      143.87   169.31   182.48   220.47   237.57   247.58
eigval :      254.30   262.54   272.83   294.72   312.84   339.77
eigval :      362.46   370.50   376.19   387.14   395.83   404.31
eigval :      427.15   429.88   444.47   455.81   466.06   507.26
eigval :      509.99   517.61   523.35   546.55   555.43   559.63
eigval :      576.39   586.01   591.09   595.60   621.26   627.44
eigval :      659.26   660.51   661.54   666.14   674.17   695.80
eigval :      702.59   715.23   750.06   759.68   776.47   778.48
eigval :      779.12   793.23   823.88   840.31   855.51   856.17
eigval :      862.90   865.46   875.85   876.87   885.36   896.91
eigval :      899.90   902.00   905.18   914.03   915.58   917.27
eigval :      926.04   927.96   928.86   931.85   932.67   942.44
eigval :      973.95   988.99  1018.25  1079.62  1082.52  1090.33
eigval :     1090.88  1098.44  1108.57  1114.73  1120.17  1120.51
eigval :     1145.16  1164.71  1175.68  1181.37  1181.39  1183.60
eigval :     1193.70  1196.53  1199.88  1202.09  1218.98  1241.27
eigval :     1247.75  1262.10  1268.67  1276.08  1277.98  1286.12
eigval :     1297.47  1311.13  1320.10  1322.34  1332.24  1340.68
eigval :     1351.91  1379.44  1405.18  1422.02  1427.70  1431.25
eigval :     1439.30  1444.71  1469.84  1476.91  1481.41  1487.82
eigval :     1503.30  1514.26  1529.16  1567.62  1580.33  1580.60
eigval :     1580.91  1589.43  1595.11  1595.26  1597.50  1603.45
eigval :     3074.84  3075.18  3078.06  3078.52  3085.58  3085.62
eigval :     3085.88  3088.89  3089.26  3092.81  3093.31  3098.21
eigval :     3099.06  3099.24  3099.41  3101.76  3103.24  3105.12
eigval :     3107.73  3112.82  3113.36
 reduced masses (amu)
   1: 11.40   2: 11.70   3: 11.37   4: 11.76   5: 11.61   6: 11.74   7: 10.91   8: 11.19
   9: 11.35  10: 10.73  11: 11.36  12: 10.13  13: 10.80  14: 11.13  15: 10.26  16: 11.08
  17: 10.04  18: 11.28  19: 11.36  20: 10.96  21: 11.42  22: 11.07  23: 10.88  24: 10.79
  25: 11.60  26: 11.17  27: 11.20  28: 11.36  29: 11.50  30: 11.33  31: 11.28  32:  9.08
  33:  8.94  34: 10.90  35: 11.19  36: 10.93  37: 10.87  38:  9.86  39: 10.62  40: 10.90
  41: 10.37  42: 10.90  43: 10.23  44: 11.82  45: 11.03  46: 11.94  47: 11.68  48: 11.25
  49: 11.69  50: 11.34  51: 11.25  52: 12.03  53: 11.66  54: 11.01  55: 11.60  56: 10.47
  57: 11.75  58: 11.29  59:  9.39  60:  9.33  61: 11.55  62: 11.79  63:  8.40  64:  4.98
  65:  9.27  66:  3.27  67:  3.42  68: 12.49  69:  4.96  70: 11.38  71: 12.44  72: 11.77
  73:  3.43  74:  3.33  75:  3.29  76:  3.31  77:  3.42  78:  3.85  79:  3.81  80:  3.64
  81:  3.69  82:  3.52  83:  3.81  84: 10.20  85:  3.53  86:  4.13  87:  4.13  88:  3.03
  89:  3.03  90: 11.54  91: 11.20  92:  9.08  93: 10.62  94:  8.64  95:  6.61  96:  5.71
  97:  5.89  98:  7.32  99:  8.62 100:  8.14 101:  4.40 102:  4.31 103:  2.97 104:  4.29
 105:  1.95 106:  1.35 107:  1.35 108:  2.57 109:  2.43 110:  2.34 111:  5.95 112:  7.07
 113:  6.83 114:  7.47 115:  8.58 116:  4.85 117: 10.29 118:  5.36 119:  3.92 120:  8.64
 121:  9.30 122: 11.73 123: 11.91 124: 11.93 125: 10.67 126: 10.39 127: 11.22 128: 11.08
 129: 11.79 130:  9.40 131:  9.25 132:  9.03 133: 10.23 134:  9.93 135: 10.04 136:  9.62
 137: 10.36 138: 10.75 139: 10.55 140: 12.66 141: 12.00 142: 11.48 143: 11.55 144: 11.51
 145: 11.50 146: 11.60 147: 11.47 148: 11.66 149: 11.51 150: 11.72 151:  1.75 152:  1.75
 153:  1.79 154:  1.79 155:  1.80 156:  1.85 157:  1.84 158:  1.76 159:  1.77 160:  1.90
 161:  1.90 162:  1.81 163:  1.88 164:  1.88 165:  1.82 166:  1.83 167:  1.87 168:  1.87
 169:  1.86 170:  1.89 171:  1.89
 IR intensities (km·mol⁻¹)
   1:  0.01   2:  0.02   3:  0.02   4:  0.01   5:  0.04   6:  0.01   7:  0.07   8:  0.10
   9:  0.04  10:  0.11  11:  0.59  12:  0.10  13:  0.77  14:  1.09  15:  0.76  16:  0.19
  17:  0.86  18:  0.12  19:  0.50  20:  2.69  21:  1.70  22:  0.22  23:  1.70  24:  4.59
  25:  1.21  26:  1.42  27:  0.35  28:  0.64  29:  7.76  30:  0.24  31:  0.71  32:  0.10
  33:  0.60  34:  9.81  35:  3.19  36:  4.99  37:  2.08  38:  5.08  39:  7.24  40:  2.36
  41:  2.30  42:  8.83  43:  3.64  44:  0.67  45:  0.37  46:  0.46  47:  1.02  48:  6.58
  49:  0.33  50:  0.55  51:  0.09  52:  1.32  53:  1.77  54:  7.67  55:  1.83  56:  1.76
  57:  0.88  58: 10.56  59:  8.74  60:  0.85  61:  3.69  62:  2.50  63:  1.51  64: 22.00
  65:  7.14  66: 28.90  67: 51.32  68: 19.93  69: 18.05  70:  1.90  71: 10.70  72:  5.77
  73:  0.32  74:  1.90  75:  5.01  76:  1.22  77:  2.52  78:  1.67  79:  1.65  80:  0.03
  81:  0.39  82:  2.53  83:  2.18  84: 29.42  85:  0.75  86:  2.66  87:  0.35  88:  0.02
  89:  0.05  90: 13.61  91:  8.92  92:  8.47  93:  4.51  94:  4.82  95:  0.16  96:  5.58
  97:  9.62  98: 21.95  99:  2.19 100:  8.83 101:  1.27 102:  1.69 103: 13.40 104:  8.55
 105:  0.93 106:  0.10 107:  0.32 108:  0.83 109:  7.90 110:  1.12 111: 95.56 112: 15.35
 113: 53.47 114: 37.40 115: 56.33 116:  1.18 117: 47.24 118: 55.96 119: 10.24 120:299.17
 121: 61.46 122:189.70 123:  3.13 124:  0.80 125: 51.15 126:150.12 127:  3.79 128:107.93
 129: 56.47 130:  4.24 131:  3.58 132:  5.16 133: 12.16 134:  0.76 135: 67.29 136: 10.79
 137: 27.90 138:575.72 139: 38.24 140: 40.42 141:  1.52 142:  8.51 143: 14.18 144:  2.61
 145:  4.27 146:149.12 147:  0.65 148: 82.56 149:  0.04 150:  3.10 151:  3.22 152:  0.98
 153:  4.06 154:  6.05 155: 12.75 156:116.17 157: 22.95 158:  6.13 159:  4.04 160: 34.21
 161:122.71 162: 37.26 163: 16.64 164: 11.27 165: 43.34 166: 13.47 167: 13.99 168: 42.39
 169: 36.95 170: 24.29 171: 46.51
 Raman intensities (Ä⁴*amu⁻¹)
   1:  0.00   2:  0.00   3:  0.00   4:  0.00   5:  0.00   6:  0.00   7:  0.00   8:  0.00
   9:  0.00  10:  0.00  11:  0.00  12:  0.00  13:  0.00  14:  0.00  15:  0.00  16:  0.00
  17:  0.00  18:  0.00  19:  0.00  20:  0.00  21:  0.00  22:  0.00  23:  0.00  24:  0.00
  25:  0.00  26:  0.00  27:  0.00  28:  0.00  29:  0.00  30:  0.00  31:  0.00  32:  0.00
  33:  0.00  34:  0.00  35:  0.00  36:  0.00  37:  0.00  38:  0.00  39:  0.00  40:  0.00
  41:  0.00  42:  0.00  43:  0.00  44:  0.00  45:  0.00  46:  0.00  47:  0.00  48:  0.00
  49:  0.00  50:  0.00  51:  0.00  52:  0.00  53:  0.00  54:  0.00  55:  0.00  56:  0.00
  57:  0.00  58:  0.00  59:  0.00  60:  0.00  61:  0.00  62:  0.00  63:  0.00  64:  0.00
  65:  0.00  66:  0.00  67:  0.00  68:  0.00  69:  0.00  70:  0.00  71:  0.00  72:  0.00
  73:  0.00  74:  0.00  75:  0.00  76:  0.00  77:  0.00  78:  0.00  79:  0.00  80:  0.00
  81:  0.00  82:  0.00  83:  0.00  84:  0.00  85:  0.00  86:  0.00  87:  0.00  88:  0.00
  89:  0.00  90:  0.00  91:  0.00  92:  0.00  93:  0.00  94:  0.00  95:  0.00  96:  0.00
  97:  0.00  98:  0.00  99:  0.00 100:  0.00 101:  0.00 102:  0.00 103:  0.00 104:  0.00
 105:  0.00 106:  0.00 107:  0.00 108:  0.00 109:  0.00 110:  0.00 111:  0.00 112:  0.00
 113:  0.00 114:  0.00 115:  0.00 116:  0.00 117:  0.00 118:  0.00 119:  0.00 120:  0.00
 121:  0.00 122:  0.00 123:  0.00 124:  0.00 125:  0.00 126:  0.00 127:  0.00 128:  0.00
 129:  0.00 130:  0.00 131:  0.00 132:  0.00 133:  0.00 134:  0.00 135:  0.00 136:  0.00
 137:  0.00 138:  0.00 139:  0.00 140:  0.00 141:  0.00 142:  0.00 143:  0.00 144:  0.00
 145:  0.00 146:  0.00 147:  0.00 148:  0.00 149:  0.00 150:  0.00 151:  0.00 152:  0.00
 153:  0.00 154:  0.00 155:  0.00 156:  0.00 157:  0.00 158:  0.00 159:  0.00 160:  0.00
 161:  0.00 162:  0.00 163:  0.00 164:  0.00 165:  0.00 166:  0.00 167:  0.00 168:  0.00
 169:  0.00 170:  0.00 171:  0.00
 output can be read by thermo (or use thermo option).
 writing <g98.out> molden fake output.
 recommended (thermochemical) frequency scaling factor: 1.0
           -------------------------------------------------
          |             Thermodynamic Functions             |
           -------------------------------------------------

Molecule has no symmetry elements
It seems to be the C1 point group
c1  symmetry found (for desy threshold:  0.10E+00) used in thermo

          ...................................................
          :                      SETUP                      :
          :.................................................:
          :  # frequencies                         165      :
          :  # imaginary freq.                       0      :
          :  linear?                             false      :
          :  only rotor calc.                    false      :
          :  symmetry                               c1      :
          :  rotational number                       1      :
          :  scaling factor                  1.0000000      :
          :  rotor cutoff                   50.0000000 cm⁻¹ :
          :  imag. cutoff                  -20.0000000 cm⁻¹ :
          :.................................................:

    mode    ω/cm⁻¹     T·S(HO)/kcal·mol⁻¹    T·S(FR)/kcal·mol⁻¹   T·S(vib)
   ------------------------------------------------------------------------
       1     13.56    -2.20815 (  0.54%)    -1.44309 ( 99.46%)    -1.44721
       2     19.24    -2.00100 (  2.14%)    -1.33948 ( 97.86%)    -1.35366
       3     24.15    -1.86642 (  5.16%)    -1.27213 ( 94.84%)    -1.30280
       4     39.90    -1.56944 ( 28.86%)    -1.12336 ( 71.14%)    -1.25209
       5     44.69    -1.50249 ( 38.97%)    -1.08977 ( 61.03%)    -1.25059
       6     49.55    -1.44166 ( 49.09%)    -1.05923 ( 50.91%)    -1.24697
       7     60.21    -1.32684 ( 67.77%)    -1.00149 ( 32.23%)    -1.22199
       8     62.67    -1.30334 ( 71.16%)    -0.98965 ( 28.84%)    -1.21287
       9     79.01    -1.16736 ( 86.18%)    -0.92100 ( 13.82%)    -1.13331
      10     82.31    -1.14338 ( 88.02%)    -0.90886 ( 11.98%)    -1.11528
      11    115.23    -0.94779 ( 96.58%)    -0.80922 (  3.42%)    -0.94305
      12    140.10    -0.83556 ( 98.40%)    -0.75132 (  1.60%)    -0.83422
      13    143.87    -0.82044 ( 98.56%)    -0.74345 (  1.44%)    -0.81933
      14    169.31    -0.72842 ( 99.25%)    -0.69522 (  0.75%)    -0.72817
      15    182.48    -0.68660 ( 99.44%)    -0.67302 (  0.56%)    -0.68652
      16    220.47    -0.58296 ( 99.74%)    -0.61701 (  0.26%)    -0.58305
      17    237.57    -0.54292 ( 99.80%)    -0.59487 (  0.20%)    -0.54303
      18    247.58    -0.52109 ( 99.83%)    -0.58265 (  0.17%)    -0.52119
      19    254.30    -0.50702 ( 99.85%)    -0.57471 (  0.15%)    -0.50713
      20    262.54    -0.49040 ( 99.87%)    -0.56527 (  0.13%)    -0.49050
      21    272.83    -0.47055 ( 99.89%)    -0.55388 (  0.11%)    -0.47064
      22    294.72    -0.43134 ( 99.92%)    -0.53101 (  0.08%)    -0.43142
   ------------------------------------------------------------------------

   temp. (K)  partition function   enthalpy   heat capacity  entropy
                                   cal/mol     cal/K/mol   cal/K/mol   J/K/mol
 298.15  VIB  0.556E+12            15666.778    101.717     96.229
         ROT  0.369E+08              888.752      2.981     37.608
         INT  0.205E+20            16555.530    104.698    133.837
         TR   0.966E+28             1481.254      4.968     44.270
         TOT                       18036.7842   109.6659   178.1061   745.1960

       T/K    H(0)-H(T)+PV         H(T)/Eh          T*S/Eh         G(T)/Eh
   ------------------------------------------------------------------------
    298.15    0.287434E-01    0.459312E+00    0.846240E-01    0.374688E+00
   ------------------------------------------------------------------------

         :::::::::::::::::::::::::::::::::::::::::::::::::::::
         ::                  THERMODYNAMIC                  ::
         :::::::::::::::::::::::::::::::::::::::::::::::::::::
         :: total free energy         -91.708724872888 Eh   ::
         ::.................................................::
         :: total energy              -92.083413201543 Eh   ::
         :: zero point energy           0.430568851583 Eh   ::
         :: G(RRHO) w/o ZPVE           -0.055880522928 Eh   ::
         :: G(RRHO) contrib.            0.374688328655 Eh   ::
         :::::::::::::::::::::::::::::::::::::::::::::::::::::

optimized geometry written to: xtbopt.xyz


           -------------------------------------------------
          | TOTAL ENERGY              -92.083413201543 Eh   |
          | TOTAL ENTHALPY            -91.624100904693 Eh   |
          | TOTAL FREE ENERGY         -91.708724872888 Eh   |
          | GRADIENT NORM               0.000026203190 Eh/α |
          | HOMO-LUMO GAP               1.278284326406 eV   |
           -------------------------------------------------

------------------------------------------------------------------------
 * finished run on 2025/08/30 at 12:38:34.592     
------------------------------------------------------------------------
 total:
 * wall-time:     0 d,  0 h,  0 min,  2.176 sec
 *  cpu-time:     0 d,  0 h,  1 min, 17.971 sec
 * ratio c/w:    35.825 speedup
 SCF:
 * wall-time:     0 d,  0 h,  0 min,  0.120 sec
 *  cpu-time:     0 d,  0 h,  0 min,  4.201 sec
 * ratio c/w:    35.019 speedup
 ANC optimizer:
 * wall-time:     0 d,  0 h,  0 min,  0.299 sec
 *  cpu-time:     0 d,  0 h,  0 min, 11.629 sec
 * ratio c/w:    38.877 speedup
 analytical hessian:
 * wall-time:     0 d,  0 h,  0 min,  1.658 sec
 *  cpu-time:     0 d,  0 h,  0 min, 58.697 sec
 * ratio c/w:    35.396 speedup

