$hessian                                                                        
        0.2183274794   0.4412268201  -0.1460960928  -0.2220765542  -0.4141438640
        0.1365510033   0.0014330055  -0.0294825286   0.0096192000   0.0059805465
        0.0046922949   0.0021632911  -0.0012725442  -0.0022516469   0.0027794732
       -0.0002810932   0.0006703986  -0.0010919554   0.0007206702   0.0005055943
       -0.0000622351   0.0000985376  -0.0006834313   0.0001143128   0.0000841486
       -0.0000301537  -0.0000092006   0.0000475237  -0.0000545697   0.0001280577
       -0.0000825496  -0.0001973852   0.0001605087   0.0003053117   0.0000082255
       -0.0000156079  -0.0007119866  -0.0000747122  -0.0000428046   0.0001733733
        0.0013144471   0.0002123133   0.0001647229  -0.0012973374  -0.0001920631
        0.0014159981   0.0007908245  -0.0000391841  -0.0014131362   0.0007098638
        0.0001389536   0.0001888523  -0.0012579136  -0.0001550610  -0.0004223658
        0.0011879147   0.0000711503   0.0000809157  -0.0000294952   0.0000357132
        0.0006388228   0.0000742840   0.0000317607  -0.0001313766  -0.0001933360
       -0.0001770573   0.0000280901   0.0000047800   0.0000236758  -0.0000600532
       -0.0000386164  -0.0000982108   0.0000804143  -0.0000109274  -0.0000752730
       -0.0000182059   0.0000483786   0.0000992929  -0.0000094027  -0.0000323505
       -0.0001550401   0.0000044644   0.0000496682   0.0001605961   0.0000077743
       -0.0000174548  -0.0001139659   0.0000671186   0.0000186101   0.0000787921
       -0.0000892043   0.0000431460   0.0000737472   0.0000380172   0.0000500362
       -0.0000271426  -0.0001940119   0.0001364154   0.0001676135  -0.0002219020
       -0.0012378269  -0.0000650203  -0.0000510141   0.0013206338   0.0001799868
       -0.0011886153  -0.0009740152  -0.0002816391   0.0014094746  -0.0007811936
       -0.0000042190  -0.0001856487   0.0013579410   0.0001711170   0.0005299286
       -0.0013837599  -0.0001654467  -0.0000358547   0.0001401225  -0.0000169004
        0.0000084776   0.0000899336  -0.0000171672   0.0005722185   0.0004317153
       -0.0003135556  -0.0002951364   0.0006926786   0.0000208295  -0.0000701607
       -0.0000306888   0.0000400080  -0.0000443620   0.0000071879   0.0000062606
        0.0000718880   0.0000371132  -0.0000124571  -0.0000371323   0.0001182548
       -0.0000088814  -0.0000510909  -0.0001638499   0.0000092947   0.0000557418
        0.0001420119  -0.0000047778   0.0000329940  -0.0001376446   0.0000087477
       -0.0000337323   0.0001245020  -0.0000055281  -0.0000334706  -0.0001135198
       -0.0000035982   0.0000274668  -0.0000211931   0.0000012792  -0.0001134227
       -0.0000537795   0.0000220082  -0.0000016119   0.0000012556  -0.0000035298
       -0.0007320588  -0.0006212722   0.0000020600  -0.0008888476  -0.0005444970
        0.0009294170   0.0001278536  -0.0002440304   0.0004283631  -0.0006359671
       -0.0007101862  -0.0002880382   0.0001083809   0.0012965365  -0.0011300492
        0.0009227356  -0.0003492827   0.0008620192  -0.0030378965  -0.0011445641
       -0.0050324160   0.0004381844   0.0000994843  -0.0001971980   0.0000117190
        0.0000524247   0.0001197029  -0.0001115054   0.0000407031  -0.0000766464
        0.0000907191  -0.0000095470  -0.0000365818  -0.0000238136  -0.0001303887
        0.0000022057  -0.0000283191   0.0001988134   0.0001427574  -0.0000023558
        0.0000913617   0.0000362570  -0.0001515919  -0.0000200994   0.0000010837
       -0.0000422673  -0.0000171873  -0.0000084903  -0.0000103971   0.0000185593
        0.0000554767   0.0000314415   0.0000110666   0.0000280654   0.0000288199
        0.0000030019  -0.0000031747   0.0000281674   0.0000069877   0.0000038715
        0.0000308627  -0.0000023803  -0.0000258237  -0.0000025841  -0.0000200374
       -0.0000501456  -0.0000429865  -0.0000094820   0.0000061793  -0.0001106850
        0.0000372114  -0.0000037991  -0.0000511571  -0.0000169027  -0.0000151646
        0.0000419545  -0.0000126915   0.0000151914   0.0000654360   0.0000195260
        0.0000300075   0.0000290852  -0.0000099898  -0.0000424722  -0.0000269083
       -0.0000150339  -0.0000194564   0.0000119781  -0.0000162324   0.0000042403
        0.0000073733  -0.0000405005   0.0000025956  -0.0000293288  -0.0000226348
        0.0000066096  -0.0000204672  -0.0000010805   0.0000024463  -0.0000247419
       -0.0000181147   0.0000112918  -0.0000305998   0.0000168710   0.0000120877
        0.0000143668   0.0000478452   0.0000023100   0.0000345194   0.0001192727
        0.0000338381   0.0000215534   0.0001005925   0.0000667716   0.0000183905
        0.0000809696  -0.0000886464  -0.0000003745   0.0000327480  -0.0000163250
        0.0004729740   0.0004003021   0.0004142065
        0.4412268201   0.9824079613  -0.3195275705  -0.4144957532  -0.9397246704
        0.3000034693  -0.0312777143  -0.0478524792   0.0169015179   0.0105240889
        0.0089677011   0.0086885688  -0.0009877914  -0.0072685489   0.0036647193
       -0.0005921960   0.0017154041  -0.0031949177   0.0007162972   0.0012104440
        0.0003708985   0.0002599906  -0.0012864272   0.0002032203   0.0002960563
       -0.0000345674  -0.0000144531   0.0000798383  -0.0001165550   0.0002171430
       -0.0000680913  -0.0003310269   0.0001794850   0.0005497314   0.0000237298
       -0.0000219116  -0.0015778473  -0.0001917479  -0.0000780712   0.0004030260
        0.0029757341   0.0004776797   0.0003069342  -0.0029790539  -0.0003671035
        0.0029430538   0.0021066017   0.0001321656  -0.0031812114   0.0016360213
        0.0003477497   0.0005228238  -0.0028662547  -0.0003569184  -0.0009746998
        0.0026090970   0.0001213612   0.0001420556  -0.0000355738   0.0000723690
        0.0014836278   0.0001243795   0.0000862114  -0.0003058612  -0.0004292252
       -0.0004046753   0.0000611847   0.0000034242   0.0000800370  -0.0001234782
       -0.0000796866  -0.0002204999   0.0001802682  -0.0000348182  -0.0001904279
       -0.0000525443   0.0001214745   0.0002455983  -0.0000006721  -0.0000890416
       -0.0003643021   0.0000186813   0.0001269117   0.0003719405   0.0000078520
       -0.0000557468  -0.0002716891   0.0001465168   0.0000495952   0.0001986658
       -0.0001898392   0.0000825202   0.0001663019   0.0000684109   0.0000798966
       -0.0000823283  -0.0004319505   0.0003286551   0.0003655707  -0.0004916889
       -0.0027546687  -0.0001376313  -0.0000407689   0.0029922989   0.0004222766
       -0.0026822725  -0.0022815586  -0.0006514572   0.0031871375  -0.0018085379
       -0.0000017565  -0.0004793845   0.0030342115   0.0003884116   0.0011453520
       -0.0030187019  -0.0003805020  -0.0000634207   0.0002864344  -0.0000230352
       -0.0000055026   0.0001742980   0.0000043567   0.0010861924   0.0009823276
       -0.0007083194  -0.0007496205   0.0015187962   0.0000456640  -0.0001000340
       -0.0000267714   0.0000702084  -0.0001160441  -0.0000115604   0.0000154021
        0.0001809481   0.0000922344  -0.0000259126  -0.0001058082   0.0003022220
       -0.0000205195  -0.0001138070  -0.0003889491   0.0000269037   0.0001122157
        0.0003426690  -0.0000078551   0.0000566079  -0.0003178555   0.0000180438
       -0.0000622174   0.0003370887  -0.0000120746  -0.0000807005  -0.0002509672
       -0.0000042080   0.0001051814  -0.0001899722  -0.0000194233  -0.0003509359
       -0.0000990023   0.0000509378   0.0001089315  -0.0000598248  -0.0000250476
       -0.0015396094  -0.0015112510   0.0001052264  -0.0005260586  -0.0015719077
       -0.0003101170   0.0005330871  -0.0002508679   0.0011094146  -0.0015828323
       -0.0016665490  -0.0004234897   0.0001130413   0.0025243445  -0.0024681724
        0.0018599944   0.0006011561   0.0029772354  -0.0054045783   0.0016947026
       -0.0087926688  -0.0002489596   0.0003207399  -0.0001735574   0.0000502810
       -0.0004156081   0.0001802993  -0.0000964816   0.0001063227  -0.0001253698
        0.0000648459   0.0000376372  -0.0000019230   0.0000345969  -0.0001514133
       -0.0000679237  -0.0000550269   0.0002425712   0.0000707090  -0.0000534407
        0.0001210940   0.0000411610  -0.0002916405  -0.0000690891  -0.0000180802
       -0.0000831512  -0.0000290330  -0.0000356982  -0.0000248045   0.0000435994
        0.0001162773   0.0000739790   0.0000296348   0.0000677483   0.0000691417
        0.0000118509  -0.0000080316   0.0000696032   0.0000182673   0.0000083750
        0.0000743546  -0.0000017561  -0.0000633040  -0.0000076926  -0.0000368379
       -0.0001045271  -0.0000793877  -0.0000010219   0.0000238485  -0.0002279530
        0.0000738511  -0.0000061931  -0.0000988904  -0.0000406595  -0.0000344897
        0.0000856825  -0.0000360160   0.0000303532   0.0001455729   0.0000501574
        0.0000626582   0.0000527056  -0.0000463948  -0.0000723328  -0.0000603514
       -0.0000522590  -0.0000193007   0.0000236389  -0.0000216608   0.0000084318
        0.0000122501  -0.0000847805   0.0000069355  -0.0000696181  -0.0000497794
        0.0000148395  -0.0000638745  -0.0000062556   0.0000059796  -0.0000570358
       -0.0000223241   0.0000218849  -0.0000904043   0.0000493555   0.0000285609
       -0.0000544192   0.0001797774   0.0000255756   0.0001487587   0.0001470516
        0.0000810189   0.0001860663   0.0001343026  -0.0000665928  -0.0000035051
        0.0000785857  -0.0001567513   0.0000268487  -0.0000236824  -0.0001280534
        0.0008772981  -0.0004241931   0.0012657768
       -0.1460960928  -0.3195275705   0.1225020891   0.1369339047   0.3006191417
       -0.1326810666   0.0111627214   0.0193300019   0.0119494955  -0.0035511766
       -0.0001957601  -0.0037444438   0.0018091544   0.0022009414  -0.0011631100
        0.0003596485  -0.0006152331   0.0011442733  -0.0004980984  -0.0002968688
        0.0000986367  -0.0000596589   0.0004457612  -0.0000877964  -0.0000740325
        0.0000110900   0.0000166535  -0.0000650296   0.0000692831  -0.0001098251
        0.0000497662   0.0001340852  -0.0000793128  -0.0002037696  -0.0000096815
        0.0000065075   0.0005138777   0.0000724953   0.0000386991  -0.0001301745
       -0.0009524785  -0.0001554599  -0.0001256890   0.0009754308   0.0001389143
       -0.0008956527  -0.0007744903  -0.0000589463   0.0009911904  -0.0004765332
       -0.0000936867  -0.0001542313   0.0009119973   0.0001209343   0.0002800877
       -0.0008082035  -0.0000347839  -0.0000428404   0.0000099749  -0.0000201619
       -0.0004830967  -0.0000315661  -0.0000094662   0.0000925743   0.0001373800
        0.0001311829  -0.0000177416   0.0000039594  -0.0000242726   0.0000523369
        0.0000281968   0.0000777133  -0.0000648588   0.0000117063   0.0000679869
        0.0000136637  -0.0000459891  -0.0000883106   0.0000146526   0.0000365122
        0.0001319611  -0.0000103409  -0.0000511042  -0.0001310476   0.0000022556
        0.0000189255   0.0000940100  -0.0000513935  -0.0000175035  -0.0000673317
        0.0000692360  -0.0000314071  -0.0000638960  -0.0000340984  -0.0000349301
        0.0000231265   0.0001708356  -0.0001099388  -0.0001466255   0.0001405518
        0.0008695470   0.0000347179   0.0000373328  -0.0009429172  -0.0001253274
        0.0008682865   0.0006978351   0.0002015151  -0.0010293174   0.0005595135
       -0.0000016835   0.0001233450  -0.0009676891  -0.0001218307  -0.0003599039
        0.0009846401   0.0001235745   0.0000319251  -0.0001077124   0.0000264044
       -0.0000141936  -0.0000696882   0.0000216112  -0.0003732114  -0.0002626698
        0.0002399819   0.0002163326  -0.0005228977  -0.0000197720   0.0000436214
        0.0000128484  -0.0000243837   0.0000421852  -0.0000015775  -0.0000023007
       -0.0000602592  -0.0000379815   0.0000112476   0.0000288184  -0.0001020072
        0.0000089013   0.0000376930   0.0001355647  -0.0000053711  -0.0000417533
       -0.0001146721   0.0000041777  -0.0000163770   0.0001094078  -0.0000042502
        0.0000190993  -0.0001109369   0.0000076394   0.0000257762   0.0000899818
        0.0000070061  -0.0000217549   0.0000521554   0.0000169688   0.0001015248
        0.0000275767   0.0000005951  -0.0000179628   0.0000155059   0.0000086151
        0.0005383400   0.0004763282  -0.0000201974   0.0010072476  -0.0002157742
        0.0005241948  -0.0003515310  -0.0001515358  -0.0003570147   0.0004693887
        0.0006153448   0.0000937778   0.0001114761  -0.0005101548   0.0006777248
       -0.0014994872  -0.0005256753  -0.0010250418  -0.0007567497  -0.0023649546
        0.0023760631   0.0001196021   0.0003330235   0.0003561958   0.0001500502
        0.0003280460  -0.0001211434   0.0000800476  -0.0000169583   0.0000339427
       -0.0000667186  -0.0000071799  -0.0000037217  -0.0000061397   0.0000107668
        0.0000004801   0.0000545973  -0.0000653554  -0.0000147054   0.0000365379
       -0.0000358663  -0.0000179417   0.0000830159   0.0000305285   0.0000053659
        0.0000261771   0.0000044567   0.0000094591   0.0000095299  -0.0000168296
       -0.0000335871  -0.0000241675  -0.0000116522  -0.0000202631  -0.0000255233
       -0.0000050154   0.0000039682  -0.0000234858  -0.0000052337  -0.0000019682
       -0.0000269730   0.0000021571   0.0000234004   0.0000002587   0.0000177983
        0.0000432250   0.0000320261   0.0000046757  -0.0000069954   0.0000699907
       -0.0000254106  -0.0000013236   0.0000303129   0.0000207114   0.0000104934
       -0.0000257635   0.0000200196  -0.0000101289  -0.0000367946  -0.0000133062
       -0.0000222067  -0.0000162672   0.0000054258   0.0000306172   0.0000235469
        0.0000088623   0.0000135087  -0.0000087837   0.0000078263  -0.0000050759
       -0.0000039359   0.0000307343  -0.0000038222   0.0000251770   0.0000174644
       -0.0000061060   0.0000221229   0.0000003779  -0.0000025262   0.0000211964
        0.0000098011  -0.0000076534   0.0000313993  -0.0000166592  -0.0000095441
        0.0000046026  -0.0000565514  -0.0000144495  -0.0000509785  -0.0000672288
       -0.0000446956   0.0000395870  -0.0000983629   0.0000847497   0.0000406693
        0.0000326723   0.0000366615   0.0000657064   0.0000055041   0.0000756872
        0.0000910042   0.0008757282  -0.0008400806
       -0.2220765542  -0.4144957532   0.1369339047   0.3218975868   0.5165644047
       -0.1552465838  -0.0849619310  -0.0712564030   0.0213113716  -0.0235585388
       -0.0320311704  -0.0023176900   0.0025396604   0.0008386005  -0.0098230331
        0.0005234489  -0.0015067176   0.0016826572  -0.0018788549  -0.0002277151
        0.0005865381  -0.0000585723   0.0010621287  -0.0001874576  -0.0001406955
        0.0000543391   0.0000090798  -0.0000684906   0.0001136466  -0.0002104230
        0.0001159749   0.0002844172  -0.0001858245  -0.0004741924  -0.0000193644
        0.0000446471   0.0011629492   0.0001147625   0.0000739287  -0.0003055883
       -0.0021746634  -0.0003445084  -0.0002459552   0.0021792687   0.0003312626
       -0.0022703540  -0.0014349608  -0.0000186818   0.0023475693  -0.0012299077
       -0.0002662296  -0.0003611674   0.0021317998   0.0002772933   0.0007309945
       -0.0019741745  -0.0000983192  -0.0001196922   0.0000286337  -0.0000566500
       -0.0010643147  -0.0001349914  -0.0000572796   0.0001930776   0.0003614653
        0.0002595653  -0.0000330202  -0.0000356142  -0.0000600636   0.0000646795
        0.0000546199   0.0001388431  -0.0001034897   0.0000208586   0.0001326527
        0.0000554973  -0.0000586739  -0.0001549762  -0.0000229654   0.0000324530
        0.0002298167  -0.0000405586  -0.0000529431  -0.0002378952   0.0000190437
        0.0000419590   0.0001722274  -0.0000823819  -0.0000311449  -0.0001390876
        0.0001075723  -0.0000514193  -0.0001045126  -0.0000458066  -0.0000586891
        0.0000607341   0.0002877681  -0.0002746480  -0.0002437915   0.0003737494
        0.0020673485   0.0001358806   0.0000454028  -0.0022266783  -0.0003257488
        0.0019869226   0.0016662610   0.0004970022  -0.0023450234   0.0013249156
        0.0000003128   0.0003396865  -0.0022610599  -0.0003022094  -0.0008729851
        0.0022478075   0.0002755377   0.0001107190  -0.0002126636  -0.0000059691
       -0.0000290778  -0.0001437844   0.0000188124  -0.0008059092  -0.0005486071
        0.0004289707   0.0003919159  -0.0010991107  -0.0000445260   0.0000865082
        0.0000125870  -0.0000637997   0.0000660020  -0.0000143579  -0.0000083042
       -0.0001205867  -0.0000560799   0.0000206041   0.0000711394  -0.0002013843
        0.0000139913   0.0000734973   0.0002573513  -0.0000160686  -0.0000850115
       -0.0002271275   0.0000065788  -0.0000429136   0.0002309415  -0.0000098829
        0.0000384395  -0.0002082861   0.0000114986   0.0000541387   0.0001740726
        0.0000055808  -0.0000444436   0.0000662783   0.0000066799   0.0001814739
        0.0000505951  -0.0000169845  -0.0000512289   0.0000384519   0.0000070244
        0.0010676623   0.0008659363   0.0000113516   0.0039465302   0.0005127414
       -0.0028657533  -0.0004205699   0.0003835415  -0.0008852776   0.0012383147
        0.0016781028   0.0005547824  -0.0002377617  -0.0025091215   0.0023645438
       -0.0026892065   0.0020478518  -0.0036425778   0.0077322552   0.0007329063
        0.0111451329  -0.0015713421   0.0006893258   0.0016917796  -0.0003454745
       -0.0010130254  -0.0000103207   0.0001079383  -0.0000875956   0.0001457417
       -0.0001177655  -0.0000055252   0.0000437241   0.0000311763   0.0001747565
        0.0000117775   0.0000210032  -0.0002766657  -0.0001435917   0.0000326893
       -0.0001016616  -0.0000409125   0.0002239291   0.0000338255   0.0000071517
        0.0000539659   0.0000259449   0.0000222990   0.0000147591  -0.0000265321
       -0.0000805387  -0.0000487022  -0.0000155713  -0.0000454707  -0.0000465361
       -0.0000048485   0.0000032029  -0.0000464239  -0.0000077950  -0.0000064234
       -0.0000492144   0.0000051790   0.0000397951   0.0000026337   0.0000304363
        0.0000719262   0.0000563597   0.0000082122  -0.0000179479   0.0001609119
       -0.0000513962  -0.0000029008   0.0000690830   0.0000268820   0.0000230868
       -0.0000568422   0.0000230578  -0.0000241498  -0.0000960871  -0.0000258279
       -0.0000450068  -0.0000430088   0.0000219100   0.0000652834   0.0000444766
        0.0000235089   0.0000253478  -0.0000186833   0.0000180005  -0.0000089586
       -0.0000095247   0.0000557886  -0.0000064109   0.0000449434   0.0000324152
       -0.0000121017   0.0000359779   0.0000019002  -0.0000052248   0.0000338627
        0.0000224945  -0.0000180874   0.0000540950  -0.0000268651  -0.0000196783
       -0.0000082702  -0.0000911358  -0.0000102405  -0.0000267943  -0.0001682669
       -0.0000898126   0.0001328241  -0.0002016485  -0.0002216530  -0.0000229115
       -0.0001157198   0.0001224022   0.0000653191  -0.0000846902  -0.0000568795
       -0.0008707059  -0.0003726990  -0.0012159060
       -0.4141438640  -0.9397246704   0.3006191417   0.5165644047   1.2031253771
       -0.3705290019  -0.0673395554  -0.2065368952   0.0569027339  -0.0363940067
       -0.0412184970  -0.0141371300  -0.0027989332   0.0142645022  -0.0086034229
        0.0010884127  -0.0031343430   0.0061036717  -0.0004032406  -0.0019055482
       -0.0010434451  -0.0003898791   0.0018998173  -0.0002852896  -0.0004716803
        0.0000834487  -0.0000132841  -0.0000777449   0.0002206559  -0.0003074848
        0.0000752082   0.0005728598  -0.0002370839  -0.0008783491  -0.0000397032
        0.0000859720   0.0024420459   0.0002875385   0.0001349522  -0.0006371383
       -0.0047010464  -0.0007615468  -0.0004803755   0.0047415268   0.0006123914
       -0.0047410760  -0.0032769834  -0.0002059223   0.0050381887  -0.0025298741
       -0.0005721129  -0.0007947869   0.0045684465   0.0005937558   0.0015219857
       -0.0041731163  -0.0001803716  -0.0002356238   0.0000419816  -0.0001158841
       -0.0023243516  -0.0002596723  -0.0001309211   0.0004425765   0.0007894255
        0.0005876562  -0.0000876623  -0.0000695185  -0.0001411337   0.0001584751
        0.0001240321   0.0003258697  -0.0002375855   0.0000494164   0.0003066792
        0.0001195500  -0.0001426268  -0.0003696917  -0.0000426371   0.0000900705
        0.0005280738  -0.0000763341  -0.0001325906  -0.0005426971   0.0000363110
        0.0001033624   0.0004039768  -0.0001864425  -0.0000747568  -0.0003217428
        0.0002479840  -0.0001077107  -0.0002435720  -0.0000953653  -0.0001151896
        0.0001407405   0.0006485982  -0.0006116237  -0.0005484181   0.0007710077
        0.0043900431   0.0002762503   0.0000799844  -0.0047670759  -0.0006983057
        0.0042532913   0.0035774958   0.0010622995  -0.0050290532   0.0028443700
       -0.0000053450   0.0007493842  -0.0048153311  -0.0006468828  -0.0018267011
        0.0047384024   0.0006067594   0.0001608675  -0.0004587708  -0.0000368985
        0.0000171732  -0.0003068977  -0.0000036215  -0.0016510931  -0.0016961968
        0.0010874277   0.0011569020  -0.0022698669  -0.0000635682   0.0001270634
        0.0000335123  -0.0000962712   0.0001794533   0.0000012195  -0.0000201336
       -0.0002889656  -0.0001345131   0.0000377880   0.0001699795  -0.0004714576
        0.0000308528   0.0001641664   0.0005850013  -0.0000471396  -0.0001815700
       -0.0005285589   0.0000117548  -0.0000665812   0.0004964021  -0.0000162371
        0.0000601609  -0.0005038579   0.0000225139   0.0001302717   0.0003920022
        0.0000039858  -0.0001401684   0.0002471420   0.0000340714   0.0005436313
        0.0001877057  -0.0000696943  -0.0001998192   0.0001493681   0.0000291654
        0.0023012048   0.0024022882  -0.0002882572   0.0012416932   0.0030345339
        0.0045076423  -0.0013926038  -0.0005245219  -0.0017073897   0.0028325706
        0.0030443259   0.0006714207  -0.0003088433  -0.0048468453   0.0043482584
       -0.0039018979  -0.0008693203  -0.0071260354   0.0034279328  -0.0251700831
        0.0302054467   0.0022376429  -0.0002294452   0.0003834360  -0.0004319721
       -0.0001376467  -0.0000846464   0.0000929352  -0.0001585775   0.0002021151
       -0.0000944035  -0.0000481577  -0.0000022537  -0.0000596460   0.0002253144
        0.0001158305   0.0000856917  -0.0003890805  -0.0001384837   0.0000707624
       -0.0001866341  -0.0000730378   0.0004338990   0.0000979283   0.0000288006
        0.0001167078   0.0000496877   0.0000555271   0.0000315967  -0.0000611460
       -0.0001761557  -0.0001105511  -0.0000362156  -0.0001016019  -0.0001044994
       -0.0000141638   0.0000068010  -0.0001055027  -0.0000170877  -0.0000135528
       -0.0001125806   0.0000092044   0.0000894651   0.0000053802   0.0000641552
        0.0001567433   0.0001157507   0.0000065549  -0.0000412688   0.0003311160
       -0.0001037424  -0.0000081722   0.0001386771   0.0000700727   0.0000507517
       -0.0001202127   0.0000609940  -0.0000487316  -0.0002094659  -0.0000641976
       -0.0000923961  -0.0000782838   0.0000766968   0.0001188399   0.0000913302
        0.0000870313   0.0000254999  -0.0000360926   0.0000322862  -0.0000153964
       -0.0000164757   0.0001210282  -0.0000143982   0.0001027128   0.0000699059
       -0.0000235458   0.0000945969   0.0000069657  -0.0000100736   0.0000784258
        0.0000299677  -0.0000321891   0.0001237539  -0.0000758254  -0.0000417535
        0.0000630188  -0.0002747583  -0.0000339230  -0.0001980175  -0.0003027148
       -0.0001502402  -0.0003426572  -0.0002237372   0.0003827388  -0.0000099444
       -0.0001143563   0.0002355539  -0.0001474621   0.0001238704   0.0001105118
       -0.0009627803   0.0003372128  -0.0010261101
        0.1365510033   0.3000034693  -0.1326810666  -0.1552465838  -0.3705290019
        0.2188319736   0.0180964434   0.0514091463  -0.0753704898   0.0019156631
       -0.0072443382   0.0098899865  -0.0066870760  -0.0044528085   0.0030876696
       -0.0010409098   0.0011632920  -0.0023409747   0.0012940192   0.0001481498
       -0.0003507657   0.0000143602  -0.0007637179   0.0000958297   0.0001018377
       -0.0000389030  -0.0000119996   0.0000961161  -0.0000992175   0.0001618148
       -0.0000305736  -0.0002067893   0.0000969267   0.0003613234   0.0000137463
       -0.0000285363  -0.0008218069  -0.0001036626  -0.0000590948   0.0001991230
        0.0015315496   0.0002466952   0.0001939524  -0.0016124730  -0.0002206328
        0.0015085154   0.0011934947   0.0000948726  -0.0016324620   0.0007955069
        0.0001748411   0.0002733625  -0.0015155230  -0.0002030691  -0.0004596707
        0.0013160967   0.0000533501   0.0000732995  -0.0000061520   0.0000397635
        0.0007598156   0.0000806255   0.0000337728  -0.0001537444  -0.0002657520
       -0.0002094984   0.0000297590   0.0000184571   0.0000437869  -0.0000772440
       -0.0000446607  -0.0001167517   0.0000942063  -0.0000135400  -0.0001003057
       -0.0000293380   0.0000528624   0.0001306018  -0.0000006821  -0.0000378226
       -0.0001890583   0.0000182811   0.0000522284   0.0001926502  -0.0000033305
       -0.0000355007  -0.0001417505   0.0000748251   0.0000238990   0.0001038951
       -0.0001072733   0.0000381302   0.0000927650   0.0000458071   0.0000451742
       -0.0000428961  -0.0002442908   0.0002087995   0.0002091023  -0.0002317738
       -0.0014102945  -0.0000818950  -0.0000535795   0.0015624504   0.0002218428
       -0.0014066003  -0.0011478928  -0.0003415630   0.0016538905  -0.0009130635
        0.0000042927  -0.0002066346   0.0015951301   0.0002181290   0.0005786191
       -0.0015709354  -0.0002031465  -0.0000523185   0.0001716532  -0.0000021856
        0.0000355490   0.0001004349   0.0000027211   0.0006184945   0.0003548024
       -0.0003018838  -0.0003180709   0.0008559920   0.0000174149  -0.0000758808
       -0.0000186538   0.0000498158  -0.0000579285   0.0000083570   0.0000068266
        0.0000933539   0.0000523294  -0.0000167601  -0.0000502499   0.0001575763
       -0.0000114037  -0.0000566116  -0.0002071755   0.0000124600   0.0000669085
        0.0001769244  -0.0000049263   0.0000456600  -0.0001671059   0.0000006860
       -0.0000323327   0.0001714325  -0.0000077516  -0.0000460475  -0.0001347913
       -0.0000081054   0.0000421886  -0.0000905301  -0.0000194231  -0.0001527739
       -0.0000382726   0.0000430721   0.0000372273  -0.0000169941  -0.0000115711
       -0.0008180810  -0.0006611116  -0.0000117676  -0.0043078253   0.0026554598
       -0.0035501059   0.0009877182   0.0011837603   0.0001911024  -0.0006027417
       -0.0009450422  -0.0002039549   0.0000837855   0.0010882066  -0.0010529406
        0.0025935739   0.0020359388   0.0001223526   0.0083346602   0.0269096491
       -0.0149121823   0.0001477285  -0.0018890280  -0.0010777594  -0.0004614863
       -0.0009490370   0.0002562536  -0.0001186288   0.0000504844  -0.0000970403
        0.0000795099   0.0000179434  -0.0000008711   0.0000277302  -0.0000252035
       -0.0000208098  -0.0000737887   0.0001036561   0.0000314578  -0.0000408838
        0.0000550783   0.0000259819  -0.0001369158  -0.0000394462  -0.0000113768
       -0.0000376887  -0.0000117410  -0.0000151249  -0.0000099002   0.0000220889
        0.0000551705   0.0000348251   0.0000115894   0.0000297433   0.0000352232
        0.0000058575  -0.0000026882   0.0000341909   0.0000048671   0.0000034131
        0.0000371766  -0.0000028644  -0.0000292735   0.0000017979  -0.0000246758
       -0.0000584347  -0.0000406844  -0.0000048950   0.0000109030  -0.0001028869
        0.0000356074   0.0000061641  -0.0000451809  -0.0000304451  -0.0000174537
        0.0000383482  -0.0000296054   0.0000145979   0.0000541921   0.0000136673
        0.0000285467   0.0000232768  -0.0000195728  -0.0000478526  -0.0000404563
       -0.0000213904  -0.0000233574   0.0000126317  -0.0000108549   0.0000059947
        0.0000061281  -0.0000425876   0.0000049670  -0.0000353000  -0.0000241423
        0.0000086381  -0.0000297830  -0.0000002862   0.0000028668  -0.0000271440
       -0.0000130978   0.0000119122  -0.0000463779   0.0000222995   0.0000134354
       -0.0000095486   0.0000827191   0.0000176435   0.0000427395   0.0000945920
        0.0000353341  -0.0002212342   0.0003451448  -0.0003512198  -0.0000456930
       -0.0000375405  -0.0000619882  -0.0001069169  -0.0000083405   0.0000154846
       -0.0008139066  -0.0005638400  -0.0004258146
        0.0014330055  -0.0312777143   0.0111627214  -0.0849619310  -0.0673395554
        0.0180964434   0.3678177341   0.1995974498   0.1789108955  -0.1755395241
       -0.0663753984  -0.1282707292  -0.0215992448  -0.0539752684   0.0166268931
       -0.0153010554   0.0050216669  -0.0242091146   0.0007357429   0.0015333078
        0.0008088365   0.0003412472  -0.0015983777   0.0001914402   0.0002132050
        0.0000014151  -0.0000193254   0.0001432436  -0.0001027002   0.0004150443
        0.0000691304  -0.0003571379   0.0001451298   0.0005559828  -0.0000051833
       -0.0000990028  -0.0014523317  -0.0001691712  -0.0000794310   0.0004037765
        0.0027523596   0.0004669027   0.0004100830  -0.0027980458  -0.0003210178
        0.0027470258   0.0019426193   0.0001832965  -0.0029218927   0.0015173654
        0.0003406353   0.0004413614  -0.0027113132  -0.0003473777  -0.0009468798
        0.0024629614   0.0001620275   0.0003456406  -0.0000152306   0.0000850358
        0.0012145609   0.0001309720   0.0000788372  -0.0002694967  -0.0003917941
       -0.0003615974   0.0000642379   0.0000214285   0.0000509286  -0.0000921623
       -0.0000858412  -0.0001857384   0.0001267205  -0.0000202500  -0.0001407166
       -0.0000550638   0.0000588559   0.0001702730  -0.0000049515  -0.0000365048
       -0.0002601166   0.0000243288   0.0000582400   0.0002746070  -0.0000063519
       -0.0000334548  -0.0001925532   0.0001038274   0.0000246855   0.0001497071
       -0.0001612186   0.0000726806   0.0001384370   0.0000554463   0.0000869584
       -0.0000498847  -0.0003609571   0.0002960947   0.0003157550  -0.0004755900
       -0.0025897333  -0.0002184118  -0.0000826776   0.0028296065   0.0004128135
       -0.0024841160  -0.0020788813  -0.0005905318   0.0029362793  -0.0016953036
       -0.0000120053  -0.0004185339   0.0028746554   0.0003895111   0.0011230863