      -----------------------------------------------------------      
     |                   =====================                   |     
     |                           x T B                           |     
     |                   =====================                   |     
     |                         S. Grimme                         |     
     |          Mulliken Center for Theoretical Chemistry        |     
     |                    University of Bonn                     |     
      -----------------------------------------------------------      

   * xtb version 6.7.1 (edcfbbe) compiled by 'albert@albert-system' on 2024-07-22

   xtb is free software: you can redistribute it and/or modify it under
   the terms of the GNU Lesser General Public License as published by
   the Free Software Foundation, either version 3 of the License, or
   (at your option) any later version.
   
   xtb is distributed in the hope that it will be useful,
   but WITHOUT ANY WARRANTY; without even the implied warranty of
   MERCHANTABILITY or FITNESS FOR A PARTICULAR PURPOSE.  See the
   GNU Lesser General Public License for more details.
   
   Cite this work as:
   * C. Bannwarth, E. Caldeweyher, S. Ehlert, A. Hansen, P. Pracht,
     J. Seibert, S. Spicher, S. Grimme, WIREs Comput. Mol. Sci., 2020, 11,
     e01493. DOI: 10.1002/wcms.1493
   
   for GFN2-xTB:
   * C. Bannwarth, S. Ehlert and S. Grimme., J. Chem. Theory Comput., 2019,
     15, 1652-1671. DOI: 10.1021/acs.jctc.8b01176
   for GFN1-xTB:
   * S. Grimme, C. Bannwarth, P. Shushkov, J. Chem. Theory Comput., 2017,
     13, 1989-2009. DOI: 10.1021/acs.jctc.7b00118
   for GFN0-xTB:
   * P. Pracht, E. Caldeweyher, S. Ehlert, S. Grimme, ChemRxiv, 2019, preprint.
     DOI: 10.26434/chemrxiv.8326202.v1
   for GFN-FF:
   * S. Spicher and S. Grimme, Angew. Chem. Int. Ed., 2020, 59, 15665-15673.
     DOI: 10.1002/anie.202004239
   
   for ALPB and GBSA implicit solvation:
   * S. Ehlert, M. Stahn, S. Spicher, S. Grimme, J. Chem. Theory Comput.,
     2021, 17, 4250-4261. DOI: 10.1021/acs.jctc.1c00471
   
   for ddCOSMO and CPCM-X implicit solvation:
   * M. Stahn, S. Ehlert, S. Grimme, J. Phys. Chem. A,
     2023, XX, XXXX-XXXX. DOI: 10.1021/acs.jpca.3c04382
   
   for DFT-D4:
   * E. Caldeweyher, C. Bannwarth and S. Grimme, J. Chem. Phys., 2017,
     147, 034112. DOI: 10.1063/1.4993215
   * E. Caldeweyher, S. Ehlert, A. Hansen, H. Neugebauer, S. Spicher,
     C. Bannwarth and S. Grimme, J. Chem. Phys., 2019, 150, 154122.
     DOI: 10.1063/1.5090222
   * E. Caldeweyher, J.-M. Mewes, S. Ehlert and S. Grimme, Phys. Chem. Chem. Phys.
     2020, 22, 8499-8512. DOI: 10.1039/D0CP00502A
   
   for sTDA-xTB:
   * S. Grimme and C. Bannwarth, J. Chem. Phys., 2016, 145, 054103.
     DOI: 10.1063/1.4959605
   
   in the mass-spec context:
   * V. Asgeirsson, C. Bauer and S. Grimme, Chem. Sci., 2017, 8, 4879.
     DOI: 10.1039/c7sc00601b
   * J. Koopman and S. Grimme, ACS Omega 2019, 4, 12, 15120-15133.
     DOI: 10.1021/acsomega.9b02011
   
   for metadynamics refer to:
   * S. Grimme, J. Chem. Theory Comput., 2019, 155, 2847-2862
     DOI: 10.1021/acs.jctc.9b00143
   
   for SPH calculations refer to:
   * S. Spicher and S. Grimme, J. Chem. Theory Comput., 2021, 17, 1701-1714
     DOI: 10.1021/acs.jctc.0c01306
   
   for ONIOM refer to:
   * C. Plett, A. Katbashev, S. Ehlert, S. Grimme, M. Bursch,
     Phys. Chem. Chem. Phys., 2023, 25, 17860-17868. DOI: 10.1039/D3CP02178E
   
   for DIPRO refer to:
   * J. Kohn, N. Gildemeister, S. Grimme, D. Fazzi, A. Hansen,
     J. Chem. Phys., 2023, just accepted.
   
   for PTB refer to:
   * S. Grimme, M. Mueller, A. Hansen, J. Chem. Phys., 2023, 158, 124111.
     DOI: 10.1063/5.0137838
   
   with help from (in alphabetical order)
   P. Atkinson, C. Bannwarth, F. Bohle, G. Brandenburg, E. Caldeweyher
   M. Checinski, S. Dohm, S. Ehlert, S. Ehrlich, I. Gerasimov, C. Hölzer
   A. Katbashev, J. Kohn, J. Koopman, C. Lavigne, S. Lehtola, F. März, M. Müller,
   F. Musil, H. Neugebauer, J. Pisarek, C. Plett, P. Pracht, F. Pultar,
   J. Seibert, P. Shushkov, S. Spicher, M. Stahn, M. Steiner, T. Strunk,
   J. Stückrath, T. Rose, and J. Unsleber
   
 * started run on 2025/09/11 at 05:01:54.743     
   ID    Z sym.   atoms
    1    6 C      1-4, 6-17, 19-30, 32-37, 39-46
    2    7 N      5, 18, 38
    3    5 B      31
    4    1 H      47-76

           -------------------------------------------------
          |                Calculation Setup                |
           -------------------------------------------------

          program call               : xtb data2507/gas/PAB/PAB.xyz --gfn 2 --ohess vtight --parallel 40 --molden --ceasefiles --namespace data2507/gas/PAB/PAB_gas_S0_preOpt
          calculation namespace      : data2507/gas/PAB/PAB_gas_S0_preOpt
          coordinate file            : data2507/gas/PAB/PAB.xyz
          omp threads                :                    40


           -------------------------------------------------
          |                 G F N 2 - x T B                 |
           -------------------------------------------------

        Reference                      10.1021/acs.jctc.8b01176
      * Hamiltonian:
        H0-scaling (s, p, d)           1.850000    2.230000    2.230000
        zeta-weighting                 0.500000
      * Dispersion:
        s8                             2.700000
        a1                             0.520000
        a2                             5.000000
        s9                             5.000000
      * Repulsion:
        kExp                           1.500000    1.000000
        rExp                           1.000000
      * Coulomb:
        alpha                          2.000000
        third order                    shell-resolved
        anisotropic                    true
        a3                             3.000000
        a5                             4.000000
        cn-shift                       1.200000
        cn-exp                         4.000000
        max-rad                        5.000000


          ...................................................
          :                      SETUP                      :
          :.................................................:
          :  # basis functions                 214          :
          :  # atomic orbitals                 214          :
          :  # shells                          122          :
          :  # electrons                       216          :
          :  max. iterations                   250          :
          :  Hamiltonian                  GFN2-xTB          :
          :  restarted?                      false          :
          :  GBSA solvation                  false          :
          :  PC potential                    false          :
          :  electronic temp.          300.0000000     K    :
          :  accuracy                    1.0000000          :
          :  -> integral cutoff          0.2500000E+02      :
          :  -> integral neglect         0.1000000E-07      :
          :  -> SCF convergence          0.1000000E-05 Eh   :
          :  -> wf. convergence          0.1000000E-03 e    :
          :  Broyden damping             0.4000000          :
          :  net charge                          0          :
          :  unpaired electrons                  0          :
          ...................................................

 iter      E             dE          RMSdq      gap      omega  full diag
   1   -117.2605637 -0.117261E+03  0.464E+00    2.30       0.0  T
   2   -117.4256916 -0.165128E+00  0.298E+00    2.04       1.0  T
   3   -117.4065902  0.191014E-01  0.134E+00    2.59       1.0  T
   4   -117.4495761 -0.429859E-01  0.348E-01    2.12       1.0  T
   5   -117.4582112 -0.863510E-02  0.193E-01    2.42       1.0  T
   6   -117.4608007 -0.258952E-02  0.764E-02    2.32       1.0  T
   7   -117.4608509 -0.501254E-04  0.355E-02    2.33       1.0  T
   8   -117.4609332 -0.822980E-04  0.115E-02    2.31       1.0  T
   9   -117.4609381 -0.496948E-05  0.368E-03    2.31       3.1  T
  10   -117.4609386 -0.467184E-06  0.136E-03    2.32       8.4  T
  11   -117.4609386 -0.293495E-07  0.638E-04    2.32      18.0  T
  12   -117.4609387 -0.201215E-07  0.147E-04    2.32      78.3  T

   *** convergence criteria satisfied after 12 iterations ***

         #    Occupation            Energy/Eh            Energy/eV
      -------------------------------------------------------------
         1        2.0000           -0.6607836             -17.9808
       ...           ...                  ...                  ...
       102        2.0000           -0.3979012             -10.8274
       103        2.0000           -0.3922661             -10.6741
       104        2.0000           -0.3779613             -10.2848
       105        2.0000           -0.3685335             -10.0283
       106        2.0000           -0.3611447              -9.8272
       107        2.0000           -0.3476504              -9.4600
       108        2.0000           -0.3430517              -9.3349 (HOMO)
       109                         -0.2579624              -7.0195 (LUMO)
       110                         -0.2316279              -6.3029
       111                         -0.2309844              -6.2854
       112                         -0.2270641              -6.1787
       113                         -0.2253631              -6.1324
       ...                                ...                  ...
       214                          0.8279401              22.5294
      -------------------------------------------------------------
                  HL-Gap            0.0850893 Eh            2.3154 eV
             Fermi-level           -0.3005070 Eh           -8.1772 eV

 SCC (total)                   0 d,  0 h,  0 min,  0.195 sec
 SCC setup                      ...        0 min,  0.001 sec (  0.350%)
 Dispersion                     ...        0 min,  0.004 sec (  1.844%)
 classical contributions        ...        0 min,  0.000 sec (  0.168%)
 integral evaluation            ...        0 min,  0.007 sec (  3.852%)
 iterations                     ...        0 min,  0.170 sec ( 87.483%)
 molecular gradient             ...        0 min,  0.011 sec (  5.718%)
 printout                       ...        0 min,  0.001 sec (  0.539%)

         :::::::::::::::::::::::::::::::::::::::::::::::::::::
         ::                     SUMMARY                     ::
         :::::::::::::::::::::::::::::::::::::::::::::::::::::
         :: total energy            -115.225917482342 Eh    ::
         :: gradient norm              0.198466226312 Eh/a0 ::
         :: HOMO-LUMO gap              2.315397929246 eV    ::
         ::.................................................::
         :: SCC energy              -117.459722195082 Eh    ::
         :: -> isotropic ES            0.033280347370 Eh    ::
         :: -> anisotropic ES          0.013911870889 Eh    ::
         :: -> anisotropic XC          0.063194907050 Eh    ::
         :: -> dispersion             -0.113600910854 Eh    ::
         :: repulsion energy           2.233804712740 Eh    ::
         :: add. restraining           0.000000000000 Eh    ::
         :: total charge              -0.000000000000 e     ::
         :::::::::::::::::::::::::::::::::::::::::::::::::::::

      ----------------------------------------------------------- 
     |                   =====================                   |
     |                        A N C O P T                        |
     |                   =====================                   |
     |               Approximate Normal Coordinate               |
     |                Rational Function Optimizer                |
      ----------------------------------------------------------- 

Optimization log is written to '/dev/null'
      ----------------------------------------------------------- 
     |                   =====================                   |
     |                        A N C O P T                        |
     |                   =====================                   |
     |               Approximate Normal Coordinate               |
     |                Rational Function Optimizer                |
      ----------------------------------------------------------- 

          ...................................................
          :                      SETUP                      :
          :.................................................:
          :   optimization level         verytight          :
          :   max. optcycles                  1520          :
          :   ANC micro-cycles                  20          :
          :   degrees of freedom               222          :
          :.................................................:
          :   RF solver                   davidson          :
          :   write xtbopt.log                true          :
          :   linear?                        false          :
          :   energy convergence         0.1000000E-06 Eh   :
          :   grad. convergence          0.2000000E-03 Eh/α :
          :   maxmium RF displ.          1.0000000          :
          :   Hlow (freq-cutoff)         0.1000000E-01      :
          :   Hmax (freq-cutoff)         5.0000000          :
          :   S6 in model hess.         20.0000000          :
          ...................................................

generating ANC from exact Hessian ...
Using Lindh-Hessian (1995)
 Shifting diagonal of input Hessian by   9.876401950617852E-003
 Lowest  eigenvalues of input Hessian
    0.000000    0.000000    0.000000    0.000000    0.000000    0.000000
    0.010000    0.010036    0.010211    0.010315    0.010383    0.010666
    0.011100    0.011127    0.011235    0.011437    0.011480    0.011684
 Highest eigenvalues
    2.119325    2.134625    2.137617    2.159860    2.191220    2.213784
 

........................................................................
.............................. CYCLE    1 ..............................
........................................................................

 iter      E             dE          RMSdq      gap      omega  full diag
   1   -117.4609387 -0.117461E+03  0.519E-05    2.32       0.0  T
   2   -117.4609387 -0.500933E-10  0.354E-05    2.32     324.3  T
   3   -117.4609387 -0.582361E-10  0.197E-05    2.32     582.0  T
     SCC iter.                  ...        0 min,  0.029 sec
     gradient                   ...        0 min,  0.011 sec
 * total energy  :  -115.2259175 Eh     change       -0.2016947E-08 Eh
   gradient norm :     0.1984668 Eh/α   predicted     0.0000000E+00 (-100.00%)
   displ. norm   :     0.4441780 α      lambda       -0.4522053E-01
   maximum displ.:     0.2962594 α      in ANC's #16, #50, #135, ...

........................................................................
.............................. CYCLE    2 ..............................
........................................................................

 iter      E             dE          RMSdq      gap      omega  full diag
   1   -117.4281898 -0.117428E+03  0.249E-01    2.27       0.0  T
   2   -117.4286496 -0.459758E-03  0.167E-01    2.35       1.0  T
   3   -117.4285118  0.137841E-03  0.935E-02    2.29       1.0  T
   4   -117.4289132 -0.401452E-03  0.314E-02    2.34       1.0  T
   5   -117.4290213 -0.108081E-03  0.717E-03    2.33       1.6  T
   6   -117.4290234 -0.208164E-05  0.334E-03    2.33       3.4  T
   7   -117.4290235 -0.165129E-06  0.101E-03    2.33      11.3  T
   8   -117.4290236 -0.590623E-07  0.439E-04    2.33      26.1  T
   9   -117.4290236 -0.231653E-08  0.183E-04    2.33      62.6  T
     SCC iter.                  ...        0 min,  0.078 sec
     gradient                   ...        0 min,  0.010 sec
 * total energy  :  -115.2584498 Eh     change       -0.3253235E-01 Eh
   gradient norm :     0.0824948 Eh/α   predicted    -0.2713872E-01 ( -16.58%)
   displ. norm   :     0.5089774 α      lambda       -0.1825677E-01
   maximum displ.:     0.3843995 α      in ANC's #16, #24, #50, ...

........................................................................
.............................. CYCLE    3 ..............................
........................................................................

 iter      E             dE          RMSdq      gap      omega  full diag
   1   -117.4143938 -0.117414E+03  0.209E-01    2.30       0.0  T
   2   -117.4146172 -0.223424E-03  0.135E-01    2.35       1.0  T
   3   -117.4143517  0.265557E-03  0.783E-02    2.31       1.0  T
   4   -117.4147699 -0.418239E-03  0.211E-02    2.35       1.0  T
   5   -117.4148180 -0.480530E-04  0.527E-03    2.34       2.2  T
   6   -117.4148191 -0.112698E-05  0.248E-03    2.34       4.6  T
   7   -117.4148192 -0.100807E-06  0.754E-04    2.34      15.2  T
   8   -117.4148192 -0.282200E-07  0.361E-04    2.34      31.8  T
     SCC iter.                  ...        0 min,  0.070 sec
     gradient                   ...        0 min,  0.010 sec
 * total energy  :  -115.2708466 Eh     change       -0.1239673E-01 Eh
   gradient norm :     0.0204850 Eh/α   predicted    -0.1149318E-01 (  -7.29%)
   displ. norm   :     0.5793261 α      lambda       -0.7152330E-02
   maximum displ.:     0.4754294 α      in ANC's #16, #12, #6, ...

........................................................................
.............................. CYCLE    4 ..............................
........................................................................

 iter      E             dE          RMSdq      gap      omega  full diag
   1   -117.4177918 -0.117418E+03  0.138E-01    2.33       0.0  T
   2   -117.4178266 -0.348117E-04  0.873E-02    2.35       1.0  T
   3   -117.4176428  0.183816E-03  0.426E-02    2.33       1.0  T
   4   -117.4178540 -0.211140E-03  0.794E-03    2.34       1.4  T
   5   -117.4178598 -0.581712E-05  0.290E-03    2.34       4.0  T
   6   -117.4178601 -0.368179E-06  0.137E-03    2.34       8.4  T
   7   -117.4178602 -0.593792E-07  0.432E-04    2.34      26.5  T
   8   -117.4178602 -0.728841E-08  0.222E-04    2.34      51.8  T
     SCC iter.                  ...        0 min,  0.070 sec
     gradient                   ...        0 min,  0.011 sec
 * total energy  :  -115.2763570 Eh     change       -0.5510414E-02 Eh
   gradient norm :     0.0138254 Eh/α   predicted    -0.4776397E-02 ( -13.32%)
   displ. norm   :     0.6090771 α      lambda       -0.4535482E-02
   maximum displ.:     0.4368877 α      in ANC's #16, #12, #13, ...

........................................................................
.............................. CYCLE    5 ..............................
........................................................................

 iter      E             dE          RMSdq      gap      omega  full diag
   1   -117.4240637 -0.117424E+03  0.143E-01    2.34       0.0  T
   2   -117.4240780 -0.143124E-04  0.869E-02    2.35       1.0  T
   3   -117.4239880  0.899649E-04  0.299E-02    2.34       1.0  T
   4   -117.4240878 -0.997696E-04  0.466E-03    2.35       2.5  T
   5   -117.4240894 -0.165031E-05  0.213E-03    2.34       5.4  T
   6   -117.4240897 -0.216232E-06  0.916E-04    2.35      12.5  T
   7   -117.4240897 -0.261352E-07  0.347E-04    2.35      33.1  T
     SCC iter.                  ...        0 min,  0.061 sec
     gradient                   ...        0 min,  0.011 sec
 * total energy  :  -115.2798364 Eh     change       -0.3479419E-02 Eh
   gradient norm :     0.0117393 Eh/α   predicted    -0.3109074E-02 ( -10.64%)
   displ. norm   :     0.5863060 α      lambda       -0.2675759E-02
   maximum displ.:     0.3317129 α      in ANC's #16, #12, #13, ...

........................................................................
.............................. CYCLE    6 ..............................
........................................................................

 iter      E             dE          RMSdq      gap      omega  full diag
   1   -117.4311914 -0.117431E+03  0.146E-01    2.35       0.0  T
   2   -117.4311986 -0.721529E-05  0.862E-02    2.35       1.0  T
   3   -117.4311707  0.278844E-04  0.191E-02    2.35       1.0  T
   4   -117.4312024 -0.316714E-04  0.301E-03    2.35       3.8  T
   5   -117.4312028 -0.478289E-06  0.159E-03    2.35       7.2  T
   6   -117.4312030 -0.126582E-06  0.603E-04    2.35      19.0  T
   7   -117.4312030 -0.116331E-07  0.242E-04    2.35      47.4  T
     SCC iter.                  ...        0 min,  0.063 sec
     gradient                   ...        0 min,  0.010 sec
 * total energy  :  -115.2818802 Eh     change       -0.2043797E-02 Eh
   gradient norm :     0.0081968 Eh/α   predicted    -0.1797783E-02 ( -12.04%)
   displ. norm   :     0.5614363 α      lambda       -0.1653047E-02
   maximum displ.:     0.2570768 α      in ANC's #12, #13, #16, ...

........................................................................
.............................. CYCLE    7 ..............................
........................................................................

 iter      E             dE          RMSdq      gap      omega  full diag
   1   -117.4362563 -0.117436E+03  0.148E-01    2.35       0.0  T
   2   -117.4362617 -0.538448E-05  0.868E-02    2.35       1.0  T
   3   -117.4362461  0.156677E-04  0.152E-02    2.35       1.0  T
   4   -117.4362642 -0.181733E-04  0.234E-03    2.35       4.9  T
   5   -117.4362645 -0.269755E-06  0.127E-03    2.35       9.1  T
   6   -117.4362646 -0.642325E-07  0.576E-04    2.35      19.9  T
   7   -117.4362646 -0.120439E-07  0.185E-04    2.35      61.9  T
     SCC iter.                  ...        0 min,  0.063 sec
     gradient                   ...        0 min,  0.010 sec
 * total energy  :  -115.2831663 Eh     change       -0.1286062E-02 Eh
   gradient norm :     0.0062476 Eh/α   predicted    -0.1087064E-02 ( -15.47%)
   displ. norm   :     0.5507394 α      lambda       -0.1200111E-02
   maximum displ.:     0.2733203 α      in ANC's #13, #12, #6, ...

........................................................................
.............................. CYCLE    8 ..............................
........................................................................

 iter      E             dE          RMSdq      gap      omega  full diag
   1   -117.4396712 -0.117440E+03  0.149E-01    2.36       0.0  T
   2   -117.4396758 -0.467151E-05  0.875E-02    2.35       1.0  T
   3   -117.4396642  0.116282E-04  0.128E-02    2.35       1.0  T
   4   -117.4396779 -0.136591E-04  0.204E-03    2.36       5.6  T
   5   -117.4396781 -0.202318E-06  0.109E-03    2.35      10.5  T
   6   -117.4396781 -0.337547E-07  0.568E-04    2.36      20.2  T
   7   -117.4396781 -0.115897E-07  0.164E-04    2.35      69.9  T
     SCC iter.                  ...        0 min,  0.063 sec
     gradient                   ...        0 min,  0.010 sec
 * total energy  :  -115.2841223 Eh     change       -0.9560760E-03 Eh
   gradient norm :     0.0068821 Eh/α   predicted    -0.7820678E-03 ( -18.20%)
   displ. norm   :     0.5373861 α      lambda       -0.9677419E-03
   maximum displ.:     0.2758330 α      in ANC's #13, #12, #6, ...

........................................................................
.............................. CYCLE    9 ..............................
........................................................................

 iter      E             dE          RMSdq      gap      omega  full diag
   1   -117.4423098 -0.117442E+03  0.146E-01    2.36       0.0  T
   2   -117.4423139 -0.402700E-05  0.858E-02    2.36       1.0  T
   3   -117.4423053  0.860099E-05  0.105E-02    2.36       1.1  T
   4   -117.4423156 -0.103011E-04  0.185E-03    2.36       6.2  T
   5   -117.4423157 -0.153884E-06  0.980E-04    2.36      11.7  T
   6   -117.4423157 -0.156207E-07  0.511E-04    2.36      22.5  T
     SCC iter.                  ...        0 min,  0.053 sec
     gradient                   ...        0 min,  0.010 sec
 * total energy  :  -115.2848918 Eh     change       -0.7695108E-03 Eh
   gradient norm :     0.0070630 Eh/α   predicted    -0.6236206E-03 ( -18.96%)
   displ. norm   :     0.5192994 α      lambda       -0.7342347E-03
   maximum displ.:     0.2629818 α      in ANC's #13, #6, #12, ...

........................................................................
.............................. CYCLE   10 ..............................
........................................................................

 iter      E             dE          RMSdq      gap      omega  full diag
   1   -117.4438285 -0.117444E+03  0.141E-01    2.36       0.0  T
   2   -117.4438319 -0.335065E-05  0.826E-02    2.36       1.0  T
   3   -117.4438257  0.622120E-05  0.870E-03    2.36       1.3  T
   4   -117.4438333 -0.766137E-05  0.170E-03    2.36       6.7  T
   5   -117.4438334 -0.109340E-06  0.919E-04    2.36      12.5  T
   6   -117.4438335 -0.120023E-07  0.445E-04    2.36      25.8  T
     SCC iter.                  ...        0 min,  0.057 sec
     gradient                   ...        0 min,  0.011 sec
 * total energy  :  -115.2854473 Eh     change       -0.5554065E-03 Eh
   gradient norm :     0.0056934 Eh/α   predicted    -0.4661316E-03 ( -16.07%)
   displ. norm   :     0.4440629 α      lambda       -0.4126437E-03
   maximum displ.:     0.2118991 α      in ANC's #13, #6, #12, ...

........................................................................
.............................. CYCLE   11 ..............................
........................................................................

 iter      E             dE          RMSdq      gap      omega  full diag
   1   -117.4445073 -0.117445E+03  0.120E-01    2.36       0.0  T
   2   -117.4445096 -0.230851E-05  0.704E-02    2.36       1.0  T
   3   -117.4445055  0.401699E-05  0.701E-03    2.36       1.6  T
   4   -117.4445106 -0.501496E-05  0.140E-03    2.36       8.2  T
   5   -117.4445106 -0.672627E-07  0.752E-04    2.36      15.3  T
   6   -117.4445106 -0.820383E-08  0.356E-04    2.36      32.2  T
     SCC iter.                  ...        0 min,  0.054 sec
     gradient                   ...        0 min,  0.010 sec
 * total energy  :  -115.2857453 Eh     change       -0.2980850E-03 Eh
   gradient norm :     0.0042931 Eh/α   predicted    -0.2470082E-03 ( -17.13%)
   displ. norm   :     0.3307134 α      lambda       -0.2016699E-03
   maximum displ.:     0.1658453 α      in ANC's #6, #10, #13, ...

........................................................................
.............................. CYCLE   12 ..............................
........................................................................

 iter      E             dE          RMSdq      gap      omega  full diag
   1   -117.4460172 -0.117446E+03  0.887E-02    2.37       0.0  T
   2   -117.4460185 -0.127360E-05  0.520E-02    2.37       1.0  T
   3   -117.4460162  0.230051E-05  0.525E-03    2.37       2.2  T
   4   -117.4460190 -0.283739E-05  0.103E-03    2.37      11.1  T
   5   -117.4460191 -0.419935E-07  0.542E-04    2.37      21.2  T
   6   -117.4460191 -0.459873E-08  0.275E-04    2.37      41.6  T
     SCC iter.                  ...        0 min,  0.054 sec
     gradient                   ...        0 min,  0.010 sec
 * total energy  :  -115.2858923 Eh     change       -0.1469271E-03 Eh
   gradient norm :     0.0032770 Eh/α   predicted    -0.1118781E-03 ( -23.85%)
   displ. norm   :     0.2724855 α      lambda       -0.1280994E-03
   maximum displ.:     0.1440950 α      in ANC's #6, #10, #12, ...

........................................................................
.............................. CYCLE   13 ..............................
........................................................................

 iter      E             dE          RMSdq      gap      omega  full diag
   1   -117.4473995 -0.117447E+03  0.721E-02    2.37       0.0  T
   2   -117.4474003 -0.810117E-06  0.423E-02    2.37       1.0  T
   3   -117.4473988  0.152286E-05  0.430E-03    2.37       2.7  T
   4   -117.4474006 -0.186213E-05  0.841E-04    2.37      13.6  T
   5   -117.4474007 -0.308255E-07  0.476E-04    2.37      24.1  T
   6   -117.4474007 -0.853481E-08  0.229E-04    2.37      50.1  T
     SCC iter.                  ...        0 min,  0.055 sec
     gradient                   ...        0 min,  0.010 sec
 * total energy  :  -115.2859896 Eh     change       -0.9737866E-04 Eh
   gradient norm :     0.0028213 Eh/α   predicted    -0.6880677E-04 ( -29.34%)
   displ. norm   :     0.2729676 α      lambda       -0.1225017E-03
   maximum displ.:     0.1468791 α      in ANC's #6, #10, #11, ...

........................................................................
.............................. CYCLE   14 ..............................
........................................................................

 iter      E             dE          RMSdq      gap      omega  full diag
   1   -117.4491851 -0.117449E+03  0.698E-02    2.37       0.0  T
   2   -117.4491859 -0.787399E-06  0.410E-02    2.37       1.0  T
   3   -117.4491842  0.174993E-05  0.461E-03    2.37       2.5  T
   4   -117.4491863 -0.209377E-05  0.863E-04    2.37      13.3  T
   5   -117.4491863 -0.356065E-07  0.507E-04    2.37      22.6  T
   6   -117.4491863 -0.129545E-07  0.220E-04    2.37      52.1  T
     SCC iter.                  ...        0 min,  0.054 sec
     gradient                   ...        0 min,  0.010 sec
 * total energy  :  -115.2860845 Eh     change       -0.9484449E-04 Eh
   gradient norm :     0.0028150 Eh/α   predicted    -0.6581815E-04 ( -30.60%)
   displ. norm   :     0.3336792 α      lambda       -0.1379100E-03
   maximum displ.:     0.1694695 α      in ANC's #6, #10, #11, ...

........................................................................
.............................. CYCLE   15 ..............................
........................................................................

 iter      E             dE          RMSdq      gap      omega  full diag
   1   -117.4490244 -0.117449E+03  0.835E-02    2.37       0.0  T
   2   -117.4490254 -0.100809E-05  0.490E-02    2.37       1.0  T
   3   -117.4490229  0.249381E-05  0.543E-03    2.37       2.1  T
   4   -117.4490259 -0.297531E-05  0.105E-03    2.37      10.9  T
   5   -117.4490260 -0.530583E-07  0.614E-04    2.37      18.7  T
   6   -117.4490260 -0.175945E-07  0.245E-04    2.37      46.9  T
     SCC iter.                  ...        0 min,  0.053 sec
     gradient                   ...        0 min,  0.010 sec
 * total energy  :  -115.2861923 Eh     change       -0.1077952E-03 Eh
   gradient norm :     0.0035484 Eh/α   predicted    -0.7663375E-04 ( -28.91%)
   displ. norm   :     0.4080096 α      lambda       -0.1789652E-03
   maximum displ.:     0.1912202 α      in ANC's #11, #6, #10, ...

........................................................................
.............................. CYCLE   16 ..............................
........................................................................

 iter      E             dE          RMSdq      gap      omega  full diag
   1   -117.4502076 -0.117450E+03  0.969E-02    2.38       0.0  T
   2   -117.4502091 -0.149995E-05  0.569E-02    2.38       1.0  T
   3   -117.4502052  0.385179E-05  0.658E-03    2.37       1.7  T
   4   -117.4502098 -0.460463E-05  0.127E-03    2.38       9.0  T
   5   -117.4502099 -0.611908E-07  0.758E-04    2.38      15.1  T
   6   -117.4502099 -0.254142E-07  0.318E-04    2.38      36.1  T
     SCC iter.                  ...        0 min,  0.053 sec
     gradient                   ...        0 min,  0.010 sec
 * total energy  :  -115.2863224 Eh     change       -0.1300753E-03 Eh
   gradient norm :     0.0047493 Eh/α   predicted    -0.1043793E-03 ( -19.75%)
   displ. norm   :     0.4637115 α      lambda       -0.1768592E-03
   maximum displ.:     0.2207939 α      in ANC's #11, #10, #6, ...

........................................................................
.............................. CYCLE   17 ..............................
........................................................................

 iter      E             dE          RMSdq      gap      omega  full diag
   1   -117.4450188 -0.117445E+03  0.114E-01    2.38       0.0  T
   2   -117.4450205 -0.170024E-05  0.670E-02    2.38       1.0  T
   3   -117.4450169  0.363313E-05  0.648E-03    2.38       1.8  T
   4   -117.4450214 -0.448681E-05  0.140E-03    2.38       8.2  T
   5   -117.4450214 -0.697520E-07  0.811E-04    2.38      14.1  T
   6   -117.4450215 -0.230700E-07  0.329E-04    2.38      34.9  T
     SCC iter.                  ...        0 min,  0.054 sec
     gradient                   ...        0 min,  0.010 sec
 * total energy  :  -115.2864320 Eh     change       -0.1096274E-03 Eh
   gradient norm :     0.0061762 Eh/α   predicted    -0.1074464E-03 (  -1.99%)
   displ. norm   :     0.3162449 α      lambda       -0.2047812E-03
   maximum displ.:     0.1838580 α      in ANC's #13, #11, #15, ...

........................................................................
.............................. CYCLE   18 ..............................
........................................................................

 iter      E             dE          RMSdq      gap      omega  full diag
   1   -117.4463665 -0.117446E+03  0.774E-02    2.38       0.0  T
   2   -117.4463677 -0.118884E-05  0.455E-02    2.38       1.0  T
   3   -117.4463650  0.268776E-05  0.588E-03    2.38       1.9  T
   4   -117.4463683 -0.324843E-05  0.107E-03    2.38      10.7  T
   5   -117.4463683 -0.373162E-07  0.625E-04    2.38      18.4  T
   6   -117.4463683 -0.105960E-07  0.283E-04    2.38      40.6  T
     SCC iter.                  ...        0 min,  0.054 sec
     gradient                   ...        0 min,  0.010 sec
 * total energy  :  -115.2865699 Eh     change       -0.1379086E-03 Eh
   gradient norm :     0.0051679 Eh/α   predicted    -0.1126311E-03 ( -18.33%)
   displ. norm   :     0.2922886 α      lambda       -0.1732052E-03
   maximum displ.:     0.1450530 α      in ANC's #11, #13, #5, ...

........................................................................
.............................. CYCLE   19 ..............................
........................................................................

 iter      E             dE          RMSdq      gap      omega  full diag
   1   -117.4453070 -0.117445E+03  0.751E-02    2.38       0.0  T
   2   -117.4453079 -0.887912E-06  0.441E-02    2.38       1.0  T
   3   -117.4453065  0.142971E-05  0.473E-03    2.38       2.4  T
   4   -117.4453084 -0.186750E-05  0.890E-04    2.38      12.9  T
   5   -117.4453084 -0.268554E-08  0.545E-04    2.38      21.0  T
   6   -117.4453084 -0.104327E-07  0.215E-04    2.38      53.4  T
     SCC iter.                  ...        0 min,  0.054 sec
     gradient                   ...        0 min,  0.010 sec
 * total energy  :  -115.2866746 Eh     change       -0.1047376E-03 Eh
   gradient norm :     0.0054744 Eh/α   predicted    -0.9400276E-04 ( -10.25%)
   displ. norm   :     0.2701681 α      lambda       -0.1921298E-03
   maximum displ.:     0.1369396 α      in ANC's #13, #17, #11, ...

........................................................................
.............................. CYCLE   20 ..............................
........................................................................

 iter      E             dE          RMSdq      gap      omega  full diag
   1   -117.4478115 -0.117448E+03  0.724E-02    2.38       0.0  T
   2   -117.4478124 -0.855791E-06  0.426E-02    2.38       1.0  T
   3   -117.4478114  0.979513E-06  0.445E-03    2.38       2.6  T
   4   -117.4478128 -0.135156E-05  0.896E-04    2.38      12.8  T
   5   -117.4478128 -0.642399E-08  0.505E-04    2.38      22.7  T
   6   -117.4478128 -0.540237E-08  0.184E-04    2.38      62.3  T
     SCC iter.                  ...        0 min,  0.054 sec
     gradient                   ...        0 min,  0.010 sec
 * total energy  :  -115.2868000 Eh     change       -0.1253689E-03 Eh
   gradient norm :     0.0038970 Eh/α   predicted    -0.1030837E-03 ( -17.78%)
   displ. norm   :     0.3377246 α      lambda       -0.1438180E-03
   maximum displ.:     0.1404441 α      in ANC's #11, #10, #13, ...
 * RMSD in coord.:     0.6980909 α      energy gain  -0.6088252E-01 Eh

generating ANC from exact Hessian ...
Using Lindh-Hessian (1995)
 Shifting diagonal of input Hessian by   9.835190534143969E-003
 Lowest  eigenvalues of input Hessian
    0.000000    0.000000    0.000000    0.000000    0.000000    0.000000
    0.010000    0.010026    0.010164    0.010353    0.010393    0.010682
    0.011163    0.011209    0.011352    0.011492    0.011582    0.011727
 Highest eigenvalues
    2.104291    2.126597    2.132204    2.145688    2.186964    2.202192
 

........................................................................
.............................. CYCLE   21 ..............................
........................................................................

 iter      E             dE          RMSdq      gap      omega  full diag
   1   -117.4459931 -0.117446E+03  0.860E-02    2.38       0.0  T
   2   -117.4459939 -0.864701E-06  0.506E-02    2.38       1.0  T
   3   -117.4459932  0.733260E-06  0.365E-03    2.38       3.1  T
   4   -117.4459943 -0.112555E-05  0.932E-04    2.38      12.3  T
   5   -117.4459943 -0.105636E-07  0.547E-04    2.38      21.0  T
   6   -117.4459943 -0.782083E-08  0.198E-04    2.38      58.0  T
     SCC iter.                  ...        0 min,  0.054 sec
     gradient                   ...        0 min,  0.010 sec
 * total energy  :  -115.2869037 Eh     change       -0.1036680E-03 Eh
   gradient norm :     0.0055010 Eh/α   predicted     0.0000000E+00 (-100.00%)
   displ. norm   :     0.0558641 α      lambda       -0.9302860E-04
   maximum displ.:     0.0236725 α      in ANC's #10, #17, #15, ...

........................................................................
.............................. CYCLE   22 ..............................
........................................................................

 iter      E             dE          RMSdq      gap      omega  full diag
   1   -117.4484676 -0.117448E+03  0.186E-02    2.38       0.0  T
   2   -117.4484678 -0.167864E-06  0.110E-02    2.38       1.0  T
   3   -117.4484674  0.376987E-06  0.222E-03    2.38       5.2  T
   4   -117.4484679 -0.439401E-06  0.396E-04    2.38      29.0  T
   5   -117.4484679 -0.844044E-08  0.201E-04    2.38      57.2  T
     SCC iter.                  ...        0 min,  0.047 sec
     gradient                   ...        0 min,  0.010 sec
 * total energy  :  -115.2869763 Eh     change       -0.7263850E-04 Eh
   gradient norm :     0.0022770 Eh/α   predicted    -0.4853254E-04 ( -33.19%)
   displ. norm   :     0.1216813 α      lambda       -0.9846687E-04
   maximum displ.:     0.0578744 α      in ANC's #10, #17, #3, ...

........................................................................
.............................. CYCLE   23 ..............................
........................................................................

 iter      E             dE          RMSdq      gap      omega  full diag
   1   -117.4504865 -0.117450E+03  0.330E-02    2.38       0.0  T
   2   -117.4504868 -0.306442E-06  0.195E-02    2.38       1.0  T
   3   -117.4504861  0.678917E-06  0.296E-03    2.38       3.9  T
   4   -117.4504869 -0.806171E-06  0.589E-04    2.38      19.5  T
   5   -117.4504870 -0.130616E-07  0.321E-04    2.38      35.7  T
     SCC iter.                  ...        0 min,  0.046 sec
     gradient                   ...        0 min,  0.012 sec
 * total energy  :  -115.2870453 Eh     change       -0.6899256E-04 Eh
   gradient norm :     0.0024141 Eh/α   predicted    -0.4996352E-04 ( -27.58%)
   displ. norm   :     0.1628173 α      lambda       -0.7690507E-04
   maximum displ.:     0.0854778 α      in ANC's #10, #17, #3, ...

........................................................................
.............................. CYCLE   24 ..............................
........................................................................

 iter      E             dE          RMSdq      gap      omega  full diag
   1   -117.4507737 -0.117451E+03  0.412E-02    2.38       0.0  T
   2   -117.4507740 -0.245628E-06  0.243E-02    2.38       1.0  T
   3   -117.4507736  0.354946E-06  0.229E-03    2.38       5.0  T
   4   -117.4507741 -0.472352E-06  0.610E-04    2.38      18.8  T
   5   -117.4507741 -0.425337E-08  0.334E-04    2.38      34.4  T
     SCC iter.                  ...        0 min,  0.046 sec
     gradient                   ...        0 min,  0.011 sec
 * total energy  :  -115.2871076 Eh     change       -0.6233438E-04 Eh
   gradient norm :     0.0037646 Eh/α   predicted    -0.3951503E-04 ( -36.61%)
   displ. norm   :     0.2788156 α      lambda       -0.1197392E-03
   maximum displ.:     0.1480693 α      in ANC's #10, #17, #3, ...

........................................................................
.............................. CYCLE   25 ..............................
........................................................................

 iter      E             dE          RMSdq      gap      omega  full diag
   1   -117.4496206 -0.117450E+03  0.691E-02    2.38       0.0  T
   2   -117.4496211 -0.506689E-06  0.408E-02    2.38       1.0  T
   3   -117.4496207  0.388993E-06  0.279E-03    2.38       4.1  T
   4   -117.4496214 -0.641382E-06  0.954E-04    2.38      12.0  T
   5   -117.4496214  0.233941E-08  0.491E-04    2.38      23.4  T
     SCC iter.                  ...        0 min,  0.045 sec
     gradient                   ...        0 min,  0.010 sec
 * total energy  :  -115.2872079 Eh     change       -0.1003129E-03 Eh
   gradient norm :     0.0042996 Eh/α   predicted    -0.6452417E-04 ( -35.68%)
   displ. norm   :     0.3882259 α      lambda       -0.1629802E-03
   maximum displ.:     0.2095392 α      in ANC's #10, #3, #17, ...

........................................................................
.............................. CYCLE   26 ..............................
........................................................................

 iter      E             dE          RMSdq      gap      omega  full diag
   1   -117.4470867 -0.117447E+03  0.947E-02    2.38       0.0  T
   2   -117.4470876 -0.887872E-06  0.560E-02    2.38       1.0  T
   3   -117.4470870  0.597070E-06  0.372E-03    2.38       3.1  T
   4   -117.4470880 -0.104121E-05  0.128E-03    2.38       8.9  T
   5   -117.4470880  0.212865E-07  0.727E-04    2.38      15.8  T
   6   -117.4470881 -0.424590E-07  0.154E-04    2.38      74.6  T
     SCC iter.                  ...        0 min,  0.054 sec
     gradient                   ...        0 min,  0.010 sec
 * total energy  :  -115.2873399 Eh     change       -0.1319105E-03 Eh
   gradient norm :     0.0047065 Eh/α   predicted    -0.9377544E-04 ( -28.91%)
   displ. norm   :     0.3578705 α      lambda       -0.1658573E-03
   maximum displ.:     0.1959864 α      in ANC's #10, #3, #17, ...

........................................................................
.............................. CYCLE   27 ..............................
........................................................................

 iter      E             dE          RMSdq      gap      omega  full diag
   1   -117.4453691 -0.117445E+03  0.848E-02    2.38       0.0  T
   2   -117.4453698 -0.735487E-06  0.502E-02    2.38       1.0  T
   3   -117.4453687  0.110025E-05  0.414E-03    2.38       2.8  T
   4   -117.4453702 -0.148272E-05  0.121E-03    2.38       9.5  T
   5   -117.4453702 -0.559896E-08  0.730E-04    2.38      15.7  T
   6   -117.4453703 -0.324453E-07  0.151E-04    2.38      75.8  T
     SCC iter.                  ...        0 min,  0.054 sec
     gradient                   ...        0 min,  0.010 sec
 * total energy  :  -115.2874765 Eh     change       -0.1366495E-03 Eh
   gradient norm :     0.0052051 Eh/α   predicted    -0.9355087E-04 ( -31.54%)
   displ. norm   :     0.3612675 α      lambda       -0.2243786E-03
   maximum displ.:     0.1992511 α      in ANC's #10, #3, #14, ...

........................................................................
.............................. CYCLE   28 ..............................
........................................................................

 iter      E             dE          RMSdq      gap      omega  full diag
   1   -117.4457142 -0.117446E+03  0.812E-02    2.38       0.0  T
   2   -117.4457150 -0.799273E-06  0.480E-02    2.38       1.0  T
   3   -117.4457129  0.210949E-05  0.513E-03    2.39       2.2  T
   4   -117.4457155 -0.256185E-05  0.121E-03    2.38       9.5  T
   5   -117.4457155 -0.294256E-07  0.706E-04    2.38      16.2  T
   6   -117.4457155 -0.212553E-07  0.198E-04    2.38      58.0  T
     SCC iter.                  ...        0 min,  0.055 sec
     gradient                   ...        0 min,  0.010 sec
 * total energy  :  -115.2876577 Eh     change       -0.1811971E-03 Eh
   gradient norm :     0.0053337 Eh/α   predicted    -0.1268317E-03 ( -30.00%)
   displ. norm   :     0.3915005 α      lambda       -0.2462721E-03
   maximum displ.:     0.2167658 α      in ANC's #10, #3, #14, ...

........................................................................
.............................. CYCLE   29 ..............................
........................................................................

 iter      E             dE          RMSdq      gap      omega  full diag
   1   -117.4474543 -0.117447E+03  0.820E-02    2.39       0.0  T
   2   -117.4474552 -0.912621E-06  0.485E-02    2.39       1.0  T
   3   -117.4474516  0.355300E-05  0.616E-03    2.39       1.9  T
   4   -117.4474558 -0.414860E-05  0.125E-03    2.39       9.2  T
   5   -117.4474558 -0.462249E-07  0.703E-04    2.39      16.3  T
   6   -117.4474559 -0.174828E-07  0.216E-04    2.39      53.1  T
     SCC iter.                  ...        0 min,  0.054 sec
     gradient                   ...        0 min,  0.010 sec
 * total energy  :  -115.2878508 Eh     change       -0.1930569E-03 Eh
   gradient norm :     0.0051895 Eh/α   predicted    -0.1420125E-03 ( -26.44%)
   displ. norm   :     0.4056533 α      lambda       -0.2206619E-03
   maximum displ.:     0.2290168 α      in ANC's #10, #3, #14, ...

........................................................................
.............................. CYCLE   30 ..............................
........................................................................

 iter      E             dE          RMSdq      gap      omega  full diag
   1   -117.4489059 -0.117449E+03  0.807E-02    2.39       0.0  T
   2   -117.4489068 -0.924813E-06  0.478E-02    2.39       1.0  T
   3   -117.4489021  0.473796E-05  0.672E-03    2.39       1.7  T
   4   -117.4489075 -0.540880E-05  0.123E-03    2.39       9.3  T
   5   -117.4489075 -0.566875E-07  0.661E-04    2.39      17.3  T
   6   -117.4489075 -0.112436E-07  0.261E-04    2.39      44.0  T
     SCC iter.                  ...        0 min,  0.055 sec
     gradient                   ...        0 min,  0.010 sec
 * total energy  :  -115.2880302 Eh     change       -0.1794720E-03 Eh
   gradient norm :     0.0047462 Eh/α   predicted    -0.1284878E-03 ( -28.41%)
   displ. norm   :     0.3970185 α      lambda       -0.2236949E-03
   maximum displ.:     0.2332942 α      in ANC's #3, #10, #14, ...

........................................................................
.............................. CYCLE   31 ..............................
........................................................................

 iter      E             dE          RMSdq      gap      omega  full diag
   1   -117.4510539 -0.117451E+03  0.754E-02    2.39       0.0  T
   2   -117.4510549 -0.105325E-05  0.447E-02    2.39       1.0  T
   3   -117.4510486  0.634798E-05  0.758E-03    2.39       1.5  T
   4   -117.4510557 -0.712668E-05  0.123E-03    2.39       9.4  T
   5   -117.4510558 -0.773354E-07  0.614E-04    2.39      18.7  T
   6   -117.4510558 -0.773532E-08  0.313E-04    2.39      36.7  T
     SCC iter.                  ...        0 min,  0.054 sec
     gradient                   ...        0 min,  0.010 sec
 * total energy  :  -115.2882080 Eh     change       -0.1777726E-03 Eh
   gradient norm :     0.0037960 Eh/α   predicted    -0.1294809E-03 ( -27.16%)
   displ. norm   :     0.4073304 α      lambda       -0.1850448E-03
   maximum displ.:     0.2440621 α      in ANC's #3, #10, #14, ...

........................................................................
.............................. CYCLE   32 ..............................
........................................................................

 iter      E             dE          RMSdq      gap      omega  full diag
   1   -117.4503261 -0.117450E+03  0.785E-02    2.39       0.0  T
   2   -117.4503271 -0.101629E-05  0.464E-02    2.39       1.0  T
   3   -117.4503221  0.500779E-05  0.685E-03    2.39       1.7  T
   4   -117.4503278 -0.568721E-05  0.121E-03    2.39       9.5  T
   5   -117.4503278 -0.723474E-07  0.617E-04    2.39      18.6  T
   6   -117.4503279 -0.875686E-08  0.294E-04    2.39      39.1  T
     SCC iter.                  ...        0 min,  0.054 sec
     gradient                   ...        0 min,  0.010 sec
 * total energy  :  -115.2883461 Eh     change       -0.1380691E-03 Eh
   gradient norm :     0.0029035 Eh/α   predicted    -0.1078737E-03 ( -21.87%)
   displ. norm   :     0.2734543 α      lambda       -0.1258005E-03
   maximum displ.:     0.1767411 α      in ANC's #3, #10, #17, ...

........................................................................
.............................. CYCLE   33 ..............................
........................................................................

 iter      E             dE          RMSdq      gap      omega  full diag
   1   -117.4532561 -0.117453E+03  0.514E-02    2.39       0.0  T
   2   -117.4532567 -0.599023E-06  0.303E-02    2.39       1.0  T
   3   -117.4532543  0.245052E-05  0.496E-03    2.39       2.3  T
   4   -117.4532571 -0.280393E-05  0.841E-04    2.39      13.6  T
   5   -117.4532571 -0.385571E-07  0.412E-04    2.39      27.8  T
   6   -117.4532571 -0.501244E-08  0.201E-04    2.39      57.0  T
     SCC iter.                  ...        0 min,  0.054 sec
     gradient                   ...        0 min,  0.010 sec
 * total energy  :  -115.2884235 Eh     change       -0.7745094E-04 Eh
   gradient norm :     0.0033701 Eh/α   predicted    -0.6760388E-04 ( -12.71%)
   displ. norm   :     0.2356370 α      lambda       -0.7563744E-04
   maximum displ.:     0.1506944 α      in ANC's #3, #10, #9, ...

........................................................................
.............................. CYCLE   34 ..............................
........................................................................

 iter      E             dE          RMSdq      gap      omega  full diag
   1   -117.4506813 -0.117451E+03  0.447E-02    2.39       0.0  T
   2   -117.4506816 -0.314110E-06  0.263E-02    2.39       1.0  T
   3   -117.4506810  0.600117E-06  0.277E-03    2.39       4.1  T
   4   -117.4506818 -0.753727E-06  0.628E-04    2.39      18.3  T
   5   -117.4506818 -0.124495E-07  0.354E-04    2.39      32.4  T
     SCC iter.                  ...        0 min,  0.045 sec
     gradient                   ...        0 min,  0.010 sec
 * total energy  :  -115.2884754 Eh     change       -0.5182532E-04 Eh
   gradient norm :     0.0025747 Eh/α   predicted    -0.3991904E-04 ( -22.97%)
   displ. norm   :     0.1322958 α      lambda       -0.5800527E-04
   maximum displ.:     0.0895319 α      in ANC's #3, #10, #14, ...

........................................................................
.............................. CYCLE   35 ..............................
........................................................................

 iter      E             dE          RMSdq      gap      omega  full diag
   1   -117.4509217 -0.117451E+03  0.236E-02    2.39       0.0  T
   2   -117.4509218 -0.139426E-06  0.138E-02    2.39       1.0  T
   3   -117.4509213  0.484935E-06  0.226E-03    2.39       5.1  T
   4   -117.4509219 -0.556456E-06  0.378E-04    2.39      30.3  T
   5   -117.4509219 -0.892483E-08  0.196E-04    2.39      58.6  T
     SCC iter.                  ...        0 min,  0.045 sec
     gradient                   ...        0 min,  0.010 sec
 * total energy  :  -115.2885244 Eh     change       -0.4907012E-04 Eh
   gradient norm :     0.0020133 Eh/α   predicted    -0.2951314E-04 ( -39.86%)
   displ. norm   :     0.1942682 α      lambda       -0.8219934E-04
   maximum displ.:     0.1289542 α      in ANC's #3, #14, #10, ...

........................................................................
.............................. CYCLE   36 ..............................
........................................................................

 iter      E             dE          RMSdq      gap      omega  full diag
   1   -117.4507385 -0.117451E+03  0.344E-02    2.39       0.0  T
   2   -117.4507388 -0.267807E-06  0.201E-02    2.39       1.0  T
   3   -117.4507381  0.711807E-06  0.284E-03    2.39       4.0  T
   4   -117.4507389 -0.845987E-06  0.490E-04    2.39      23.4  T
   5   -117.4507390 -0.101867E-07  0.275E-04    2.39      41.7  T
     SCC iter.                  ...        0 min,  0.046 sec
     gradient                   ...        0 min,  0.010 sec
 * total energy  :  -115.2885889 Eh     change       -0.6446256E-04 Eh
   gradient norm :     0.0020258 Eh/α   predicted    -0.4265153E-04 ( -33.84%)
   displ. norm   :     0.1847282 α      lambda       -0.5810946E-04
   maximum displ.:     0.1267569 α      in ANC's #3, #14, #10, ...

........................................................................
.............................. CYCLE   37 ..............................
........................................................................

 iter      E             dE          RMSdq      gap      omega  full diag
   1   -117.4504245 -0.117450E+03  0.306E-02    2.39       0.0  T
   2   -117.4504247 -0.166652E-06  0.180E-02    2.39       1.0  T
   3   -117.4504243  0.356598E-06  0.217E-03    2.39       5.3  T
   4   -117.4504247 -0.446279E-06  0.398E-04    2.39      28.8  T
   5   -117.4504247 -0.147851E-08  0.252E-04    2.39      45.5  T
     SCC iter.                  ...        0 min,  0.046 sec
     gradient                   ...        0 min,  0.010 sec
 * total energy  :  -115.2886370 Eh     change       -0.4815864E-04 Eh
   gradient norm :     0.0023118 Eh/α   predicted    -0.3005070E-04 ( -37.60%)
   displ. norm   :     0.1741104 α      lambda       -0.5167719E-04
   maximum displ.:     0.1229900 α      in ANC's #3, #14, #10, ...

........................................................................
.............................. CYCLE   38 ..............................
........................................................................

 iter      E             dE          RMSdq      gap      omega  full diag
   1   -117.4503274 -0.117450E+03  0.276E-02    2.39       0.0  T
   2   -117.4503276 -0.154290E-06  0.162E-02    2.39       1.0  T
   3   -117.4503272  0.374130E-06  0.217E-03    2.39       5.3  T
   4   -117.4503276 -0.450335E-06  0.413E-04    2.39      27.8  T
   5   -117.4503276 -0.394267E-08  0.253E-04    2.39      45.4  T
     SCC iter.                  ...        0 min,  0.045 sec
     gradient                   ...        0 min,  0.011 sec
 * total energy  :  -115.2886822 Eh     change       -0.4517689E-04 Eh
   gradient norm :     0.0021356 Eh/α   predicted    -0.2662500E-04 ( -41.07%)
   displ. norm   :     0.2078083 α      lambda       -0.6128525E-04
   maximum displ.:     0.1481838 α      in ANC's #3, #14, #10, ...

........................................................................
.............................. CYCLE   39 ..............................
........................................................................

 iter      E             dE          RMSdq      gap      omega  full diag
   1   -117.4505435 -0.117451E+03  0.321E-02    2.39       0.0  T
   2   -117.4505437 -0.244550E-06  0.189E-02    2.39       1.0  T
   3   -117.4505430  0.748183E-06  0.291E-03    2.39       3.9  T
   4   -117.4505438 -0.866533E-06  0.571E-04    2.39      20.1  T
   5   -117.4505438 -0.130836E-07  0.328E-04    2.39      35.0  T
     SCC iter.                  ...        0 min,  0.044 sec
     gradient                   ...        0 min,  0.010 sec
 * total energy  :  -115.2887339 Eh     change       -0.5170237E-04 Eh
   gradient norm :     0.0015362 Eh/α   predicted    -0.3196914E-04 ( -38.17%)
   displ. norm   :     0.3791386 α      lambda       -0.6048593E-04
   maximum displ.:     0.2729430 α      in ANC's #3, #14, #10, ...

........................................................................
.............................. CYCLE   40 ..............................
........................................................................

 iter      E             dE          RMSdq      gap      omega  full diag
   1   -117.4503533 -0.117450E+03  0.575E-02    2.39       0.0  T
   2   -117.4503541 -0.808240E-06  0.339E-02    2.39       1.0  T
   3   -117.4503518  0.226762E-05  0.521E-03    2.39       2.2  T
   4   -117.4503545 -0.266211E-05  0.101E-03    2.39      11.4  T
   5   -117.4503545 -0.269260E-07  0.597E-04    2.39      19.2  T
   6   -117.4503545 -0.133212E-07  0.292E-04    2.39      39.3  T
     SCC iter.                  ...        0 min,  0.052 sec
     gradient                   ...        0 min,  0.010 sec
 * total energy  :  -115.2887934 Eh     change       -0.5948667E-04 Eh
   gradient norm :     0.0016448 Eh/α   predicted    -0.3217874E-04 ( -45.91%)
   displ. norm   :     0.1933946 α      lambda       -0.2308969E-04
   maximum displ.:     0.1484551 α      in ANC's #3, #14, #10, ...

........................................................................
.............................. CYCLE   41 ..............................
........................................................................

 iter      E             dE          RMSdq      gap      omega  full diag
   1   -117.4514020 -0.117451E+03  0.268E-02    2.39       0.0  T
   2   -117.4514022 -0.184449E-06  0.158E-02    2.39       1.0  T
   3   -117.4514018  0.424508E-06  0.241E-03    2.39       4.8  T
   4   -117.4514023 -0.513718E-06  0.474E-04    2.39      24.2  T
   5   -117.4514023 -0.232249E-08  0.282E-04    2.39      40.6  T
     SCC iter.                  ...        0 min,  0.044 sec
     gradient                   ...        0 min,  0.010 sec
 * total energy  :  -115.2888131 Eh     change       -0.1973138E-04 Eh
   gradient norm :     0.0021557 Eh/α   predicted    -0.1173999E-04 ( -40.50%)
   displ. norm   :     0.0782636 α      lambda       -0.1628101E-04
   maximum displ.:     0.0596326 α      in ANC's #3, #10, #14, ...

........................................................................
.............................. CYCLE   42 ..............................
........................................................................

 iter      E             dE          RMSdq      gap      omega  full diag
   1   -117.4517786 -0.117452E+03  0.122E-02    2.39       0.0  T
   2   -117.4517787 -0.515473E-07  0.722E-03    2.39       1.6  T
   3   -117.4517785  0.124842E-06  0.128E-03    2.39       8.9  T
   4   -117.4517787 -0.146731E-06  0.221E-04    2.39      51.9  T
   5   -117.4517787 -0.136873E-08  0.133E-04    2.39      85.9  T
     SCC iter.                  ...        0 min,  0.043 sec
     gradient                   ...        0 min,  0.010 sec
 * total energy  :  -115.2888266 Eh     change       -0.1345046E-04 Eh
   gradient norm :     0.0010735 Eh/α   predicted    -0.8193196E-05 ( -39.09%)
   displ. norm   :     0.1553753 α      lambda       -0.2046546E-04
   maximum displ.:     0.1146380 α      in ANC's #3, #12, #10, ...
 * RMSD in coord.:     0.5356620 α      energy gain  -0.2026589E-02 Eh

generating ANC from exact Hessian ...
Using Lindh-Hessian (1995)
 Shifting diagonal of input Hessian by   9.840785679984695E-003
 Lowest  eigenvalues of input Hessian
    0.000000    0.000000    0.000000    0.000000    0.000000    0.000000
    0.010000    0.010025    0.010075    0.010388    0.010413    0.010720
    0.011163    0.011231    0.011363    0.011406    0.011623    0.011760
 Highest eigenvalues
    2.104584    2.128189    2.131781    2.145886    2.186402    2.200873
 

........................................................................
.............................. CYCLE   43 ..............................
........................................................................

 iter      E             dE          RMSdq      gap      omega  full diag
   1   -117.4521430 -0.117452E+03  0.277E-02    2.39       0.0  T
   2   -117.4521432 -0.252653E-06  0.163E-02    2.39       1.0  T
   3   -117.4521427  0.562178E-06  0.273E-03    2.39       4.2  T
   4   -117.4521433 -0.658140E-06  0.473E-04    2.39      24.3  T
   5   -117.4521434 -0.839412E-08  0.252E-04    2.39      45.6  T
     SCC iter.                  ...        0 min,  0.044 sec
     gradient                   ...        0 min,  0.010 sec
 * total energy  :  -115.2888467 Eh     change       -0.2008946E-04 Eh
   gradient norm :     0.0018687 Eh/α   predicted     0.0000000E+00 (-100.00%)
   displ. norm   :     0.0309213 α      lambda       -0.9962417E-05
   maximum displ.:     0.0195524 α      in ANC's #3, #12, #7, ...

........................................................................
.............................. CYCLE   44 ..............................
........................................................................

 iter      E             dE          RMSdq      gap      omega  full diag
   1   -117.4517007 -0.117452E+03  0.863E-03    2.39       0.0  T
   2   -117.4517008 -0.449546E-07  0.511E-03    2.39       2.2  T
   3   -117.4517006  0.109232E-06  0.119E-03    2.39       9.7  T
   4   -117.4517008 -0.122916E-06  0.223E-04    2.39      51.5  T
   5   -117.4517008 -0.391755E-08  0.107E-04    2.39     107.3  T
     SCC iter.                  ...        0 min,  0.044 sec
     gradient                   ...        0 min,  0.010 sec
 * total energy  :  -115.2888562 Eh     change       -0.9527314E-05 Eh
   gradient norm :     0.0005062 Eh/α   predicted    -0.5059212E-05 ( -46.90%)
   displ. norm   :     0.0509499 α      lambda       -0.7403155E-05
   maximum displ.:     0.0316572 α      in ANC's #3, #12, #10, ...

........................................................................
.............................. CYCLE   45 ..............................
........................................................................

 iter      E             dE          RMSdq      gap      omega  full diag
   1   -117.4513590 -0.117451E+03  0.121E-02    2.39       0.0  T
   2   -117.4513590 -0.434904E-07  0.709E-03    2.39       1.6  T
   3   -117.4513589  0.130296E-06  0.130E-03    2.39       8.8  T
   4   -117.4513590 -0.149705E-06  0.194E-04    2.39      59.2  T
   5   -117.4513590 -0.224678E-08  0.101E-04    2.39     113.9  T
     SCC iter.                  ...        0 min,  0.044 sec
     gradient                   ...        0 min,  0.010 sec
 * total energy  :  -115.2888650 Eh     change       -0.8784691E-05 Eh
   gradient norm :     0.0011402 Eh/α   predicted    -0.3726237E-05 ( -57.58%)
   displ. norm   :     0.0946376 α      lambda       -0.1045960E-04
   maximum displ.:     0.0564133 α      in ANC's #3, #12, #10, ...

........................................................................
.............................. CYCLE   46 ..............................
........................................................................

 iter      E             dE          RMSdq      gap      omega  full diag
   1   -117.4512208 -0.117451E+03  0.223E-02    2.39       0.0  T
   2   -117.4512209 -0.109697E-06  0.131E-02    2.39       1.0  T
   3   -117.4512206  0.270188E-06  0.189E-03    2.39       6.1  T
   4   -117.4512209 -0.318635E-06  0.269E-04    2.39      42.6  T
   5   -117.4512209 -0.330360E-08  0.141E-04    2.39      81.6  T
     SCC iter.                  ...        0 min,  0.043 sec
     gradient                   ...        0 min,  0.011 sec
 * total energy  :  -115.2888773 Eh     change       -0.1233988E-04 Eh
   gradient norm :     0.0011277 Eh/α   predicted    -0.5255227E-05 ( -57.41%)
   displ. norm   :     0.1075471 α      lambda       -0.9356972E-05
   maximum displ.:     0.0656783 α      in ANC's #3, #10, #12, ...

........................................................................
.............................. CYCLE   47 ..............................
........................................................................

 iter      E             dE          RMSdq      gap      omega  full diag
   1   -117.4513813 -0.117451E+03  0.246E-02    2.39       0.0  T
   2   -117.4513814 -0.124317E-06  0.144E-02    2.39       1.0  T
   3   -117.4513811  0.299564E-06  0.194E-03    2.39       5.9  T
   4   -117.4513815 -0.352946E-06  0.301E-04    2.39      38.1  T
   5   -117.4513815 -0.445810E-08  0.166E-04    2.39      69.0  T
     SCC iter.                  ...        0 min,  0.044 sec
     gradient                   ...        0 min,  0.010 sec
 * total energy  :  -115.2888882 Eh     change       -0.1090342E-04 Eh
   gradient norm :     0.0007593 Eh/α   predicted    -0.4705578E-05 ( -56.84%)
   displ. norm   :     0.0859550 α      lambda       -0.6253763E-05
   maximum displ.:     0.0563009 α      in ANC's #3, #10, #12, ...

........................................................................
.............................. CYCLE   48 ..............................
........................................................................

 iter      E             dE          RMSdq      gap      omega  full diag
   1   -117.4516120 -0.117452E+03  0.185E-02    2.39       0.0  T
   2   -117.4516121 -0.615223E-07  0.108E-02    2.39       1.1  T
   3   -117.4516119  0.137207E-06  0.133E-03    2.39       8.6  T
   4   -117.4516121 -0.164700E-06  0.217E-04    2.39      52.8  T
   5   -117.4516121 -0.194269E-08  0.129E-04    2.39      89.3  T
     SCC iter.                  ...        0 min,  0.043 sec
     gradient                   ...        0 min,  0.010 sec
 * total energy  :  -115.2888957 Eh     change       -0.7506743E-05 Eh
   gradient norm :     0.0003585 Eh/α   predicted    -0.3141575E-05 ( -58.15%)
   displ. norm   :     0.0659993 α      lambda       -0.4544444E-05
   maximum displ.:     0.0461676 α      in ANC's #3, #10, #7, ...

........................................................................
.............................. CYCLE   49 ..............................
........................................................................

 iter      E             dE          RMSdq      gap      omega  full diag
   1   -117.4518131 -0.117452E+03  0.128E-02    2.39       0.0  T
   2   -117.4518131 -0.255836E-07  0.753E-03    2.39       1.5  T
   3   -117.4518131  0.540019E-07  0.867E-04    2.39      13.2  T
   4   -117.4518131 -0.676812E-07  0.158E-04    2.39      72.8  T
     SCC iter.                  ...        0 min,  0.035 sec
     gradient                   ...        0 min,  0.010 sec
 * total energy  :  -115.2889015 Eh     change       -0.5761487E-05 Eh
   gradient norm :     0.0003351 Eh/α   predicted    -0.2281608E-05 ( -60.40%)
   displ. norm   :     0.0644468 α      lambda       -0.4546415E-05
   maximum displ.:     0.0457815 α      in ANC's #3, #10, #16, ...

........................................................................
.............................. CYCLE   50 ..............................
........................................................................

 iter      E             dE          RMSdq      gap      omega  full diag
   1   -117.4519402 -0.117452E+03  0.114E-02    2.39       0.0  T
   2   -117.4519403 -0.196506E-07  0.669E-03    2.39       1.7  T
   3   -117.4519402  0.704180E-07  0.878E-04    2.39      13.1  T
   4   -117.4519403 -0.840964E-07  0.159E-04    2.39      72.2  T
     SCC iter.                  ...        0 min,  0.036 sec
     gradient                   ...        0 min,  0.010 sec
 * total energy  :  -115.2889074 Eh     change       -0.5943149E-05 Eh
   gradient norm :     0.0004814 Eh/α   predicted    -0.2278289E-05 ( -61.67%)
   displ. norm   :     0.0819573 α      lambda       -0.5537129E-05
   maximum displ.:     0.0571008 α      in ANC's #3, #10, #12, ...

........................................................................
.............................. CYCLE   51 ..............................
........................................................................

 iter      E             dE          RMSdq      gap      omega  full diag
   1   -117.4519617 -0.117452E+03  0.142E-02    2.39       0.0  T
   2   -117.4519617 -0.318342E-07  0.837E-03    2.39       1.4  T
   3   -117.4519616  0.912491E-07  0.102E-03    2.39      11.2  T
   4   -117.4519617 -0.111166E-06  0.199E-04    2.39      57.6  T
   5   -117.4519617 -0.182837E-09  0.128E-04    2.39      89.7  T
     SCC iter.                  ...        0 min,  0.044 sec
     gradient                   ...        0 min,  0.010 sec
 * total energy  :  -115.2889147 Eh     change       -0.7276349E-05 Eh
   gradient norm :     0.0005540 Eh/α   predicted    -0.2777453E-05 ( -61.83%)
   displ. norm   :     0.1059414 α      lambda       -0.6587166E-05
   maximum displ.:     0.0735052 α      in ANC's #3, #10, #12, ...

........................................................................
.............................. CYCLE   52 ..............................
........................................................................

 iter      E             dE          RMSdq      gap      omega  full diag
   1   -117.4519340 -0.117452E+03  0.182E-02    2.39       0.0  T
   2   -117.4519341 -0.552097E-07  0.107E-02    2.39       1.1  T
   3   -117.4519340  0.102505E-06  0.116E-03    2.39       9.9  T
   4   -117.4519341 -0.132985E-06  0.236E-04    2.39      48.7  T
   5   -117.4519341 -0.248860E-09  0.136E-04    2.39      84.6  T
     SCC iter.                  ...        0 min,  0.044 sec
     gradient                   ...        0 min,  0.010 sec
 * total energy  :  -115.2889232 Eh     change       -0.8455182E-05 Eh
   gradient norm :     0.0004687 Eh/α   predicted    -0.3310277E-05 ( -60.85%)
   displ. norm   :     0.1116169 α      lambda       -0.6109127E-05
   maximum displ.:     0.0785891 α      in ANC's #3, #10, #12, ...

........................................................................
.............................. CYCLE   53 ..............................
........................................................................

 iter      E             dE          RMSdq      gap      omega  full diag
   1   -117.4518958 -0.117452E+03  0.192E-02    2.39       0.0  T
   2   -117.4518958 -0.573932E-07  0.113E-02    2.39       1.0  T
   3   -117.4518957  0.812866E-07  0.106E-03    2.39      10.9  T
   4   -117.4518958 -0.110950E-06  0.225E-04    2.39      51.0  T
   5   -117.4518958 -0.409713E-09  0.130E-04    2.39      88.0  T
     SCC iter.                  ...        0 min,  0.043 sec
     gradient                   ...        0 min,  0.010 sec
 * total energy  :  -115.2889309 Eh     change       -0.7709025E-05 Eh
   gradient norm :     0.0003108 Eh/α   predicted    -0.3074974E-05 ( -60.11%)
   displ. norm   :     0.0910468 α      lambda       -0.4424994E-05
   maximum displ.:     0.0657030 α      in ANC's #3, #10, #12, ...

........................................................................
.............................. CYCLE   54 ..............................
........................................................................

 iter      E             dE          RMSdq      gap      omega  full diag
   1   -117.4518957 -0.117452E+03  0.159E-02    2.39       0.0  T
   2   -117.4518957 -0.370276E-07  0.934E-03    2.39       1.2  T
   3   -117.4518957  0.314611E-07  0.719E-04    2.39      16.0  T
   4   -117.4518958 -0.491242E-07  0.179E-04    2.39      63.9  T
     SCC iter.                  ...        0 min,  0.036 sec
     gradient                   ...        0 min,  0.010 sec
 * total energy  :  -115.2889365 Eh     change       -0.5617092E-05 Eh
   gradient norm :     0.0002040 Eh/α   predicted    -0.2222294E-05 ( -60.44%)
   displ. norm   :     0.0676444 α      lambda       -0.3109622E-05
   maximum displ.:     0.0503927 α      in ANC's #3, #10, #12, ...

........................................................................
.............................. CYCLE   55 ..............................
........................................................................

 iter      E             dE          RMSdq      gap      omega  full diag
   1   -117.4519161 -0.117452E+03  0.121E-02    2.39       0.0  T
   2   -117.4519161 -0.184171E-07  0.710E-03    2.39       1.6  T
   3   -117.4519160  0.327494E-07  0.614E-04    2.39      18.7  T
   4   -117.4519161 -0.425835E-07  0.129E-04    2.39      89.2  T
     SCC iter.                  ...        0 min,  0.035 sec
     gradient                   ...        0 min,  0.010 sec
 * total energy  :  -115.2889406 Eh     change       -0.4058861E-05 Eh
   gradient norm :     0.0002112 Eh/α   predicted    -0.1564459E-05 ( -61.46%)
   displ. norm   :     0.0505841 α      lambda       -0.2369824E-05
   maximum displ.:     0.0385057 α      in ANC's #3, #10, #16, ...

........................................................................
.............................. CYCLE   56 ..............................
........................................................................

 iter      E             dE          RMSdq      gap      omega  full diag
   1   -117.4519345 -0.117452E+03  0.918E-03    2.39       0.0  T
   2   -117.4519345 -0.118467E-07  0.539E-03    2.39       2.1  T
   3   -117.4519345  0.162606E-07  0.467E-04    2.39      24.6  T
   4   -117.4519345 -0.217915E-07  0.104E-04    2.39     110.5  T
     SCC iter.                  ...        0 min,  0.035 sec
     gradient                   ...        0 min,  0.010 sec
 * total energy  :  -115.2889437 Eh     change       -0.3140354E-05 Eh
   gradient norm :     0.0002293 Eh/α   predicted    -0.1186625E-05 ( -62.21%)
   displ. norm   :     0.0421386 α      lambda       -0.1971885E-05
   maximum displ.:     0.0323631 α      in ANC's #3, #10, #16, ...

........................................................................
.............................. CYCLE   57 ..............................
........................................................................

 iter      E             dE          RMSdq      gap      omega  full diag
   1   -117.4519435 -0.117452E+03  0.758E-03    2.39       0.0  T
   2   -117.4519435 -0.976783E-08  0.445E-03    2.39       2.6  T
   3   -117.4519435  0.171084E-07  0.477E-04    2.39      24.1  T
   4   -117.4519435 -0.216467E-07  0.823E-05    2.39     139.4  T
     SCC iter.                  ...        0 min,  0.035 sec
     gradient                   ...        0 min,  0.010 sec
 * total energy  :  -115.2889463 Eh     change       -0.2607867E-05 Eh
   gradient norm :     0.0001963 Eh/α   predicted    -0.9894866E-06 ( -62.06%)
   displ. norm   :     0.0379033 α      lambda       -0.1635636E-05
   maximum displ.:     0.0294995 α      in ANC's #3, #13, #17, ...

........................................................................
.............................. CYCLE   58 ..............................
........................................................................

 iter      E             dE          RMSdq      gap      omega  full diag
   1   -117.4519630 -0.117452E+03  0.658E-03    2.39       0.0  T
   2   -117.4519630 -0.912358E-08  0.387E-03    2.39       3.0  T
   3   -117.4519630  0.234208E-07  0.529E-04    2.39      21.7  T
   4   -117.4519630 -0.281247E-07  0.826E-05    2.39     138.8  T
     SCC iter.                  ...        0 min,  0.035 sec
     gradient                   ...        0 min,  0.010 sec
 * total energy  :  -115.2889484 Eh     change       -0.2125571E-05 Eh
   gradient norm :     0.0001357 Eh/α   predicted    -0.8199543E-06 ( -61.42%)
   displ. norm   :     0.0292452 α      lambda       -0.1123458E-05
   maximum displ.:     0.0233959 α      in ANC's #3, #13, #17, ...

........................................................................
.............................. CYCLE   59 ..............................
........................................................................

 iter      E             dE          RMSdq      gap      omega  full diag
   1   -117.4519767 -0.117452E+03  0.482E-03    2.39       0.0  T
   2   -117.4519767 -0.515098E-08  0.284E-03    2.39       4.0  T
   3   -117.4519767  0.248424E-07  0.495E-04    2.39      23.2  T
   4   -117.4519767 -0.281745E-07  0.765E-05    2.39     150.0  T
     SCC iter.                  ...        0 min,  0.035 sec
     gradient                   ...        0 min,  0.010 sec
 * total energy  :  -115.2889499 Eh     change       -0.1465518E-05 Eh
   gradient norm :     0.0000979 Eh/α   predicted    -0.5647933E-06 ( -61.46%)
   displ. norm   :     0.0212098 α      lambda       -0.7611811E-06
   maximum displ.:     0.0176623 α      in ANC's #3, #13, #1, ...

........................................................................
.............................. CYCLE   60 ..............................
........................................................................

 iter      E             dE          RMSdq      gap      omega  full diag
   1   -117.4519996 -0.117452E+03  0.334E-03    2.39       0.0  T
   2   -117.4519996 -0.222163E-08  0.198E-03    2.39       5.8  T
   3   -117.4519996  0.153669E-07  0.370E-04    2.39      31.0  T
   4   -117.4519996 -0.170707E-07  0.596E-05    2.39     192.5  T
     SCC iter.                  ...        0 min,  0.035 sec
     gradient                   ...        0 min,  0.010 sec
 * total energy  :  -115.2889509 Eh     change       -0.1032093E-05 Eh
   gradient norm :     0.0000873 Eh/α   predicted    -0.3832499E-06 ( -62.87%)
   displ. norm   :     0.0163628 α      lambda       -0.5930218E-06
   maximum displ.:     0.0138281 α      in ANC's #3, #1, #13, ...

........................................................................
.............................. CYCLE   61 ..............................
........................................................................

 iter      E             dE          RMSdq      gap      omega  full diag
   1   -117.4520137 -0.117452E+03  0.249E-03    2.39       0.0  T
   2   -117.4520137 -0.104420E-08  0.149E-03    2.39       7.7  T
   3   -117.4520137  0.114117E-07  0.308E-04    2.39      37.2  T
   4   -117.4520137 -0.124857E-07  0.493E-05    2.39     232.9  T
     SCC iter.                  ...        0 min,  0.036 sec
     gradient                   ...        0 min,  0.010 sec
 * total energy  :  -115.2889518 Eh     change       -0.8275971E-06 Eh
   gradient norm :     0.0000939 Eh/α   predicted    -0.2979683E-06 ( -64.00%)
   displ. norm   :     0.0162229 α      lambda       -0.5894286E-06
   maximum displ.:     0.0131836 α      in ANC's #3, #1, #16, ...

........................................................................
[...]
    42   6 C       43   6 C                                       1.3846327
    39   6 C       44   6 C                                       1.3889243
    43   6 C       44   6 C                                       1.3831300
     4   6 C       45   6 C                                       1.3952675
     1   6 C       46   6 C                                       1.3852664
    45   6 C       46   6 C                                       1.3804413
     1   6 C       47   1 H                                       1.0794646
     2   6 C       48   1 H                                       1.0802468
     3   6 C       49   1 H                                       1.0803219
     7   6 C       50   1 H                                       1.0798511
     8   6 C       51   1 H                                       1.0801509
     9   6 C       52   1 H                                       1.0794653
    10   6 C       53   1 H                                       1.0802461
    11   6 C       54   1 H                                       1.0803216
    13   6 C       55   1 H                                       1.0781791 (min)
    17   6 C       56   1 H                                       1.0781812
    20   6 C       57   1 H                                       1.0801279
    21   6 C       58   1 H                                       1.0798953
    22   6 C       59   1 H                                       1.0795723
    23   6 C       60   1 H                                       1.0796240
    24   6 C       61   1 H                                       1.0799415
    26   6 C       62   1 H                                       1.0798887
    27   6 C       63   1 H                                       1.0805539
    28   6 C       64   1 H                                       1.0801964
    29   6 C       65   1 H                                       1.0788102
    33   6 C       66   1 H                                       1.0788055
    34   6 C       67   1 H                                       1.0801994
    35   6 C       68   1 H                                       1.0805503
    36   6 C       69   1 H                                       1.0798832
    40   6 C       70   1 H                                       1.0801288
    41   6 C       71   1 H                                       1.0798960
    42   6 C       72   1 H                                       1.0795714
    43   6 C       73   1 H                                       1.0796232
    44   6 C       74   1 H                                       1.0799426
    45   6 C       75   1 H                                       1.0798503
    46   6 C       76   1 H                                       1.0801518

 * 4 distinct bonds (by element types)

   Z      Z             #   av. dist./Å        max./Å        min./Å
   1 H    6 C          30     1.0797880     1.0805539     1.0781791
   5 B    6 C           3     1.5346040     1.5450151     1.5137829
   6 C    6 C          42     1.3898444     1.4145855     1.3754908
   6 C    7 N           9     1.3970594     1.4255388     1.3791976

           -------------------------------------------------
          |               Frequency Printout                |
           -------------------------------------------------
 projected vibrational frequencies (cm⁻¹)
eigval :       -0.00    -0.00     0.00     0.00     0.00     0.00
eigval :       14.79    16.07    22.82    24.73    33.37    35.52
eigval :       38.33    47.71    55.83    62.94    67.55    72.56
eigval :       73.81    82.16    90.17   120.91   139.27   163.06
eigval :      185.94   186.71   191.01   209.56   213.23   230.37
eigval :      238.72   239.07   249.12   261.21   269.82   284.88
eigval :      315.37   346.77   372.33   374.65   375.74   378.83
eigval :      383.55   384.94   385.67   398.54   402.34   417.11
eigval :      441.17   448.33   482.04   482.93   492.55   494.95
eigval :      497.58   499.66   500.80   551.78   571.08   573.89
eigval :      579.19   582.84   587.62   589.64   591.57   595.58
eigval :      600.07   606.79   616.63   636.70   648.19   656.94
eigval :      662.35   669.10   676.00   679.25   679.98   687.57
eigval :      709.69   738.92   748.06   756.30   760.21   770.48
eigval :      770.84   772.01   777.71   821.30   844.25   865.67
eigval :      867.30   871.02   873.45   874.74   877.43   877.82
eigval :      890.59   892.41   896.75   900.00   901.93   902.72
eigval :      910.02   911.64   918.70   919.25   923.23   925.74
eigval :      925.88   926.79   926.81   928.46   929.84   929.88
eigval :      932.23   932.33   933.74   979.18   992.23   995.41
eigval :     1005.94  1067.93  1078.80  1079.20  1083.75  1084.37
eigval :     1088.65  1095.53  1106.52  1113.39  1113.79  1115.39
eigval :     1121.83  1124.63  1140.61  1172.24  1179.43  1179.49
eigval :     1181.64  1181.70  1182.69  1185.26  1187.71  1188.67
eigval :     1190.06  1195.83  1198.45  1215.06  1224.97  1244.37
eigval :     1259.63  1268.03  1269.68  1273.74  1274.02  1278.44
eigval :     1285.54  1287.03  1302.93  1310.36  1310.87  1312.04
eigval :     1316.26  1321.47  1323.92  1328.60  1337.21  1337.22
eigval :     1359.76  1385.79  1423.64  1424.57  1429.14  1433.66
eigval :     1434.01  1436.83  1443.58  1453.48  1455.47  1467.04
eigval :     1471.85  1473.88  1477.57  1479.30  1539.39  1551.54
eigval :     1552.15  1569.95  1576.91  1581.17  1584.03  1584.09
eigval :     1593.27  1595.01  1595.75  1596.64  1597.61  1601.74
eigval :     3068.39  3068.59  3074.24  3074.79  3076.07  3076.32
eigval :     3077.84  3078.71  3079.66  3079.75  3082.01  3082.02
eigval :     3085.41  3086.57  3088.74  3089.00  3089.52  3090.10
eigval :     3090.18  3090.49  3093.43  3093.53  3096.48  3096.91
eigval :     3097.94  3099.61  3099.70  3104.13  3107.90  3108.75
 reduced masses (amu)
   1: 11.41   2: 11.31   3: 11.35   4: 11.37   5: 11.48   6: 11.24   7: 10.89   8: 10.88
   9: 10.81  10: 10.70  11: 10.59  12: 10.14  13:  9.81  14: 10.73  15: 10.28  16: 10.65
  17: 10.63  18: 10.57  19: 10.14  20: 11.07  21: 10.18  22: 10.37  23: 10.89  24: 10.44
  25: 10.87  26: 10.96  27: 11.04  28: 11.08  29: 10.47  30: 10.52  31: 10.53  32: 10.51
  33: 10.36  34: 10.83  35: 10.57  36: 10.77  37: 10.59  38: 10.74  39:  9.84  40:  8.89
  41:  9.75  42: 10.10  43:  9.88  44: 10.40  45: 10.05  46: 10.90  47: 11.19  48: 11.21
  49: 10.94  50: 10.52  51: 10.60  52: 10.23  53: 11.13  54: 10.53  55: 10.34  56: 10.31
  57: 10.89  58: 11.03  59: 11.17  60: 11.49  61: 11.22  62: 11.12  63: 11.26  64: 11.18
  65: 11.21  66: 11.25  67: 11.62  68: 11.43  69: 11.38  70: 11.30  71: 11.08  72: 10.88
  73: 10.19  74:  9.81  75:  9.29  76: 11.05  77:  9.45  78: 11.09  79: 11.71  80:  9.35
  81:  8.41  82:  4.02  83:  5.08  84:  3.65  85:  7.47  86:  3.62  87:  7.36  88:  2.98
  89:  3.64  90:  3.60  91: 11.08  92:  3.89  93:  3.30  94:  3.33  95:  3.31  96:  3.33
  97:  3.97  98:  3.98  99: 11.11 100:  5.99 101:  4.68 102:  9.20 103:  4.59 104: 10.88
 105: 11.08 106:  3.93 107:  3.16 108:  3.82 109:  3.81 110:  7.67 111:  3.15 112:  3.32
 113:  3.87 114:  3.92 115:  3.08 116:  3.08 117:  5.79 118: 11.02 119: 10.93 120: 10.89
 121: 10.59 122: 10.54 123:  6.85 124:  6.59 125:  6.64 126:  6.55 127: 10.34 128:  8.16
 129:  8.43 130:  4.16 131:  3.99 132:  6.11 133:  4.08 134:  4.04 135:  6.35 136:  6.26
 137:  1.38 138:  1.36 139:  1.37 140:  1.35 141:  1.73 142:  3.74 143:  1.88 144:  2.34
 145:  2.78 146:  1.78 147:  3.03 148:  4.89 149:  8.75 150:  3.91 151:  4.90 152:  7.78
 153:  9.55 154:  4.27 155:  3.73 156:  3.94 157:  9.05 158:  4.68 159: 10.04 160: 10.70
 161: 11.61 162: 11.17 163: 10.38 164: 11.53 165: 10.65 166: 11.87 167: 11.56 168: 11.60
 169: 11.86 170: 11.34 171:  9.49 172: 10.18 173:  9.70 174:  8.91 175:  8.93 176:  9.13
 177:  9.29 178:  9.74 179: 10.20 180:  9.53 181:  9.28 182:  9.37 183:  9.42 184: 10.16
 185: 11.72 186: 11.55 187: 11.45 188: 11.60 189: 11.48 190: 11.53 191: 11.52 192: 11.53
 193: 11.44 194: 11.45 195: 11.47 196: 11.48 197: 11.47 198: 11.49 199:  1.76 200:  1.76
 201:  1.75 202:  1.75 203:  1.78 204:  1.79 205:  1.82 206:  1.82 207:  1.75 208:  1.76
 209:  1.78 210:  1.78 211:  1.84 212:  1.83 213:  1.85 214:  1.84 215:  1.86 216:  1.85
 217:  1.87 218:  1.86 219:  1.88 220:  1.88 221:  1.92 222:  1.92 223:  1.87 224:  1.93
 225:  1.93 226:  1.84 227:  1.81 228:  1.81
 IR intensities (km·mol⁻¹)
   1:  0.00   2:  0.01   3:  0.01   4:  0.01   5:  0.00   6:  0.01   7:  0.21   8:  0.17
   9:  0.05  10:  0.14  11:  0.14  12:  0.07  13:  0.09  14:  0.00  15:  0.93  16:  0.60
  17:  0.04  18:  0.51  19:  0.14  20:  0.33  21:  0.49  22:  0.04  23:  0.01  24:  0.14
  25:  0.79  26:  0.59  27:  0.34  28:  0.49  29:  0.25  30:  0.02  31:  0.68  32:  1.51
  33:  3.27  34:  0.25  35:  0.85  36:  0.84  37:  0.17  38:  1.89  39:  2.46  40:  0.01
  41:  1.86  42:  1.03  43:  0.05  44:  0.58  45:  1.46  46:  1.12  47:  0.19  48:  6.00
  49:  1.44  50:  4.71  51:  0.88  52:  8.89  53:  3.02  54:  0.87  55:  2.83  56:  0.49
  57:  0.73  58:  4.91  59:  2.80  60:  0.01  61:  1.65  62:  3.42  63:  1.97  64:  0.30
  65:  1.93  66:  0.97  67:  1.90  68:  0.26  69: 20.71  70:  0.90  71:  4.61  72:  0.33
  73:  1.58  74: 22.34  75:  3.80  76:  1.24  77:  0.98  78:  0.16  79: 36.10  80:  4.47
  81:  0.87  82: 43.62  83:  3.97  84: 30.72  85:  8.26  86:  0.08  87: 10.34  88:  9.74
  89:  0.71  90:  0.42  91:  3.99  92:  0.42  93:  0.08  94:  0.11  95:  0.26  96:  0.07
  97:  0.90  98:  0.95  99:  3.86 100:  2.20 101:  0.10 102:  5.30 103:  0.94 104:  7.34
 105:  2.66 106:  0.02 107:  0.05 108:  0.11 109:  0.17 110:  1.27 111:  0.34 112:  0.08
 113:  0.17 114:  0.35 115:  0.02 116:  0.03 117:  0.41 118:  0.09 119:  3.56 120:  1.55
 121:  0.90 122: 11.02 123:  0.44 124:  0.29 125:  0.09 126:  0.00 127:  3.26 128:  8.99
 129: 27.32 130:  0.13 131:  3.62 132:  0.56 133:  1.22 134:  0.00 135:  7.73 136: 18.15
 137:  0.37 138:  0.01 139:  0.00 140:  0.05 141:  0.64 142:  0.00 143:  0.05 144:  0.06
 145:  0.21 146:  9.17 147: 17.80 148:  2.69 149:  0.00 150: 18.21 151:  7.58 152:140.37
 153:140.93 154: 33.19 155:  0.03 156:  9.33 157: 54.11 158:  1.01 159:  0.11 160: 32.72
 161: 37.39 162: 24.69 163:383.36 164:  1.34 165:309.58 166:  0.07 167: 79.33 168:238.71
 169: 38.11 170:  2.69 171: 23.44 172:144.91 173:261.08 174:  0.83 175:  0.63 176:  5.17
 177: 85.27 178: 10.73 179:304.05 180: 34.28 181: 95.23 182:152.69 183:140.43 184:  3.19
 185:205.84 186:222.75 187: 15.00 188:911.42 189: 12.81 190:  0.35 191:  3.27 192:  5.60
 193:  3.56 194: 57.35 195: 74.50 196: 65.69 197:  9.22 198:  7.84 199:  9.34 200:  0.61
 201: 11.41 202:  6.53 203:  4.65 204:  7.60 205: 18.21 206:135.79 207: 14.82 208:  5.24
 209:  0.24 210:  2.20 211: 73.45 212:  0.39 213:174.33 214:  1.11 215: 68.56 216:  7.29
 217:  1.38 218:144.10 219:  9.89 220:148.33 221: 59.30 222: 10.91 223:  8.94 224: 79.83
 225: 24.84 226: 65.01 227: 29.81 228: 14.31
 Raman intensities (Ä⁴*amu⁻¹)
   1:  0.00   2:  0.00   3:  0.00   4:  0.00   5:  0.00   6:  0.00   7:  0.00   8:  0.00
   9:  0.00  10:  0.00  11:  0.00  12:  0.00  13:  0.00  14:  0.00  15:  0.00  16:  0.00
  17:  0.00  18:  0.00  19:  0.00  20:  0.00  21:  0.00  22:  0.00  23:  0.00  24:  0.00
  25:  0.00  26:  0.00  27:  0.00  28:  0.00  29:  0.00  30:  0.00  31:  0.00  32:  0.00
  33:  0.00  34:  0.00  35:  0.00  36:  0.00  37:  0.00  38:  0.00  39:  0.00  40:  0.00
  41:  0.00  42:  0.00  43:  0.00  44:  0.00  45:  0.00  46:  0.00  47:  0.00  48:  0.00
  49:  0.00  50:  0.00  51:  0.00  52:  0.00  53:  0.00  54:  0.00  55:  0.00  56:  0.00
  57:  0.00  58:  0.00  59:  0.00  60:  0.00  61:  0.00  62:  0.00  63:  0.00  64:  0.00
  65:  0.00  66:  0.00  67:  0.00  68:  0.00  69:  0.00  70:  0.00  71:  0.00  72:  0.00
  73:  0.00  74:  0.00  75:  0.00  76:  0.00  77:  0.00  78:  0.00  79:  0.00  80:  0.00
  81:  0.00  82:  0.00  83:  0.00  84:  0.00  85:  0.00  86:  0.00  87:  0.00  88:  0.00
  89:  0.00  90:  0.00  91:  0.00  92:  0.00  93:  0.00  94:  0.00  95:  0.00  96:  0.00
  97:  0.00  98:  0.00  99:  0.00 100:  0.00 101:  0.00 102:  0.00 103:  0.00 104:  0.00
 105:  0.00 106:  0.00 107:  0.00 108:  0.00 109:  0.00 110:  0.00 111:  0.00 112:  0.00
 113:  0.00 114:  0.00 115:  0.00 116:  0.00 117:  0.00 118:  0.00 119:  0.00 120:  0.00
 121:  0.00 122:  0.00 123:  0.00 124:  0.00 125:  0.00 126:  0.00 127:  0.00 128:  0.00
 129:  0.00 130:  0.00 131:  0.00 132:  0.00 133:  0.00 134:  0.00 135:  0.00 136:  0.00
 137:  0.00 138:  0.00 139:  0.00 140:  0.00 141:  0.00 142:  0.00 143:  0.00 144:  0.00
 145:  0.00 146:  0.00 147:  0.00 148:  0.00 149:  0.00 150:  0.00 151:  0.00 152:  0.00
 153:  0.00 154:  0.00 155:  0.00 156:  0.00 157:  0.00 158:  0.00 159:  0.00 160:  0.00
 161:  0.00 162:  0.00 163:  0.00 164:  0.00 165:  0.00 166:  0.00 167:  0.00 168:  0.00
 169:  0.00 170:  0.00 171:  0.00 172:  0.00 173:  0.00 174:  0.00 175:  0.00 176:  0.00
 177:  0.00 178:  0.00 179:  0.00 180:  0.00 181:  0.00 182:  0.00 183:  0.00 184:  0.00
 185:  0.00 186:  0.00 187:  0.00 188:  0.00 189:  0.00 190:  0.00 191:  0.00 192:  0.00
 193:  0.00 194:  0.00 195:  0.00 196:  0.00 197:  0.00 198:  0.00 199:  0.00 200:  0.00
 201:  0.00 202:  0.00 203:  0.00 204:  0.00 205:  0.00 206:  0.00 207:  0.00 208:  0.00
 209:  0.00 210:  0.00 211:  0.00 212:  0.00 213:  0.00 214:  0.00 215:  0.00 216:  0.00
 217:  0.00 218:  0.00 219:  0.00 220:  0.00 221:  0.00 222:  0.00 223:  0.00 224:  0.00
 225:  0.00 226:  0.00 227:  0.00 228:  0.00
 output can be read by thermo (or use thermo option).
 writing <g98.out> molden fake output.
 recommended (thermochemical) frequency scaling factor: 1.0
           -------------------------------------------------
          |             Thermodynamic Functions             |
           -------------------------------------------------

Molecule has the following symmetry elements: (C2) 
It seems to be the C2 point group
c2  symmetry found (for desy threshold:  0.10E+00) used in thermo

          ...................................................
          :                      SETUP                      :
          :.................................................:
          :  # frequencies                         222      :
          :  # imaginary freq.                       0      :
          :  linear?                             false      :
          :  only rotor calc.                    false      :
          :  symmetry                               c2      :
          :  rotational number                       2      :
          :  scaling factor                  1.0000000      :
          :  rotor cutoff                   50.0000000 cm⁻¹ :
          :  imag. cutoff                  -20.0000000 cm⁻¹ :
          :.................................................:

    mode    ω/cm⁻¹     T·S(HO)/kcal·mol⁻¹    T·S(FR)/kcal·mol⁻¹   T·S(vib)
   ------------------------------------------------------------------------
       1     14.79    -2.15681 (  0.76%)    -1.41742 ( 99.24%)    -1.42303
       2     16.07    -2.10762 (  1.06%)    -1.39282 ( 98.94%)    -1.40036
       3     22.82    -1.89987 (  4.16%)    -1.28888 ( 95.84%)    -1.31429
       4     24.73    -1.85229 (  5.65%)    -1.26506 ( 94.35%)    -1.29823
       5     33.37    -1.67513 ( 16.55%)    -1.17634 ( 83.45%)    -1.25890
       6     35.52    -1.63814 ( 20.30%)    -1.15781 ( 79.70%)    -1.25533
       7     38.33    -1.59325 ( 25.66%)    -1.13531 ( 74.34%)    -1.25282
       8     47.71    -1.46390 ( 45.33%)    -1.07040 ( 54.67%)    -1.24879
       9     55.83    -1.37129 ( 60.86%)    -1.02386 ( 39.14%)    -1.23529
      10     62.94    -1.30078 ( 71.52%)    -0.98836 ( 28.48%)    -1.21179
      11     67.55    -1.25922 ( 76.92%)    -0.96741 ( 23.08%)    -1.19185
      12     72.56    -1.21723 ( 81.60%)    -0.94621 ( 18.40%)    -1.16737
      13     73.81    -1.20723 ( 82.61%)    -0.94116 ( 17.39%)    -1.16095
      14     82.16    -1.14445 ( 87.94%)    -0.90940 ( 12.06%)    -1.11610
      15     90.17    -1.09013 ( 91.36%)    -0.88185 (  8.64%)    -1.07214
      16    120.91    -0.92002 ( 97.16%)    -0.79496 (  2.84%)    -0.91647
      17    139.27    -0.83898 ( 98.37%)    -0.75309 (  1.63%)    -0.83757
      18    163.06    -0.74954 ( 99.12%)    -0.70636 (  0.88%)    -0.74917
      19    185.94    -0.67619 ( 99.48%)    -0.66747 (  0.52%)    -0.67615
      20    186.71    -0.67388 ( 99.49%)    -0.66623 (  0.51%)    -0.67384
      21    191.01    -0.66129 ( 99.53%)    -0.65949 (  0.47%)    -0.66128
      22    209.56    -0.61047 ( 99.68%)    -0.63204 (  0.32%)    -0.61054
      23    213.23    -0.60102 ( 99.70%)    -0.62689 (  0.30%)    -0.60110
      24    230.37    -0.55936 ( 99.78%)    -0.60399 (  0.22%)    -0.55945
      25    238.72    -0.54036 ( 99.81%)    -0.59344 (  0.19%)    -0.54046
      26    239.07    -0.53960 ( 99.81%)    -0.59301 (  0.19%)    -0.53970
      27    249.12    -0.51782 ( 99.84%)    -0.58081 (  0.16%)    -0.51793
      28    261.21    -0.49304 ( 99.87%)    -0.56677 (  0.13%)    -0.49314
      29    269.82    -0.47626 ( 99.88%)    -0.55717 (  0.12%)    -0.47635
      30    284.88    -0.44848 ( 99.91%)    -0.54108 (  0.09%)    -0.44857
   ------------------------------------------------------------------------

   temp. (K)  partition function   enthalpy   heat capacity  entropy
                                   cal/mol     cal/K/mol   cal/K/mol   J/K/mol
 298.15  VIB  0.197E+17            21079.927    134.278    130.598
         ROT  0.271E+08              888.752      2.981     36.991
         INT  0.535E+24            21968.679    137.259    167.589
         TR   0.138E+29             1481.254      4.968     44.976
         TOT                       23449.9331   142.2270   212.5648   889.3712

       T/K    H(0)-H(T)+PV         H(T)/Eh          T*S/Eh         G(T)/Eh
   ------------------------------------------------------------------------
    298.15    0.373698E-01    0.625509E+00    0.100996E+00    0.524513E+00
   ------------------------------------------------------------------------

         :::::::::::::::::::::::::::::::::::::::::::::::::::::
         ::                  THERMODYNAMIC                  ::
         :::::::::::::::::::::::::::::::::::::::::::::::::::::
         :: total free energy        -114.764456000777 Eh   ::
         ::.................................................::
         :: total energy             -115.288968796051 Eh   ::
         :: zero point energy           0.588139355361 Eh   ::
         :: G(RRHO) w/o ZPVE           -0.063626560087 Eh   ::
         :: G(RRHO) contrib.            0.524512795274 Eh   ::
         :::::::::::::::::::::::::::::::::::::::::::::::::::::

optimized geometry written to: xtbopt.xyz


           -------------------------------------------------
          | TOTAL ENERGY             -115.288968796051 Eh   |
          | TOTAL ENTHALPY           -114.663459593590 Eh   |
          | TOTAL FREE ENERGY        -114.764456000777 Eh   |
          | GRADIENT NORM               0.000060910458 Eh/α |
          | HOMO-LUMO GAP               2.396039856539 eV   |
           -------------------------------------------------

------------------------------------------------------------------------
 * finished run on 2025/09/11 at 05:02:03.942     
------------------------------------------------------------------------
 total:
 * wall-time:     0 d,  0 h,  0 min,  9.197 sec
 *  cpu-time:     0 d,  0 h,  5 min, 52.611 sec
 * ratio c/w:    38.338 speedup
 SCF:
 * wall-time:     0 d,  0 h,  0 min,  0.195 sec
 *  cpu-time:     0 d,  0 h,  0 min,  7.044 sec
 * ratio c/w:    36.071 speedup
 ANC optimizer:
 * wall-time:     0 d,  0 h,  0 min,  5.544 sec
 *  cpu-time:     0 d,  0 h,  3 min, 41.726 sec
 * ratio c/w:    39.995 speedup
 analytical hessian:
 * wall-time:     0 d,  0 h,  0 min,  3.288 sec
 *  cpu-time:     0 d,  0 h,  1 min, 57.771 sec
 * ratio c/w:    35.821 speedup

