 Entering Gaussian System
 *********************************************
 Gaussian 98:
 frequency output generated by the xtb code
 *********************************************
                         Standard orientation:
 --------------------------------------------------------------------
  Center     Atomic     Atomic              Coordinates (Angstroms)
  Number     Number      Type              X           Y           Z
 --------------------------------------------------------------------
    1          6             0       -7.290751    3.384519   -0.841928
    2          6             0       -7.755612    2.135996   -1.221567
    3          6             0       -7.028367    0.999011   -0.928366
    4          6             0       -5.820423    1.095802   -0.237833
    5          7             0       -5.081723   -0.053743    0.064077
    6          6             0       -5.741182   -1.236266    0.417735
    7          6             0       -6.897926   -1.195358    1.195922
    8          6             0       -7.547195   -2.364869    1.539827
    9          6             0       -7.053513   -3.590669    1.124225
   10          6             0       -5.902858   -3.637293    0.354351
   11          6             0       -5.251262   -2.472856   -0.002082
   12          6             0       -3.684692   -0.020171    0.014200
   13          6             0       -3.026941    0.733855   -0.958029
   14          6             0       -1.648522    0.773310   -0.997318
   15          6             0       -0.886608    0.051381   -0.082722
   16          6             0        0.589029    0.092467   -0.131055
   17          6             0        1.265148    1.272255    0.211924
   18          6             0        0.570114    2.434444    0.638223
   19          6             0        1.236474    3.568953    0.985057
   20          6             0        2.644267    3.607735    0.941513
   21          6             0        3.349203    2.510952    0.552174
   22          6             0        2.693305    1.311941    0.167170
   23          6             0        3.411464    0.172241   -0.221691
   24          6             0        4.887642    0.220813   -0.275954
   25          6             0        5.522599    1.000620   -1.266558
   26          6             0        6.884083    1.059295   -1.341495
   27          6             0        7.691358    0.346643   -0.429662
   28          6             0        9.099740    0.387306   -0.479366
   29          6             0        9.850660   -0.316752    0.419783
   30          6             0        9.227361   -1.093486    1.409315
   31          6             0        7.864262   -1.153415    1.483813
   32          6             0        7.060682   -0.438483    0.570860
   33          6             0        5.653281   -0.482160    0.620565
   34          6             0        2.736178   -1.007557   -0.565366
   35          6             0        3.431187   -2.169545   -0.992916
   36          6             0        2.764673   -3.304589   -1.337605
   37          6             0        1.357004   -3.344453   -1.290562
   38          6             0        0.652448   -2.247861   -0.900313
   39          6             0        1.307721   -1.047725   -0.518192
   40          6             0       -1.545614   -0.708143    0.880075
   41          6             0       -2.923676   -0.739342    0.936170
   42          6             0       -5.359710    2.354939    0.146616
   43          6             0       -6.089862    3.486728   -0.159070
   44          1             0       -7.860127    4.271072   -1.076351
   45          1             0       -8.688432    2.046645   -1.758807
   46          1             0       -7.388335    0.027594   -1.234525
   47          1             0       -7.279474   -0.241482    1.529848
   48          1             0       -8.440838   -2.318744    2.144837
   49          1             0       -7.561754   -4.502676    1.398183
   50          1             0       -5.513641   -4.588087    0.020691
   51          1             0       -4.360328   -2.511696   -0.611759
   52          1             0       -3.605665    1.286597   -1.683539
   53          1             0       -1.149691    1.357565   -1.757165
   54          1             0       -0.507902    2.399002    0.690545
   55          1             0        0.692687    4.445108    1.307026
   56          1             0        3.158253    4.512698    1.230968
   57          1             0        4.428862    2.535558    0.538644
   58          1             0        4.908010    1.544824   -1.969531
   59          1             0        7.364903    1.655178   -2.104624
   60          1             0        9.574604    0.986700   -1.243451
   61          1             0       10.929505   -0.281222    0.376125
   62          1             0        9.836622   -1.643599    2.111730
   63          1             0        7.379406   -1.750253    2.243502
   64          1             0        5.175126   -1.077815    1.386134
   65          1             0        4.509156   -2.134654   -1.047616
   66          1             0        3.308697   -4.180215   -1.660487
   67          1             0        0.843253   -4.250219   -1.578078
   68          1             0       -0.427015   -2.272243   -0.883080
   69          1             0       -0.966198   -1.264770    1.602562
   70          1             0       -3.421843   -1.319736    1.698916
   71          1             0       -4.429118    2.436965    0.689060
   72          1             0       -5.722168    4.455435    0.146297
 --------------------------------------------------------------------
     1 basis functions        1 primitive gaussians
     1 alpha electrons        1 beta electrons
 
 Harmonic frequencies (cm**-1), IR intensities (km*mol⁻¹),
 Raman scattering activities (A**4/amu), Raman depolarization ratios,
 reduced masses (AMU), force constants (mDyne/A) and normal coordinates:
                      1                      2                      3
                        a                      a                      a 
 Frequencies --    10.8753                12.1619                14.9882
 Red. masses --    10.8084                11.0724                11.0126
 Frc consts  --     0.0000                 0.0000                 0.0000
 IR Inten    --     0.0132                 0.0128                 0.0050
 Raman Activ --     0.0000                 0.0000                 0.0000
 Depolar     --     0.0000                 0.0000                 0.0000
 Atom AN      X      Y      Z        X      Y      Z        X      Y      Z
   1   6    -0.03  -0.09  -0.29    -0.08  -0.05   0.08     0.17   0.11   0.03
   2   6     0.00  -0.13  -0.22    -0.08  -0.06   0.11     0.09   0.13   0.05
   3   6     0.01  -0.10  -0.12    -0.05  -0.05   0.10     0.04   0.09   0.03
   4   6    -0.01  -0.03  -0.10    -0.02  -0.02   0.04     0.06   0.03   0.01
   5   7     0.00  -0.00  -0.01     0.01  -0.01   0.02    -0.00  -0.01  -0.01
   6   6     0.00   0.02   0.06     0.04  -0.01   0.07    -0.06   0.03   0.04
   7   6    -0.00   0.07   0.05     0.08  -0.01   0.13    -0.04   0.12   0.07
   8   6    -0.00   0.09   0.12     0.11  -0.01   0.18    -0.10   0.17   0.11
   9   6     0.00   0.06   0.20     0.10  -0.01   0.18    -0.18   0.13   0.13
  10   6     0.01   0.01   0.21     0.06  -0.01   0.12    -0.20   0.04   0.10
  11   6     0.01  -0.01   0.14     0.03  -0.01   0.07    -0.14  -0.01   0.05
  12   6     0.00   0.01   0.01     0.01   0.01  -0.03    -0.00  -0.08  -0.05
  13   6     0.01  -0.02  -0.01    -0.03   0.01  -0.05     0.01  -0.11  -0.06
  14   6     0.01  -0.02   0.01    -0.03   0.02  -0.10     0.01  -0.14  -0.08
  15   6     0.00   0.02   0.04     0.00   0.04  -0.12     0.00  -0.14  -0.08
  16   6     0.00   0.02   0.04     0.00   0.05  -0.15     0.00  -0.12  -0.06
  17   6     0.00  -0.00   0.10     0.00   0.05  -0.13    -0.03  -0.12  -0.02
  18   6     0.00  -0.02   0.16     0.00   0.05  -0.13    -0.06  -0.14  -0.00
  19   6     0.00  -0.05   0.22     0.00   0.04  -0.11    -0.09  -0.14   0.04
  20   6     0.00  -0.05   0.24     0.00   0.03  -0.08    -0.09  -0.10   0.05
  21   6     0.00  -0.03   0.18     0.00   0.03  -0.08    -0.06  -0.07   0.03
  22   6     0.00  -0.00   0.11     0.00   0.04  -0.10    -0.03  -0.08  -0.01
  23   6     0.00   0.02   0.04     0.00   0.04  -0.10    -0.00  -0.05  -0.03
  24   6     0.00   0.02   0.03     0.01   0.01  -0.02    -0.00  -0.01  -0.01
  25   6    -0.01   0.11   0.09     0.08   0.01   0.03    -0.02   0.03   0.00
  26   6    -0.01   0.12   0.07     0.09  -0.01   0.11    -0.02   0.09   0.03
  27   6     0.00   0.03  -0.00     0.02  -0.05   0.15    -0.00   0.12   0.04
  28   6     0.00   0.03  -0.02     0.02  -0.08   0.23    -0.01   0.19   0.07
  29   6     0.01  -0.06  -0.10    -0.05  -0.11   0.27     0.01   0.22   0.08
  30   6     0.02  -0.15  -0.16    -0.12  -0.12   0.21     0.03   0.18   0.06
  31   6     0.02  -0.15  -0.15    -0.13  -0.09   0.13     0.03   0.11   0.03
  32   6     0.01  -0.06  -0.07    -0.06  -0.06   0.09     0.01   0.08   0.02
  33   6     0.01  -0.06  -0.05    -0.06  -0.03   0.01     0.01   0.02  -0.01
  34   6     0.00   0.04  -0.02     0.00   0.05  -0.14     0.03  -0.06  -0.06
  35   6    -0.00   0.06  -0.10     0.00   0.06  -0.16     0.06  -0.04  -0.08
  36   6    -0.01   0.08  -0.15    -0.00   0.07  -0.20     0.09  -0.04  -0.11
  37   6    -0.01   0.07  -0.13    -0.00   0.08  -0.22     0.09  -0.08  -0.12
  38   6    -0.00   0.05  -0.06    -0.00   0.07  -0.20     0.06  -0.10  -0.11
  39   6     0.00   0.03  -0.01     0.00   0.06  -0.16     0.03  -0.10  -0.08
  40   6    -0.00   0.05   0.06     0.04   0.04  -0.09    -0.01  -0.14  -0.08
  41   6    -0.00   0.04   0.04     0.05   0.02  -0.05    -0.01  -0.11  -0.06
  42   6    -0.04   0.00  -0.17    -0.02  -0.01   0.00     0.13   0.00  -0.01
  43   6    -0.05  -0.03  -0.26    -0.05  -0.03   0.02     0.19   0.04   0.01
  44   1    -0.01  -0.03  -0.10    -0.03  -0.02   0.03     0.06   0.04   0.01
  45   1     0.00  -0.05  -0.07    -0.03  -0.02   0.05     0.02   0.05   0.02
  46   1     0.01  -0.04  -0.02    -0.01  -0.02   0.04    -0.01   0.03   0.01
  47   1    -0.00   0.03  -0.00     0.02  -0.00   0.04     0.01   0.04   0.02
  48   1    -0.00   0.04   0.03     0.04  -0.00   0.07    -0.02   0.07   0.04
  49   1     0.00   0.02   0.08     0.04  -0.00   0.06    -0.07   0.05   0.05
  50   1     0.00  -0.00   0.08     0.02  -0.00   0.03    -0.08   0.00   0.03
  51   1     0.00  -0.01   0.04     0.00  -0.00   0.01    -0.05  -0.02   0.01
  52   1     0.00  -0.02  -0.01    -0.02  -0.00  -0.01     0.00  -0.03  -0.02
  53   1     0.00  -0.01  -0.00    -0.02   0.01  -0.03     0.00  -0.04  -0.02
  54   1     0.00  -0.01   0.04     0.00   0.02  -0.04    -0.02  -0.05  -0.00
  55   1     0.00  -0.02   0.08     0.00   0.01  -0.03    -0.03  -0.05   0.02
  56   1     0.00  -0.02   0.09     0.00   0.01  -0.02    -0.03  -0.03   0.02
  57   1     0.00  -0.01   0.06     0.00   0.01  -0.02    -0.02  -0.01   0.01
  58   1    -0.01   0.05   0.04     0.04   0.01   0.00    -0.01   0.00  -0.00
  59   1    -0.01   0.05   0.04     0.04  -0.00   0.04    -0.01   0.03   0.01
  60   1    -0.00   0.03   0.01     0.02  -0.02   0.08    -0.01   0.06   0.02
  61   1     0.00  -0.02  -0.03    -0.01  -0.04   0.10     0.00   0.08   0.03
  62   1     0.01  -0.06  -0.06    -0.05  -0.04   0.07     0.01   0.06   0.02
  63   1     0.01  -0.06  -0.06    -0.05  -0.03   0.03     0.01   0.02   0.01
  64   1     0.01  -0.04  -0.03    -0.03  -0.01  -0.01     0.01  -0.00  -0.01
  65   1    -0.00   0.02  -0.03     0.00   0.01  -0.04     0.02  -0.00  -0.02
  66   1    -0.00   0.03  -0.06    -0.00   0.02  -0.06     0.03  -0.01  -0.04
  67   1    -0.00   0.03  -0.05    -0.00   0.03  -0.07     0.03  -0.02  -0.04
  68   1    -0.00   0.01  -0.01    -0.00   0.02  -0.06     0.02  -0.04  -0.03
  69   1    -0.00   0.02   0.02     0.02   0.01  -0.03    -0.00  -0.04  -0.02
  70   1    -0.00   0.02   0.02     0.02   0.01  -0.01    -0.00  -0.03  -0.02
  71   1    -0.02   0.02  -0.04     0.00   0.00  -0.01     0.04  -0.01  -0.01
  72   1    -0.02  -0.00  -0.09    -0.01  -0.00  -0.00     0.07   0.01   0.00
                      4                      5                      6
                        a                      a                      a 
 Frequencies --    25.9548                35.7208                39.7524
 Red. masses --    10.5274                10.5155                10.5579
 Frc consts  --     0.0000                 0.0000                 0.0000
 IR Inten    --     0.0609                 0.4917                 0.0994
 Raman Activ --     0.0000                 0.0000                 0.0000
 Depolar     --     0.0000                 0.0000                 0.0000
 Atom AN      X      Y      Z        X      Y      Z        X      Y      Z
   1   6    -0.07  -0.04  -0.08    -0.20   0.01   0.08    -0.01   0.00  -0.06
   2   6    -0.03  -0.06  -0.07    -0.24  -0.02   0.22     0.02  -0.01  -0.06
   3   6    -0.00  -0.04  -0.04    -0.17   0.01   0.15     0.02   0.01  -0.01
   4   6    -0.02   0.01  -0.01    -0.05   0.06  -0.06    -0.01   0.03   0.04
   5   7     0.00   0.03   0.02    -0.01   0.08  -0.13    -0.00   0.06   0.10
   6   6     0.01   0.02   0.02     0.04   0.06  -0.07     0.02   0.03   0.04
   7   6     0.01   0.01   0.01     0.17   0.02   0.13    -0.04  -0.02  -0.04
   8   6     0.02  -0.00   0.01     0.25  -0.01   0.20    -0.02  -0.05  -0.10
   9   6     0.04   0.01   0.01     0.19   0.02   0.06     0.05  -0.03  -0.08
  10   6     0.04   0.02   0.01     0.05   0.06  -0.15     0.10   0.02  -0.00
  11   6     0.03   0.03   0.01    -0.02   0.08  -0.21     0.09   0.05   0.05
  12   6     0.00   0.05   0.04    -0.01   0.07  -0.12    -0.00   0.07   0.10
  13   6     0.01   0.08   0.06     0.02   0.05  -0.12    -0.00   0.04   0.07
  14   6     0.01   0.07   0.07     0.02   0.01  -0.10    -0.00   0.01   0.05
  15   6     0.00   0.03   0.04    -0.01  -0.00  -0.08    -0.00   0.02   0.06
  16   6     0.00   0.00   0.02    -0.00  -0.03  -0.03    -0.00  -0.03   0.01
  17   6     0.04  -0.03   0.07     0.00  -0.04   0.00     0.04  -0.04  -0.04
  18   6     0.08  -0.04   0.15     0.00  -0.04  -0.01     0.08  -0.02  -0.04
  19   6     0.12  -0.07   0.19     0.01  -0.06   0.04     0.12  -0.03  -0.07
  20   6     0.12  -0.09   0.12     0.01  -0.08   0.10     0.12  -0.08  -0.09
  21   6     0.08  -0.09   0.05     0.01  -0.09   0.10     0.08  -0.10  -0.09
  22   6     0.04  -0.06   0.03     0.00  -0.07   0.06     0.04  -0.09  -0.08
  23   6    -0.00  -0.06  -0.03     0.00  -0.07   0.07    -0.00  -0.11  -0.10
  24   6     0.00  -0.09  -0.06    -0.00  -0.06   0.05    -0.00  -0.12  -0.11
  25   6    -0.01  -0.25  -0.19    -0.04  -0.01   0.06    -0.01   0.03   0.01
  26   6    -0.01  -0.25  -0.21    -0.05   0.03   0.04    -0.01   0.16   0.10
  27   6    -0.00  -0.08  -0.08    -0.01   0.04   0.01    -0.00   0.13   0.08
  28   6    -0.00  -0.06  -0.08    -0.01   0.09  -0.01    -0.00   0.31   0.21
  29   6     0.01   0.13   0.06     0.03   0.10  -0.04    -0.00   0.29   0.19
  30   6     0.02   0.30   0.20     0.07   0.05  -0.05     0.00   0.07   0.02
  31   6     0.02   0.27   0.20     0.08  -0.01  -0.04     0.00  -0.11  -0.12
  32   6     0.01   0.08   0.06     0.04  -0.01  -0.00    -0.00  -0.07  -0.08
  33   6     0.01   0.07   0.06     0.04  -0.06   0.02     0.00  -0.19  -0.17
  34   6    -0.03  -0.03  -0.06    -0.00  -0.07   0.06    -0.05  -0.09  -0.06
  35   6    -0.06  -0.03  -0.10    -0.01  -0.09   0.11    -0.10  -0.12  -0.09
  36   6    -0.09   0.00  -0.16    -0.01  -0.09   0.12    -0.15  -0.10  -0.04
  37   6    -0.09   0.04  -0.17    -0.01  -0.07   0.07    -0.15  -0.07   0.04
  38   6    -0.06   0.04  -0.11    -0.01  -0.05   0.01    -0.10  -0.05   0.06
  39   6    -0.03   0.01  -0.05    -0.01  -0.05   0.01    -0.05  -0.06   0.00
  40   6    -0.00   0.02   0.02    -0.04   0.02  -0.09    -0.00   0.07   0.10
  41   6    -0.00   0.03   0.02    -0.04   0.05  -0.11    -0.00   0.09   0.12
  42   6    -0.07   0.03  -0.01    -0.01   0.08  -0.21    -0.05   0.04   0.05
  43   6    -0.09   0.00  -0.05    -0.08   0.06  -0.14    -0.05   0.03  -0.01
  44   1    -0.03  -0.02  -0.03    -0.07  -0.00   0.04    -0.00  -0.00  -0.03
  45   1    -0.00  -0.03  -0.03    -0.10  -0.02   0.11     0.01  -0.01  -0.03
  46   1     0.01  -0.01  -0.01    -0.06  -0.00   0.07     0.01  -0.00  -0.00
  47   1     0.00   0.00   0.00     0.06   0.00   0.07    -0.03  -0.01  -0.02
  48   1     0.01  -0.00   0.00     0.10  -0.01   0.10    -0.02  -0.03  -0.05
  49   1     0.01  -0.00   0.00     0.07   0.00   0.03     0.02  -0.01  -0.04
  50   1     0.01   0.01   0.00     0.00   0.02  -0.07     0.05   0.01   0.00
  51   1     0.01   0.01   0.00    -0.03   0.04  -0.10     0.04   0.02   0.03
  52   1     0.00   0.03   0.02     0.01   0.02  -0.04    -0.00   0.01   0.02
  53   1     0.00   0.03   0.02     0.01   0.00  -0.03    -0.00  -0.01   0.01
  54   1     0.02  -0.00   0.05     0.00  -0.01  -0.01     0.02   0.00  -0.00
  55   1     0.04  -0.02   0.07     0.00  -0.02   0.01     0.05  -0.00  -0.02
  56   1     0.04  -0.03   0.04     0.00  -0.03   0.04     0.05  -0.03  -0.03
  57   1     0.02  -0.03  -0.00     0.00  -0.03   0.04     0.02  -0.04  -0.03
  58   1    -0.01  -0.11  -0.08    -0.02  -0.00   0.02    -0.00   0.02   0.01
  59   1    -0.00  -0.11  -0.09    -0.02   0.02   0.01    -0.00   0.08   0.06
  60   1    -0.00  -0.05  -0.05    -0.01   0.04  -0.00    -0.00   0.14   0.10
  61   1     0.00   0.04   0.02     0.01   0.04  -0.02    -0.00   0.13   0.09
  62   1     0.01   0.13   0.09     0.03   0.01  -0.02     0.00   0.01  -0.00
  63   1     0.01   0.12   0.09     0.03  -0.01  -0.01     0.00  -0.08  -0.07
  64   1     0.00   0.05   0.04     0.02  -0.03   0.00     0.00  -0.09  -0.08
  65   1    -0.02  -0.02  -0.02    -0.00  -0.03   0.04    -0.03  -0.04  -0.04
  66   1    -0.03   0.00  -0.05    -0.00  -0.03   0.05    -0.05  -0.03  -0.02
  67   1    -0.03   0.02  -0.06    -0.01  -0.02   0.02    -0.05  -0.02   0.02
  68   1    -0.02   0.02  -0.03    -0.00  -0.01  -0.01    -0.03  -0.01   0.03
  69   1    -0.00  -0.00   0.00    -0.02   0.00  -0.02     0.00   0.02   0.03
  70   1    -0.00   0.00   0.00    -0.02   0.02  -0.03    -0.00   0.04   0.04
  71   1    -0.02   0.02   0.00     0.02   0.04  -0.11    -0.02   0.02   0.02
  72   1    -0.04   0.00  -0.01    -0.01   0.02  -0.07    -0.02   0.01  -0.00
                      7                      8                      9
                        a                      a                      a 
 Frequencies --    47.2109                54.0176                66.4222
 Red. masses --    10.2515                10.4510                10.6844
 Frc consts  --     0.0000                 0.0000                 0.0000
 IR Inten    --     2.3021                 0.6663                 0.1130
 Raman Activ --     0.0000                 0.0000                 0.0000
 Depolar     --     0.0000                 0.0000                 0.0000
 Atom AN      X      Y      Z        X      Y      Z        X      Y      Z
   1   6    -0.20  -0.14   0.01     0.04  -0.02  -0.21     0.00   0.03   0.11
   2   6    -0.04  -0.17  -0.12    -0.02  -0.07   0.04    -0.00   0.07   0.00
   3   6     0.05  -0.11  -0.12    -0.04  -0.04   0.18     0.01   0.04  -0.12
   4   6    -0.02  -0.03  -0.01     0.01   0.03   0.09     0.02  -0.02  -0.12
   5   7     0.03   0.00   0.01     0.01   0.07   0.20     0.01  -0.05  -0.24
   6   6    -0.02   0.03   0.02     0.00   0.03   0.09     0.00  -0.02  -0.13
   7   6     0.04   0.11   0.10     0.08  -0.03   0.20     0.05   0.03  -0.07
   8   6    -0.06   0.16   0.10     0.04  -0.06   0.06     0.09   0.05   0.08
   9   6    -0.21   0.13  -0.00    -0.06  -0.01  -0.20     0.09   0.02   0.16
  10   6    -0.26   0.05  -0.08    -0.12   0.05  -0.30     0.03  -0.03   0.08
  11   6    -0.17   0.00  -0.07    -0.09   0.08  -0.15    -0.01  -0.05  -0.07
  12   6     0.02   0.01   0.01     0.01   0.01   0.15     0.01  -0.04  -0.12
  13   6     0.03   0.20   0.15     0.03  -0.01   0.15     0.06   0.02  -0.04
  14   6     0.03   0.19   0.15     0.02  -0.05   0.14     0.06   0.03   0.05
  15   6     0.04   0.01  -0.00     0.01  -0.08   0.13     0.01   0.00   0.07
  16   6     0.04   0.00  -0.01     0.01  -0.06   0.09     0.01  -0.00   0.08
  17   6     0.05   0.00  -0.02    -0.01  -0.03   0.04     0.01   0.00   0.06
  18   6     0.06   0.01  -0.01    -0.03  -0.06   0.09     0.02  -0.05   0.23
  19   6     0.07   0.02  -0.05    -0.06  -0.02   0.02     0.02  -0.06   0.26
  20   6     0.06   0.02  -0.08    -0.06   0.04  -0.09     0.01  -0.00   0.07
  21   6     0.05   0.01  -0.06    -0.04   0.07  -0.12     0.01   0.05  -0.11
  22   6     0.05   0.00  -0.03    -0.02   0.03  -0.05     0.00   0.05  -0.09
  23   6     0.05  -0.01  -0.00     0.00   0.05  -0.08    -0.01   0.08  -0.19
  24   6     0.05  -0.01  -0.00     0.00   0.06  -0.08    -0.01   0.07  -0.21
  25   6     0.05   0.02   0.02     0.04   0.04  -0.07     0.06   0.06  -0.17
  26   6     0.05   0.04   0.03     0.05   0.01  -0.03     0.07   0.02  -0.08
  27   6     0.05   0.02   0.02     0.01  -0.01  -0.00    -0.00   0.00  -0.03
  28   6     0.05   0.04   0.04     0.01  -0.05   0.03     0.00  -0.01   0.08
  29   6     0.05   0.02   0.02    -0.03  -0.07   0.06    -0.08  -0.03   0.14
  30   6     0.05  -0.02  -0.02    -0.08  -0.05   0.04    -0.16  -0.04   0.08
  31   6     0.05  -0.04  -0.03    -0.08  -0.00   0.01    -0.16  -0.02  -0.03
  32   6     0.05  -0.02  -0.01    -0.04   0.02  -0.02    -0.08   0.00  -0.09
  33   6     0.05  -0.03  -0.02    -0.04   0.05  -0.06    -0.08   0.03  -0.18
  34   6     0.04  -0.01   0.02     0.03   0.03  -0.05    -0.01   0.05  -0.09
  35   6     0.04  -0.02   0.05     0.05   0.07  -0.12    -0.01   0.05  -0.09
  36   6     0.05  -0.03   0.06     0.07   0.05  -0.09    -0.00  -0.01   0.09
  37   6     0.05  -0.01   0.02     0.08  -0.02   0.02     0.01  -0.07   0.26
  38   6     0.04  -0.00  -0.01     0.06  -0.06   0.08     0.01  -0.05   0.22
  39   6     0.04  -0.00   0.00     0.03  -0.03   0.04     0.00   0.00   0.06
  40   6     0.03  -0.18  -0.15     0.00  -0.08   0.12    -0.04  -0.04   0.01
  41   6     0.03  -0.18  -0.15    -0.00  -0.03   0.13    -0.05  -0.05  -0.09
  42   6    -0.18  -0.01   0.11     0.07   0.08  -0.14     0.02  -0.05  -0.02
  43   6    -0.27  -0.06   0.12     0.09   0.05  -0.29     0.01  -0.03   0.10
  44   1    -0.08  -0.05   0.01     0.02  -0.01  -0.10    -0.00   0.01   0.06
  45   1     0.00  -0.07  -0.06    -0.02  -0.04   0.03    -0.00   0.03   0.00
  46   1     0.05  -0.04  -0.06    -0.03  -0.02   0.10     0.00   0.02  -0.05
  47   1     0.04   0.04   0.05     0.04  -0.02   0.11     0.02   0.01  -0.03
  48   1    -0.00   0.06   0.05     0.03  -0.03   0.04     0.04   0.02   0.04
  49   1    -0.08   0.05  -0.00    -0.03  -0.01  -0.09     0.04   0.01   0.08
  50   1    -0.11   0.01  -0.04    -0.06   0.03  -0.14     0.01  -0.01   0.04
  51   1    -0.06  -0.02  -0.04    -0.04   0.04  -0.06    -0.02  -0.02  -0.04
  52   1     0.01   0.10   0.08     0.01   0.00   0.04     0.03   0.01  -0.02
  53   1     0.01   0.10   0.07     0.01  -0.02   0.04     0.03   0.02   0.03
  54   1     0.02   0.00   0.01    -0.01  -0.03   0.05     0.01  -0.03   0.10
  55   1     0.02   0.01  -0.01    -0.02  -0.01   0.02     0.01  -0.03   0.12
  56   1     0.02   0.01  -0.03    -0.02   0.02  -0.04     0.00  -0.00   0.02
  57   1     0.02   0.00  -0.02    -0.01   0.03  -0.06     0.00   0.03  -0.07
  58   1     0.01   0.01   0.01     0.02   0.02  -0.03     0.03   0.02  -0.06
  59   1     0.01   0.02   0.02     0.02  -0.00  -0.00     0.04   0.01  -0.01
  60   1     0.01   0.02   0.02     0.01  -0.02   0.01     0.02  -0.00   0.04
  61   1     0.02   0.01   0.01    -0.01  -0.03   0.02    -0.02  -0.01   0.07
  62   1     0.02  -0.01  -0.01    -0.03  -0.02   0.02    -0.06  -0.01   0.03
  63   1     0.02  -0.02  -0.02    -0.04   0.00  -0.00    -0.07  -0.01  -0.02
  64   1     0.02  -0.02  -0.01    -0.02   0.02  -0.02    -0.04   0.01  -0.06
  65   1     0.01  -0.01   0.02     0.01   0.03  -0.06    -0.00   0.03  -0.07
  66   1     0.01  -0.01   0.02     0.02   0.02  -0.04    -0.00  -0.00   0.03
  67   1     0.01  -0.00   0.00     0.03  -0.01   0.01     0.00  -0.03   0.12
  68   1     0.01   0.00  -0.02     0.02  -0.03   0.05     0.00  -0.03   0.10
  69   1     0.01  -0.09  -0.08    -0.00  -0.03   0.03    -0.02  -0.01   0.01
  70   1     0.01  -0.09  -0.07    -0.00  -0.01   0.03    -0.03  -0.02  -0.04
  71   1    -0.07   0.01   0.05     0.03   0.04  -0.06     0.01  -0.03  -0.01
  72   1    -0.12  -0.01   0.06     0.04   0.03  -0.14     0.00  -0.02   0.05
                     10                     11                     12
                        a                      a                      a 
 Frequencies --    69.7597                71.4033                79.7981
 Red. masses --    10.8388                10.2935                10.6672
 Frc consts  --     0.0000                 0.0000                 0.0000
 IR Inten    --     0.1065                 0.7071                 0.0472
 Raman Activ --     0.0000                 0.0000                 0.0000
 Depolar     --     0.0000                 0.0000                 0.0000
 Atom AN      X      Y      Z        X      Y      Z        X      Y      Z
   1   6     0.11  -0.03   0.06     0.27   0.10  -0.20     0.09  -0.04  -0.10
   2   6    -0.02  -0.01   0.15     0.22   0.12  -0.23     0.06  -0.05  -0.00
   3   6    -0.06  -0.05   0.08     0.09   0.07  -0.09     0.02  -0.05   0.11
   4   6     0.03  -0.11  -0.06     0.02   0.00   0.04     0.01  -0.03   0.11
   5   7    -0.00  -0.16  -0.14    -0.02  -0.02   0.02     0.01  -0.02   0.18
   6   6    -0.04  -0.11  -0.05     0.01  -0.04  -0.01     0.01  -0.03   0.12
   7   6     0.02  -0.02   0.04     0.11  -0.09   0.14    -0.01  -0.04   0.09
   8   6    -0.06   0.03   0.07     0.22  -0.13   0.23    -0.07  -0.04  -0.02
   9   6    -0.20  -0.00   0.01     0.21  -0.10   0.14    -0.12  -0.03  -0.11
  10   6    -0.24  -0.09  -0.06     0.08  -0.04  -0.06    -0.09  -0.02  -0.06
  11   6    -0.16  -0.14  -0.08    -0.02  -0.01  -0.13    -0.02  -0.02   0.06
  12   6     0.00  -0.13  -0.08    -0.02  -0.02   0.01     0.01  -0.01   0.02
  13   6     0.00  -0.12  -0.07    -0.04   0.14   0.11    -0.09  -0.00  -0.04
  14   6     0.00   0.01   0.02    -0.04   0.16   0.11    -0.09   0.05  -0.15
  15   6     0.00   0.11   0.10    -0.04   0.02  -0.01    -0.00   0.09  -0.19
  16   6     0.01   0.12   0.11    -0.05   0.03  -0.00    -0.00   0.11  -0.23
  17   6     0.06   0.10   0.07    -0.04   0.02   0.00     0.01   0.08  -0.15
  18   6     0.12   0.16   0.01    -0.03   0.03  -0.01     0.03   0.05  -0.04
  19   6     0.18   0.14  -0.06    -0.02   0.03  -0.04     0.06  -0.04   0.21
  20   6     0.18   0.07  -0.05    -0.02   0.02  -0.04     0.06  -0.09   0.31
  21   6     0.12   0.02   0.00    -0.03   0.00  -0.01     0.04  -0.04   0.13
  22   6     0.06   0.03   0.05    -0.04   0.00   0.01     0.01   0.04  -0.08
  23   6     0.01  -0.00   0.05    -0.05  -0.02   0.05     0.00   0.04  -0.12
  24   6     0.01  -0.05   0.01    -0.06  -0.02   0.04     0.00   0.03  -0.09
  25   6    -0.00  -0.04   0.01    -0.08  -0.01   0.04     0.03   0.03  -0.07
  26   6    -0.00  -0.02   0.00    -0.08   0.00   0.02     0.03   0.01  -0.04
  27   6     0.01  -0.01   0.00    -0.07   0.01   0.01     0.01   0.01  -0.03
  28   6     0.01   0.05   0.02    -0.07   0.03  -0.01     0.01  -0.01   0.01
  29   6     0.03   0.08   0.03    -0.05   0.03  -0.03    -0.02  -0.01   0.03
  30   6     0.04   0.03   0.00    -0.02   0.01  -0.03    -0.05  -0.00   0.02
  31   6     0.04  -0.03  -0.02    -0.02  -0.01  -0.01    -0.05   0.01  -0.02
  32   6     0.03  -0.04  -0.02    -0.04  -0.01   0.01    -0.02   0.01  -0.04
  33   6     0.03  -0.06  -0.01    -0.04  -0.02   0.03    -0.02   0.03  -0.07
  34   6    -0.05   0.03   0.04    -0.06  -0.02   0.05    -0.01   0.04  -0.08
  35   6    -0.11   0.02  -0.01    -0.07  -0.03   0.08    -0.02  -0.04   0.13
  36   6    -0.17   0.07  -0.06    -0.09  -0.01   0.04    -0.02  -0.09   0.31
  37   6    -0.17   0.13  -0.03    -0.09   0.03  -0.05    -0.03  -0.04   0.21
  38   6    -0.11   0.14   0.04    -0.08   0.04  -0.07    -0.02   0.05  -0.05
  39   6    -0.05   0.10   0.07    -0.06   0.01  -0.00    -0.01   0.08  -0.15
  40   6     0.00   0.07   0.06    -0.02  -0.14  -0.12     0.09   0.07  -0.15
  41   6     0.00  -0.06  -0.03    -0.01  -0.16  -0.11     0.10   0.01  -0.04
  42   6     0.15  -0.13  -0.14     0.03  -0.03   0.12     0.03  -0.02   0.04
  43   6     0.20  -0.09  -0.09     0.16   0.02   0.00     0.07  -0.02  -0.07
  44   1     0.04   0.00   0.03     0.11   0.04  -0.10     0.04  -0.01  -0.06
  45   1    -0.03   0.01   0.08     0.08   0.05  -0.10     0.02  -0.02  -0.00
  46   1    -0.05  -0.01   0.04     0.02   0.03  -0.03    -0.00  -0.02   0.05
  47   1     0.04   0.00   0.02     0.03  -0.03   0.06     0.01  -0.01   0.04
  48   1    -0.00   0.03   0.04     0.09  -0.05   0.11    -0.03  -0.01  -0.01
  49   1    -0.08   0.01   0.00     0.09  -0.04   0.07    -0.05  -0.01  -0.06
  50   1    -0.10  -0.04  -0.03     0.02  -0.01  -0.04    -0.03  -0.00  -0.04
  51   1    -0.06  -0.06  -0.04    -0.03   0.01  -0.08     0.00  -0.00   0.02
  52   1     0.00  -0.06  -0.04    -0.01   0.07   0.06    -0.05  -0.01  -0.00
  53   1    -0.00   0.01   0.01    -0.02   0.08   0.06    -0.05   0.02  -0.06
  54   1     0.03   0.06   0.00    -0.01   0.01   0.00     0.01   0.03  -0.04
  55   1     0.06   0.06  -0.03    -0.00   0.01  -0.02     0.02  -0.02   0.10
  56   1     0.06   0.02  -0.03    -0.00   0.01  -0.02     0.02  -0.05   0.15
  57   1     0.04  -0.01   0.00    -0.01  -0.00  -0.00     0.01  -0.02   0.05
  58   1    -0.00  -0.01   0.01    -0.03  -0.01   0.01     0.01   0.01  -0.02
  59   1    -0.00  -0.00   0.00    -0.03   0.00   0.01     0.02   0.00  -0.01
  60   1    -0.00   0.02   0.01    -0.02   0.01  -0.00     0.01  -0.00   0.01
  61   1     0.01   0.04   0.01    -0.01   0.01  -0.01    -0.01  -0.01   0.02
  62   1     0.02   0.01   0.00    -0.00   0.00  -0.01    -0.02  -0.00   0.01
  63   1     0.02  -0.02  -0.01    -0.00  -0.01  -0.00    -0.02   0.00  -0.01
  64   1     0.01  -0.02  -0.00    -0.01  -0.01   0.01    -0.01   0.01  -0.02
  65   1    -0.03  -0.01  -0.01    -0.02  -0.02   0.04    -0.00  -0.02   0.05
  66   1    -0.06   0.02  -0.03    -0.03  -0.01   0.02    -0.01  -0.05   0.15
  67   1    -0.06   0.05  -0.02    -0.03   0.02  -0.03    -0.01  -0.02   0.10
  68   1    -0.03   0.05   0.02    -0.02   0.02  -0.04    -0.01   0.03  -0.04
  69   1     0.00   0.04   0.03    -0.00  -0.07  -0.06     0.05   0.03  -0.05
  70   1     0.00  -0.03  -0.02    -0.00  -0.08  -0.06     0.05  -0.00  -0.00
  71   1     0.06  -0.05  -0.07    -0.01  -0.03   0.07     0.01  -0.00   0.02
  72   1     0.09  -0.03  -0.04     0.05   0.00   0.01     0.03  -0.00  -0.04
                     13                     14                     15
                        a                      a                      a 
 Frequencies --    98.1043               109.9171               133.8252
 Red. masses --     9.7712                 9.8046                10.7365
 Frc consts  --     0.0000                 0.0000                 0.0000
 IR Inten    --     0.0064                 0.1193                 0.1309
 Raman Activ --     0.0000                 0.0000                 0.0000
 Depolar     --     0.0000                 0.0000                 0.0000
 Atom AN      X      Y      Z        X      Y      Z        X      Y      Z
   1   6    -0.00  -0.04   0.02     0.02   0.04  -0.04    -0.00   0.03  -0.04
   2   6     0.12  -0.02  -0.19    -0.05   0.03   0.06    -0.01   0.04  -0.03
   3   6     0.13  -0.01  -0.18    -0.07   0.02   0.07    -0.04   0.03   0.01
   4   6     0.02  -0.01  -0.00    -0.03   0.01   0.01    -0.05   0.01   0.02
   5   7     0.03   0.00   0.00    -0.04  -0.00   0.00    -0.05   0.01   0.03
   6   6     0.02   0.01   0.00    -0.03  -0.01  -0.01    -0.05   0.00   0.01
   7   6     0.14   0.02   0.17    -0.08  -0.02  -0.07    -0.05  -0.03   0.01
   8   6     0.13   0.02   0.18    -0.05  -0.03  -0.05    -0.02  -0.04   0.02
   9   6    -0.01   0.04  -0.02     0.02  -0.03   0.04     0.01  -0.03   0.02
  10   6    -0.13   0.03  -0.20     0.05  -0.02   0.09    -0.00  -0.00  -0.00
  11   6    -0.09   0.02  -0.17     0.01  -0.01   0.05    -0.03   0.01  -0.00
  12   6     0.02   0.00  -0.00    -0.03  -0.00   0.00    -0.04  -0.00  -0.00
  13   6     0.01  -0.17  -0.14    -0.02   0.13   0.11    -0.04  -0.02  -0.02
  14   6     0.01  -0.19  -0.16    -0.02   0.13   0.11    -0.04  -0.02  -0.03
  15   6    -0.00  -0.00  -0.00    -0.01   0.00  -0.00    -0.02   0.00  -0.03
  16   6    -0.00   0.00  -0.00    -0.01   0.00  -0.00    -0.01   0.03   0.01
  17   6    -0.01   0.01  -0.04    -0.00   0.03  -0.09    -0.03   0.03   0.04
  18   6    -0.02   0.05  -0.16     0.01   0.12  -0.29    -0.07   0.02   0.00
  19   6    -0.01   0.03  -0.09     0.04   0.07  -0.19    -0.12   0.05   0.00
  20   6    -0.00  -0.04   0.11     0.05  -0.06   0.18    -0.12   0.09   0.04
  21   6    -0.00  -0.06   0.17     0.04  -0.11   0.29    -0.07   0.10   0.08
  22   6    -0.00  -0.02   0.05     0.00  -0.03   0.08    -0.02   0.07   0.08
  23   6    -0.01  -0.00   0.00     0.00   0.00   0.00     0.02   0.09   0.10
  24   6    -0.01  -0.00   0.00     0.00  -0.00   0.00     0.03  -0.02   0.01
  25   6    -0.01  -0.00   0.00     0.00   0.01   0.01     0.04  -0.14  -0.08
  26   6    -0.01  -0.02  -0.01     0.00  -0.02  -0.01     0.04  -0.28  -0.19
  27   6    -0.01  -0.02  -0.01    -0.00  -0.03  -0.02     0.05  -0.22  -0.15
  28   6    -0.01  -0.02  -0.02    -0.00  -0.04  -0.03     0.05   0.04   0.05
  29   6    -0.01  -0.00  -0.01     0.00  -0.00  -0.00     0.05   0.27   0.23
  30   6    -0.01   0.03   0.02     0.00   0.04   0.03     0.05   0.08   0.08
  31   6    -0.01   0.02   0.02     0.00   0.03   0.03     0.05  -0.24  -0.16
  32   6    -0.01   0.00   0.00     0.00  -0.00  -0.00     0.05  -0.27  -0.19
  33   6    -0.01  -0.00   0.00     0.00  -0.01  -0.01     0.05  -0.20  -0.13
  34   6    -0.01   0.02  -0.05    -0.00   0.03  -0.08     0.04   0.08   0.09
  35   6    -0.01   0.05  -0.16     0.01   0.12  -0.29     0.08   0.11   0.09
  36   6    -0.01   0.04  -0.11     0.04   0.07  -0.18     0.13   0.10   0.04
  37   6    -0.00  -0.03   0.09     0.06  -0.07   0.19     0.13   0.07  -0.02
  38   6    -0.00  -0.05   0.15     0.04  -0.12   0.29     0.09   0.04  -0.02
  39   6    -0.00  -0.01   0.04     0.01  -0.03   0.09     0.04   0.05   0.04
  40   6     0.01   0.19   0.16    -0.02  -0.13  -0.11    -0.03   0.01  -0.02
  41   6     0.01   0.17   0.14    -0.02  -0.13  -0.11    -0.03   0.00  -0.01
  42   6    -0.08  -0.03   0.18     0.01   0.01  -0.05    -0.05   0.01   0.03
  43   6    -0.11  -0.04   0.21     0.04   0.02  -0.09    -0.02   0.02   0.00
  44   1    -0.01  -0.01   0.01     0.01   0.01  -0.02     0.01   0.01  -0.02
  45   1     0.06  -0.00  -0.10    -0.02   0.01   0.03    -0.00   0.01  -0.01
  46   1     0.06  -0.00  -0.09    -0.03   0.01   0.04    -0.01   0.01   0.00
  47   1     0.07   0.01   0.08    -0.04  -0.01  -0.03    -0.02  -0.01   0.00
  48   1     0.07   0.00   0.09    -0.02  -0.01  -0.03    -0.00  -0.02   0.01
  49   1    -0.01   0.01  -0.01     0.01  -0.01   0.02     0.01  -0.01   0.01
  50   1    -0.07   0.01  -0.10     0.03  -0.01   0.04     0.00   0.00  -0.00
  51   1    -0.05   0.01  -0.08     0.01  -0.00   0.02    -0.01   0.01  -0.00
  52   1    -0.00  -0.09  -0.06    -0.00   0.07   0.05    -0.01  -0.01  -0.01
  53   1     0.00  -0.10  -0.08    -0.01   0.07   0.05    -0.02  -0.01  -0.01
  54   1    -0.01   0.03  -0.09     0.00   0.06  -0.15    -0.02  -0.00  -0.01
  55   1    -0.01   0.02  -0.05     0.01   0.04  -0.10    -0.05   0.01  -0.01
  56   1    -0.00  -0.02   0.06     0.02  -0.04   0.10    -0.05   0.03   0.01
  57   1     0.00  -0.03   0.08     0.01  -0.06   0.15    -0.02   0.04   0.03
  58   1    -0.00   0.00   0.00    -0.00   0.01   0.01     0.01  -0.03  -0.02
  59   1    -0.00  -0.01  -0.01     0.00  -0.01  -0.01     0.01  -0.10  -0.07
  60   1    -0.00  -0.01  -0.01    -0.00  -0.02  -0.02     0.01   0.04   0.04
  61   1    -0.00  -0.00  -0.00     0.00  -0.00  -0.00     0.02   0.17   0.13
  62   1    -0.00   0.01   0.01     0.00   0.02   0.02     0.02   0.05   0.05
  63   1    -0.00   0.01   0.01     0.00   0.02   0.01     0.02  -0.11  -0.08
  64   1    -0.00  -0.00  -0.00    -0.00  -0.01  -0.01     0.02  -0.06  -0.04
  65   1    -0.01   0.03  -0.08    -0.00   0.07  -0.15     0.02   0.04   0.03
  66   1    -0.00   0.02  -0.06     0.01   0.04  -0.10     0.05   0.04   0.01
  67   1     0.00  -0.02   0.05     0.02  -0.04   0.10     0.05   0.02  -0.02
  68   1     0.00  -0.03   0.08     0.01  -0.06   0.15     0.03   0.00  -0.02
  69   1     0.00   0.10   0.08    -0.01  -0.07  -0.05    -0.01   0.00  -0.01
  70   1    -0.00   0.09   0.06    -0.00  -0.07  -0.05    -0.00   0.00  -0.00
  71   1    -0.04  -0.01   0.09     0.01   0.00  -0.02    -0.02   0.00   0.01
  72   1    -0.06  -0.01   0.11     0.03   0.01  -0.04    -0.00   0.00   0.00
                     16                     17                     18
                        a                      a                      a 
 Frequencies --   134.7316               163.5792               166.0125
 Red. masses --    11.1289                10.2312                 9.7717
 Frc consts  --     0.0000                 0.0000                 0.0000
 IR Inten    --     0.1898                 0.2852                 0.1999
 Raman Activ --     0.0000                 0.0000                 0.0000
 Depolar     --     0.0000                 0.0000                 0.0000
 Atom AN      X      Y      Z        X      Y      Z        X      Y      Z
   1   6    -0.02  -0.13   0.11     0.05  -0.03  -0.03    -0.01  -0.00   0.02
   2   6     0.06  -0.16   0.09     0.03  -0.04   0.01    -0.00  -0.00   0.01
   3   6     0.18  -0.10   0.01     0.01  -0.04   0.06     0.01   0.00  -0.02
   4   6     0.19  -0.01  -0.03     0.01  -0.02   0.06     0.01   0.00  -0.02
   5   7     0.22   0.01  -0.00     0.05  -0.00   0.03     0.00  -0.00  -0.01
   6   6     0.19   0.03   0.02     0.08  -0.01   0.07    -0.00   0.00  -0.02
   7   6     0.17   0.11  -0.02     0.08   0.01   0.06    -0.00   0.01  -0.02
   8   6     0.05   0.16  -0.10     0.00   0.03  -0.03     0.01   0.01   0.00
   9   6    -0.02   0.13  -0.11    -0.05   0.02  -0.08     0.01   0.00   0.01
  10   6     0.05   0.05   0.00     0.01   0.00   0.01     0.00   0.00  -0.00
  11   6     0.16   0.01   0.06     0.08  -0.01   0.08    -0.01   0.00  -0.02
  12   6     0.18   0.00  -0.00     0.03   0.03  -0.09     0.00  -0.01   0.02
  13   6     0.14   0.05   0.01    -0.03   0.06  -0.11     0.01   0.00   0.04
  14   6     0.13   0.05   0.02    -0.03   0.09  -0.14     0.01  -0.01   0.05
  15   6     0.07  -0.01   0.01    -0.01   0.09  -0.16     0.00  -0.02   0.04
  16   6     0.03  -0.00   0.03    -0.02   0.05  -0.09    -0.00  -0.01   0.01
  17   6    -0.03   0.02   0.03    -0.02   0.01  -0.01    -0.00  -0.01  -0.01
  18   6    -0.07   0.03  -0.05    -0.06  -0.09   0.19    -0.03  -0.02  -0.02
  19   6    -0.08   0.04  -0.07    -0.10  -0.06   0.19    -0.06  -0.01  -0.03
  20   6    -0.08   0.02   0.03    -0.12   0.07  -0.15    -0.06  -0.00   0.01
  21   6    -0.05   0.01   0.11    -0.08   0.12  -0.21    -0.04   0.01   0.02
  22   6    -0.05   0.02   0.07    -0.02   0.03  -0.03    -0.00  -0.00  -0.02
  23   6    -0.09   0.00   0.06    -0.02  -0.02   0.06     0.02   0.00  -0.03
  24   6    -0.12  -0.01   0.01    -0.00  -0.09   0.15     0.02   0.02  -0.04
  25   6    -0.17  -0.02  -0.02    -0.03  -0.05   0.16     0.06   0.36   0.24
  26   6    -0.17  -0.05  -0.06    -0.04  -0.06   0.10     0.06   0.16   0.10
  27   6    -0.18  -0.05  -0.05    -0.00  -0.07   0.04     0.06  -0.15  -0.14
  28   6    -0.18   0.02  -0.01    -0.01  -0.02  -0.05     0.06  -0.29  -0.21
  29   6    -0.18   0.08   0.03     0.08   0.05  -0.07     0.04  -0.05  -0.00
  30   6    -0.16   0.04   0.01     0.15   0.07  -0.01     0.02   0.29   0.25
  31   6    -0.16  -0.05  -0.04     0.15  -0.01   0.05     0.01   0.12   0.08
  32   6    -0.15  -0.07  -0.05     0.05  -0.09   0.07     0.03  -0.14  -0.15
  33   6    -0.14  -0.06  -0.03     0.04  -0.13   0.10     0.03  -0.24  -0.24
  34   6    -0.03  -0.02   0.05    -0.04   0.02  -0.04     0.00  -0.01  -0.00
  35   6    -0.03  -0.02   0.05    -0.08   0.08  -0.24    -0.04  -0.06   0.04
  36   6    -0.03   0.00   0.01    -0.09   0.06  -0.16    -0.08  -0.04   0.05
  37   6    -0.04   0.01  -0.04    -0.08  -0.05   0.21    -0.08   0.01  -0.03
  38   6    -0.04   0.00  -0.01    -0.06  -0.05   0.22    -0.04   0.04  -0.06
  39   6    -0.02  -0.02   0.03    -0.04   0.01  -0.00    -0.00   0.00  -0.02
  40   6     0.12  -0.07  -0.02     0.04   0.05  -0.16    -0.00  -0.02   0.04
  41   6     0.13  -0.06  -0.02     0.06   0.02  -0.12    -0.01  -0.01   0.03
  42   6     0.15   0.01  -0.07     0.01  -0.02   0.06     0.01   0.00  -0.02
  43   6     0.04  -0.04  -0.00     0.02  -0.02   0.01     0.00  -0.00  -0.00
  44   1    -0.03  -0.05   0.06     0.02  -0.01  -0.03    -0.01  -0.00   0.01
  45   1     0.01  -0.06   0.04     0.01  -0.01  -0.00    -0.00  -0.00   0.00
  46   1     0.07  -0.04   0.00     0.01  -0.01   0.02     0.00   0.00  -0.01
  47   1     0.07   0.04  -0.01     0.03   0.00   0.02    -0.00   0.00  -0.01
  48   1     0.00   0.06  -0.05    -0.01   0.01  -0.02     0.00   0.00   0.00
  49   1    -0.04   0.05  -0.05    -0.04   0.01  -0.05     0.01   0.00   0.01
  50   1     0.00   0.01   0.01    -0.00  -0.00  -0.00     0.00  -0.00   0.00
  51   1     0.06  -0.01   0.03     0.03  -0.01   0.04    -0.00   0.00  -0.01
  52   1     0.03   0.02   0.01    -0.02   0.02  -0.02     0.01   0.00   0.01
  53   1     0.05   0.02   0.02    -0.01   0.03  -0.04     0.01  -0.00   0.01
  54   1    -0.02   0.01  -0.03    -0.01  -0.06   0.10    -0.01  -0.01  -0.01
  55   1    -0.03   0.02  -0.04    -0.03  -0.04   0.11    -0.02  -0.00  -0.02
  56   1    -0.03   0.01   0.02    -0.04   0.04  -0.09    -0.02  -0.00   0.01
  57   1    -0.02   0.00   0.05    -0.02   0.07  -0.11    -0.01   0.01   0.02
  58   1    -0.06  -0.00   0.00    -0.02  -0.01   0.06     0.02   0.20   0.14
  59   1    -0.05  -0.02  -0.02    -0.02  -0.01   0.02     0.02   0.09   0.06
  60   1    -0.05   0.01   0.00    -0.03  -0.01  -0.03     0.02  -0.14  -0.10
  61   1    -0.05   0.05   0.02     0.02   0.03  -0.03     0.01  -0.02   0.00
  62   1    -0.04   0.02   0.01     0.06   0.04   0.00    -0.00   0.18   0.15
  63   1    -0.05  -0.02  -0.02     0.07  -0.01   0.03    -0.00   0.08   0.05
  64   1    -0.04  -0.02  -0.01     0.02  -0.05   0.03     0.01  -0.12  -0.11
  65   1    -0.01  -0.01   0.02    -0.03   0.04  -0.13    -0.01  -0.03   0.02
  66   1    -0.01   0.00  -0.00    -0.03   0.03  -0.10    -0.03  -0.02   0.03
  67   1    -0.01   0.01  -0.03    -0.02  -0.03   0.12    -0.03   0.01  -0.02
  68   1    -0.01   0.00  -0.01    -0.02  -0.03   0.12    -0.01   0.03  -0.03
  69   1     0.04  -0.03  -0.02     0.02   0.02  -0.05    -0.00  -0.01   0.01
  70   1     0.03  -0.02  -0.01     0.02   0.01  -0.03    -0.00  -0.00   0.01
  71   1     0.05   0.02  -0.04    -0.00  -0.00   0.02     0.01   0.00  -0.01
  72   1    -0.00  -0.00  -0.01     0.01  -0.00  -0.00     0.00  -0.00  -0.00
                     19                     20                     21
                        a                      a                      a 
 Frequencies --   182.0597               184.8489               197.8522
 Red. masses --    10.9933                10.7909                10.7251
 Frc consts  --     0.0000                 0.0000                 0.0000
 IR Inten    --     0.8180                 0.6928                 0.6323
 Raman Activ --     0.0000                 0.0000                 0.0000
 Depolar     --     0.0000                 0.0000                 0.0000
 Atom AN      X      Y      Z        X      Y      Z        X      Y      Z
   1   6     0.08  -0.01   0.03    -0.08  -0.04   0.09     0.08   0.02  -0.13
   2   6    -0.01   0.02   0.04     0.03  -0.06   0.01    -0.01   0.02  -0.02
   3   6    -0.06  -0.03  -0.03     0.15  -0.00  -0.06    -0.12  -0.02   0.12
   4   6    -0.02  -0.10  -0.09     0.12   0.06  -0.03    -0.10  -0.04   0.09
   5   7     0.02  -0.09  -0.19     0.04   0.05   0.10     0.00  -0.01  -0.07
   6   6     0.07  -0.09  -0.08    -0.04   0.07  -0.01     0.12  -0.03   0.08
   7   6     0.11   0.00  -0.03    -0.06   0.04  -0.04     0.14  -0.00   0.11
   8   6     0.03   0.06   0.02     0.01   0.01  -0.02     0.01   0.03  -0.02
   9   6    -0.08   0.02   0.00     0.09   0.02   0.03    -0.09   0.03  -0.13
  10   6    -0.08  -0.07   0.00     0.07   0.07  -0.01     0.01  -0.02   0.03
  11   6     0.02  -0.13  -0.03    -0.01   0.10  -0.05     0.13  -0.05   0.14
  12   6     0.02   0.14   0.08     0.03  -0.12   0.04    -0.00   0.08  -0.14
  13   6     0.03   0.27   0.19     0.01  -0.15   0.01     0.02   0.08  -0.13
  14   6     0.02   0.23   0.20    -0.00  -0.12   0.02     0.03   0.04  -0.10
  15   6    -0.01   0.07   0.09    -0.01  -0.08   0.06    -0.01   0.02  -0.08
  16   6    -0.02  -0.04  -0.08    -0.03   0.03   0.03    -0.00  -0.05   0.11
  17   6    -0.03  -0.02  -0.13    -0.04   0.03  -0.04     0.00  -0.08   0.17
  18   6    -0.13  -0.08  -0.14    -0.12   0.00  -0.09    -0.05  -0.07   0.04
  19   6    -0.21  -0.07  -0.02    -0.19   0.01  -0.01    -0.10   0.00  -0.13
  20   6    -0.21  -0.05   0.08    -0.19   0.01   0.10    -0.09  -0.00  -0.04
  21   6    -0.13   0.01   0.03    -0.12   0.06   0.06    -0.05  -0.04   0.15
  22   6    -0.04  -0.00  -0.09    -0.03   0.03  -0.03     0.01  -0.08   0.17
  23   6     0.00  -0.00  -0.06     0.02   0.04  -0.05     0.03  -0.02   0.03
  24   6     0.03  -0.02   0.02     0.06   0.02  -0.03     0.05   0.07  -0.15
  25   6     0.05  -0.08  -0.02     0.13  -0.08  -0.07     0.11   0.05  -0.14
  26   6     0.05  -0.06  -0.00     0.14  -0.05  -0.03     0.13   0.06  -0.07
  27   6     0.06   0.00   0.03     0.16   0.04   0.03     0.12   0.08  -0.04
  28   6     0.07   0.03   0.03     0.16   0.04   0.07     0.13  -0.01   0.05
  29   6     0.08   0.01   0.00     0.15  -0.02   0.03     0.04  -0.09   0.07
  30   6     0.08  -0.04  -0.03     0.12  -0.08  -0.03    -0.06  -0.07   0.04
  31   6     0.08  -0.02  -0.01     0.11  -0.00  -0.01    -0.06   0.05  -0.03
  32   6     0.06   0.01   0.03     0.11   0.06   0.02     0.05   0.10  -0.07
  33   6     0.05   0.02   0.04     0.10   0.09   0.02     0.05   0.12  -0.12
  34   6    -0.01   0.01  -0.10    -0.04   0.05  -0.05     0.01  -0.07   0.16
  35   6    -0.02  -0.03  -0.03    -0.17  -0.04  -0.04    -0.06  -0.09   0.11
  36   6    -0.02  -0.05   0.04    -0.27  -0.01   0.04    -0.12  -0.01  -0.07
  37   6    -0.02  -0.05  -0.00    -0.27   0.05   0.05    -0.12   0.03  -0.10
  38   6    -0.02  -0.02  -0.09    -0.16   0.12   0.03    -0.06  -0.01   0.10
  39   6    -0.02  -0.02  -0.11    -0.04   0.06  -0.00     0.01  -0.07   0.19
  40   6    -0.01   0.20   0.18     0.02  -0.18  -0.01    -0.04   0.02  -0.11
  41   6    -0.02   0.24   0.18     0.02  -0.21  -0.01    -0.03   0.06  -0.14
  42   6     0.04  -0.13  -0.05     0.09   0.09  -0.08    -0.10  -0.06   0.15
  43   6     0.11  -0.08  -0.01    -0.03   0.04  -0.01    -0.00  -0.02   0.03
  44   1     0.04   0.01   0.02    -0.06  -0.02   0.06     0.06   0.01  -0.08
  45   1    -0.01   0.03   0.03     0.01  -0.03   0.01     0.00   0.01  -0.02
  46   1    -0.04  -0.00  -0.01     0.07  -0.01  -0.03    -0.05  -0.00   0.05
  47   1     0.06   0.01  -0.01    -0.03   0.01  -0.02     0.06   0.00   0.05
  48   1     0.02   0.04   0.02     0.00  -0.01  -0.01    -0.00   0.02  -0.02
  49   1    -0.04   0.02   0.00     0.05   0.00   0.02    -0.07   0.02  -0.08
  50   1    -0.05  -0.03   0.01     0.03   0.02  -0.00    -0.01  -0.01   0.01
  51   1     0.01  -0.06  -0.00    -0.01   0.04  -0.02     0.05  -0.03   0.06
  52   1     0.01   0.09   0.06    -0.00  -0.05   0.00     0.01   0.04  -0.03
  53   1     0.01   0.08   0.07     0.00  -0.04   0.01     0.02   0.01  -0.02
  54   1    -0.04  -0.04  -0.06    -0.04  -0.01  -0.05    -0.01  -0.03   0.01
  55   1    -0.07  -0.03  -0.00    -0.07  -0.00  -0.01    -0.04   0.01  -0.08
  56   1    -0.07  -0.02   0.06    -0.06  -0.00   0.06    -0.03   0.01  -0.04
  57   1    -0.04   0.02   0.02    -0.03   0.03   0.03    -0.01  -0.01   0.06
  58   1     0.02  -0.03  -0.02     0.05  -0.04  -0.05     0.05   0.01  -0.05
  59   1     0.01  -0.02  -0.01     0.04  -0.03  -0.02     0.04   0.02  -0.02
  60   1     0.01   0.02   0.01     0.05   0.02   0.03     0.07  -0.01   0.03
  61   1     0.02   0.01   0.00     0.04  -0.01   0.01     0.01  -0.05   0.03
  62   1     0.03  -0.02  -0.02     0.03  -0.05  -0.02    -0.04  -0.04   0.01
  63   1     0.03  -0.01  -0.00     0.03  -0.01  -0.01    -0.04   0.03  -0.02
  64   1     0.02   0.01   0.02     0.03   0.04   0.02     0.01   0.04  -0.03
  65   1    -0.00  -0.01  -0.00    -0.05  -0.04  -0.02    -0.02  -0.05   0.04
  66   1    -0.00  -0.02   0.04    -0.09  -0.02   0.02    -0.04   0.00  -0.05
  67   1    -0.00  -0.02   0.01    -0.10   0.02   0.02    -0.05   0.03  -0.07
  68   1    -0.01   0.00  -0.03    -0.05   0.06   0.01    -0.02   0.01   0.04
  69   1    -0.01   0.06   0.06     0.01  -0.06  -0.01    -0.02   0.00  -0.03
  70   1    -0.01   0.08   0.05     0.00  -0.07  -0.02    -0.02   0.03  -0.04
  71   1     0.01  -0.06  -0.01     0.03   0.05  -0.04    -0.04  -0.03   0.06
  72   1     0.05  -0.03   0.00    -0.03   0.02  -0.00     0.01  -0.01   0.01
                     22                     23                     24
                        a                      a                      a 
 Frequencies --   212.5668               233.1685               238.0098
 Red. masses --    10.3916                10.3291                10.6178
 Frc consts  --     0.0000                 0.0000                 0.0000
 IR Inten    --     0.1232                 3.0492                 0.2682
 Raman Activ --     0.0000                 0.0000                 0.0000
 Depolar     --     0.0000                 0.0000                 0.0000
 Atom AN      X      Y      Z        X      Y      Z        X      Y      Z
   1   6    -0.00  -0.00   0.00    -0.10   0.09   0.23    -0.04  -0.08   0.17
   2   6    -0.00  -0.00   0.00    -0.01   0.15  -0.08     0.06  -0.08   0.03
   3   6     0.00  -0.00  -0.00     0.04   0.10  -0.34     0.19  -0.03  -0.12
   4   6     0.00   0.00  -0.00     0.00  -0.01  -0.26     0.13   0.01  -0.05
   5   7     0.00  -0.00   0.00    -0.07  -0.00  -0.00     0.00   0.00   0.17
   6   6    -0.00   0.00  -0.00     0.03   0.01   0.26    -0.13   0.01  -0.02
   7   6    -0.00   0.00  -0.00     0.09  -0.09   0.34    -0.19  -0.05  -0.09
   8   6    -0.00   0.00  -0.00     0.01  -0.15   0.08    -0.06  -0.10   0.04
   9   6     0.00  -0.00   0.00    -0.12  -0.09  -0.23     0.05  -0.09   0.15
  10   6     0.00   0.00   0.00     0.04  -0.01  -0.01    -0.07  -0.02  -0.03
  11   6    -0.00   0.00  -0.00     0.13   0.02   0.30    -0.18   0.02  -0.11
  12   6    -0.00  -0.00   0.00    -0.07  -0.00  -0.00     0.00   0.03   0.09
  13   6     0.00   0.00   0.00    -0.05   0.01   0.01    -0.11   0.12   0.07
  14   6    -0.00   0.00   0.00    -0.05   0.04   0.05    -0.12   0.20  -0.09
  15   6     0.00   0.00  -0.00    -0.04  -0.01   0.01    -0.01   0.16  -0.20
  16   6    -0.00   0.00  -0.00    -0.04  -0.00   0.01     0.00   0.01  -0.10
  17   6    -0.01   0.09  -0.29    -0.02  -0.00  -0.00     0.02  -0.06   0.09
  18   6    -0.01   0.08  -0.24     0.01   0.02   0.00    -0.01  -0.10   0.11
  19   6     0.01  -0.07   0.22     0.03   0.01   0.00    -0.04  -0.03  -0.04
  20   6     0.01  -0.07   0.22     0.03  -0.01  -0.00    -0.05   0.01  -0.12
  21   6    -0.01   0.08  -0.25     0.01  -0.02  -0.01    -0.01  -0.04   0.07
  22   6    -0.01   0.09  -0.29    -0.02  -0.01  -0.01     0.02  -0.07   0.15
  23   6     0.00  -0.00   0.00    -0.01   0.00  -0.00     0.02  -0.05   0.08
  24   6    -0.00  -0.00   0.00     0.00   0.00  -0.00     0.01   0.02  -0.06
  25   6    -0.00   0.01   0.01     0.01   0.00   0.00     0.02   0.03  -0.06
  26   6    -0.00   0.01   0.01     0.01   0.00   0.00     0.03   0.04  -0.04
  27   6    -0.00  -0.00  -0.00     0.01  -0.00  -0.00     0.04   0.05  -0.04
  28   6    -0.00  -0.01  -0.01     0.02  -0.00   0.00     0.04  -0.00   0.02
  29   6    -0.00   0.00  -0.00     0.01  -0.00   0.00    -0.01  -0.05   0.04
  30   6    -0.00   0.01   0.00     0.01   0.00   0.00    -0.06  -0.03   0.03
  31   6    -0.00  -0.00  -0.00     0.01  -0.00  -0.00    -0.06   0.03  -0.01
  32   6    -0.00  -0.01  -0.00     0.01  -0.00  -0.00     0.01   0.05  -0.05
  33   6    -0.00  -0.01  -0.00     0.01   0.00  -0.01     0.02   0.04  -0.07
  34   6     0.01  -0.09   0.29    -0.01   0.01  -0.00     0.01  -0.07   0.15
  35   6     0.01  -0.08   0.24     0.01   0.02   0.01     0.01  -0.05   0.07
  36   6    -0.01   0.07  -0.22     0.03   0.01   0.01     0.01   0.01  -0.12
  37   6    -0.00   0.07  -0.22     0.03  -0.00  -0.00     0.02  -0.03  -0.04
  38   6     0.01  -0.08   0.24     0.01  -0.01  -0.01     0.01  -0.08   0.12
  39   6     0.01  -0.09   0.29    -0.02   0.00   0.00    -0.00  -0.06   0.09
  40   6     0.00  -0.00  -0.00    -0.06  -0.05  -0.04     0.10   0.21  -0.10
  41   6     0.00  -0.00  -0.00    -0.06  -0.02  -0.01     0.11   0.12   0.06
  42   6     0.00   0.00  -0.00     0.09  -0.02  -0.30     0.17   0.03  -0.15
  43   6     0.00  -0.00  -0.00     0.03   0.02   0.01     0.07  -0.01  -0.04
  44   1    -0.00  -0.00   0.00    -0.07   0.03   0.16    -0.05  -0.03   0.10
  45   1    -0.00  -0.00   0.00    -0.01   0.06  -0.02     0.01  -0.03   0.02
  46   1     0.00  -0.00  -0.00     0.01   0.04  -0.13     0.08  -0.01  -0.06
  47   1    -0.00   0.00  -0.00     0.03  -0.04   0.13    -0.08  -0.02  -0.04
  48   1    -0.00  -0.00  -0.00    -0.00  -0.06   0.02    -0.01  -0.04   0.02
  49   1     0.00  -0.00   0.00    -0.08  -0.03  -0.17     0.06  -0.04   0.09
  50   1     0.00   0.00   0.00     0.01   0.01  -0.04    -0.01   0.00  -0.02
  51   1    -0.00   0.00  -0.00     0.06   0.02   0.11    -0.06   0.02  -0.05
  52   1    -0.00   0.00   0.00    -0.01   0.00  -0.00    -0.06   0.03   0.04
  53   1    -0.00  -0.00  -0.00    -0.02   0.02   0.02    -0.07   0.07  -0.04
  54   1    -0.00   0.03  -0.10     0.00   0.01   0.00    -0.00  -0.04   0.05
  55   1     0.01  -0.05   0.15     0.01   0.00   0.00    -0.02  -0.01  -0.03
  56   1     0.01  -0.05   0.15     0.01  -0.01   0.00    -0.02   0.02  -0.08
  57   1    -0.00   0.03  -0.10     0.00  -0.01  -0.00    -0.00  -0.01   0.03
  58   1    -0.00   0.00   0.00     0.00   0.00   0.00     0.01   0.01  -0.02
  59   1    -0.00   0.00   0.00     0.00   0.00   0.00     0.01   0.02  -0.01
  60   1    -0.00  -0.00  -0.00     0.00  -0.00  -0.00     0.03  -0.01   0.01
  61   1    -0.00   0.00  -0.00     0.00  -0.00   0.00    -0.00  -0.03   0.02
  62   1    -0.00   0.00   0.00     0.00   0.00   0.00    -0.03  -0.01   0.01
  63   1     0.00  -0.00   0.00     0.00  -0.00  -0.00    -0.03   0.02  -0.01
  64   1     0.00  -0.00  -0.00     0.00  -0.00  -0.00     0.01   0.01  -0.02
  65   1     0.00  -0.03   0.10     0.00   0.01   0.00     0.00  -0.01   0.03
  66   1    -0.00   0.05  -0.15     0.01   0.00   0.00     0.00   0.02  -0.08
  67   1    -0.01   0.05  -0.15     0.01  -0.00  -0.00     0.00  -0.00  -0.02
  68   1     0.00  -0.03   0.10     0.00  -0.01  -0.01     0.00  -0.03   0.06
  69   1    -0.00   0.00   0.00    -0.02  -0.03  -0.02     0.06   0.08  -0.04
  70   1     0.00  -0.00  -0.00    -0.01  -0.00  -0.00     0.06   0.03   0.03
  71   1     0.00   0.00  -0.00     0.04  -0.02  -0.11     0.06   0.02  -0.06
  72   1     0.00   0.00  -0.00     0.02  -0.01   0.04     0.01   0.00  -0.02
                     25                     26                     27
                        a                      a                      a 
 Frequencies --   291.2385               293.0137               319.5190
 Red. masses --    10.9792                10.3956                10.5704
 Frc consts  --     0.0000                 0.0000                 0.0000
 IR Inten    --     0.0197                 0.1947                 0.3853
 Raman Activ --     0.0000                 0.0000                 0.0000
 Depolar     --     0.0000                 0.0000                 0.0000
 Atom AN      X      Y      Z        X      Y      Z        X      Y      Z
   1   6     0.13  -0.19   0.06    -0.03   0.05  -0.01    -0.14   0.05  -0.03
   2   6     0.05  -0.15   0.05    -0.02   0.05  -0.01     0.08  -0.03  -0.01
   3   6     0.03  -0.16  -0.01    -0.03   0.04  -0.02     0.24   0.11   0.10
   4   6     0.00  -0.08  -0.01    -0.02  -0.00  -0.02     0.19   0.18   0.17
   5   7    -0.02  -0.00   0.00     0.01  -0.00  -0.00     0.05   0.00  -0.02
   6   6     0.00   0.07   0.00     0.02  -0.03  -0.02     0.12  -0.13  -0.13
   7   6     0.02   0.16  -0.00     0.02  -0.03  -0.02     0.16  -0.13  -0.07
   8   6     0.04   0.16  -0.05     0.00  -0.01   0.01     0.04  -0.04   0.01
   9   6     0.12   0.19  -0.06    -0.03  -0.03   0.02    -0.14  -0.12   0.03
  10   6     0.13   0.15  -0.04    -0.04  -0.04   0.01    -0.11  -0.19   0.08
  11   6     0.09   0.15  -0.06    -0.01  -0.06  -0.00     0.03  -0.25   0.02
  12   6    -0.08   0.00   0.01     0.02   0.03   0.06     0.02  -0.00  -0.08
  13   6    -0.17   0.01  -0.02     0.03   0.02   0.06    -0.03   0.02  -0.09
  14   6    -0.18   0.03   0.00     0.03  -0.05  -0.02    -0.04   0.05  -0.00
  15   6    -0.21  -0.02  -0.00     0.04  -0.08  -0.05    -0.12   0.03   0.04
  16   6    -0.20  -0.01  -0.00     0.04  -0.03  -0.07    -0.13  -0.01   0.04
  17   6    -0.16  -0.02   0.00    -0.01  -0.02  -0.04    -0.12  -0.00   0.01
  18   6    -0.01   0.07   0.04     0.02  -0.02   0.01    -0.03   0.06   0.02
  19   6     0.13   0.01   0.01     0.07  -0.05   0.02     0.06   0.02  -0.00
  20   6     0.13  -0.07  -0.04     0.07  -0.04  -0.05     0.06  -0.06  -0.01
  21   6    -0.01  -0.14  -0.05     0.03  -0.06  -0.04    -0.03  -0.09  -0.04
  22   6    -0.15  -0.06  -0.01    -0.02  -0.04  -0.00    -0.12  -0.03  -0.03
  23   6    -0.08  -0.00   0.00     0.02  -0.01   0.05    -0.08  -0.00  -0.02
  24   6    -0.03   0.06   0.03     0.01   0.26   0.19    -0.04  -0.00  -0.01
  25   6     0.04   0.04   0.04    -0.00   0.22   0.15     0.02  -0.01   0.02
  26   6     0.05   0.00   0.01    -0.00  -0.02  -0.08     0.03   0.01   0.03
  27   6     0.10  -0.02  -0.05     0.01  -0.14  -0.18     0.07  -0.00  -0.01
  28   6     0.11  -0.05  -0.01     0.01  -0.15  -0.11     0.08  -0.03  -0.00
  29   6     0.09   0.02   0.07    -0.03   0.21   0.20     0.07  -0.01   0.03
  30   6     0.04  -0.00   0.02    -0.05  -0.01   0.02     0.04   0.00   0.01
  31   6     0.03  -0.03  -0.07    -0.05  -0.21  -0.20     0.03  -0.00  -0.03
  32   6     0.05   0.02  -0.04     0.01   0.05  -0.03     0.03   0.01  -0.02
  33   6     0.03   0.11   0.02     0.01   0.40   0.28     0.01   0.04  -0.01
  34   6    -0.13   0.03   0.02     0.08  -0.05  -0.02    -0.13   0.03  -0.00
  35   6    -0.03   0.10   0.04    -0.02  -0.11  -0.06    -0.03   0.09   0.03
  36   6     0.09   0.05   0.01    -0.13  -0.06  -0.06     0.08   0.04   0.03
  37   6     0.10  -0.02  -0.02    -0.13  -0.04   0.03     0.08  -0.02  -0.03
  38   6    -0.02  -0.08  -0.03    -0.03   0.02   0.03    -0.03  -0.08  -0.04
  39   6    -0.15  -0.00  -0.00     0.07  -0.01  -0.05    -0.14  -0.02   0.00
  40   6    -0.17  -0.05  -0.00     0.05  -0.03  -0.02    -0.09   0.02   0.05
  41   6    -0.16   0.00   0.05     0.04   0.02   0.04    -0.07   0.01  -0.02
  42   6     0.10  -0.15   0.05    -0.03   0.01  -0.02     0.07   0.31   0.01
  43   6     0.15  -0.15   0.03    -0.02   0.02  -0.01    -0.13   0.20  -0.06
  44   1     0.04  -0.05   0.02    -0.01   0.02   0.00    -0.07  -0.01  -0.02
  45   1     0.01  -0.02   0.02    -0.01   0.02  -0.00     0.04  -0.07  -0.02
  46   1     0.02  -0.05  -0.00    -0.02   0.01  -0.01     0.11   0.02   0.03
  47   1     0.02   0.05  -0.00     0.01  -0.01  -0.01     0.07  -0.03  -0.02
  48   1     0.00   0.03  -0.02     0.00   0.01   0.01     0.02   0.04   0.02
  49   1     0.04   0.05  -0.02    -0.01  -0.01   0.01    -0.07  -0.02   0.01
  50   1     0.04   0.04  -0.00    -0.02  -0.02   0.00    -0.04  -0.07   0.04
  51   1     0.02   0.07  -0.02    -0.00  -0.03   0.00     0.02  -0.13   0.03
  52   1    -0.06  -0.01  -0.01     0.01   0.02   0.02    -0.01  -0.00  -0.03
  53   1    -0.04   0.01   0.01     0.01  -0.02  -0.01     0.01   0.02   0.01
  54   1    -0.00   0.06   0.03     0.01   0.00   0.01    -0.01   0.04   0.01
  55   1     0.06   0.02   0.01     0.03  -0.01   0.02     0.03   0.02  -0.00
  56   1     0.06  -0.03  -0.02     0.02  -0.01  -0.03     0.03  -0.03  -0.00
  57   1    -0.00  -0.08  -0.03     0.01  -0.02  -0.01    -0.01  -0.05  -0.02
  58   1     0.02   0.02   0.01    -0.01   0.08   0.06     0.02   0.00  -0.00
  59   1     0.00   0.01  -0.00    -0.01  -0.02  -0.04     0.00   0.01   0.01
  60   1     0.04  -0.02  -0.01     0.02  -0.07  -0.04     0.03  -0.01  -0.00
  61   1     0.03   0.02   0.04    -0.01   0.14   0.14     0.02  -0.00   0.02
  62   1    -0.00  -0.00   0.02    -0.02  -0.01   0.01     0.00   0.00   0.01
  63   1     0.00  -0.02  -0.03    -0.03  -0.11  -0.11     0.01  -0.01  -0.01
  64   1     0.02   0.04   0.02     0.01   0.16   0.12     0.01   0.01   0.01
  65   1    -0.01   0.06   0.03    -0.01  -0.05  -0.02    -0.01   0.06   0.02
  66   1     0.05   0.03   0.01    -0.05  -0.02  -0.03     0.04   0.02   0.02
  67   1     0.05  -0.02  -0.01    -0.05  -0.01   0.03     0.04  -0.02  -0.02
  68   1    -0.00  -0.06  -0.01    -0.01   0.03   0.03    -0.01  -0.05  -0.02
  69   1    -0.04  -0.02  -0.01     0.01  -0.01  -0.01    -0.02   0.02   0.02
  70   1    -0.06   0.01   0.02     0.02   0.01   0.02    -0.04   0.01  -0.01
  71   1     0.03  -0.07   0.02    -0.01   0.01  -0.01     0.03   0.16  -0.02
  72   1     0.04  -0.04   0.00    -0.00   0.00   0.00    -0.06   0.08  -0.05
                     28                     29                     30
                        a                      a                      a 
 Frequencies --   320.2587               350.6416               351.9826
 Red. masses --    10.6101                10.6738                 9.9953
 Frc consts  --     0.0000                 0.0000                 0.0000
 IR Inten    --     0.7921                 0.3126                 0.0562
 Raman Activ --     0.0000                 0.0000                 0.0000
 Depolar     --     0.0000                 0.0000                 0.0000
 Atom AN      X      Y      Z        X      Y      Z        X      Y      Z
   1   6     0.06  -0.14   0.00     0.03  -0.09   0.11     0.02  -0.04  -0.00
   2   6     0.08  -0.15   0.01     0.03  -0.06   0.02     0.01  -0.04   0.01
   3   6     0.12  -0.08   0.08     0.05  -0.07  -0.09     0.02  -0.02   0.02
   4   6     0.09   0.06   0.07    -0.04  -0.02   0.04     0.02   0.02   0.01
   5   7    -0.01   0.01  -0.06     0.00   0.09   0.16     0.00   0.01  -0.04
   6   6    -0.16   0.12   0.14     0.05  -0.02   0.02    -0.03   0.03   0.03
   7   6    -0.20  -0.04   0.13    -0.04  -0.07  -0.09    -0.05  -0.02   0.02
   8   6    -0.10  -0.16   0.02    -0.02  -0.05   0.02    -0.02  -0.05   0.01
   9   6     0.01  -0.11  -0.01    -0.03  -0.08   0.10    -0.01  -0.05   0.01
  10   6     0.02   0.06   0.00    -0.11  -0.05  -0.03    -0.01   0.00   0.00
  11   6    -0.14   0.16   0.08    -0.05  -0.06  -0.01    -0.04   0.03   0.03
  12   6    -0.02  -0.01  -0.34    -0.01   0.35   0.01     0.01   0.05  -0.07
  13   6     0.11   0.07  -0.22     0.08   0.26  -0.02     0.06   0.06  -0.03
  14   6     0.13   0.15   0.09     0.10  -0.19  -0.14     0.07  -0.02   0.03
  15   6     0.03   0.11   0.16    -0.01  -0.27  -0.11     0.02  -0.06   0.03
  16   6     0.04  -0.05   0.14    -0.00  -0.06   0.10     0.01  -0.02  -0.00
  17   6     0.06  -0.03   0.01    -0.09   0.01   0.08    -0.03   0.02  -0.04
  18   6    -0.00  -0.05  -0.06    -0.01   0.09   0.02    -0.01   0.08  -0.15
  19   6    -0.05  -0.04  -0.05     0.06   0.07  -0.00     0.03  -0.02   0.14
  20   6    -0.04  -0.04   0.06     0.06   0.00   0.04     0.02   0.00   0.02
  21   6     0.00   0.01  -0.02    -0.02  -0.02  -0.04    -0.01   0.05  -0.15
  22   6     0.04   0.01  -0.08    -0.08   0.02  -0.02    -0.02  -0.03   0.09
  23   6     0.02   0.00  -0.10     0.00   0.07  -0.07    -0.00  -0.09   0.29
  24   6     0.01   0.03   0.01     0.01   0.07  -0.03    -0.02  -0.01   0.20
  25   6     0.01   0.04   0.02     0.04   0.06  -0.01    -0.10   0.02   0.17
  26   6     0.00   0.00   0.03     0.04  -0.09  -0.00    -0.10  -0.07  -0.21
  27   6    -0.04  -0.07   0.01    -0.05  -0.07   0.08     0.11   0.14  -0.20
  28   6    -0.05  -0.05  -0.05    -0.06   0.06   0.04     0.14   0.11   0.10
  29   6    -0.01   0.08   0.01     0.02   0.02  -0.07    -0.05  -0.15   0.09
  30   6     0.02   0.02  -0.02     0.06   0.01  -0.06    -0.13  -0.14   0.04
  31   6     0.02  -0.08  -0.03     0.05   0.02   0.08    -0.12   0.19   0.00
  32   6    -0.03  -0.02   0.05    -0.05  -0.06   0.08     0.11   0.16  -0.18
  33   6    -0.03   0.09   0.10    -0.06  -0.05  -0.05     0.15  -0.12  -0.08
  34   6     0.01  -0.00  -0.09     0.07   0.03  -0.02     0.02  -0.05   0.09
  35   6     0.01  -0.03  -0.04     0.01  -0.00  -0.04    -0.00   0.02  -0.16
  36   6     0.01  -0.06   0.05    -0.06   0.01   0.05    -0.01  -0.03   0.01
  37   6     0.01  -0.02  -0.05    -0.06   0.07   0.01    -0.01  -0.05   0.13
  38   6     0.01  -0.02  -0.05     0.01   0.10   0.01    -0.00   0.05  -0.17
  39   6     0.01  -0.03   0.01     0.09   0.02   0.08     0.02   0.00  -0.05
  40   6    -0.10   0.16   0.09    -0.12  -0.20  -0.13    -0.03  -0.02   0.03
  41   6    -0.10   0.07  -0.23    -0.11   0.26  -0.01    -0.04   0.06  -0.03
  42   6     0.11   0.04   0.07     0.06  -0.05  -0.01     0.03   0.01   0.02
  43   6     0.03  -0.02   0.03     0.11  -0.04  -0.04     0.01  -0.01   0.01
  44   1     0.01  -0.05  -0.01    -0.00  -0.03   0.06     0.00  -0.01  -0.00
  45   1     0.03  -0.05  -0.00     0.01  -0.00   0.01     0.00  -0.01   0.00
  46   1     0.07  -0.04   0.03     0.04  -0.02  -0.05     0.02  -0.01   0.01
  47   1    -0.11  -0.03   0.05    -0.03  -0.02  -0.05    -0.03  -0.01   0.01
  48   1    -0.04  -0.08  -0.01    -0.00   0.00   0.01    -0.01  -0.02   0.00
  49   1     0.02  -0.05  -0.02     0.01  -0.02   0.06     0.00  -0.02  -0.00
  50   1     0.04   0.04  -0.03    -0.04  -0.01  -0.03     0.00   0.01  -0.01
  51   1    -0.05   0.08   0.01    -0.01  -0.04   0.00    -0.01   0.01   0.01
  52   1     0.07   0.04  -0.08     0.06   0.12  -0.00     0.04   0.03  -0.01
  53   1     0.07   0.06   0.06     0.06  -0.09  -0.05     0.04  -0.01   0.02
  54   1     0.00  -0.02  -0.03    -0.01   0.05  -0.01    -0.00   0.05  -0.08
  55   1    -0.02  -0.01  -0.03     0.03   0.03  -0.01     0.01  -0.02   0.08
  56   1    -0.02  -0.02   0.05     0.03  -0.01   0.02     0.01   0.00  -0.01
  57   1     0.00   0.02   0.00    -0.01  -0.02  -0.03    -0.00   0.03  -0.10
  58   1     0.00   0.01   0.01     0.03   0.03  -0.01    -0.06   0.01   0.08
  59   1     0.01   0.00   0.02     0.04  -0.05  -0.00    -0.09  -0.05  -0.12
  60   1    -0.03  -0.02  -0.03    -0.05   0.04   0.01     0.11   0.05   0.08
  61   1    -0.00   0.05   0.01     0.01   0.01  -0.04    -0.01  -0.08   0.05
  62   1     0.01   0.01  -0.01     0.03  -0.00  -0.03    -0.07  -0.07   0.01
  63   1     0.02  -0.05  -0.02     0.04   0.01   0.05    -0.10   0.11   0.00
  64   1    -0.02   0.05   0.04    -0.04  -0.03  -0.04     0.10  -0.10  -0.03
  65   1     0.00  -0.01  -0.01     0.00  -0.02  -0.03    -0.00   0.02  -0.11
  66   1     0.01  -0.03   0.04    -0.03  -0.01   0.03    -0.01  -0.01  -0.01
  67   1     0.00  -0.00  -0.02    -0.03   0.03  -0.01    -0.00  -0.03   0.07
  68   1     0.00   0.00  -0.02     0.00   0.05  -0.01    -0.00   0.04  -0.10
  69   1    -0.07   0.06   0.07    -0.07  -0.10  -0.04    -0.03  -0.01   0.02
  70   1    -0.06   0.03  -0.08    -0.07   0.12   0.00    -0.03   0.03  -0.01
  71   1     0.03   0.02   0.02     0.02  -0.03   0.00     0.01   0.00   0.01
  72   1    -0.02   0.01  -0.00     0.04  -0.01  -0.04    -0.00   0.00  -0.00
                     31                     32                     33
                        a                      a                      a 
 Frequencies --   365.8689               377.6675               378.2449
 Red. masses --     9.5706                 9.1726                 9.0937
 Frc consts  --     0.0000                 0.0000                 0.0000
 IR Inten    --     0.3160                 0.8407                 2.2699
 Raman Activ --     0.0000                 0.0000                 0.0000
 Depolar     --     0.0000                 0.0000                 0.0000
 Atom AN      X      Y      Z        X      Y      Z        X      Y      Z
   1   6    -0.01   0.00  -0.03    -0.01  -0.01   0.03    -0.00  -0.00   0.03
   2   6     0.01  -0.01  -0.01    -0.07  -0.02   0.13     0.16   0.03  -0.26
   3   6     0.02   0.01   0.05     0.12   0.02  -0.18    -0.15  -0.04   0.24
   4   6     0.04   0.03   0.00     0.00   0.02   0.01    -0.02  -0.03   0.01
   5   7    -0.01  -0.04  -0.09    -0.02  -0.00  -0.00     0.00   0.01   0.07
   6   6    -0.03   0.01  -0.02    -0.00  -0.02  -0.01     0.02  -0.02   0.01
   7   6     0.02   0.02   0.04     0.14  -0.01   0.18     0.16  -0.03   0.22
   8   6     0.00   0.01  -0.01    -0.09   0.02  -0.14    -0.17   0.02  -0.24
   9   6    -0.00   0.02  -0.04    -0.01   0.01  -0.03     0.01  -0.00   0.03
  10   6     0.04   0.01   0.02     0.12  -0.02   0.17     0.13  -0.03   0.23
  11   6     0.01   0.02  -0.00    -0.08  -0.00  -0.15    -0.18  -0.00  -0.28
  12   6    -0.01  -0.11  -0.02    -0.04  -0.00   0.00    -0.00   0.05   0.02
  13   6    -0.04  -0.06   0.00    -0.04   0.26   0.21     0.01   0.04   0.00
  14   6    -0.05   0.07   0.05    -0.04  -0.26  -0.19     0.01  -0.00  -0.01
  15   6    -0.02   0.04   0.01    -0.03  -0.00   0.00     0.00  -0.02  -0.02
  16   6    -0.01   0.01  -0.07    -0.01  -0.00  -0.00     0.00  -0.01   0.01
  17   6    -0.03   0.01  -0.06     0.02  -0.03   0.01    -0.01  -0.00   0.01
  18   6    -0.00  -0.05   0.13     0.00  -0.04  -0.03    -0.00   0.01  -0.01
  19   6     0.02  -0.00  -0.07     0.00  -0.06  -0.00     0.00   0.01   0.01
  20   6     0.02  -0.03  -0.07     0.00  -0.04  -0.01     0.00  -0.00   0.01
  21   6    -0.00  -0.10   0.10     0.02  -0.02  -0.03    -0.00   0.00  -0.01
  22   6    -0.04  -0.00  -0.09     0.02  -0.02   0.01    -0.01  -0.00   0.01
  23   6     0.01   0.04  -0.10     0.03  -0.00   0.01     0.00   0.00   0.01
  24   6     0.01   0.19   0.06     0.02   0.00   0.00     0.00   0.00  -0.01
  25   6     0.04   0.32   0.18    -0.00   0.01  -0.00     0.00  -0.01  -0.01
  26   6     0.04  -0.33  -0.21    -0.00   0.00  -0.01     0.00   0.01   0.01
  27   6    -0.04  -0.17  -0.03    -0.02   0.00  -0.00    -0.00   0.00   0.01
  28   6    -0.05   0.19   0.14    -0.02   0.01  -0.00    -0.00  -0.00  -0.00
  29   6     0.01   0.04  -0.04    -0.02   0.00  -0.00     0.00  -0.00  -0.00
  30   6     0.04  -0.16  -0.18    -0.01  -0.00  -0.00     0.00   0.01   0.00
  31   6     0.03   0.18   0.19    -0.01  -0.00   0.01     0.00  -0.01  -0.00
  32   6    -0.04   0.01   0.11    -0.00  -0.00   0.00    -0.00  -0.01   0.00
  33   6    -0.05  -0.09  -0.09     0.00  -0.01   0.00    -0.00   0.00  -0.00
  34   6     0.05  -0.00  -0.06     0.02   0.02   0.00     0.01  -0.00   0.01
  35   6     0.02  -0.09   0.09     0.02   0.02   0.01     0.00   0.00  -0.02
  36   6    -0.02  -0.03  -0.06    -0.00   0.04   0.01    -0.00  -0.00   0.01
  37   6    -0.02   0.00  -0.06    -0.00   0.05   0.02    -0.00   0.01   0.01
  38   6     0.03  -0.03   0.11     0.00   0.05   0.01     0.00   0.01  -0.01
  39   6     0.04   0.01  -0.04     0.02   0.03  -0.01     0.01   0.00   0.01
  40   6     0.00   0.05   0.04    -0.04   0.26   0.20    -0.01  -0.02  -0.02
  41   6    -0.00  -0.05   0.02    -0.04  -0.26  -0.20    -0.01   0.05   0.01
  42   6     0.01   0.04   0.01    -0.06   0.00   0.14     0.16   0.00  -0.30
  43   6    -0.04   0.02   0.02     0.10   0.03  -0.16    -0.12  -0.04   0.24
  44   1    -0.00  -0.00  -0.02    -0.01  -0.01   0.02    -0.01   0.00   0.02
  45   1     0.01  -0.01  -0.01    -0.05  -0.01   0.08     0.10   0.02  -0.16
  46   1     0.01   0.00   0.02     0.07   0.01  -0.10    -0.10  -0.02   0.15
  47   1     0.01   0.00   0.02     0.08  -0.00   0.10     0.10  -0.01   0.13
  48   1    -0.00  -0.00  -0.00    -0.06   0.01  -0.09    -0.10   0.02  -0.15
  49   1    -0.01   0.01  -0.02    -0.01   0.00  -0.02     0.01   0.00   0.02
  50   1     0.02   0.00   0.02     0.07  -0.01   0.11     0.08  -0.02   0.14
  51   1     0.00   0.01  -0.00    -0.06   0.00  -0.09    -0.10   0.00  -0.16
  52   1    -0.02  -0.03   0.00    -0.01   0.16   0.12     0.01   0.01  -0.00
  53   1    -0.02   0.04   0.02    -0.01  -0.15  -0.12     0.01  -0.00  -0.00
  54   1     0.00  -0.02   0.09    -0.00  -0.01  -0.03    -0.00   0.01  -0.01
  55   1     0.01   0.00  -0.02     0.00  -0.02  -0.00     0.00   0.00   0.00
  56   1     0.01  -0.01  -0.02    -0.01  -0.01  -0.01     0.00  -0.00   0.00
  57   1     0.00  -0.05   0.08     0.01   0.00  -0.02    -0.00   0.00  -0.01
  58   1     0.02   0.16   0.10    -0.00   0.00   0.00     0.00  -0.01  -0.01
  59   1     0.04  -0.19  -0.12     0.00  -0.00  -0.00     0.00   0.00   0.01
  60   1    -0.04   0.14   0.10    -0.01   0.00   0.00    -0.00  -0.00  -0.00
  61   1     0.00   0.04  -0.01    -0.01   0.00  -0.00     0.00  -0.00  -0.00
  62   1     0.02  -0.10  -0.10    -0.00   0.00  -0.00     0.00   0.01   0.00
  63   1     0.03   0.10   0.11    -0.00   0.00   0.00     0.00  -0.00  -0.00
  64   1    -0.04  -0.09  -0.09    -0.00  -0.00  -0.00    -0.00   0.00   0.00
  65   1     0.01  -0.05   0.06     0.01   0.00   0.01     0.00   0.00  -0.01
  66   1    -0.01  -0.01  -0.02    -0.01   0.01   0.00    -0.00  -0.00   0.00
  67   1    -0.01   0.01  -0.02    -0.00   0.01   0.01    -0.00   0.00   0.00
  68   1     0.01  -0.01   0.07     0.00   0.02   0.01     0.00   0.01  -0.01
  69   1     0.01   0.03   0.02    -0.01   0.15   0.12    -0.01  -0.01  -0.01
  70   1     0.01  -0.01   0.01    -0.01  -0.16  -0.12    -0.01   0.02   0.00
  71   1     0.01   0.02  -0.00    -0.04  -0.00   0.08     0.09   0.01  -0.17
  72   1    -0.02   0.01   0.01     0.05   0.01  -0.10    -0.08  -0.02   0.15
                     34                     35                     36
                        a                      a                      a 
 Frequencies --   386.8466               388.9757               393.7713
 Red. masses --     9.2591                10.7071                10.6123
 Frc consts  --     0.0000                 0.0000                 0.0000
 IR Inten    --     0.3882                 0.4803                 1.7738
 Raman Activ --     0.0000                 0.0000                 0.0000
 Depolar     --     0.0000                 0.0000                 0.0000
 Atom AN      X      Y      Z        X      Y      Z        X      Y      Z
   1   6     0.02  -0.00  -0.01    -0.01  -0.03   0.03    -0.03   0.07   0.05
   2   6     0.10   0.02  -0.17     0.07  -0.03  -0.08    -0.03   0.08  -0.02
   3   6    -0.14  -0.04   0.21     0.01  -0.01   0.09    -0.07   0.01  -0.08
   4   6     0.00  -0.02  -0.03     0.01   0.02   0.07    -0.09  -0.08   0.01
   5   7     0.02   0.00  -0.01    -0.06  -0.01   0.03     0.03   0.04   0.28
   6   6    -0.00   0.03   0.03     0.02  -0.04  -0.07     0.09  -0.05   0.04
   7   6    -0.16   0.02  -0.19     0.01   0.03  -0.11     0.03   0.01  -0.06
   8   6     0.10  -0.02   0.16     0.09   0.06   0.08    -0.00   0.06  -0.04
   9   6     0.01  -0.01   0.01    -0.00   0.07  -0.03     0.04   0.04   0.06
  10   6    -0.11   0.03  -0.18    -0.02   0.00  -0.06    -0.03  -0.01  -0.04
  11   6     0.11   0.02   0.20     0.13  -0.05   0.06     0.04  -0.04  -0.05
  12   6     0.03   0.01  -0.01    -0.09  -0.03   0.02     0.03  -0.01   0.02
  13   6     0.04   0.24   0.17    -0.14  -0.02   0.01    -0.02  -0.05  -0.05
  14   6     0.04  -0.21  -0.16    -0.14   0.04   0.00    -0.01   0.07  -0.06
  15   6     0.01  -0.02   0.00    -0.08   0.06  -0.01     0.02   0.19   0.03
  16   6    -0.01   0.01  -0.02    -0.03  -0.02   0.07     0.01  -0.06   0.21
  17   6    -0.05   0.03   0.01     0.13  -0.16   0.02     0.07  -0.07   0.20
  18   6    -0.02   0.05   0.05     0.01  -0.23  -0.19     0.05   0.05  -0.14
  19   6     0.02   0.05   0.01    -0.03  -0.28  -0.05    -0.01   0.03   0.02
  20   6     0.02   0.02  -0.01    -0.03  -0.20  -0.02    -0.00   0.05   0.16
  21   6    -0.02  -0.02   0.02     0.10  -0.06  -0.13     0.01   0.16  -0.14
  22   6    -0.06   0.01  -0.01     0.12  -0.10   0.03     0.05   0.04   0.07
  23   6    -0.05   0.01  -0.02     0.16  -0.02   0.06    -0.06  -0.00  -0.04
  24   6    -0.04  -0.01   0.01     0.11   0.03  -0.03    -0.04   0.05  -0.05
  25   6    -0.00  -0.02   0.02     0.02   0.08  -0.04     0.04   0.15   0.06
  26   6    -0.00  -0.01   0.01     0.01   0.01  -0.04     0.05  -0.11  -0.03
  27   6     0.03   0.00  -0.01    -0.10  -0.03   0.01     0.01  -0.12  -0.01
  28   6     0.04  -0.00   0.01    -0.12   0.02  -0.02     0.01   0.01   0.02
  29   6     0.04  -0.01   0.01    -0.10   0.04  -0.03     0.06   0.07   0.01
  30   6     0.01  -0.00   0.00    -0.03  -0.01  -0.02     0.05  -0.06  -0.09
  31   6     0.01   0.01  -0.01    -0.02  -0.03   0.05     0.04   0.04   0.05
  32   6     0.01   0.01  -0.02    -0.02  -0.03   0.06    -0.03   0.02   0.08
  33   6    -0.00  -0.00  -0.01     0.00  -0.00   0.02    -0.05   0.07  -0.01
  34   6    -0.05   0.01  -0.04     0.10   0.04   0.13    -0.14  -0.03   0.05
  35   6    -0.02  -0.01   0.05     0.07   0.14  -0.09    -0.11   0.05  -0.16
  36   6     0.02  -0.00  -0.02    -0.03   0.15   0.11     0.04  -0.12   0.10
  37   6     0.02  -0.03  -0.04    -0.02   0.20   0.13     0.04  -0.20  -0.07
  38   6    -0.01  -0.06   0.03    -0.01   0.25  -0.05    -0.05  -0.17  -0.20
  39   6    -0.04  -0.01  -0.05     0.09   0.08   0.14    -0.14  -0.18   0.15
  40   6     0.03   0.19   0.16    -0.10   0.04  -0.02     0.07   0.11  -0.02
  41   6     0.03  -0.22  -0.17    -0.09  -0.05  -0.00     0.08  -0.09  -0.08
  42   6     0.11  -0.01  -0.21     0.09   0.04  -0.08    -0.08  -0.07  -0.05
  43   6    -0.09  -0.04   0.19    -0.02   0.00   0.05     0.02  -0.01  -0.04
  44   1     0.01   0.00  -0.00    -0.01  -0.01   0.02    -0.01   0.02   0.04
  45   1     0.06   0.01  -0.10     0.04  -0.01  -0.06    -0.01   0.04  -0.01
  46   1    -0.08  -0.01   0.12     0.01  -0.01   0.04    -0.04   0.02  -0.04
  47   1    -0.09   0.01  -0.11     0.01   0.02  -0.05     0.02   0.01  -0.04
  48   1     0.06  -0.01   0.10     0.05   0.02   0.06    -0.01   0.03  -0.02
  49   1     0.01  -0.00   0.00    -0.01   0.02  -0.01     0.02   0.01   0.04
  50   1    -0.07   0.02  -0.12    -0.03  -0.01  -0.02    -0.03  -0.01  -0.02
  51   1     0.07   0.00   0.11     0.06  -0.02   0.05     0.00  -0.02  -0.03
  52   1     0.02   0.14   0.10    -0.05  -0.02   0.00    -0.02  -0.04  -0.02
  53   1     0.02  -0.13  -0.09    -0.06   0.02  -0.00    -0.02   0.01  -0.03
  54   1    -0.01   0.02   0.02     0.00  -0.08  -0.10     0.01   0.04  -0.12
  55   1     0.01   0.02  -0.00    -0.02  -0.09  -0.02    -0.02   0.01  -0.03
[...]
  58   1    -0.01   0.01  -0.01    -0.00   0.00  -0.00    -0.02   0.02  -0.02
  59   1     0.00   0.00  -0.00     0.00   0.00  -0.00     0.01   0.01  -0.01
  60   1    -0.00  -0.00   0.00     0.00   0.00  -0.00     0.01   0.01  -0.02
  61   1    -0.01  -0.00   0.00     0.00   0.00  -0.00     0.05   0.00  -0.00
  62   1    -0.01   0.01  -0.01     0.00  -0.00   0.00     0.02  -0.02   0.03
  63   1     0.00   0.00  -0.00     0.00   0.00  -0.00    -0.01  -0.01   0.01
  64   1    -0.00  -0.00   0.00     0.00   0.00  -0.00     0.00   0.00  -0.00
  65   1    -0.02  -0.00   0.00     0.00   0.00  -0.00    -0.16  -0.01   0.01
  66   1    -0.00   0.00   0.00    -0.00   0.00   0.00    -0.03   0.04   0.02
  67   1    -0.00  -0.00  -0.00     0.00   0.00   0.00    -0.04  -0.06  -0.02
  68   1    -0.01  -0.00   0.00     0.02   0.00   0.00    -0.18  -0.00   0.00
  69   1     0.05  -0.05   0.06    -0.12   0.12  -0.15    -0.14   0.14  -0.18
  70   1    -0.03  -0.03   0.04     0.14   0.16  -0.21     0.18   0.22  -0.28
  71   1    -0.39  -0.04  -0.23    -0.23  -0.02  -0.14     0.21   0.02   0.12
  72   1    -0.05  -0.13  -0.04    -0.09  -0.23  -0.07     0.06   0.15   0.05
                    202                    203                    204
                        a                      a                      a 
 Frequencies --  3089.2112              3089.3293              3089.6715
 Red. masses --     1.8769                 1.9075                 1.8600
 Frc consts  --     0.0000                 0.0000                 0.0000
 IR Inten    --   133.0517                67.5559                20.4623
 Raman Activ --     0.0000                 0.0000                 0.0000
 Depolar     --     0.0000                 0.0000                 0.0000
 Atom AN      X      Y      Z        X      Y      Z        X      Y      Z
   1   6    -0.02   0.02  -0.01    -0.00   0.01  -0.00     0.00  -0.00   0.00
   2   6     0.06   0.01   0.03     0.02   0.00   0.01     0.02   0.00   0.01
   3   6     0.04   0.10   0.03     0.01   0.04   0.01     0.01   0.02   0.01
   4   6    -0.00   0.00  -0.00    -0.00   0.00  -0.00     0.00  -0.00   0.00
   5   7     0.00  -0.00   0.00    -0.00   0.00   0.00    -0.00   0.00  -0.00
   6   6    -0.00  -0.00   0.00    -0.00  -0.00   0.00    -0.00  -0.00   0.00
   7   6     0.04  -0.11  -0.04     0.01  -0.03  -0.01    -0.01   0.02   0.01
   8   6     0.07  -0.00  -0.04     0.02  -0.00  -0.01    -0.02   0.00   0.01
   9   6    -0.01  -0.02   0.01    -0.00  -0.01   0.00    -0.00  -0.01   0.00
  10   6     0.03  -0.07  -0.02     0.01  -0.02  -0.01    -0.01   0.02   0.01
  11   6     0.06  -0.00  -0.04     0.02  -0.00  -0.01    -0.04   0.00   0.02
  12   6     0.00   0.00  -0.00     0.00   0.00  -0.00     0.00   0.00   0.00
  13   6     0.03  -0.03   0.04     0.01  -0.01   0.01    -0.01   0.01  -0.01
  14   6    -0.02  -0.03   0.04    -0.01  -0.01   0.01     0.01   0.01  -0.01
  15   6    -0.00   0.00  -0.00    -0.00  -0.00   0.00    -0.00  -0.00   0.00
  16   6     0.00  -0.00   0.00    -0.00   0.00  -0.00    -0.00   0.00  -0.00
  17   6     0.00   0.00   0.00    -0.00  -0.00  -0.00    -0.00  -0.00  -0.00
  18   6     0.01   0.00  -0.00    -0.02  -0.00   0.00    -0.14  -0.01   0.01
  19   6     0.00  -0.00  -0.00    -0.00   0.01   0.00    -0.02   0.04   0.01
  20   6     0.00   0.01   0.00     0.00   0.00   0.00    -0.04  -0.07  -0.02
  21   6     0.01   0.00  -0.00    -0.00  -0.00  -0.00    -0.16  -0.00   0.00
  22   6     0.00  -0.00  -0.00     0.00   0.00   0.00    -0.00   0.00   0.00
  23   6     0.00  -0.00   0.00     0.00   0.00  -0.00    -0.00  -0.00  -0.00
  24   6    -0.00  -0.00   0.00     0.00   0.00  -0.00     0.00   0.00  -0.00
  25   6    -0.00   0.00  -0.00     0.01  -0.01   0.02     0.01  -0.01   0.01
  26   6     0.00   0.00  -0.00    -0.01  -0.01   0.02    -0.00  -0.00   0.00
  27   6    -0.00   0.00  -0.00     0.00  -0.00   0.00    -0.00   0.00  -0.00
  28   6     0.01   0.02  -0.02    -0.03  -0.04   0.06     0.00   0.00  -0.01
  29   6     0.06   0.00  -0.00    -0.17  -0.00   0.01     0.02   0.00  -0.00
  30   6     0.03  -0.03   0.04    -0.10   0.08  -0.11     0.01  -0.01   0.01
  31   6    -0.01  -0.01   0.02     0.04   0.04  -0.05    -0.00  -0.00   0.01
  32   6    -0.00  -0.00   0.00     0.00   0.00  -0.00    -0.00   0.00  -0.00
  33   6    -0.00  -0.00   0.00     0.01   0.01  -0.01    -0.00  -0.00   0.00
  34   6     0.00   0.00   0.00    -0.00  -0.00  -0.00     0.00   0.00   0.00
  35   6     0.01   0.00  -0.00    -0.00  -0.00   0.00     0.03   0.00  -0.00
  36   6     0.00  -0.01  -0.00     0.00   0.00   0.00     0.01  -0.01  -0.00
  37   6     0.00   0.00   0.00    -0.00  -0.01  -0.00     0.00   0.00   0.00
  38   6     0.02   0.00  -0.00    -0.02  -0.00   0.00     0.02   0.00  -0.00
  39   6     0.00  -0.00  -0.00    -0.00   0.00   0.00     0.00  -0.00  -0.00
  40   6    -0.01   0.01  -0.02    -0.01   0.01  -0.01    -0.04   0.04  -0.05
  41   6     0.01   0.02  -0.02     0.01   0.02  -0.02     0.05   0.06  -0.07
  42   6     0.05   0.00   0.03     0.02   0.00   0.01     0.03   0.00   0.02
  43   6     0.02   0.06   0.02     0.01   0.02   0.01     0.01   0.02   0.01
  44   1     0.05  -0.08   0.02     0.02  -0.02   0.01    -0.01   0.01  -0.00
  45   1    -0.19  -0.02  -0.11    -0.08  -0.01  -0.04    -0.06  -0.01  -0.03
  46   1    -0.13  -0.36  -0.11    -0.05  -0.13  -0.04    -0.02  -0.07  -0.02
  47   1    -0.16   0.39   0.14    -0.05   0.12   0.04     0.03  -0.07  -0.03
  48   1    -0.22   0.01   0.15    -0.06   0.00   0.04     0.07  -0.00  -0.05
  49   1     0.04   0.07  -0.02     0.01   0.03  -0.01     0.02   0.03  -0.01
  50   1    -0.09   0.23   0.08    -0.03   0.07   0.02     0.03  -0.07  -0.03
  51   1    -0.22   0.01   0.15    -0.06   0.00   0.04     0.12  -0.01  -0.08
  52   1    -0.12   0.12  -0.15    -0.03   0.03  -0.04     0.03  -0.03   0.04
  53   1     0.08   0.09  -0.12     0.02   0.02  -0.03    -0.03  -0.04   0.05
  54   1    -0.02  -0.00   0.00     0.05   0.00  -0.00     0.49   0.02  -0.02
  55   1    -0.00   0.00   0.00     0.01  -0.02  -0.01     0.07  -0.11  -0.04
  56   1    -0.01  -0.02  -0.01    -0.00  -0.00  -0.00     0.13   0.22   0.07
  57   1    -0.03  -0.00   0.00     0.01   0.00  -0.00     0.54   0.01  -0.01
  58   1     0.01  -0.01   0.02    -0.05   0.04  -0.06    -0.02   0.02  -0.02
  59   1    -0.01  -0.01   0.02     0.03   0.04  -0.05     0.00   0.00  -0.00
  60   1    -0.04  -0.05   0.06     0.11   0.14  -0.18    -0.01  -0.01   0.02
  61   1    -0.20  -0.01   0.01     0.58   0.02  -0.02    -0.06  -0.00   0.00
  62   1    -0.11   0.10  -0.12     0.31  -0.28   0.36    -0.03   0.03  -0.04
  63   1     0.04   0.05  -0.06    -0.12  -0.14   0.18     0.01   0.01  -0.02
  64   1     0.01   0.01  -0.01    -0.02  -0.03   0.04     0.00   0.00  -0.00
  65   1    -0.05  -0.00   0.00     0.02   0.00  -0.00    -0.09  -0.00   0.00
  66   1    -0.01   0.02   0.01     0.00  -0.00  -0.00    -0.03   0.04   0.02
  67   1    -0.01  -0.02  -0.00     0.01   0.03   0.01    -0.00  -0.01  -0.00
  68   1    -0.05  -0.00   0.00     0.07   0.00  -0.00    -0.06  -0.00   0.00
  69   1     0.05  -0.05   0.06     0.04  -0.04   0.05     0.13  -0.12   0.16
  70   1    -0.05  -0.05   0.07    -0.05  -0.06   0.08    -0.16  -0.19   0.25
  71   1    -0.17  -0.01  -0.10    -0.09  -0.01  -0.05    -0.11  -0.01  -0.06
  72   1    -0.07  -0.20  -0.06    -0.03  -0.08  -0.03    -0.03  -0.07  -0.02
                    205                    206                    207
                        a                      a                      a 
 Frequencies --  3089.9400              3090.3674              3093.4116
 Red. masses --     1.8661                 1.8630                 1.9036
 Frc consts  --     0.0000                 0.0000                 0.0000
 IR Inten    --    25.5009                29.9550               121.4969
 Raman Activ --     0.0000                 0.0000                 0.0000
 Depolar     --     0.0000                 0.0000                 0.0000
 Atom AN      X      Y      Z        X      Y      Z        X      Y      Z
   1   6     0.00  -0.01   0.00     0.00  -0.00   0.00     0.00  -0.00   0.00
   2   6     0.03   0.00   0.02     0.02   0.00   0.01     0.00   0.00   0.00
   3   6     0.01   0.03   0.01     0.01   0.02   0.01     0.00   0.00   0.00
   4   6     0.00  -0.00   0.00     0.00  -0.00   0.00    -0.00   0.00   0.00
   5   7     0.00   0.00  -0.00     0.00   0.00  -0.00     0.00  -0.00  -0.00
   6   6     0.00   0.00  -0.00     0.00   0.00  -0.00     0.00   0.00   0.00
   7   6     0.01  -0.01  -0.01     0.01  -0.03  -0.01    -0.00   0.00   0.00
   8   6     0.01  -0.00  -0.01     0.02  -0.00  -0.01    -0.00   0.00   0.00
   9   6     0.00   0.00  -0.00     0.00   0.01  -0.00    -0.00  -0.00   0.00
  10   6     0.00  -0.01  -0.00     0.01  -0.02  -0.01    -0.00   0.00   0.00
  11   6     0.01  -0.00  -0.01     0.04  -0.00  -0.03    -0.00   0.00   0.00
  12   6    -0.01  -0.00   0.00    -0.01  -0.00   0.00    -0.00  -0.00   0.00
  13   6    -0.07   0.07  -0.09    -0.04   0.04  -0.05    -0.00   0.00  -0.00
  14   6     0.04   0.05  -0.07     0.03   0.03  -0.04     0.00   0.00  -0.01
  15   6     0.00  -0.00   0.00     0.01   0.00  -0.00     0.00  -0.00   0.00
  16   6     0.00   0.00  -0.00    -0.00  -0.00   0.00    -0.00  -0.00  -0.00
  17   6    -0.00   0.00   0.00    -0.00  -0.00  -0.00    -0.00  -0.00  -0.00
  18   6     0.00   0.00  -0.00    -0.05  -0.00   0.00    -0.13  -0.01   0.01
  19   6     0.00  -0.01  -0.00    -0.00   0.01   0.00    -0.05   0.09   0.03
  20   6    -0.01  -0.01  -0.00    -0.02  -0.03  -0.01     0.05   0.08   0.03
  21   6    -0.01   0.00   0.00    -0.07  -0.00   0.00     0.10  -0.00  -0.00
  22   6    -0.00  -0.00   0.00    -0.00   0.00   0.00     0.00  -0.00  -0.00
  23   6     0.00  -0.00  -0.00    -0.00   0.00   0.00    -0.00  -0.00  -0.00
  24   6    -0.00   0.00  -0.00     0.00  -0.00   0.00     0.00  -0.00   0.00
  25   6    -0.00   0.00  -0.00     0.00  -0.00   0.00    -0.00   0.00  -0.00
  26   6    -0.00  -0.00   0.00     0.00   0.00  -0.00     0.00   0.00  -0.00
  27   6     0.00  -0.00   0.00    -0.00   0.00  -0.00     0.00  -0.00   0.00
  28   6    -0.00  -0.00   0.00     0.00   0.00  -0.00     0.00   0.00  -0.00
  29   6    -0.01  -0.00   0.00     0.01   0.00  -0.00     0.00   0.00  -0.00
  30   6    -0.01   0.01  -0.01     0.01  -0.00   0.01     0.00  -0.00   0.00
  31   6     0.00   0.00  -0.00    -0.00  -0.00   0.00    -0.00   0.00  -0.00
  32   6     0.00  -0.00   0.00    -0.00   0.00  -0.00     0.00  -0.00  -0.00
  33   6    -0.00  -0.00   0.00     0.00   0.00  -0.00     0.00   0.00  -0.00
  34   6     0.00   0.00   0.00    -0.00  -0.00  -0.00    -0.00  -0.00  -0.00
  35   6     0.11   0.00  -0.01    -0.13  -0.01   0.01    -0.09  -0.01   0.00
  36   6     0.02  -0.03  -0.01    -0.03   0.05   0.02    -0.04   0.07   0.03
  37   6     0.02   0.04   0.01    -0.02  -0.04  -0.01     0.04   0.07   0.02
  38   6     0.12   0.00  -0.00    -0.12  -0.00   0.00     0.10  -0.00  -0.00
  39   6     0.00  -0.00  -0.00    -0.00   0.00   0.00     0.00  -0.00  -0.00
  40   6     0.03  -0.03   0.04     0.04  -0.04   0.05    -0.00   0.00  -0.00
  41   6    -0.04  -0.05   0.06    -0.04  -0.05   0.07     0.00   0.00  -0.00
  42   6     0.04   0.00   0.03     0.03   0.00   0.02     0.01   0.00   0.00
  43   6     0.01   0.03   0.01     0.01   0.02   0.00     0.00   0.00   0.00
  44   1    -0.02   0.03  -0.01    -0.01   0.01  -0.00    -0.01   0.01  -0.00
  45   1    -0.10  -0.01  -0.06    -0.05  -0.00  -0.03    -0.02  -0.00  -0.01
  46   1    -0.04  -0.11  -0.04    -0.02  -0.07  -0.02    -0.01  -0.01  -0.00
  47   1    -0.02   0.05   0.02    -0.04   0.09   0.03     0.00  -0.01  -0.00
  48   1    -0.04   0.00   0.02    -0.07   0.00   0.05     0.01  -0.00  -0.01
  49   1    -0.01  -0.01   0.00    -0.01  -0.02   0.01     0.01   0.01  -0.00
  50   1    -0.01   0.03   0.01    -0.03   0.08   0.03     0.00  -0.01  -0.00
  51   1    -0.05   0.00   0.03    -0.13   0.01   0.09     0.01  -0.00  -0.01
  52   1     0.26  -0.25   0.32     0.14  -0.13   0.17     0.01  -0.01   0.01
  53   1    -0.15  -0.17   0.22    -0.09  -0.11   0.14    -0.01  -0.02   0.02
  54   1    -0.02  -0.00   0.00     0.16   0.01  -0.01     0.45   0.02  -0.02
  55   1    -0.01   0.02   0.01     0.01  -0.02  -0.01     0.18  -0.29  -0.11
  56   1     0.02   0.03   0.01     0.06   0.11   0.03    -0.16  -0.28  -0.09
  57   1     0.04   0.00  -0.00     0.23   0.01  -0.00    -0.32  -0.01   0.00
  58   1     0.00  -0.00   0.00    -0.01   0.01  -0.01     0.01  -0.01   0.01
  59   1     0.00   0.00  -0.00    -0.00  -0.00   0.00    -0.00  -0.00   0.00
  60   1     0.01   0.01  -0.02    -0.01  -0.01   0.01    -0.00  -0.00   0.00
  61   1     0.05   0.00  -0.00    -0.04  -0.00   0.00    -0.00  -0.00   0.00
  62   1     0.02  -0.02   0.03    -0.02   0.02  -0.02    -0.00   0.00  -0.00
  63   1    -0.01  -0.01   0.01     0.00   0.01  -0.01     0.00   0.00   0.00
  64   1     0.01   0.01  -0.01    -0.01  -0.01   0.01    -0.00  -0.00   0.00
  65   1    -0.38  -0.01   0.02     0.47   0.02  -0.02     0.32   0.01  -0.02
  66   1    -0.07   0.11   0.04     0.10  -0.16  -0.06     0.14  -0.23  -0.09
  67   1    -0.08  -0.14  -0.04     0.07   0.12   0.04    -0.13  -0.23  -0.07
  68   1    -0.42  -0.01   0.01     0.43   0.01  -0.01    -0.33  -0.01   0.01
  69   1    -0.10   0.10  -0.12    -0.14   0.13  -0.17     0.01  -0.01   0.01
  70   1     0.14   0.17  -0.22     0.15   0.18  -0.23    -0.00  -0.00   0.00
  71   1    -0.16  -0.01  -0.09    -0.09  -0.01  -0.05    -0.02  -0.00  -0.01
  72   1    -0.03  -0.09  -0.03    -0.02  -0.05  -0.02    -0.00  -0.01  -0.00
                    208                    209                    210
                        a                      a                      a 
 Frequencies --  3094.4104              3097.0364              3097.5248
 Red. masses --     1.9046                 1.9191                 1.9199
 Frc consts  --     0.0000                 0.0000                 0.0000
 IR Inten    --     1.3067                74.8461                42.1391
 Raman Activ --     0.0000                 0.0000                 0.0000
 Depolar     --     0.0000                 0.0000                 0.0000
 Atom AN      X      Y      Z        X      Y      Z        X      Y      Z
   1   6    -0.00   0.00  -0.00     0.08  -0.12   0.03     0.08  -0.12   0.03
   2   6    -0.00  -0.00  -0.00     0.08   0.01   0.04     0.07   0.01   0.04
   3   6    -0.00  -0.00  -0.00     0.02   0.05   0.01     0.02   0.05   0.01
   4   6     0.00  -0.00   0.00    -0.00   0.00  -0.00    -0.00   0.00  -0.00
   5   7    -0.00  -0.00   0.00     0.00  -0.00   0.00     0.00   0.00  -0.00
   6   6     0.00   0.00  -0.00     0.00   0.00  -0.00    -0.00  -0.00   0.00
   7   6    -0.00   0.00   0.00    -0.02   0.04   0.02     0.02  -0.05  -0.02
   8   6    -0.00   0.00   0.00    -0.07   0.00   0.05     0.07  -0.00  -0.05
   9   6    -0.00  -0.01   0.00    -0.07  -0.12   0.04     0.07   0.13  -0.04
  10   6     0.00  -0.00  -0.00     0.03  -0.07  -0.03    -0.03   0.08   0.03
  11   6    -0.00  -0.00   0.00     0.04  -0.00  -0.03    -0.04   0.00   0.03
  12   6     0.00   0.00  -0.00    -0.00  -0.00   0.00    -0.00  -0.00   0.00
  13   6     0.01  -0.01   0.01     0.00  -0.00   0.00     0.00  -0.00   0.00
  14   6    -0.01  -0.01   0.01    -0.00  -0.00   0.00    -0.00  -0.00   0.00
  15   6    -0.00  -0.00   0.00    -0.00   0.00  -0.00    -0.00  -0.00   0.00
  16   6     0.00  -0.00  -0.00    -0.00  -0.00  -0.00    -0.00  -0.00   0.00
  17   6     0.00   0.00   0.00     0.00   0.00   0.00     0.00   0.00   0.00
  18   6     0.10   0.01  -0.00     0.00   0.00  -0.00     0.00   0.00  -0.00
  19   6     0.04  -0.07  -0.03     0.00  -0.00  -0.00     0.00  -0.00  -0.00
  20   6    -0.04  -0.07  -0.02    -0.00  -0.00  -0.00    -0.00  -0.00  -0.00
  21   6    -0.08  -0.00   0.00    -0.00   0.00   0.00    -0.00  -0.00   0.00
  22   6    -0.00   0.00   0.00    -0.00   0.00   0.00    -0.00   0.00   0.00
  23   6    -0.00  -0.00  -0.00    -0.00   0.00   0.00    -0.00  -0.00  -0.00
  24   6     0.00  -0.00  -0.00     0.00   0.00  -0.00     0.00   0.00  -0.00
  25   6     0.00  -0.00   0.01     0.00  -0.00   0.00     0.00  -0.00   0.00
  26   6    -0.00  -0.00   0.00    -0.00  -0.00   0.00    -0.00  -0.00   0.00
  27   6    -0.00  -0.00   0.00    -0.00   0.00  -0.00    -0.00  -0.00   0.00
  28   6    -0.00  -0.00   0.00    -0.00  -0.00   0.00    -0.00  -0.00   0.00
  29   6    -0.01  -0.00   0.00    -0.00   0.00  -0.00    -0.00  -0.00   0.00
  30   6    -0.00   0.00  -0.01     0.00  -0.00   0.00    -0.00   0.00  -0.00
  31   6     0.00   0.00  -0.00    -0.00  -0.00   0.00     0.00   0.00  -0.00
  32   6     0.00   0.00  -0.00    -0.00  -0.00   0.00     0.00  -0.00  -0.00
  33   6     0.00   0.00  -0.00    -0.00  -0.00   0.00    -0.00  -0.00   0.00
  34   6    -0.00  -0.00  -0.00     0.00   0.00   0.00    -0.00  -0.00  -0.00
  35   6    -0.11  -0.01   0.00     0.00   0.00  -0.00    -0.00  -0.00   0.00
  36   6    -0.05   0.08   0.03     0.00  -0.00  -0.00    -0.00   0.00   0.00
  37   6     0.05   0.09   0.03    -0.00  -0.00  -0.00     0.00   0.00   0.00
  38   6     0.12   0.00  -0.00    -0.00  -0.00   0.00     0.00   0.00  -0.00
  39   6     0.00  -0.00  -0.00    -0.00   0.00   0.00     0.00  -0.00  -0.00
  40   6    -0.01   0.01  -0.01     0.00  -0.00   0.00    -0.00   0.00  -0.00
  41   6     0.01   0.01  -0.01    -0.00  -0.00   0.00     0.00   0.00  -0.00
  42   6    -0.00   0.00  -0.00    -0.04  -0.00  -0.02    -0.04  -0.00  -0.02
  43   6     0.00   0.00   0.00    -0.03  -0.08  -0.02    -0.03  -0.07  -0.02
  44   1     0.01  -0.02   0.00    -0.27   0.42  -0.11    -0.26   0.40  -0.11
  45   1     0.01   0.00   0.01    -0.24  -0.02  -0.14    -0.24  -0.02  -0.14
  46   1     0.00   0.01   0.00    -0.06  -0.16  -0.05    -0.06  -0.16  -0.05
  47   1     0.00  -0.01  -0.00     0.06  -0.15  -0.05    -0.06   0.16   0.06
  48   1     0.01  -0.00  -0.01     0.23  -0.01  -0.15    -0.24   0.01   0.16
  49   1     0.01   0.02  -0.01     0.23   0.42  -0.13    -0.24  -0.43   0.13
  50   1    -0.00   0.00   0.00    -0.10   0.23   0.08     0.10  -0.24  -0.09
  51   1     0.00  -0.00  -0.00    -0.13   0.01   0.09     0.14  -0.01  -0.09
  52   1    -0.03   0.02  -0.03    -0.00   0.00  -0.00    -0.01   0.01  -0.01
  53   1     0.02   0.03  -0.04     0.00   0.00  -0.00     0.01   0.01  -0.01
  54   1    -0.36  -0.01   0.02    -0.01  -0.00   0.00    -0.00  -0.00   0.00
  55   1    -0.15   0.23   0.09    -0.00   0.01   0.00    -0.00   0.01   0.00
  56   1     0.13   0.23   0.07     0.00   0.00   0.00     0.01   0.01   0.00
  57   1     0.28   0.01  -0.00     0.00   0.00  -0.00     0.01   0.00  -0.00
  58   1    -0.02   0.01  -0.02    -0.00   0.00  -0.00    -0.00   0.00  -0.00
  59   1     0.01   0.01  -0.01     0.00   0.00  -0.00     0.00   0.00  -0.00
  60   1     0.01   0.01  -0.01     0.00   0.00  -0.00     0.00   0.00  -0.00
  61   1     0.03   0.00  -0.00     0.00   0.00  -0.00     0.00   0.00  -0.00
  62   1     0.02  -0.01   0.02    -0.00   0.00  -0.00     0.00  -0.00   0.00
  63   1    -0.01  -0.01   0.01     0.00   0.00  -0.00    -0.00  -0.00   0.00
  64   1    -0.01  -0.01   0.01     0.00   0.00  -0.00     0.00   0.00  -0.00
  65   1     0.38   0.01  -0.02    -0.00  -0.00   0.00     0.02   0.00  -0.00
  66   1     0.17  -0.28  -0.10    -0.00   0.00   0.00     0.01  -0.01  -0.00
  67   1    -0.16  -0.28  -0.09     0.00   0.01   0.00    -0.00  -0.01  -0.00
  68   1    -0.40  -0.01   0.01     0.01   0.00  -0.00    -0.00  -0.00   0.00
  69   1     0.03  -0.03   0.03    -0.00   0.00  -0.00     0.01  -0.01   0.01
  70   1    -0.02  -0.03   0.03     0.00   0.00  -0.00    -0.01  -0.01   0.01
  71   1     0.00  -0.00   0.00     0.14   0.01   0.08     0.14   0.01   0.08
  72   1    -0.00  -0.00  -0.00     0.09   0.25   0.08     0.09   0.24   0.08
