      -----------------------------------------------------------      
     |                   =====================                   |     
     |                           x T B                           |     
     |                   =====================                   |     
     |                         S. Grimme                         |     
     |          Mulliken Center for Theoretical Chemistry        |     
     |                    University of Bonn                     |     
      -----------------------------------------------------------      

   * xtb version 6.7.1 (edcfbbe) compiled by 'albert@albert-system' on 2024-07-22

   xtb is free software: you can redistribute it and/or modify it under
   the terms of the GNU Lesser General Public License as published by
   the Free Software Foundation, either version 3 of the License, or
   (at your option) any later version.
   
   xtb is distributed in the hope that it will be useful,
   but WITHOUT ANY WARRANTY; without even the implied warranty of
   MERCHANTABILITY or FITNESS FOR A PARTICULAR PURPOSE.  See the
   GNU Lesser General Public License for more details.
   
   Cite this work as:
   * C. Bannwarth, E. Caldeweyher, S. Ehlert, A. Hansen, P. Pracht,
     J. Seibert, S. Spicher, S. Grimme, WIREs Comput. Mol. Sci., 2020, 11,
     e01493. DOI: 10.1002/wcms.1493
   
   for GFN2-xTB:
   * C. Bannwarth, S. Ehlert and S. Grimme., J. Chem. Theory Comput., 2019,
     15, 1652-1671. DOI: 10.1021/acs.jctc.8b01176
   for GFN1-xTB:
   * S. Grimme, C. Bannwarth, P. Shushkov, J. Chem. Theory Comput., 2017,
     13, 1989-2009. DOI: 10.1021/acs.jctc.7b00118
   for GFN0-xTB:
   * P. Pracht, E. Caldeweyher, S. Ehlert, S. Grimme, ChemRxiv, 2019, preprint.
     DOI: 10.26434/chemrxiv.8326202.v1
   for GFN-FF:
   * S. Spicher and S. Grimme, Angew. Chem. Int. Ed., 2020, 59, 15665-15673.
     DOI: 10.1002/anie.202004239
   
   for ALPB and GBSA implicit solvation:
   * S. Ehlert, M. Stahn, S. Spicher, S. Grimme, J. Chem. Theory Comput.,
     2021, 17, 4250-4261. DOI: 10.1021/acs.jctc.1c00471
   
   for ddCOSMO and CPCM-X implicit solvation:
   * M. Stahn, S. Ehlert, S. Grimme, J. Phys. Chem. A,
     2023, XX, XXXX-XXXX. DOI: 10.1021/acs.jpca.3c04382
   
   for DFT-D4:
   * E. Caldeweyher, C. Bannwarth and S. Grimme, J. Chem. Phys., 2017,
     147, 034112. DOI: 10.1063/1.4993215
   * E. Caldeweyher, S. Ehlert, A. Hansen, H. Neugebauer, S. Spicher,
     C. Bannwarth and S. Grimme, J. Chem. Phys., 2019, 150, 154122.
     DOI: 10.1063/1.5090222
   * E. Caldeweyher, J.-M. Mewes, S. Ehlert and S. Grimme, Phys. Chem. Chem. Phys.
     2020, 22, 8499-8512. DOI: 10.1039/D0CP00502A
   
   for sTDA-xTB:
   * S. Grimme and C. Bannwarth, J. Chem. Phys., 2016, 145, 054103.
     DOI: 10.1063/1.4959605
   
   in the mass-spec context:
   * V. Asgeirsson, C. Bauer and S. Grimme, Chem. Sci., 2017, 8, 4879.
     DOI: 10.1039/c7sc00601b
   * J. Koopman and S. Grimme, ACS Omega 2019, 4, 12, 15120-15133.
     DOI: 10.1021/acsomega.9b02011
   
   for metadynamics refer to:
   * S. Grimme, J. Chem. Theory Comput., 2019, 155, 2847-2862
     DOI: 10.1021/acs.jctc.9b00143
   
   for SPH calculations refer to:
   * S. Spicher and S. Grimme, J. Chem. Theory Comput., 2021, 17, 1701-1714
     DOI: 10.1021/acs.jctc.0c01306
   
   for ONIOM refer to:
   * C. Plett, A. Katbashev, S. Ehlert, S. Grimme, M. Bursch,
     Phys. Chem. Chem. Phys., 2023, 25, 17860-17868. DOI: 10.1039/D3CP02178E
   
   for DIPRO refer to:
   * J. Kohn, N. Gildemeister, S. Grimme, D. Fazzi, A. Hansen,
     J. Chem. Phys., 2023, just accepted.
   
   for PTB refer to:
   * S. Grimme, M. Mueller, A. Hansen, J. Chem. Phys., 2023, 158, 124111.
     DOI: 10.1063/5.0137838
   
   with help from (in alphabetical order)
   P. Atkinson, C. Bannwarth, F. Bohle, G. Brandenburg, E. Caldeweyher
   M. Checinski, S. Dohm, S. Ehlert, S. Ehrlich, I. Gerasimov, C. Hölzer
   A. Katbashev, J. Kohn, J. Koopman, C. Lavigne, S. Lehtola, F. März, M. Müller,
   F. Musil, H. Neugebauer, J. Pisarek, C. Plett, P. Pracht, F. Pultar,
   J. Seibert, P. Shushkov, S. Spicher, M. Stahn, M. Steiner, T. Strunk,
   J. Stückrath, T. Rose, and J. Unsleber
   
 * started run on 2025/09/06 at 05:54:44.229     
   ID    Z sym.   atoms
    1    6 C      1-31, 33-61, 63-67
    2    7 N      32, 62
    3    1 H      68-131

           -------------------------------------------------
          |                Calculation Setup                |
           -------------------------------------------------

          program call               : xtb data2507/gas/C3FLA-2/C3FLA-2_gas_T1_crest.xyz --gfn 2 --spinpol --tblite --uhf 2 --ohess vtight --parallel 40 --molden --ceasefiles --namespace data2507/gas/C3FLA-2/C3FLA-2_gas_T1_finalOpt
          calculation namespace      : data2507/gas/C3FLA-2/C3FLA-2_gas_T1_finalOpt
          coordinate file            : data2507/gas/C3FLA-2/C3FLA-2_gas_T1_crest.xyz
          omp threads                :                    40

repulsion energy          3.3019248436431E+00 Eh
dispersion energy         2.1309522971721E-03 Eh
interaction energy        0.0000000000000E+00 Eh
number of electrons       3.3400000000000E+02 e
integral cutoff           1.7347787504999E+01 bohr

------------------------------------------------------------
  cycle        total energy    energy error   density error
------------------------------------------------------------
      1     -177.3076367821  -1.8061169E+02   1.0267569E-01
      2     -177.3961148237  -8.8478042E-02   6.1112554E-02
      3     -177.2398297227   1.5628510E-01   4.3762383E-02
      4     -177.5271361037  -2.8730638E-01   7.7091068E-03
      5     -177.4894154220   3.7720682E-02   9.6840912E-03
      6     -177.5402541335  -5.0838712E-02   4.9321179E-03
      7     -177.5496112010  -9.3570674E-03   3.0590299E-03
      8     -177.5542506009  -4.6394000E-03   1.3198462E-03
      9     -177.5542606480  -1.0047027E-05   1.0106127E-03
     10     -177.5544209496  -1.6030160E-04   5.4258341E-04
     11     -177.5544558665  -3.4916898E-05   2.7586644E-04
     12     -177.5544622107  -6.3442363E-06   1.7777033E-04
     13     -177.5544623281  -1.1737799E-07   1.0109450E-04
     14     -177.5544632926  -9.6456981E-07   5.2067346E-05
     15     -177.5544636397  -3.4709404E-07   3.1694129E-05
     16     -177.5544637230  -8.3232493E-08   1.5711501E-05
------------------------------------------------------------

electronic energy        -1.8085851951891E+02 Eh
total energy             -1.7755446372297E+02 Eh

 total:                                   0.465 sec
 - repulsion                              0.001 sec (  0%)
 - dispersion                             0.024 sec (  5%)
 - coulomb                                0.014 sec (  2%)
 - hamiltonian                            0.021 sec (  4%)
 - scc                                    0.406 sec ( 87%)

      ----------------------------------------------------------- 
     |                   =====================                   |
     |                        A N C O P T                        |
     |                   =====================                   |
     |               Approximate Normal Coordinate               |
     |                Rational Function Optimizer                |
      ----------------------------------------------------------- 

Optimization log is written to '/dev/null'
      ----------------------------------------------------------- 
     |                   =====================                   |
     |                        A N C O P T                        |
     |                   =====================                   |
     |               Approximate Normal Coordinate               |
     |                Rational Function Optimizer                |
      ----------------------------------------------------------- 

          ...................................................
          :                      SETUP                      :
          :.................................................:
          :   optimization level         verytight          :
          :   max. optcycles                  2620          :
          :   ANC micro-cycles                  20          :
          :   degrees of freedom               387          :
          :.................................................:
          :   RF solver                   davidson          :
          :   write xtbopt.log                true          :
          :   linear?                        false          :
          :   energy convergence         0.1000000E-06 Eh   :
          :   grad. convergence          0.2000000E-03 Eh/α :
          :   maxmium RF displ.          1.0000000          :
          :   Hlow (freq-cutoff)         0.1000000E-01      :
          :   Hmax (freq-cutoff)         5.0000000          :
          :   S6 in model hess.         20.0000000          :
          ...................................................

generating ANC from exact Hessian ...
Using Lindh-Hessian (1995)
 Shifting diagonal of input Hessian by   1.000568555479842E-002
 Lowest  eigenvalues of input Hessian
    0.010000    0.010002    0.000000    0.000000    0.000000    0.000000
    0.000000    0.000000    0.010011    0.010013    0.010036    0.010069
    0.010116    0.010123    0.010149    0.010194    0.010350    0.010470
 Highest eigenvalues
    2.104202    2.123200    2.630047    2.630680    2.678665    2.679196
 

........................................................................
.............................. CYCLE    1 ..............................
........................................................................
------------------------------------------------------------
  cycle        total energy    energy error   density error
------------------------------------------------------------
      1     -177.5544622674  -1.8085852E+02   4.6323975E-05
      2     -177.5544396595   2.2607977E-05   1.7683260E-04
      3     -177.5544635797  -2.3920281E-05   1.7805833E-05
      4     -177.5544637401  -1.6038055E-07   2.8700967E-06
------------------------------------------------------------

 total:                                   0.138 sec
 * total energy  :  -177.5544637 Eh     change       -0.1714650E-07 Eh
   gradient norm :     0.0046034 Eh/α   predicted     0.0000000E+00 (-100.00%)
   displ. norm   :     0.0046034 α      lambda        0.0000000E+00
   maximum displ.:     0.0039532 α      in ANC's #383, #384, #350, ...

........................................................................
.............................. CYCLE    2 ..............................
........................................................................
------------------------------------------------------------
  cycle        total energy    energy error   density error
------------------------------------------------------------
      1     -177.5544739540  -1.8085909E+02   1.7855174E-04
      2     -177.5544711619   2.7921142E-06   1.3722053E-04
      3     -177.5544685813   2.5805683E-06   1.2753705E-04
      4     -177.5544679100   6.7129972E-07   1.0699674E-04
      5     -177.5544737807  -5.8707163E-06   5.5330622E-05
      6     -177.5544757513  -1.9705502E-06   1.5944722E-05
      7     -177.5544757725  -2.1223457E-08   1.1130353E-05
------------------------------------------------------------

 total:                                   0.195 sec
 * total energy  :  -177.5544758 Eh     change       -0.1203238E-04 Eh
   gradient norm :     0.0018670 Eh/α   predicted     0.9883214E-09 (-100.01%)
   displ. norm   :     0.0136901 α      lambda       -0.6122725E-05
   maximum displ.:     0.0036710 α      in ANC's #94, #26, #20, ...

........................................................................
.............................. CYCLE    3 ..............................
........................................................................
------------------------------------------------------------
  cycle        total energy    energy error   density error
------------------------------------------------------------
      1     -177.5544787058  -1.8085865E+02   1.3563119E-04
      2     -177.5544771594   1.5463945E-06   9.8014957E-05
      3     -177.5544511812   2.5978250E-05   1.9835608E-04
      4     -177.5544756520  -2.4470765E-05   7.8584530E-05
      5     -177.5544790399  -3.3879819E-06   1.7817445E-05
      6     -177.5544791173  -7.7368867E-08   1.1652797E-05
------------------------------------------------------------

 total:                                   0.179 sec
 * total energy  :  -177.5544791 Eh     change       -0.3344813E-05 Eh
   gradient norm :     0.0010288 Eh/α   predicted    -0.3088453E-05 (  -7.66%)
   displ. norm   :     0.0158166 α      lambda       -0.2280795E-05
   maximum displ.:     0.0066701 α      in ANC's #8, #7, #5, ...

........................................................................
.............................. CYCLE    4 ..............................
........................................................................
------------------------------------------------------------
  cycle        total energy    energy error   density error
------------------------------------------------------------
      1     -177.5544760217  -1.8085869E+02   2.4976892E-04
      2     -177.5544732676   2.7541051E-06   1.5600952E-04
      3     -177.5544085124   6.4755184E-05   3.1160690E-04
      4     -177.5544593147  -5.0802262E-05   1.5571554E-04
      5     -177.5544770469  -1.7732232E-05   7.3833253E-06
      6     -177.5544770467   2.4738256E-10   5.9165150E-06
------------------------------------------------------------

 total:                                   0.170 sec
 * total energy  :  -177.5544770 Eh     change        0.2070627E-05 Eh
   gradient norm :     0.0011004 Eh/α   predicted    -0.1173598E-05 (-156.68%)
   displ. norm   :     0.0132234 α      lambda       -0.5498392E-05
   maximum displ.:     0.0047659 α      in ANC's #7, #8, #26, ...

........................................................................
.............................. CYCLE    5 ..............................
........................................................................
------------------------------------------------------------
  cycle        total energy    energy error   density error
------------------------------------------------------------
      1     -177.5544799356  -1.8085891E+02   2.0089883E-04
      2     -177.5544795697   3.6595844E-07   1.1677144E-04
      3     -177.5544505952   2.8974499E-05   2.0551892E-04
      4     -177.5544749036  -2.4308368E-05   9.0647636E-05
      5     -177.5544803167  -5.4131784E-06   5.8155123E-06
      6     -177.5544803112   5.4815814E-09   5.0939702E-06
------------------------------------------------------------

 total:                                   0.170 sec
 * total energy  :  -177.5544803 Eh     change       -0.3264561E-05 Eh
   gradient norm :     0.0008971 Eh/α   predicted    -0.2749917E-05 ( -15.76%)
   displ. norm   :     0.0159960 α      lambda       -0.2734228E-05
   maximum displ.:     0.0066823 α      in ANC's #26, #6, #37, ...

........................................................................
.............................. CYCLE    6 ..............................
........................................................................
------------------------------------------------------------
  cycle        total energy    energy error   density error
------------------------------------------------------------
      1     -177.5544791113  -1.8085876E+02   2.3416946E-04
      2     -177.5544783245   7.8672846E-07   1.4567801E-04
      3     -177.5544590227   1.9301822E-05   1.7815673E-04
      4     -177.5544772920  -1.8269244E-05   5.4182459E-05
      5     -177.5544794353  -2.1433069E-06   8.4881928E-06
      6     -177.5544794748  -3.9503107E-08   2.6278966E-06
------------------------------------------------------------

 total:                                   0.169 sec
 * total energy  :  -177.5544795 Eh     change        0.8364703E-06 Eh
   gradient norm :     0.0006528 Eh/α   predicted    -0.1374418E-05 (-264.31%)
   displ. norm   :     0.0118621 α      lambda       -0.3267894E-05
   maximum displ.:     0.0040061 α      in ANC's #5, #37, #26, ...

........................................................................
.............................. CYCLE    7 ..............................
........................................................................
------------------------------------------------------------
  cycle        total energy    energy error   density error
------------------------------------------------------------
      1     -177.5544820211  -1.8085866E+02   1.5759670E-04
      2     -177.5544819482   7.2888838E-08   9.4281154E-05
      3     -177.5544736690   8.2792062E-06   1.0694948E-04
      4     -177.5544813113  -7.6423575E-06   3.3751116E-05
      5     -177.5544820464  -7.3505561E-07   4.1275066E-06
------------------------------------------------------------

 total:                                   0.147 sec
 * total energy  :  -177.5544820 Eh     change       -0.2571595E-05 Eh
   gradient norm :     0.0004451 Eh/α   predicted    -0.1637899E-05 ( -36.31%)
   displ. norm   :     0.0136434 α      lambda       -0.7664921E-06
   maximum displ.:     0.0055288 α      in ANC's #5, #9, #2, ...

........................................................................
.............................. CYCLE    8 ..............................
........................................................................
------------------------------------------------------------
  cycle        total energy    energy error   density error
------------------------------------------------------------
      1     -177.5544824652  -1.8085878E+02   5.8998730E-05
      2     -177.5544814292   1.0360605E-06   5.4487032E-05
      3     -177.5544807827   6.4651746E-07   5.6561926E-05
      4     -177.5544796097   1.1729311E-06   6.5892362E-05
      5     -177.5544827474  -3.1376386E-06   3.5179307E-06
      6     -177.5544827504  -2.9932323E-09   1.2391743E-06
------------------------------------------------------------

 total:                                   0.169 sec
 * total energy  :  -177.5544828 Eh     change       -0.7039920E-06 Eh
   gradient norm :     0.0003197 Eh/α   predicted    -0.3838559E-06 ( -45.47%)
   displ. norm   :     0.0342996 α      lambda       -0.1263783E-05
   maximum displ.:     0.0136859 α      in ANC's #5, #9, #2, ...

........................................................................
.............................. CYCLE    9 ..............................
........................................................................
------------------------------------------------------------
  cycle        total energy    energy error   density error
------------------------------------------------------------
      1     -177.5544825748  -1.8085884E+02   1.6017816E-04
      2     -177.5544826551  -8.0295592E-08   9.0113413E-05
      3     -177.5544819951   6.6001874E-07   3.2371504E-05
      4     -177.5544824125  -4.1741163E-07   2.0230213E-05
      5     -177.5544826962  -2.8373168E-07   4.2360500E-06
------------------------------------------------------------

 total:                                   0.159 sec
 * total energy  :  -177.5544827 Eh     change        0.5415180E-07 Eh
   gradient norm :     0.0008445 Eh/α   predicted    -0.6338199E-06 (*******%)
   displ. norm   :     0.0478688 α      lambda       -0.2923454E-05
   maximum displ.:     0.0196235 α      in ANC's #5, #9, #2, ...

........................................................................
.............................. CYCLE   10 ..............................
........................................................................
------------------------------------------------------------
  cycle        total energy    energy error   density error
------------------------------------------------------------
      1     -177.5544849013  -1.8085871E+02   1.6244012E-04
      2     -177.5544819762   2.9250766E-06   1.1245824E-04
      3     -177.5544207375   6.1238711E-05   2.9573801E-04
      4     -177.5544846809  -6.3943406E-05   3.1874384E-05
      5     -177.5544851876  -5.0669993E-07   6.5301397E-06
------------------------------------------------------------

 total:                                   0.145 sec
 * total energy  :  -177.5544852 Eh     change       -0.2491413E-05 Eh
   gradient norm :     0.0004040 Eh/α   predicted    -0.1465254E-05 ( -41.19%)
   displ. norm   :     0.0190638 α      lambda       -0.5314528E-06
   maximum displ.:     0.0089476 α      in ANC's #5, #9, #2, ...

........................................................................
.............................. CYCLE   11 ..............................
........................................................................
------------------------------------------------------------
  cycle        total energy    energy error   density error
------------------------------------------------------------
      1     -177.5544852271  -1.8085869E+02   5.3530992E-05
      2     -177.5544831569   2.0702306E-06   6.8509201E-05
      3     -177.5544849229  -1.7660066E-06   4.0476933E-05
      4     -177.5544837215   1.2013684E-06   5.5100368E-05
      5     -177.5544858158  -2.0943611E-06   4.9345987E-06
      6     -177.5544858232  -7.3852107E-09   1.0317960E-06
------------------------------------------------------------

 total:                                   0.169 sec
 * total energy  :  -177.5544858 Eh     change       -0.6356094E-06 Eh
   gradient norm :     0.0002591 Eh/α   predicted    -0.2669838E-06 ( -58.00%)
   displ. norm   :     0.0352485 α      lambda       -0.8577545E-06
   maximum displ.:     0.0175217 α      in ANC's #5, #9, #2, ...

........................................................................
.............................. CYCLE   12 ..............................
........................................................................
------------------------------------------------------------
  cycle        total energy    energy error   density error
------------------------------------------------------------
      1     -177.5544868330  -1.8085867E+02   6.2292694E-05
      2     -177.5544868376  -4.6169362E-09   3.6562854E-05
      3     -177.5544867953   4.2319186E-08   1.2085147E-05
------------------------------------------------------------

 total:                                   0.098 sec
 * total energy  :  -177.5544868 Eh     change       -0.9720431E-06 Eh
   gradient norm :     0.0003925 Eh/α   predicted    -0.4308591E-06 ( -55.67%)
   displ. norm   :     0.0629353 α      lambda       -0.1356674E-05
   maximum displ.:     0.0317059 α      in ANC's #5, #9, #2, ...

........................................................................
.............................. CYCLE   13 ..............................
........................................................................
------------------------------------------------------------
  cycle        total energy    energy error   density error
------------------------------------------------------------
      1     -177.5544876886  -1.8085860E+02   1.0757981E-04
      2     -177.5544872822   4.0640307E-07   7.9922854E-05
      3     -177.5544879787  -6.9648047E-07   5.3327109E-05
      4     -177.5544846581   3.3206003E-06   7.2208549E-05
      5     -177.5544883613  -3.7032098E-06   1.7121839E-05
      6     -177.5544885551  -1.9386087E-07   2.7551381E-06
------------------------------------------------------------

 total:                                   0.170 sec
 * total energy  :  -177.5544886 Eh     change       -0.1759855E-05 Eh
   gradient norm :     0.0006922 Eh/α   predicted    -0.6816078E-06 ( -61.27%)
   displ. norm   :     0.0946608 α      lambda       -0.1980487E-05
   maximum displ.:     0.0474228 α      in ANC's #5, #9, #2, ...

........................................................................
.............................. CYCLE   14 ..............................
........................................................................
------------------------------------------------------------
  cycle        total energy    energy error   density error
------------------------------------------------------------
      1     -177.5544909472  -1.8085865E+02   1.2744271E-04
      2     -177.5544906236   3.2357136E-07   7.8401171E-05
      3     -177.5544739470   1.6676637E-05   1.5402714E-04
      4     -177.5544887689  -1.4821877E-05   5.6350288E-05
      5     -177.5544910431  -2.2742367E-06   5.4917738E-06
      6     -177.5544910545  -1.1391649E-08   2.5035520E-06
------------------------------------------------------------

 total:                                   0.171 sec
 * total energy  :  -177.5544911 Eh     change       -0.2499364E-05 Eh
   gradient norm :     0.0005663 Eh/α   predicted    -0.9980653E-06 ( -60.07%)
   displ. norm   :     0.1274365 α      lambda       -0.2525991E-05
   maximum displ.:     0.0634443 α      in ANC's #5, #9, #2, ...

........................................................................
.............................. CYCLE   15 ..............................
........................................................................
------------------------------------------------------------
  cycle        total energy    energy error   density error
------------------------------------------------------------
      1     -177.5544939624  -1.8085857E+02   1.6690154E-04
      2     -177.5544939001   6.2220550E-08   9.8279559E-05
      3     -177.5544851762   8.7239122E-06   1.1116976E-04
      4     -177.5544929544  -7.7781312E-06   3.9635059E-05
      5     -177.5544940179  -1.0635158E-06   5.9155252E-06
      6     -177.5544940288  -1.0954324E-08   3.4568053E-06
------------------------------------------------------------

 total:                                   0.177 sec
 * total energy  :  -177.5544940 Eh     change       -0.2974336E-05 Eh
   gradient norm :     0.0004247 Eh/α   predicted    -0.1275765E-05 ( -57.11%)
   displ. norm   :     0.1514013 α      lambda       -0.2483025E-05
   maximum displ.:     0.0752468 α      in ANC's #5, #9, #2, ...

........................................................................
.............................. CYCLE   16 ..............................
........................................................................
------------------------------------------------------------
  cycle        total energy    energy error   density error
------------------------------------------------------------
      1     -177.5544961696  -1.8085861E+02   1.8464436E-04
      2     -177.5544953237   8.4588581E-07   1.1493980E-04
      3     -177.5544511426   4.4181151E-05   2.4700554E-04
      4     -177.5544922484  -4.1105823E-05   7.6588455E-05
      5     -177.5544963672  -4.1188506E-06   5.7404068E-06
      6     -177.5544963749  -7.6499305E-09   3.2232671E-06
------------------------------------------------------------

 total:                                   0.174 sec
 * total energy  :  -177.5544964 Eh     change       -0.2346042E-05 Eh
   gradient norm :     0.0002427 Eh/α   predicted    -0.1256158E-05 ( -46.46%)
   displ. norm   :     0.1502815 α      lambda       -0.2007148E-05
   maximum displ.:     0.0750503 α      in ANC's #5, #9, #2, ...

........................................................................
.............................. CYCLE   17 ..............................
........................................................................
------------------------------------------------------------
  cycle        total energy    energy error   density error
------------------------------------------------------------
      1     -177.5544986003  -1.8085860E+02   1.7480273E-04
      2     -177.5544983611   2.3915499E-07   1.0433065E-04
      3     -177.5544758026   2.2558584E-05   1.7702005E-04
      4     -177.5544971495  -2.1346897E-05   4.8948580E-05
      5     -177.5544986831  -1.5336482E-06   6.1713665E-06
      6     -177.5544986962  -1.3105932E-08   3.5984969E-06
------------------------------------------------------------

 total:                                   0.174 sec
 * total energy  :  -177.5544987 Eh     change       -0.2321338E-05 Eh
   gradient norm :     0.0004300 Eh/α   predicted    -0.1015133E-05 ( -56.27%)
   displ. norm   :     0.1481680 α      lambda       -0.1818999E-05
   maximum displ.:     0.0747157 α      in ANC's #5, #9, #2, ...

........................................................................
.............................. CYCLE   18 ..............................
........................................................................
------------------------------------------------------------
  cycle        total energy    energy error   density error
------------------------------------------------------------
      1     -177.5545010293  -1.8085852E+02   1.6903237E-04
      2     -177.5545003896   6.3967451E-07   1.0562928E-04
      3     -177.5544783399   2.2049713E-05   1.8013065E-04
      4     -177.5544947548  -1.6414890E-05   9.3835521E-05
      5     -177.5545012602  -6.5054795E-06   5.6057935E-06
      6     -177.5545012675  -7.2820967E-09   3.1298414E-06
------------------------------------------------------------

 total:                                   0.172 sec
 * total energy  :  -177.5545013 Eh     change       -0.2571311E-05 Eh
   gradient norm :     0.0003728 Eh/α   predicted    -0.9194229E-06 ( -64.24%)
   displ. norm   :     0.1688214 α      lambda       -0.2126079E-05
   maximum displ.:     0.0860080 α      in ANC's #5, #9, #2, ...

........................................................................
.............................. CYCLE   19 ..............................
........................................................................
------------------------------------------------------------
  cycle        total energy    energy error   density error
------------------------------------------------------------
      1     -177.5545038759  -1.8085857E+02   1.9315765E-04
      2     -177.5545037938   8.2151672E-08   1.1351391E-04
      3     -177.5544928963   1.0897497E-05   1.2589377E-04
      4     -177.5545021947  -9.2984664E-06   5.0476711E-05
      5     -177.5545039612  -1.7665120E-06   6.1312886E-06
      6     -177.5545039681  -6.8326358E-09   4.6049869E-06
------------------------------------------------------------

 total:                                   0.172 sec
 * total energy  :  -177.5545040 Eh     change       -0.2700545E-05 Eh
   gradient norm :     0.0003978 Eh/α   predicted    -0.1080388E-05 ( -59.99%)
   displ. norm   :     0.2114755 α      lambda       -0.2637119E-05
   maximum displ.:     0.1091257 α      in ANC's #5, #9, #2, ...

........................................................................
.............................. CYCLE   20 ..............................
........................................................................
------------------------------------------------------------
  cycle        total energy    energy error   density error
------------------------------------------------------------
      1     -177.5545066238  -1.8085845E+02   2.5318376E-04
      2     -177.5545056860   9.3775847E-07   1.5431231E-04
      3     -177.5544711590   3.4527035E-05   2.2869516E-04
      4     -177.5544965352  -2.5376229E-05   1.1880627E-04
      5     -177.5545070602  -1.0524956E-05   9.1146919E-06
      6     -177.5545070825  -2.2330767E-08   5.0588612E-06
------------------------------------------------------------

 total:                                   0.173 sec
 * total energy  :  -177.5545071 Eh     change       -0.3114424E-05 Eh
   gradient norm :     0.0002394 Eh/α   predicted    -0.1346901E-05 ( -56.75%)
   displ. norm   :     0.1827500 α      lambda       -0.2226461E-05
   maximum displ.:     0.0954583 α      in ANC's #5, #9, #2, ...
 * RMSD in coord.:     0.1192139 α      energy gain  -0.4335952E-04 Eh

generating ANC from exact Hessian ...
Using Lindh-Hessian (1995)
 Shifting diagonal of input Hessian by   1.000560328706728E-002
 Lowest  eigenvalues of input Hessian
    0.010000    0.010002    0.000000    0.000000    0.000000    0.000000
    0.000000    0.000000    0.010009    0.010012    0.010041    0.010089
    0.010125    0.010133    0.010165    0.010190    0.010346    0.010442
 Highest eigenvalues
    2.103786    2.123387    2.630244    2.630426    2.678210    2.678410
 

........................................................................
.............................. CYCLE   21 ..............................
........................................................................
------------------------------------------------------------
  cycle        total energy    energy error   density error
------------------------------------------------------------
      1     -177.5545096466  -1.8085848E+02   2.3162223E-04
      2     -177.5545095188   1.2782886E-07   1.3636407E-04
      3     -177.5544971416   1.2377199E-05   1.4139695E-04
      4     -177.5545048511  -7.7094635E-06   8.2437223E-05
      5     -177.5545098057  -4.9546493E-06   9.6439280E-06
      6     -177.5545098430  -3.7236589E-08   5.2472048E-06
------------------------------------------------------------

 total:                                   0.171 sec
 * total energy  :  -177.5545098 Eh     change       -0.2760456E-05 Eh
   gradient norm :     0.0002612 Eh/α   predicted     0.0000000E+00 (-100.00%)
   displ. norm   :     0.0103612 α      lambda       -0.5238047E-07
   maximum displ.:     0.0044456 α      in ANC's #11, #24, #28, ...

........................................................................
.............................. CYCLE   22 ..............................
........................................................................
------------------------------------------------------------
  cycle        total energy    energy error   density error
------------------------------------------------------------
      1     -177.5545103183  -1.8085850E+02   5.7859518E-05
      2     -177.5545092846   1.0336346E-06   5.3589334E-05
      3     -177.5545089947   2.8999020E-07   5.2563333E-05
      4     -177.5545076930   1.3016800E-06   6.4121663E-05
      5     -177.5545106270  -2.9340609E-06   5.3326900E-06
      6     -177.5545106380  -1.1000310E-08   1.1638303E-06
------------------------------------------------------------

 total:                                   0.171 sec
 * total energy  :  -177.5545106 Eh     change       -0.7950832E-06 Eh
   gradient norm :     0.0002109 Eh/α   predicted    -0.3706381E-06 ( -53.38%)
   displ. norm   :     0.0613157 α      lambda       -0.3485890E-05
   maximum displ.:     0.0250900 α      in ANC's #11, #24, #23, ...

........................................................................
.............................. CYCLE   23 ..............................
........................................................................
------------------------------------------------------------
  cycle        total energy    energy error   density error
------------------------------------------------------------
      1     -177.5545082362  -1.8085857E+02   2.5370160E-04
      2     -177.5545083239  -8.7694417E-08   1.4603204E-04
      3     -177.5545058710   2.4529606E-06   6.4603521E-05
      4     -177.5545084162  -2.5452422E-06   1.2383172E-05
      5     -177.5545083957   2.0498391E-08   1.1475885E-05
------------------------------------------------------------

 total:                                   0.148 sec
 * total energy  :  -177.5545084 Eh     change        0.2242338E-05 Eh
   gradient norm :     0.0011157 Eh/α   predicted    -0.1777299E-05 (-179.26%)
   displ. norm   :     0.0154446 α      lambda       -0.6033643E-05
   maximum displ.:     0.0051960 α      in ANC's #8, #24, #11, ...

........................................................................
.............................. CYCLE   24 ..............................
........................................................................
------------------------------------------------------------
  cycle        total energy    energy error   density error
------------------------------------------------------------
      1     -177.5545018197  -1.8085856E+02   2.3356471E-04
      2     -177.5543302469   1.7157273E-04   5.0080206E-04
      3     -177.5545035285  -1.7328151E-04   1.4971234E-04
      4     -177.5545124172  -8.8887338E-06   3.2944650E-05
      5     -177.5545128282  -4.1098198E-07   7.3271682E-06
------------------------------------------------------------

 total:                                   0.147 sec
 * total energy  :  -177.5545128 Eh     change       -0.4432478E-05 Eh
   gradient norm :     0.0003231 Eh/α   predicted    -0.3018872E-05 ( -31.89%)
   displ. norm   :     0.0093654 α      lambda       -0.8384494E-06
   maximum displ.:     0.0029845 α      in ANC's #11, #28, #10, ...

........................................................................
.............................. CYCLE   25 ..............................
........................................................................
------------------------------------------------------------
  cycle        total energy    energy error   density error
------------------------------------------------------------
      1     -177.5545127015  -1.8085860E+02   7.3029918E-05
      2     -177.5545106699   2.0315208E-06   7.6891291E-05
      3     -177.5545126355  -1.9655954E-06   4.4770361E-05
      4     -177.5545069575   5.6780743E-06   9.3263227E-05
      5     -177.5545134766  -6.5191577E-06   4.4479987E-06
      6     -177.5545134823  -5.7331135E-09   1.4654488E-06
------------------------------------------------------------

 total:                                   0.171 sec
 * total energy  :  -177.5545135 Eh     change       -0.6541686E-06 Eh
   gradient norm :     0.0002771 Eh/α   predicted    -0.4233414E-06 ( -35.29%)
   displ. norm   :     0.0291199 α      lambda       -0.1823673E-05
   maximum displ.:     0.0120724 α      in ANC's #11, #23, #8, ...

........................................................................
.............................. CYCLE   26 ..............................
........................................................................
------------------------------------------------------------
  cycle        total energy    energy error   density error
------------------------------------------------------------
      1     -177.5545119056  -1.8085867E+02   2.0228182E-04
      2     -177.5545120090  -1.0338582E-07   1.1389585E-04
      3     -177.5545093023   2.7066932E-06   6.4018919E-05
      4     -177.5545111881  -1.8858296E-06   3.5940520E-05
      5     -177.5545120940  -9.0588716E-07   7.9721675E-06
------------------------------------------------------------

 total:                                   0.147 sec
 * total energy  :  -177.5545121 Eh     change        0.1388321E-05 Eh
   gradient norm :     0.0008605 Eh/α   predicted    -0.9165860E-06 (-166.02%)
   displ. norm   :     0.0233903 α      lambda       -0.3785634E-05
   maximum displ.:     0.0099832 α      in ANC's #11, #24, #23, ...

........................................................................
.............................. CYCLE   27 ..............................
........................................................................
------------------------------------------------------------
  cycle        total energy    energy error   density error
------------------------------------------------------------
      1     -177.5545132856  -1.8085869E+02   1.7596130E-04
      2     -177.5544901039   2.3181700E-05   2.0619721E-04
      3     -177.5544890361   1.0677851E-06   2.0099414E-04
      4     -177.5545069916  -1.7955499E-05   1.1330760E-04
      5     -177.5545153983  -8.4066480E-06   4.8707385E-06
      6     -177.5545153980   2.4323299E-10   3.5558713E-06
------------------------------------------------------------

 total:                                   0.169 sec
 * total energy  :  -177.5545154 Eh     change       -0.3303994E-05 Eh
   gradient norm :     0.0002889 Eh/α   predicted    -0.1896498E-05 ( -42.60%)
   displ. norm   :     0.0354357 α      lambda       -0.9498477E-06
   maximum displ.:     0.0172666 α      in ANC's #11, #23, #5, ...

........................................................................
.............................. CYCLE   28 ..............................
........................................................................
------------------------------------------------------------
  cycle        total energy    energy error   density error
------------------------------------------------------------
      1     -177.5545163332  -1.8085863E+02   8.6261311E-05
      2     -177.5545162354   9.7811181E-08   5.3577970E-05
      3     -177.5545132042   3.0311305E-06   7.1063225E-05
      4     -177.5545138401  -6.3582209E-07   5.9667635E-05
      5     -177.5545163846  -2.5445527E-06   7.8274300E-06
      6     -177.5545164203  -3.5655319E-08   1.7938762E-06
------------------------------------------------------------

 total:                                   0.174 sec
 * total energy  :  -177.5545164 Eh     change       -0.1022263E-05 Eh
   gradient norm :     0.0001640 Eh/α   predicted    -0.4762334E-06 ( -53.41%)
   displ. norm   :     0.0597435 α      lambda       -0.1095506E-05
   maximum displ.:     0.0292230 α      in ANC's #11, #23, #5, ...

........................................................................
.............................. CYCLE   29 ..............................
........................................................................
------------------------------------------------------------
  cycle        total energy    energy error   density error
------------------------------------------------------------
      1     -177.5545176143  -1.8085866E+02   1.1721609E-04
      2     -177.5545175091   1.0523837E-07   7.0104917E-05
      3     -177.5545086192   8.8899434E-06   1.0978565E-04
      4     -177.5545168734  -8.2542961E-06   3.4129521E-05
      5     -177.5545176464  -7.7294158E-07   4.2072973E-06
------------------------------------------------------------

 total:                                   0.148 sec
 * total energy  :  -177.5545176 Eh     change       -0.1226109E-05 Eh
   gradient norm :     0.0001934 Eh/α   predicted    -0.5514881E-06 ( -55.02%)
   displ. norm   :     0.0628216 α      lambda       -0.9079957E-06
   maximum displ.:     0.0307288 α      in ANC's #11, #23, #5, ...

........................................................................
.............................. CYCLE   30 ..............................
........................................................................
------------------------------------------------------------
  cycle        total energy    energy error   density error
------------------------------------------------------------
      1     -177.5545181184  -1.8085870E+02   1.2019992E-04
      2     -177.5545131919   4.9265154E-06   1.0951906E-04
      3     -177.5544994113   1.3780578E-05   1.6683048E-04
      4     -177.5545150659  -1.5654628E-05   7.3278973E-05
      5     -177.5545186029  -3.5369445E-06   4.6453396E-06
      6     -177.5545186097  -6.8636439E-09   1.6127805E-06
------------------------------------------------------------

 total:                                   0.171 sec
 * total energy  :  -177.5545186 Eh     change       -0.9633556E-06 Eh
   gradient norm :     0.0001704 Eh/α   predicted    -0.4591053E-06 ( -52.34%)
   displ. norm   :     0.0409680 α      lambda       -0.5011291E-06
   maximum displ.:     0.0196421 α      in ANC's #11, #5, #23, ...

........................................................................
.............................. CYCLE   31 ..............................
........................................................................
------------------------------------------------------------
  cycle        total energy    energy error   density error
------------------------------------------------------------
      1     -177.5545191136  -1.8085871E+02   7.5085656E-05
      2     -177.5545190548   5.8781751E-08   4.5310506E-05
      3     -177.5545132761   5.7787079E-06   8.7689794E-05
      4     -177.5545190021  -5.7259989E-06   1.5374553E-05
      5     -177.5545191275  -1.2545723E-07   1.8199634E-06
------------------------------------------------------------

 total:                                   0.147 sec
 * total energy  :  -177.5545191 Eh     change       -0.5177837E-06 Eh
   gradient norm :     0.0001506 Eh/α   predicted    -0.2530028E-06 ( -51.14%)
   displ. norm   :     0.0299527 α      lambda       -0.3969137E-06
   maximum displ.:     0.0129359 α      in ANC's #11, #5, #2, ...

........................................................................
.............................. CYCLE   32 ..............................
........................................................................
------------------------------------------------------------
  cycle        total energy    energy error   density error
------------------------------------------------------------
      1     -177.5545194267  -1.8085877E+02   5.9980777E-05
      2     -177.5545192670   1.5973268E-07   3.8132928E-05
      3     -177.5545144905   4.7764783E-06   8.2517160E-05
      4     -177.5545186577  -4.1671314E-06   3.4166624E-05
      5     -177.5545194654  -8.0774581E-07   2.3095901E-06
------------------------------------------------------------

 total:                                   0.146 sec
 * total energy  :  -177.5545195 Eh     change       -0.3378789E-06 Eh
   gradient norm :     0.0001379 Eh/α   predicted    -0.1999323E-06 ( -40.83%)
   displ. norm   :     0.0216460 α      lambda       -0.2928720E-06
   maximum displ.:     0.0090616 α      in ANC's #5, #2, #11, ...

........................................................................
.............................. CYCLE   33 ..............................
........................................................................
------------------------------------------------------------
  cycle        total energy    energy error   density error
------------------------------------------------------------
      1     -177.5545197027  -1.8085877E+02   5.5066807E-05
      2     -177.5545190417   6.6105372E-07   4.3950350E-05
      3     -177.5545146108   4.4308311E-06   8.4784610E-05
      4     -177.5545193080  -4.6971636E-06   2.9034200E-05
      5     -177.5545197787  -4.7067653E-07   4.1807491E-06
------------------------------------------------------------

 total:                                   0.146 sec
 * total energy  :  -177.5545198 Eh     change       -0.3132834E-06 Eh
   gradient norm :     0.0001631 Eh/α   predicted    -0.1507143E-06 ( -51.89%)
   displ. norm   :     0.0240191 α      lambda       -0.2829735E-06
   maximum displ.:     0.0109361 α      in ANC's #5, #2, #7, ...

........................................................................
.............................. CYCLE   34 ..............................
........................................................................
------------------------------------------------------------
  cycle        total energy    energy error   density error
------------------------------------------------------------
      1     -177.5545197093  -1.8085875E+02   5.8561521E-05
      2     -177.5545171603   2.5489716E-06   6.9552532E-05
      3     -177.5545175155  -3.5521535E-07   6.3553401E-05
      4     -177.5545187950  -1.2794190E-06   4.6232987E-05
      5     -177.5545200903  -1.2953573E-06   6.1545705E-06
      6     -177.5545201064  -1.6087910E-08   1.3246232E-06
------------------------------------------------------------

 total:                                   0.171 sec
 * total energy  :  -177.5545201 Eh     change       -0.3277126E-06 Eh
   gradient norm :     0.0001682 Eh/α   predicted    -0.1443647E-06 ( -55.95%)
   displ. norm   :     0.0240060 α      lambda       -0.2930448E-06
   maximum displ.:     0.0115563 α      in ANC's #5, #2, #6, ...

........................................................................
.............................. CYCLE   35 ..............................
........................................................................
------------------------------------------------------------
  cycle        total energy    energy error   density error
------------------------------------------------------------
      1     -177.5545204471  -1.8085876E+02   5.2028526E-05
      2     -177.5545204495  -2.3813129E-09   3.0142067E-05
      3     -177.5545203044   1.4512759E-07   1.8609965E-05
------------------------------------------------------------

 total:                                   0.099 sec
 * total energy  :  -177.5545203 Eh     change       -0.1979669E-06 Eh
   gradient norm :     0.0001331 Eh/α   predicted    -0.1510382E-06 ( -23.71%)
   displ. norm   :     0.0288595 α      lambda       -0.3513554E-06
   maximum displ.:     0.0145764 α      in ANC's #5, #2, #6, ...

........................................................................
.............................. CYCLE   36 ..............................
........................................................................
------------------------------------------------------------
  cycle        total energy    energy error   density error
------------------------------------------------------------
      1     -177.5545163475  -1.8085874E+02   1.1457122E-04
      2     -177.5545082473   8.1001898E-06   1.5391928E-04
      3     -177.5545198024  -1.1555126E-05   4.7985813E-05
      4     -177.5545171107   2.6916683E-06   7.2322356E-05
      5     -177.5545201617  -3.0509751E-06   3.4004625E-05
      6     -177.5545208402  -6.7847071E-07   1.8005811E-06
------------------------------------------------------------

 total:                                   0.186 sec
 * total energy  :  -177.5545208 Eh     change       -0.5357995E-06 Eh
   gradient norm :     0.0001176 Eh/α   predicted    -0.1792614E-06 ( -66.54%)
   displ. norm   :     0.0264040 α      lambda       -0.2768255E-06
   maximum displ.:     0.0138716 α      in ANC's #5, #2, #6, ...

........................................................................
.............................. CYCLE   37 ..............................
........................................................................
------------------------------------------------------------
  cycle        total energy    energy error   density error
------------------------------------------------------------
      1     -177.5545211941  -1.8085878E+02   4.8526774E-05
      2     -177.5545207450   4.4911445E-07   3.7621911E-05
      3     -177.5545161386   4.6063977E-06   8.2942137E-05
      4     -177.5545211880  -5.0493450E-06   1.1662138E-05
      5     -177.5545212363  -4.8331799E-08   1.8820883E-06
------------------------------------------------------------

 total:                                   0.149 sec
 * total energy  :  -177.5545212 Eh     change       -0.3961394E-06 Eh
   gradient norm :     0.0001142 Eh/α   predicted    -0.1403271E-06 ( -64.58%)
   displ. norm   :     0.0262934 α      lambda       -0.2620949E-06
   maximum displ.:     0.0140025 α      in ANC's #5, #2, #6, ...

........................................................................
.............................. CYCLE   38 ..............................
........................................................................
------------------------------------------------------------
  cycle        total energy    energy error   density error
------------------------------------------------------------
      1     -177.5545215500  -1.8085876E+02   4.4106023E-05
      2     -177.5545214903   5.9701875E-08   2.7723229E-05
      3     -177.5545200600   1.4303812E-06   4.6713837E-05
      4     -177.5545208967  -8.3678671E-07   3.0987846E-05
      5     -177.5545215743  -6.7752626E-07   3.0659427E-06
------------------------------------------------------------

 total:                                   0.148 sec
 * total energy  :  -177.5545216 Eh     change       -0.3379615E-06 Eh
   gradient norm :     0.0001440 Eh/α   predicted    -0.1336066E-06 ( -60.47%)
   displ. norm   :     0.0342356 α      lambda       -0.3572746E-06
   maximum displ.:     0.0182839 α      in ANC's #5, #2, #6, ...

........................................................................
.............................. CYCLE   39 ..............................
........................................................................
------------------------------------------------------------
  cycle        total energy    energy error   density error
------------------------------------------------------------
      1     -177.5545218325  -1.8085876E+02   5.5636165E-05
      2     -177.5545207039   1.1286743E-06   5.2825525E-05
      3     -177.5545191122   1.5916776E-06   6.5975243E-05
      4     -177.5545205169  -1.4046889E-06   4.7574869E-05
      5     -177.5545220153  -1.4984011E-06   4.6748358E-06
      6     -177.5545220246  -9.2681205E-09   1.2577430E-06
------------------------------------------------------------

 total:                                   0.170 sec
 * total energy  :  -177.5545220 Eh     change       -0.4502855E-06 Eh
   gradient norm :     0.0001706 Eh/α   predicted    -0.1804348E-06 ( -59.93%)
   displ. norm   :     0.0426836 α      lambda       -0.4055515E-06
   maximum displ.:     0.0230242 α      in ANC's #5, #2, #6, ...

........................................................................
.............................. CYCLE   40 ..............................
........................................................................
------------------------------------------------------------
  cycle        total energy    energy error   density error
------------------------------------------------------------
      1     -177.5545224198  -1.8085871E+02   6.4499129E-05
      2     -177.5545223922   2.7628857E-08   3.8041924E-05
      3     -177.5545194413   2.9509118E-06   6.2576846E-05
      4     -177.5545222888  -2.8474938E-06   1.5832616E-05
      5     -177.5545224344  -1.4562718E-07   2.2170465E-06
------------------------------------------------------------

 total:                                   0.147 sec
 * total energy  :  -177.5545224 Eh     change       -0.4098511E-06 Eh
   gradient norm :     0.0001743 Eh/α   predicted    -0.2043426E-06 ( -50.14%)
   displ. norm   :     0.0432525 α      lambda       -0.3585375E-06
   maximum displ.:     0.0238523 α      in ANC's #5, #2, #6, ...

........................................................................
.............................. CYCLE   41 ..............................
........................................................................
------------------------------------------------------------
  cycle        total energy    energy error   density error
------------------------------------------------------------
      1     -177.5545227813  -1.8085869E+02   6.2052674E-05
      2     -177.5545222303   5.5106625E-07   4.5471760E-05
      3     -177.5545167667   5.4635719E-06   9.3020602E-05
      4     -177.5545216658  -4.8991319E-06   4.1322081E-05
      5     -177.5545228695  -1.2037201E-06   1.6323892E-06
      6     -177.5545228696  -9.0381036E-12   1.1361570E-06
------------------------------------------------------------

 total:                                   0.170 sec
 * total energy  :  -177.5545229 Eh     change       -0.4351505E-06 Eh
   gradient norm :     0.0001459 Eh/α   predicted    -0.1803580E-06 ( -58.55%)
   displ. norm   :     0.0397257 α      lambda       -0.3330378E-06
   maximum displ.:     0.0224800 α      in ANC's #5, #2, #6, ...

........................................................................
.............................. CYCLE   42 ..............................
........................................................................
------------------------------------------------------------
  cycle        total energy    energy error   density error
------------------------------------------------------------
      1     -177.5545232905  -1.8085868E+02   5.3070058E-05
      2     -177.5545232809   9.5580504E-09   3.1220756E-05
      3     -177.5545222470   1.0339259E-06   4.0212086E-05
      4     -177.5545230348  -7.8785422E-07   1.8999082E-05
------------------------------------------------------------

 total:                                   0.122 sec
 * total energy  :  -177.5545230 Eh     change       -0.1652687E-06 Eh
   gradient norm :     0.0001120 Eh/α   predicted    -0.1684186E-06 (   1.91%)
   displ. norm   :     0.0457971 α      lambda       -0.4236997E-06
   maximum displ.:     0.0263916 α      in ANC's #5, #2, #6, ...
 * RMSD in coord.:     0.0466655 α      energy gain  -0.1595233E-04 Eh

generating ANC from exact Hessian ...
Using Lindh-Hessian (1995)
 Shifting diagonal of input Hessian by   1.000636422664980E-002
 Lowest  eigenvalues of input Hessian
    0.010000    0.010003    0.000000    0.000000    0.000000    0.000000
    0.000000    0.000000    0.010011    0.010014    0.010037    0.010085
    0.010116    0.010125    0.010173    0.010193    0.010353    0.010460
 Highest eigenvalues
    2.103841    2.123364    2.630356    2.630521    2.678368    2.678572
 

........................................................................
.............................. CYCLE   43 ..............................
........................................................................
------------------------------------------------------------
  cycle        total energy    energy error   density error
------------------------------------------------------------
      1     -177.5544894361  -1.8085863E+02   2.2137717E-04
      2     -177.5539506054   5.3883078E-04   8.6151508E-04
      3     -177.5545234466  -5.7284125E-04   4.2356643E-05
      4     -177.5545235147  -6.8117743E-08   3.2867694E-05
      5     -177.5545237983  -2.8355049E-07   9.1428855E-06
------------------------------------------------------------

 total:                                   0.153 sec
 * total energy  :  -177.5545238 Eh     change       -0.7634452E-06 Eh
   gradient norm :     0.0001347 Eh/α   predicted     0.0000000E+00 (-100.00%)
   displ. norm   :     0.0002021 α      lambda        0.0000000E+00
   maximum displ.:     0.0001228 α      in ANC's #384, #385, #382, ...

........................................................................
.............................. CYCLE   44 ..............................
........................................................................
------------------------------------------------------------
  cycle        total energy    energy error   density error
------------------------------------------------------------
      1     -177.5545219582  -1.8085870E+02   5.3561913E-05
      2     -177.5545149569   7.0012356E-06   1.1288978E-04
      3     -177.5545225344  -7.5774768E-06   4.1767145E-05
      4     -177.5545238412  -1.3067639E-06   2.6529618E-06
      5     -177.5545238418  -6.6887651E-10   1.6556917E-06
------------------------------------------------------------

 total:                                   0.147 sec
 * total energy  :  -177.5545238 Eh     change       -0.4355812E-07 Eh
   gradient norm :     0.0002844 Eh/α   predicted    -0.2725838E-08 ( -93.74%)
   displ. norm   :     0.0048952 α      lambda       -0.1333271E-06
   maximum displ.:     0.0017463 α      in ANC's #17, #5, #20, ...

........................................................................
.............................. CYCLE   45 ..............................
........................................................................
------------------------------------------------------------
  cycle        total energy    energy error   density error
------------------------------------------------------------
      1     -177.5545239249  -1.8085868E+02   2.8017959E-05
      2     -177.5545229465   9.7843602E-07   4.0157396E-05
      3     -177.5545235993  -6.5276410E-07   2.5941968E-05
      4     -177.5545239590  -3.5977286E-07   8.7385572E-06
------------------------------------------------------------

 total:                                   0.122 sec
 * total energy  :  -177.5545240 Eh     change       -0.1172160E-06 Eh
   gradient norm :     0.0001057 Eh/α   predicted    -0.7634341E-07 ( -34.87%)
   displ. norm   :     0.0048952 α      lambda        0.0000000E+00
   maximum displ.:     0.0017463 α      in ANC's #17, #5, #20, ...

........................................................................
.............................. CYCLE   46 ..............................
........................................................................
------------------------------------------------------------
  cycle        total energy    energy error   density error
------------------------------------------------------------
      1     -177.5545227777  -1.8085867E+02   5.3726345E-05
      2     -177.5545175417   5.2360886E-06   9.9107501E-05
      3     -177.5545223298  -4.7881728E-06   4.8257520E-05
      4     -177.5545238161  -1.4862224E-06   1.8774109E-05
      5     -177.5545239331  -1.1707050E-07   1.1277832E-05
------------------------------------------------------------

 total:                                   0.146 sec
 * total energy  :  -177.5545239 Eh     change        0.2592068E-07 Eh
   gradient norm :     0.0003297 Eh/α   predicted     0.4802527E-08 ( -81.47%)
   displ. norm   :     0.0270465 α      lambda       -0.8534593E-06
   maximum displ.:     0.0134440 α      in ANC's #17, #5, #20, ...

........................................................................
.............................. CYCLE   47 ..............................
........................................................................
------------------------------------------------------------
  cycle        total energy    energy error   density error
------------------------------------------------------------
      1     -177.5545221861  -1.8085862E+02   1.3674269E-04
      2     -177.5545182097   3.9764513E-06   1.1917485E-04
      3     -177.5545172620   9.4763547E-07   1.0997123E-04
      4     -177.5545069349   1.0327124E-05   1.5076475E-04
      5     -177.5545235696  -1.6634726E-05   2.4027373E-05
      6     -177.5545238588  -2.8915520E-07   2.8044707E-06
------------------------------------------------------------

 total:                                   0.170 sec
 * total energy  :  -177.5545239 Eh     change        0.7434133E-07 Eh
   gradient norm :     0.0013378 Eh/α   predicted    -0.4271837E-06 (-674.62%)
   displ. norm   :     0.0315731 α      lambda        0.1048242E-05
   maximum displ.:     0.0134845 α      in ANC's #17, #5, #20, ...

........................................................................
.............................. CYCLE   48 ..............................
........................................................................
------------------------------------------------------------
  cycle        total energy    energy error   density error
------------------------------------------------------------
      1     -177.5545232263  -1.8085862E+02   9.5633935E-05
      2     -177.5545231818   4.4430465E-08   5.6722290E-05
      3     -177.5545187436   4.4382615E-06   7.9526553E-05
      4     -177.5545224861  -3.7425600E-06   3.3658883E-05
      5     -177.5545232556  -7.6943081E-07   4.2819027E-06
------------------------------------------------------------

 total:                                   0.147 sec
 * total energy  :  -177.5545233 Eh     change        0.6032308E-06 Eh
   gradient norm :     0.0018806 Eh/α   predicted     0.5215592E-06 ( -13.54%)
   displ. norm   :     0.0290438 α      lambda       -0.1728077E-05
   maximum displ.:     0.0128031 α      in ANC's #17, #20, #5, ...

........................................................................
.............................. CYCLE   49 ..............................
........................................................................
------------------------------------------------------------
  cycle        total energy    energy error   density error
------------------------------------------------------------
      1     -177.5545240938  -1.8085873E+02   1.1142613E-04
      2     -177.5545201539   3.9399017E-06   1.0111875E-04
      3     -177.5545103498   9.8040940E-06   1.4344161E-04
      4     -177.5545198164  -9.4665524E-06   8.5203097E-05
      5     -177.5545246395  -4.8231278E-06   5.4084723E-06
      6     -177.5545246489  -9.3942560E-09   2.5246634E-06
------------------------------------------------------------

 total:                                   0.169 sec
 * total energy  :  -177.5545246 Eh     change       -0.1393367E-05 Eh
   gradient norm :     0.0004098 Eh/α   predicted    -0.8651717E-06 ( -37.91%)
   displ. norm   :     0.0070725 α      lambda        0.5116290E-07
   maximum displ.:     0.0025159 α      in ANC's #40, #38, #20, ...

........................................................................
.............................. CYCLE   50 ..............................
........................................................................
------------------------------------------------------------
  cycle        total energy    energy error   density error
------------------------------------------------------------
      1     -177.5545245209  -1.8085874E+02   3.8373228E-05
      2     -177.5545240611   4.5977669E-07   3.5214602E-05
      3     -177.5545227635   1.2975853E-06   5.0666929E-05
      4     -177.5545244023  -1.6387405E-06   2.0311554E-05
      5     -177.5545245805  -1.7822532E-07   2.8451523E-06
------------------------------------------------------------

 total:                                   0.147 sec
 * total energy  :  -177.5545246 Eh     change        0.6840497E-07 Eh
   gradient norm :     0.0002770 Eh/α   predicted     0.2450634E-07 ( -64.17%)
   displ. norm   :     0.0098174 α      lambda       -0.2667196E-06
   maximum displ.:     0.0039252 α      in ANC's #17, #5, #20, ...

........................................................................
.............................. CYCLE   51 ..............................
........................................................................
------------------------------------------------------------
  cycle        total energy    energy error   density error
------------------------------------------------------------
      1     -177.5545247272  -1.8085876E+02   3.6829379E-05
      2     -177.5545245024   2.2479301E-07   3.1060390E-05
      3     -177.5545246611  -1.5870222E-07   2.2193027E-05
      4     -177.5545246940  -3.2885083E-08   1.4918446E-05
------------------------------------------------------------

 total:                                   0.123 sec
 * total energy  :  -177.5545247 Eh     change       -0.1134943E-06 Eh
   gradient norm :     0.0000706 Eh/α   predicted    -0.1378815E-06 (  21.49%)
   displ. norm   :     0.0115030 α      lambda       -0.1153096E-06
   maximum displ.:     0.0053248 α      in ANC's #5, #17, #2, ...

........................................................................
.............................. CYCLE   52 ..............................
........................................................................
------------------------------------------------------------
  cycle        total energy    energy error   density error
------------------------------------------------------------
      1     -177.5545073049  -1.8085876E+02   1.5438434E-04
      2     -177.5542387059   2.6859897E-04   6.0896260E-04
      3     -177.5545244290  -2.8572311E-04   3.5412583E-05
      4     -177.5545249237  -4.9465010E-07   1.4071179E-05
------------------------------------------------------------

 total:                                   0.122 sec
 * total energy  :  -177.5545249 Eh     change       -0.2296606E-06 Eh
   gradient norm :     0.0001011 Eh/α   predicted    -0.6207250E-07 ( -72.97%)
   displ. norm   :     0.0115030 α      lambda        0.0000000E+00
   maximum displ.:     0.0053248 α      in ANC's #5, #17, #2, ...

........................................................................
.............................. CYCLE   53 ..............................
........................................................................
------------------------------------------------------------
  cycle        total energy    energy error   density error
------------------------------------------------------------
      1     -177.5545232728  -1.8085880E+02   5.7749184E-05
      2     -177.5545184071   4.8657645E-06   9.9668060E-05
      3     -177.5545242301  -5.8229850E-06   3.3732957E-05
      4     -177.5545246626  -4.3258260E-07   2.3142550E-05
      5     -177.5545249430  -2.8040319E-07   7.6552931E-06
------------------------------------------------------------

 total:                                   0.147 sec
 * total energy  :  -177.5545249 Eh     change       -0.1938176E-07 Eh
   gradient norm :     0.0002037 Eh/α   predicted    -0.2157790E-08 ( -88.87%)
   displ. norm   :     0.0110260 α      lambda       -0.1948916E-06
   maximum displ.:     0.0052221 α      in ANC's #5, #2, #8, ...

........................................................................
.............................. CYCLE   54 ..............................
........................................................................
------------------------------------------------------------
  cycle        total energy    energy error   density error
------------------------------------------------------------
      1     -177.5545237476  -1.8085879E+02   7.3122474E-05
      2     -177.5545106819   1.3065713E-05   1.4183330E-04
      3     -177.5545227098  -1.2027846E-05   6.3880032E-05
      4     -177.5545247093  -1.9995331E-06   3.2837853E-05
      5     -177.5545250011  -2.9182786E-07   1.0785977E-05
------------------------------------------------------------

 total:                                   0.146 sec
 * total energy  :  -177.5545250 Eh     change       -0.5808167E-07 Eh
   gradient norm :     0.0002252 Eh/α   predicted    -0.9904915E-07 (  70.53%)
   displ. norm   :     0.0111694 α      lambda       -0.3477211E-06
   maximum displ.:     0.0049560 α      in ANC's #5, #7, #2, ...

........................................................................
.............................. CYCLE   55 ..............................
........................................................................
------------------------------------------------------------
  cycle        total energy    energy error   density error
------------------------------------------------------------
      1     -177.5545225029  -1.8085874E+02   8.2825667E-05
      2     -177.5545134606   9.0423021E-06   1.3359293E-04
      3     -177.5545230415  -9.5809205E-06   5.9493136E-05
      4     -177.5545239689  -9.2739418E-07   4.6217378E-05
      5     -177.5545252167  -1.2478029E-06   9.4144957E-06
      6     -177.5545252545  -3.7778790E-08   1.4618836E-06
------------------------------------------------------------

 total:                                   0.171 sec
 * total energy  :  -177.5545253 Eh     change       -0.2533213E-06 Eh
   gradient norm :     0.0002720 Eh/α   predicted    -0.1755321E-06 ( -30.71%)
   displ. norm   :     0.0148503 α      lambda        0.1372622E-06
   maximum displ.:     0.0073719 α      in ANC's #5, #7, #2, ...

........................................................................
.............................. CYCLE   56 ..............................
........................................................................
------------------------------------------------------------
  cycle        total energy    energy error   density error
------------------------------------------------------------
      1     -177.5545252283  -1.8085872E+02   6.0061317E-05
      2     -177.5545251691   5.9222913E-08   3.5824661E-05
      3     -177.5545206632   4.5058653E-06   7.9466834E-05
      4     -177.5545250709  -4.4077151E-06   1.7007246E-05
      5     -177.5545252547  -1.8371381E-07   2.0293159E-06
------------------------------------------------------------

 total:                                   0.147 sec
 * total energy  :  -177.5545253 Eh     change       -0.2088143E-09 Eh
   gradient norm :     0.0003995 Eh/α   predicted     0.6775752E-07 (*******%)
   displ. norm   :     0.0036411 α      lambda       -0.2216568E-06
   maximum displ.:     0.0014791 α      in ANC's #7, #40, #37, ...

........................................................................
.............................. CYCLE   57 ..............................
........................................................................
------------------------------------------------------------
  cycle        total energy    energy error   density error
------------------------------------------------------------
      1     -177.5545254387  -1.8085874E+02   2.8812513E-05
      2     -177.5545252538   1.8493859E-07   2.3446664E-05
      3     -177.5545244721   7.8165576E-07   3.8099396E-05
      4     -177.5545251685  -6.9635772E-07   2.1853615E-05
      5     -177.5545254714  -3.0292739E-07   3.0141579E-06
------------------------------------------------------------

 total:                                   0.146 sec
 * total energy  :  -177.5545255 Eh     change       -0.2167565E-06 Eh
   gradient norm :     0.0001643 Eh/α   predicted    -0.1130834E-06 ( -47.83%)
   displ. norm   :     0.0030871 α      lambda        0.2603228E-07
   maximum displ.:     0.0012883 α      in ANC's #7, #40, #37, ...

........................................................................
.............................. CYCLE   58 ..............................
........................................................................
------------------------------------------------------------
  cycle        total energy    energy error   density error
------------------------------------------------------------
      1     -177.5545252701  -1.8085876E+02   3.0906618E-05
      2     -177.5545239805   1.2895676E-06   4.6914323E-05
      3     -177.5545249115  -9.3092689E-07   2.9478618E-05
      4     -177.5545251902  -2.7874441E-07   2.1730886E-05
      5     -177.5545254526  -2.6234710E-07   3.9057993E-06
------------------------------------------------------------

 total:                                   0.146 sec
 * total energy  :  -177.5545255 Eh     change        0.1886198E-07 Eh
   gradient norm :     0.0001555 Eh/α   predicted     0.1176679E-07 ( -37.62%)
   displ. norm   :     0.0040548 α      lambda        0.4382096E-07
   maximum displ.:     0.0015698 α      in ANC's #17, #40, #38, ...

........................................................................
.............................. CYCLE   59 ..............................
........................................................................
------------------------------------------------------------
  cycle        total energy    energy error   density error
------------------------------------------------------------
      1     -177.5545251809  -1.8085877E+02   3.0724282E-05
      2     -177.5545233853   1.7955645E-06   5.4687356E-05
      3     -177.5545248558  -1.4705052E-06   3.0410953E-05
      4     -177.5545253788  -5.2302465E-07   1.3375244E-05
------------------------------------------------------------

 total:                                   0.123 sec
 * total energy  :  -177.5545254 Eh     change        0.7373197E-07 Eh
   gradient norm :     0.0002619 Eh/α   predicted     0.2155058E-07 ( -70.77%)
   displ. norm   :     0.0050912 α      lambda        0.5562296E-07
   maximum displ.:     0.0019235 α      in ANC's #7, #17, #40, ...

........................................................................
.............................. CYCLE   60 ..............................
........................................................................
------------------------------------------------------------
  cycle        total energy    energy error   density error
------------------------------------------------------------
      1     -177.5545196243  -1.8085876E+02   9.4212512E-05
      2     -177.5544444995   7.5124827E-05   3.2799704E-04
      3     -177.5545241071  -7.9607613E-05   4.5740719E-05
      4     -177.5545254064  -1.2993179E-06   1.3276243E-05
      5     -177.5545254073  -9.1719699E-10   9.5487443E-06
------------------------------------------------------------

 total:                                   0.147 sec
 * total energy  :  -177.5545254 Eh     change       -0.2851411E-07 Eh
   gradient norm :     0.0003405 Eh/α   predicted     0.2457381E-07 (-186.18%)
   displ. norm   :     0.0094920 α      lambda       -0.1754392E-06
   maximum displ.:     0.0043669 α      in ANC's #5, #2, #7, ...

........................................................................
.............................. CYCLE   61 ..............................
........................................................................
------------------------------------------------------------
  cycle        total energy    energy error   density error
------------------------------------------------------------
      1     -177.5545244591  -1.8085875E+02   5.9167674E-05
      2     -177.5545204533   4.0058170E-06   9.0813604E-05
      3     -177.5545236000  -3.1466733E-06   5.4680242E-05
      4     -177.5545253454  -1.7454045E-06   2.4778173E-05
      5     -177.5545255066  -1.6126160E-07   1.5094748E-05
------------------------------------------------------------

 total:                                   0.148 sec
 * total energy  :  -177.5545255 Eh     change       -0.9928729E-07 Eh
   gradient norm :     0.0000904 Eh/α   predicted    -0.9262010E-07 (  -6.72%)
   displ. norm   :     0.0127556 α      lambda       -0.1059775E-06
   maximum displ.:     0.0072385 α      in ANC's #5, #2, #7, ...

   *** GEOMETRY OPTIMIZATION CONVERGED AFTER 61 ITERATIONS ***

------------------------------------------------------------------------
 total energy gain   :        -0.0000618 Eh       -0.0388 kcal/mol
 total RMSD          :         0.1470729 a0        0.0778 Å
 total power (kW/mol):        -0.0026592 (step)   -0.0162 (real)
------------------------------------------------------------------------

 ANCopt (total)                0 d,  0 h,  0 min, 10.031 sec
 optimizer setup                ...        0 min,  0.001 sec (  0.010%)
 model hessian                  ...        0 min,  0.391 sec (  3.902%)
 ANC generation                 ...        0 min,  0.047 sec (  0.468%)
 coordinate transformation      ...        0 min,  0.010 sec (  0.102%)
 single point calculation       ...        0 min,  9.517 sec ( 94.879%)
 optimization log               ...        0 min,  0.022 sec (  0.215%)
 hessian update                 ...        0 min,  0.013 sec (  0.131%)
 rational function              ...        0 min,  0.018 sec (  0.176%)

================
 final structure:
================
131
 xtb: 6.7.1 (edcfbbe)
[...]
 217:  7.18 218:  7.36 219:  7.48 220:  7.55 221:  7.58 222:  5.90 223:  7.34 224:  5.69
 225:  7.56 226:  7.24 227:  4.19 228:  3.99 229:  4.21 230:  4.21 231:  4.71 232:  5.02
 233:  5.14 234:  5.42 235:  3.58 236:  5.27 237:  5.46 238:  5.85 239:  5.04 240:  4.07
 241:  1.98 242:  1.96 243:  6.38 244:  1.92 245:  4.27 246:  4.27 247:  7.53 248:  3.65
 249:  3.27 250:  3.29 251:  4.14 252:  4.54 253:  9.58 254:  6.40 255: 11.19 256: 11.32
 257:  7.92 258: 10.11 259:  9.60 260:  6.15 261:  9.72 262:  4.64 263:  9.48 264:  5.04
 265:  5.04 266:  5.04 267:  4.85 268:  4.84 269:  5.16 270:  9.72 271:  9.96 272: 10.20
 273:  3.22 274:  3.17 275:  3.18 276:  3.21 277:  3.19 278:  3.19 279: 10.39 280: 11.13
 281: 10.88 282: 10.53 283: 11.08 284: 10.99 285: 11.26 286: 10.89 287:  1.98 288:  1.95
 289:  1.96 290:  9.09 291:  7.82 292:  3.09 293:  3.13 294:  6.07 295:  2.07 296:  1.90
 297:  1.98 298:  1.80 299:  1.80 300:  1.86 301:  1.86 302:  2.00 303: 10.49 304:  1.67
 305:  1.53 306:  1.53 307:  1.53 308:  1.64 309:  1.70 310:  1.70 311:  1.77 312:  1.99
 313:  1.72 314:  1.66 315:  3.33 316:  9.67 317: 11.46 318: 11.44 319: 11.62 320: 11.61
 321: 11.61 322: 11.65 323: 11.67 324: 11.68 325: 11.69 326: 12.01 327: 12.01 328: 12.79
 329: 12.79 330:  1.91 331:  1.94 332:  1.94 333:  1.90 334:  1.93 335:  1.93 336:  1.98
 337:  1.92 338:  1.75 339:  2.00 340:  2.00 341:  1.48 342:  1.48 343:  1.67 344:  1.97
 345:  2.01 346:  1.91 347:  1.45 348:  1.45 349:  1.45 350:  1.59 351:  1.59 352:  1.50
 353:  1.50 354:  1.54 355:  1.51 356:  1.51 357:  1.59 358:  1.95 359:  1.95 360:  1.95
 361:  1.95 362:  1.96 363:  1.87 364:  1.76 365:  1.77 366:  1.87 367:  1.78 368:  1.76
 369:  1.86 370:  1.30 371:  1.44 372:  1.44 373:  1.45 374:  1.45 375:  1.42 376:  1.77
 377:  1.78 378:  1.78 379:  1.77 380:  1.83 381:  1.82 382:  1.82 383:  1.81 384:  1.79
 385:  1.79 386:  1.82 387:  1.82 388:  1.89 389:  1.88 390:  1.88 391:  1.88 392:  1.88
 393:  1.88
 IR intensities (km·mol⁻¹)
   1:  0.22   2:  1.05   3:  0.02   4:  0.16   5:  0.10   6:  1.36   7:  0.55   8:  1.12
   9:  0.05  10:  0.05  11:  0.08  12:  2.32  13:  0.89  14:  0.25  15:  0.01  16:  0.12
  17:  0.36  18:  2.53  19:  0.24  20:  0.46  21:  0.90  22:  0.45  23:  0.30  24:  0.72
  25:  1.23  26:  0.15  27:  1.43  28:  1.32  29:  0.39  30:  3.83  31:  0.24  32:  0.43
  33:  0.13  34:  0.08  35:  0.85  36:  0.57  37:  2.59  38:  1.52  39:  0.26  40:  7.18
  41: 16.82  42:  0.13  43:  6.52  44:  0.96  45:  0.53  46:  0.38  47:  3.49  48:  3.32
  49:  0.08  50:  0.40  51:  0.12  52:  2.09  53:  0.53  54:  0.18  55:  3.67  56:  1.41
  57:  2.03  58:  2.78  59:  3.90  60:  1.93  61:  3.88  62:  0.70  63:  0.39  64:  0.04
  65:  0.20  66:  3.27  67:  0.64  68:  0.26  69:  0.55  70:  0.28  71:  0.04  72:  0.03
  73:  0.51  74:  1.33  75:  0.05  76:  1.43  77:  1.33  78:  1.25  79: 33.41  80:  0.01
  81:  0.24  82:  0.93  83:  8.77  84:  0.64  85:  0.86  86:  1.84  87:  0.37  88:  0.41
  89:  4.69  90: 10.94  91:  6.23  92:  6.26  93:  1.10  94:  7.08  95:  8.42  96:  1.88
  97:  0.24  98:  0.13  99:  5.03 100:  0.89 101:  3.92 102:  0.15 103:  3.53 104:  0.21
 105:  9.52 106:  2.27 107:  8.47 108:  8.69 109:  6.55 110:  0.27 111:  5.09 112:  1.55
 113:  3.84 114:  4.43 115:  0.71 116:  3.38 117:  0.63 118:  0.38 119: 28.06 120:  0.49
 121:  0.03 122:  3.29 123:  0.29 124:  1.77 125:  2.55 126:  1.54 127:  0.50 128:  0.48
 129:  2.13 130:  0.10 131:  0.05 132:  0.39 133: 14.95 134:  0.02 135:  4.48 136:  3.19
 137:  0.02 138:  0.03 139:  2.47 140:  0.15 141: 16.72 142: 19.21 143:  7.49 144: 48.81
 145:  6.26 146:  4.96 147:  1.13 148:  1.63 149:  9.30 150: 11.80 151: 22.81 152: 25.95
 153: 72.09 154: 12.60 155:593.25 156:  2.38 157:  1.54 158: 74.56 159:  2.76 160:  0.00
 161:  0.04 162:  0.00 163:  4.36 164: 38.13 165: 19.32 166:****** 167:  1.86 168:  9.41
 169:  1.57 170:  4.74 171:  3.26 172:  3.41 173: 39.74 174:  3.02 175: 12.92 176:  2.50
 177:  1.74 178:  7.14 179: 19.69 180:263.43 181:  1.04 182:135.17 183:155.36 184:316.21
 185:  2.62 186:  0.20 187:  0.04 188:  0.52 189:  8.65 190:  0.81 191:  0.03 192:  0.03
 193:  0.20 194:  8.72 195:  1.87 196:  1.37 197:  1.41 198:  9.22 199: 85.10 200:  1.58
 201:  0.20 202: 38.83 203:  2.85 204:  0.99 205:  1.14 206:  1.50 207:  3.51 208:  0.17
 209:  0.40 210:  0.34 211:  0.75 212:105.02 213:  0.70 214:  8.77 215:  8.64 216: 99.66
 217: 25.99 218:115.75 219: 76.70 220:  6.11 221:  1.52 222:  2.74 223:  0.60 224:  2.76
 225:  1.42 226:  0.40 227: 35.17 228:315.73 229:  0.14 230:  0.07 231:  0.55 232:210.25
 233:172.46 234:  0.87 235: 16.34 236:215.45 237:  1.54 238:602.93 239:430.85 240: 42.62
 241:  0.05 242:  0.04 243:  3.44 244:  6.90 245:  0.17 246:  0.16 247:  3.32 248:  4.73
 249: 15.87 250:  3.40 251:  1.75 252: 97.79 253:113.68 254:  1.85 255: 50.39 256:  9.00
 257:  4.68 258:352.73 259:  4.73 260:  3.01 261:  8.99 262:  3.00 263:  4.24 264:  0.38
 265:  0.09 266:  0.55 267: 75.39 268:  0.37 269:  1.62 270:  1.23 271:  0.05 272:170.61
 273:  5.51 274:  2.18 275:  0.04 276:  0.15 277:  2.57 278:  3.82 279:  0.35 280: 15.14
 281:  0.16 282:172.08 283:  1.52 284:  7.59 285:  0.80 286:376.74 287:  0.63 288:  0.31
 289:  0.01 290:  3.11 291: 16.37 292:  3.07 293:  0.68 294: 36.40 295:  1.25 296:  0.30
 297:  0.61 298:  0.25 299:  0.26 300:  0.13 301:  0.32 302:  5.11 303:900.96 304: 35.77
 305:  0.03 306:  0.01 307:  0.24 308:  0.82 309:  2.86 310:  2.04 311:  6.48 312: 19.66
 313:  2.36 314:  0.99 315:  1.31 316:  1.22 317: 96.06 318:  5.66 319:  1.33 320: 22.91
 321:  2.14 322:****** 323:  4.91 324:256.35 325:  0.28 326:532.36 327:  4.67 328:******
 329: 66.87 330:  1.14 331:  0.00 332:  0.00 333:  5.81 334:  0.58 335:  2.00 336:  0.25
 337: 11.95 338: 11.42 339:  0.05 340:  0.06 341:  0.04 342:  0.21 343: 41.03 344: 60.94
 345: 46.62 346: 43.97 347:  1.90 348: 52.03 349:  0.94 350: 27.90 351: 43.45 352:  0.33
 353:  0.36 354: 43.69 355:202.04 356: 39.80 357: 67.98 358:  9.76 359:  5.46 360: 54.78
 361: 42.29 362: 27.17 363: 30.75 364:  3.02 365:  2.12 366:  9.39 367:162.00 368: 48.18
 369: 51.38 370: 30.25 371: 56.53 372: 67.24 373: 22.17 374: 15.86 375: 26.89 376: 55.41
 377: 72.60 378: 35.27 379:  9.06 380:  8.25 381: 70.99 382:108.60 383:  7.08 384:  0.43
 385:  0.24 386: 56.14 387:  4.12 388: 54.78 389: 95.82 390: 18.88 391:107.42 392: 97.11
 393: 15.25
 Raman intensities (Ä⁴*amu⁻¹)
   1:  0.00   2:  0.00   3:  0.00   4:  0.00   5:  0.00   6:  0.00   7:  0.00   8:  0.00
   9:  0.00  10:  0.00  11:  0.00  12:  0.00  13:  0.00  14:  0.00  15:  0.00  16:  0.00
  17:  0.00  18:  0.00  19:  0.00  20:  0.00  21:  0.00  22:  0.00  23:  0.00  24:  0.00
  25:  0.00  26:  0.00  27:  0.00  28:  0.00  29:  0.00  30:  0.00  31:  0.00  32:  0.00
  33:  0.00  34:  0.00  35:  0.00  36:  0.00  37:  0.00  38:  0.00  39:  0.00  40:  0.00
  41:  0.00  42:  0.00  43:  0.00  44:  0.00  45:  0.00  46:  0.00  47:  0.00  48:  0.00
  49:  0.00  50:  0.00  51:  0.00  52:  0.00  53:  0.00  54:  0.00  55:  0.00  56:  0.00
  57:  0.00  58:  0.00  59:  0.00  60:  0.00  61:  0.00  62:  0.00  63:  0.00  64:  0.00
  65:  0.00  66:  0.00  67:  0.00  68:  0.00  69:  0.00  70:  0.00  71:  0.00  72:  0.00
  73:  0.00  74:  0.00  75:  0.00  76:  0.00  77:  0.00  78:  0.00  79:  0.00  80:  0.00
  81:  0.00  82:  0.00  83:  0.00  84:  0.00  85:  0.00  86:  0.00  87:  0.00  88:  0.00
  89:  0.00  90:  0.00  91:  0.00  92:  0.00  93:  0.00  94:  0.00  95:  0.00  96:  0.00
  97:  0.00  98:  0.00  99:  0.00 100:  0.00 101:  0.00 102:  0.00 103:  0.00 104:  0.00
 105:  0.00 106:  0.00 107:  0.00 108:  0.00 109:  0.00 110:  0.00 111:  0.00 112:  0.00
 113:  0.00 114:  0.00 115:  0.00 116:  0.00 117:  0.00 118:  0.00 119:  0.00 120:  0.00
 121:  0.00 122:  0.00 123:  0.00 124:  0.00 125:  0.00 126:  0.00 127:  0.00 128:  0.00
 129:  0.00 130:  0.00 131:  0.00 132:  0.00 133:  0.00 134:  0.00 135:  0.00 136:  0.00
 137:  0.00 138:  0.00 139:  0.00 140:  0.00 141:  0.00 142:  0.00 143:  0.00 144:  0.00
 145:  0.00 146:  0.00 147:  0.00 148:  0.00 149:  0.00 150:  0.00 151:  0.00 152:  0.00
 153:  0.00 154:  0.00 155:  0.00 156:  0.00 157:  0.00 158:  0.00 159:  0.00 160:  0.00
 161:  0.00 162:  0.00 163:  0.00 164:  0.00 165:  0.00 166:  0.00 167:  0.00 168:  0.00
 169:  0.00 170:  0.00 171:  0.00 172:  0.00 173:  0.00 174:  0.00 175:  0.00 176:  0.00
 177:  0.00 178:  0.00 179:  0.00 180:  0.00 181:  0.00 182:  0.00 183:  0.00 184:  0.00
 185:  0.00 186:  0.00 187:  0.00 188:  0.00 189:  0.00 190:  0.00 191:  0.00 192:  0.00
 193:  0.00 194:  0.00 195:  0.00 196:  0.00 197:  0.00 198:  0.00 199:  0.00 200:  0.00
 201:  0.00 202:  0.00 203:  0.00 204:  0.00 205:  0.00 206:  0.00 207:  0.00 208:  0.00
 209:  0.00 210:  0.00 211:  0.00 212:  0.00 213:  0.00 214:  0.00 215:  0.00 216:  0.00
 217:  0.00 218:  0.00 219:  0.00 220:  0.00 221:  0.00 222:  0.00 223:  0.00 224:  0.00
 225:  0.00 226:  0.00 227:  0.00 228:  0.00 229:  0.00 230:  0.00 231:  0.00 232:  0.00
 233:  0.00 234:  0.00 235:  0.00 236:  0.00 237:  0.00 238:  0.00 239:  0.00 240:  0.00
 241:  0.00 242:  0.00 243:  0.00 244:  0.00 245:  0.00 246:  0.00 247:  0.00 248:  0.00
 249:  0.00 250:  0.00 251:  0.00 252:  0.00 253:  0.00 254:  0.00 255:  0.00 256:  0.00
 257:  0.00 258:  0.00 259:  0.00 260:  0.00 261:  0.00 262:  0.00 263:  0.00 264:  0.00
 265:  0.00 266:  0.00 267:  0.00 268:  0.00 269:  0.00 270:  0.00 271:  0.00 272:  0.00
 273:  0.00 274:  0.00 275:  0.00 276:  0.00 277:  0.00 278:  0.00 279:  0.00 280:  0.00
 281:  0.00 282:  0.00 283:  0.00 284:  0.00 285:  0.00 286:  0.00 287:  0.00 288:  0.00
 289:  0.00 290:  0.00 291:  0.00 292:  0.00 293:  0.00 294:  0.00 295:  0.00 296:  0.00
 297:  0.00 298:  0.00 299:  0.00 300:  0.00 301:  0.00 302:  0.00 303:  0.00 304:  0.00
 305:  0.00 306:  0.00 307:  0.00 308:  0.00 309:  0.00 310:  0.00 311:  0.00 312:  0.00
 313:  0.00 314:  0.00 315:  0.00 316:  0.00 317:  0.00 318:  0.00 319:  0.00 320:  0.00
 321:  0.00 322:  0.00 323:  0.00 324:  0.00 325:  0.00 326:  0.00 327:  0.00 328:  0.00
 329:  0.00 330:  0.00 331:  0.00 332:  0.00 333:  0.00 334:  0.00 335:  0.00 336:  0.00
 337:  0.00 338:  0.00 339:  0.00 340:  0.00 341:  0.00 342:  0.00 343:  0.00 344:  0.00
 345:  0.00 346:  0.00 347:  0.00 348:  0.00 349:  0.00 350:  0.00 351:  0.00 352:  0.00
 353:  0.00 354:  0.00 355:  0.00 356:  0.00 357:  0.00 358:  0.00 359:  0.00 360:  0.00
 361:  0.00 362:  0.00 363:  0.00 364:  0.00 365:  0.00 366:  0.00 367:  0.00 368:  0.00
 369:  0.00 370:  0.00 371:  0.00 372:  0.00 373:  0.00 374:  0.00 375:  0.00 376:  0.00
 377:  0.00 378:  0.00 379:  0.00 380:  0.00 381:  0.00 382:  0.00 383:  0.00 384:  0.00
 385:  0.00 386:  0.00 387:  0.00 388:  0.00 389:  0.00 390:  0.00 391:  0.00 392:  0.00
 393:  0.00
 output can be read by thermo (or use thermo option).
 writing <g98.out> molden fake output.
 recommended (thermochemical) frequency scaling factor: 1.0
           -------------------------------------------------
          |             Thermodynamic Functions             |
           -------------------------------------------------

Refinement of some symmetry elements was terminated before convergence was reached.
Some symmetry elements may remain unidentified.
Molecule has no symmetry elements
It seems to be the C1 point group
c1  symmetry found (for desy threshold:  0.10E+00) used in thermo

          ...................................................
          :                      SETUP                      :
          :.................................................:
          :  # frequencies                         387      :
          :  # imaginary freq.                       0      :
          :  linear?                             false      :
          :  only rotor calc.                    false      :
          :  symmetry                               c1      :
          :  rotational number                       1      :
          :  scaling factor                  1.0000000      :
          :  rotor cutoff                   50.0000000 cm⁻¹ :
          :  imag. cutoff                  -20.0000000 cm⁻¹ :
          :.................................................:

    mode    ω/cm⁻¹     T·S(HO)/kcal·mol⁻¹    T·S(FR)/kcal·mol⁻¹   T·S(vib)
   ------------------------------------------------------------------------
       1      3.10    -3.08277 (  0.00%)    -1.88047 (100.00%)    -1.88049
       2      5.34    -2.75988 (  0.01%)    -1.71903 ( 99.99%)    -1.71917
       3      7.32    -2.57350 (  0.05%)    -1.62584 ( 99.95%)    -1.62627
       4      9.74    -2.40379 (  0.14%)    -1.54098 ( 99.86%)    -1.54222
       5     10.39    -2.36588 (  0.19%)    -1.52201 ( 99.81%)    -1.52358
       6     13.79    -2.19800 (  0.58%)    -1.43805 ( 99.42%)    -1.44243
       7     20.23    -1.97108 (  2.61%)    -1.32453 ( 97.39%)    -1.34142
       8     21.55    -1.93367 (  3.34%)    -1.30581 ( 96.66%)    -1.32677
       9     26.05    -1.82151 (  6.86%)    -1.24967 ( 93.14%)    -1.28893
      10     39.29    -1.57857 ( 27.60%)    -1.12795 ( 72.40%)    -1.25234
      11     40.49    -1.56077 ( 30.08%)    -1.11903 ( 69.92%)    -1.25189
      12     40.82    -1.55597 ( 30.76%)    -1.11662 ( 69.24%)    -1.25179
      13     41.74    -1.54287 ( 32.69%)    -1.11005 ( 67.31%)    -1.25152
      14     48.40    -1.45549 ( 46.75%)    -1.06619 ( 53.25%)    -1.24819
      15     49.58    -1.44130 ( 49.15%)    -1.05906 ( 50.85%)    -1.24694
      16     52.67    -1.40562 ( 55.19%)    -1.04113 ( 44.81%)    -1.24228
      17     54.88    -1.38147 ( 59.20%)    -1.02898 ( 40.80%)    -1.23765
      18     56.61    -1.36309 ( 62.18%)    -1.01974 ( 37.82%)    -1.23322
      19     58.13    -1.34749 ( 64.63%)    -1.01189 ( 35.37%)    -1.22880
      20     59.12    -1.33762 ( 66.15%)    -1.00692 ( 33.85%)    -1.22569
      21     64.13    -1.28974 ( 73.02%)    -0.98281 ( 26.98%)    -1.20694
      22     67.51    -1.25955 ( 76.87%)    -0.96758 ( 23.13%)    -1.19203
      23     69.11    -1.24586 ( 78.49%)    -0.96068 ( 21.51%)    -1.18452
      24     70.45    -1.23456 ( 79.76%)    -0.95497 ( 20.24%)    -1.17798
      25     70.69    -1.23256 ( 79.98%)    -0.95396 ( 20.02%)    -1.17679
      26     74.20    -1.20417 ( 82.90%)    -0.93962 ( 17.10%)    -1.15894
      27     77.43    -1.17921 ( 85.19%)    -0.92700 ( 14.81%)    -1.14184
      28     80.47    -1.15662 ( 87.03%)    -0.91557 ( 12.97%)    -1.12536
      29     86.42    -1.11496 ( 89.92%)    -0.89446 ( 10.08%)    -1.09274
      30     87.52    -1.10758 ( 90.37%)    -0.89071 (  9.63%)    -1.08670
      31     98.20    -1.04049 ( 93.70%)    -0.85660 (  6.30%)    -1.02891
      32    101.70    -1.02014 ( 94.48%)    -0.84623 (  5.52%)    -1.01053
      33    105.48    -0.99891 ( 95.19%)    -0.83539 (  4.81%)    -0.99105
      34    110.33    -0.97289 ( 95.95%)    -0.82209 (  4.05%)    -0.96679
      35    113.59    -0.95608 ( 96.38%)    -0.81347 (  3.62%)    -0.95091
      36    118.22    -0.93297 ( 96.90%)    -0.80162 (  3.10%)    -0.92890
      37    120.55    -0.92174 ( 97.13%)    -0.79585 (  2.87%)    -0.91813
      38    141.06    -0.83169 ( 98.45%)    -0.74931 (  1.55%)    -0.83041
      39    143.29    -0.82273 ( 98.54%)    -0.74465 (  1.46%)    -0.82159
      40    153.40    -0.78402 ( 98.88%)    -0.72445 (  1.12%)    -0.78336
      41    156.22    -0.77373 ( 98.96%)    -0.71906 (  1.04%)    -0.77316
      42    167.46    -0.73457 ( 99.21%)    -0.69847 (  0.79%)    -0.73428
      43    173.21    -0.71567 ( 99.31%)    -0.68847 (  0.69%)    -0.71548
      44    188.46    -0.66873 ( 99.51%)    -0.66348 (  0.49%)    -0.66871
      45    190.30    -0.66334 ( 99.53%)    -0.66059 (  0.47%)    -0.66333
      46    202.71    -0.62860 ( 99.63%)    -0.64188 (  0.37%)    -0.62865
      47    204.45    -0.62393 ( 99.64%)    -0.63935 (  0.36%)    -0.62399
      48    209.90    -0.60959 ( 99.68%)    -0.63156 (  0.32%)    -0.60966
      49    216.54    -0.59268 ( 99.72%)    -0.62234 (  0.28%)    -0.59276
      50    221.72    -0.57990 ( 99.74%)    -0.61533 (  0.26%)    -0.57999
      51    222.00    -0.57923 ( 99.74%)    -0.61496 (  0.26%)    -0.57932
      52    224.73    -0.57263 ( 99.76%)    -0.61133 (  0.24%)    -0.57273
      53    226.94    -0.56739 ( 99.76%)    -0.60844 (  0.24%)    -0.56748
      54    230.44    -0.55918 ( 99.78%)    -0.60390 (  0.22%)    -0.55928
      55    234.65    -0.54952 ( 99.79%)    -0.59854 (  0.21%)    -0.54962
      56    236.26    -0.54588 ( 99.80%)    -0.59652 (  0.20%)    -0.54598
      57    237.44    -0.54322 ( 99.80%)    -0.59503 (  0.20%)    -0.54332
      58    244.36    -0.52800 ( 99.83%)    -0.58653 (  0.17%)    -0.52810
      59    249.31    -0.51743 ( 99.84%)    -0.58059 (  0.16%)    -0.51753
      60    253.80    -0.50805 ( 99.85%)    -0.57529 (  0.15%)    -0.50815
      61    254.19    -0.50725 ( 99.85%)    -0.57484 (  0.15%)    -0.50735
      62    263.96    -0.48761 ( 99.87%)    -0.56368 (  0.13%)    -0.48771
      63    265.28    -0.48502 ( 99.87%)    -0.56219 (  0.13%)    -0.48512
      64    266.56    -0.48252 ( 99.88%)    -0.56076 (  0.12%)    -0.48262
      65    284.87    -0.44848 ( 99.91%)    -0.54108 (  0.09%)    -0.44857
      66    285.20    -0.44791 ( 99.91%)    -0.54075 (  0.09%)    -0.44800
   ------------------------------------------------------------------------

   temp. (K)  partition function   enthalpy   heat capacity  entropy
                                   cal/mol     cal/K/mol   cal/K/mol   J/K/mol
 298.15  VIB  0.114E+37            40641.035    232.414    266.931
         ROT  0.400E+09              888.752      2.981     42.340
         INT  0.456E+45            41529.787    235.395    309.271
         TR   0.250E+29             1481.254      4.968     46.156
         TOT                       43011.0412   240.3635   355.4273  1487.1080

       T/K    H(0)-H(T)+PV         H(T)/Eh          T*S/Eh         G(T)/Eh
   ------------------------------------------------------------------------
    298.15    0.685425E-01    0.114789E+01    0.168875E+00    0.979016E+00
   ------------------------------------------------------------------------

         :::::::::::::::::::::::::::::::::::::::::::::::::::::
         ::                  THERMODYNAMIC                  ::
         :::::::::::::::::::::::::::::::::::::::::::::::::::::
         :: total free energy        -176.575509502533 Eh   ::
         ::.................................................::
         :: total energy             -177.554525612552 Eh   ::
         :: zero point energy           1.079348647554 Eh   ::
         :: G(RRHO) w/o ZPVE           -0.100332537534 Eh   ::
         :: G(RRHO) contrib.            0.979016110019 Eh   ::
         :::::::::::::::::::::::::::::::::::::::::::::::::::::

optimized geometry written to: xtbopt.xyz


           -------------------------------------------------
          | TOTAL ENERGY             -177.554525612552 Eh   |
          | TOTAL ENTHALPY           -176.406634507857 Eh   |
          | TOTAL FREE ENERGY        -176.575509502533 Eh   |
          | GRADIENT NORM               0.000103937635 Eh/α |
           -------------------------------------------------

------------------------------------------------------------------------
 * finished run on 2025/09/06 at 05:55:12.738     
------------------------------------------------------------------------
 total:
 * wall-time:     0 d,  0 h,  0 min, 28.508 sec
 *  cpu-time:     0 d,  0 h, 17 min, 39.288 sec
 * ratio c/w:    37.157 speedup
 SCF:
 * wall-time:     0 d,  0 h,  0 min,  0.469 sec
 *  cpu-time:     0 d,  0 h,  0 min, 18.489 sec
 * ratio c/w:    39.441 speedup
 ANC optimizer:
 * wall-time:     0 d,  0 h,  0 min, 10.180 sec
 *  cpu-time:     0 d,  0 h,  6 min, 47.061 sec
 * ratio c/w:    39.988 speedup
 analytical hessian:
 * wall-time:     0 d,  0 h,  0 min, 17.743 sec
 *  cpu-time:     0 d,  0 h, 10 min, 31.194 sec
 * ratio c/w:    35.574 speedup

