$hessian                                                                        
        0.4956360514  -0.0273424417  -0.0177858003  -0.1357048884  -0.0529741974
       -0.0382830627  -0.0050621756  -0.0085703202   0.0005112089  -0.0000536036
       -0.0002349272  -0.0001914039   0.0000406593   0.0001359136   0.0000263457
       -0.0000011392   0.0000105835  -0.0000437831  -0.0000546479  -0.0000405487
        0.0000520339   0.0000066988  -0.0000108465   0.0000130158  -0.0000102699
       -0.0000368776   0.0000373162   0.0000292256   0.0000085868  -0.0000038108
        0.0000288533   0.0000199660   0.0000640210  -0.0000053062   0.0000187955
        0.0000021591  -0.0000276451  -0.0000073337  -0.0000011100  -0.0000142138
       -0.0000062390   0.0000017776   0.0000092682   0.0000115733   0.0000045249
        0.0000018421   0.0000036986   0.0000110176  -0.0000192809   0.0000007404
        0.0000028626   0.0000110179   0.0000044020   0.0000006705  -0.0000042701
        0.0000003533   0.0000006234  -0.0000015425  -0.0000039051   0.0000002418
        0.0000061136  -0.0000060407  -0.0000065880  -0.0000008503  -0.0000021422
        0.0000008766  -0.0000005734  -0.0000003382   0.0000000249  -0.0000003594
       -0.0000002655   0.0000006980   0.0000008934  -0.0000001495  -0.0000029661
       -0.0000007123   0.0000012152  -0.0000017594   0.0000000817   0.0000006596
        0.0000003675   0.0000102708  -0.0000016720  -0.0000006037  -0.0000056333
       -0.0000000154  -0.0000000449   0.0000110699   0.0000024299   0.0000016312
       -0.0000124008   0.0000016022   0.0000000607   0.0000081868  -0.0000013303
        0.0000002087  -0.0000083315  -0.0000010459  -0.0000010144   0.0000057297
       -0.0000030875  -0.0000008707   0.0000000623   0.0000022075   0.0000017891
        0.0000264071  -0.0000077898  -0.0000045874  -0.0000075292  -0.0000257694
       -0.0000069952   0.0000000720   0.0000133558  -0.0000018297  -0.0000237691
        0.0000170339   0.0000120662   0.0000101182  -0.0000108576  -0.0000016359
       -0.0000127045  -0.0000089479  -0.0000054486  -0.0000007585  -0.0000122860
        0.0000002989  -0.0000011813   0.0000052401  -0.0000016596   0.0000034289
       -0.0000028927   0.0000022940   0.0000032820  -0.0000128268  -0.0000031727
        0.0000017127   0.0000100689   0.0000037465  -0.0000058948  -0.0000045833
       -0.0000006813  -0.0000040376  -0.0000056139  -0.0000012334  -0.0000027989
       -0.0000028511  -0.0000014100  -0.0000110845   0.0000027242   0.0000015503
        0.0000031675   0.0000069651   0.0000021545  -0.0000002555   0.0000003225
        0.0000029449   0.0000007093   0.0000001253   0.0000001374  -0.0000002734
       -0.0000004821   0.0000000258   0.0000000811   0.0000013448  -0.0000026101
       -0.0000000791   0.0000007205  -0.0000000778  -0.0000005193  -0.0000002098
       -0.0000007388  -0.0000006074  -0.0000041064  -0.0000010704   0.0000025814
        0.0000014052   0.0000004864  -0.0000005943  -0.0000023200  -0.0000004697
        0.0000023945   0.0000011127   0.0000002236  -0.0000030155  -0.0000003897
        0.0000001901  -0.0000034030   0.0000003066   0.0000004013  -0.0000013933
        0.0000011084   0.0000005485   0.0000078958  -0.0000030636  -0.0000008151
       -0.0000034833   0.0000162786   0.0000232530  -0.0000275171   0.0000217585
       -0.0000177562  -0.0440421284  -0.0117397236   0.0097311928  -0.2309819757
        0.0993334893   0.0043023279  -0.0579601690   0.0151771672   0.0539836843
       -0.0263294476  -0.0153324109  -0.0127568016   0.0036756545   0.0016192523
        0.0006665918   0.0004648972  -0.0013147420   0.0005762154   0.0002764244
        0.0003162261  -0.0004642904  -0.0000453651  -0.0001217395   0.0000334484
        0.0001374157   0.0010826231  -0.0002581368  -0.0000449515  -0.0000222789
        0.0000101247   0.0000106207  -0.0000027751   0.0000164671  -0.0000236437
        0.0000413042  -0.0000214756   0.0001331113  -0.0000252156  -0.0001737370
        0.0000077742   0.0000074458   0.0000008175  -0.0000404608   0.0000048142
        0.0000279114   0.0000346337  -0.0000019361   0.0000008118  -0.0000179539
        0.0000207927  -0.0000136751   0.0000025301   0.0000173280   0.0000132151
       -0.0000472221   0.0000115209  -0.0000458335  -0.0000004854  -0.0000076438
       -0.0000115525   0.0000030240  -0.0000000228  -0.0000014614   0.0000011105
       -0.0000002683  -0.0000014578   0.0000014440   0.0000001639  -0.0000003879
       -0.0000001069   0.0000016672   0.0000005281   0.0000010177  -0.0000001636
       -0.0000018383   0.0000006760   0.0000003017  -0.0000004617   0.0000012031
       -0.0000002708  -0.0000007893  -0.0000003575   0.0000005861  -0.0000006219
       -0.0000000009  -0.0000000717   0.0000012169   0.0000000300   0.0000021981
        0.0000014925  -0.0000005436  -0.0000026776   0.0000022381   0.0000002312
       -0.0000013786   0.0000008941   0.0000003411   0.0000003640   0.0000003345
        0.0000017362  -0.0000003333  -0.0000010849  -0.0000007742   0.0000005794
        0.0000004470  -0.0000004516  -0.0000007693   0.0000010112  -0.0000002166
       -0.0000011174  -0.0000010495   0.0000019220   0.0000013059   0.0000010251
       -0.0000017111  -0.0000003467  -0.0000004486  -0.0000004683  -0.0000069339
       -0.0000045128   0.0000003592  -0.0000058619  -0.0000025756  -0.0000028370
       -0.0000037714   0.0000009040   0.0000012300  -0.0000047014  -0.0000012919
        0.0000064260   0.0000008104  -0.0000032085   0.0000001127   0.0000015424
        0.0000009277   0.0000014310   0.0000004941   0.0000005453   0.0000007682
        0.0000011739  -0.0000008469   0.0000006934   0.0000000617  -0.0000000427
       -0.0000004459  -0.0000009163  -0.0000002053  -0.0000012260  -0.0000001530
       -0.0000002241  -0.0000003817  -0.0000005483  -0.0000002363   0.0000004631
        0.0000005600  -0.0000001547   0.0000000741   0.0000003468   0.0000000503
        0.0000001211   0.0000003271   0.0000010235  -0.0000012870  -0.0000017113
        0.0000005411   0.0000015560   0.0000010939  -0.0000004292   0.0000002151
       -0.0000003794  -0.0000003526   0.0000000347  -0.0000000631   0.0000006784
       -0.0000003754  -0.0000009463   0.0000002810   0.0000002675  -0.0000003782
       -0.0000000588  -0.0000012455  -0.0000004725   0.0000001405  -0.0000005767
        0.0000001100   0.0000003095   0.0000007230   0.0000010150   0.0000003856
        0.0000074053  -0.0000178269  -0.0000173266
       -0.0273424417   0.4982919054  -0.0159924575  -0.0547078778  -0.1100620961
       -0.0324838265  -0.0197329762  -0.0197910303  -0.0058464444   0.0000975056
        0.0004219716  -0.0001391806  -0.0002376277   0.0000188654  -0.0000723479
       -0.0000094793   0.0000597776  -0.0000298884   0.0000069319   0.0000710508
       -0.0001188098  -0.0000169271  -0.0000092783  -0.0000383907  -0.0000133393
       -0.0000120326  -0.0000018063  -0.0001090123   0.0000514446   0.0000187315
       -0.0000386860   0.0000077696  -0.0000367007  -0.0000185794  -0.0000433096
       -0.0000107410   0.0000972370   0.0000216426   0.0000023834   0.0000803453
        0.0000151235   0.0000022045  -0.0000498074  -0.0000189071  -0.0000056636
        0.0000032569  -0.0000269877  -0.0000221150   0.0000062119  -0.0000031048
       -0.0000037503  -0.0000019007  -0.0000049555  -0.0000015549  -0.0000068810
        0.0000018932   0.0000015980  -0.0000103718   0.0000181078   0.0000075942
       -0.0000014746   0.0000040842   0.0000039237   0.0000001590   0.0000020485
       -0.0000000794  -0.0000008436  -0.0000001849  -0.0000004260  -0.0000001900
        0.0000006149  -0.0000011966  -0.0000003012  -0.0000011491   0.0000030103
        0.0000006127  -0.0000000795   0.0000003764   0.0000002036  -0.0000006024
        0.0000003409  -0.0000080227   0.0000026720   0.0000010687   0.0000027681
        0.0000011207   0.0000004801  -0.0000048007  -0.0000005622  -0.0000004268
        0.0000065542  -0.0000010393   0.0000001928  -0.0000061916   0.0000018340
        0.0000000141   0.0000038800   0.0000010560   0.0000004315  -0.0000032471
       -0.0000033946  -0.0000023764  -0.0000008298   0.0000018226   0.0000006161
       -0.0000240994  -0.0000230086  -0.0000100179  -0.0000021503   0.0000217654
        0.0000069480   0.0000293310  -0.0000406166  -0.0000070415  -0.0000442154
        0.0000308334   0.0000031199   0.0000063721  -0.0000193950  -0.0000110560
       -0.0000039576  -0.0000227439  -0.0000162913   0.0000708455   0.0000126233
       -0.0000078787  -0.0000099316   0.0000034234   0.0000001648  -0.0000173127
       -0.0000050353   0.0000026067   0.0000127536  -0.0000057694  -0.0000018413
        0.0000026958   0.0000027747  -0.0000010710   0.0000034746   0.0000004069
       -0.0000003484  -0.0000096779  -0.0000034179  -0.0000006499   0.0000020519
       -0.0000005259  -0.0000003702  -0.0000021301   0.0000079802   0.0000025279
       -0.0000019685   0.0000010215   0.0000001853  -0.0000006029  -0.0000000531
        0.0000020316   0.0000004832   0.0000007748  -0.0000007126  -0.0000009564
       -0.0000000287   0.0000002231  -0.0000000055   0.0000009743  -0.0000017184
        0.0000002496   0.0000012871   0.0000020701  -0.0000006810   0.0000003695
       -0.0000005378  -0.0000036654  -0.0000018691  -0.0000003725   0.0000053548
        0.0000004664  -0.0000000700  -0.0000090563  -0.0000007999   0.0000000325
        0.0000107643   0.0000021011   0.0000004210  -0.0000060865  -0.0000011511
       -0.0000001960   0.0000002168   0.0000016300   0.0000002152  -0.0000005592
       -0.0000015713  -0.0000007091   0.0000044015  -0.0000011409  -0.0000002360
       -0.0000671262  -0.0000238945   0.0000935476   0.0000350378  -0.0000421719
        0.0000814023  -0.0117133124  -0.2113238277   0.1097002750   0.0999640081
       -0.0949685382  -0.0012647915   0.0150507969  -0.0579170175  -0.0530099964
        0.0082401727   0.0070035394   0.0049570992  -0.0078376472  -0.0066961118
       -0.0070026870  -0.0014653231  -0.0042551405   0.0022286926   0.0003827757
        0.0010226403  -0.0012182107  -0.0001739272  -0.0002562257  -0.0000708931
       -0.0005232574  -0.0013659038   0.0002246692   0.0000540725  -0.0000305173
       -0.0000531232  -0.0000133324  -0.0000127319   0.0000079505   0.0000395936
       -0.0000635531   0.0000416489  -0.0001039803   0.0000411545   0.0000673616
        0.0000031958   0.0000013536   0.0000298968   0.0000372855  -0.0000053135
       -0.0000252719  -0.0000322048   0.0000070114  -0.0000051940   0.0000203809
       -0.0000098158   0.0000136820   0.0000121807   0.0000011710   0.0000001634
        0.0000083471  -0.0000023030   0.0000248028  -0.0000064788   0.0000094053
        0.0000152092   0.0000047852   0.0000039049   0.0000042672  -0.0000027737
       -0.0000029152  -0.0000010190  -0.0000005074  -0.0000006210  -0.0000001622
       -0.0000002424  -0.0000016225  -0.0000004756  -0.0000014613  -0.0000009090
        0.0000014549   0.0000005892   0.0000001429   0.0000007256   0.0000001847
       -0.0000001267   0.0000003906  -0.0000005679  -0.0000007702   0.0000003042
        0.0000000199  -0.0000002487  -0.0000006118  -0.0000009697  -0.0000025715
       -0.0000013201   0.0000010916   0.0000025974  -0.0000021407  -0.0000003354
        0.0000018919  -0.0000004644   0.0000001620  -0.0000006215  -0.0000001684
       -0.0000007445   0.0000005160   0.0000002838  -0.0000002405  -0.0000009628
       -0.0000003824   0.0000005639   0.0000011965  -0.0000013024   0.0000002990
        0.0000005157   0.0000005221  -0.0000004218  -0.0000003222  -0.0000002676
        0.0000015534   0.0000015206   0.0000017653   0.0000077466   0.0000072383
        0.0000058735   0.0000090675   0.0000006122   0.0000032430  -0.0000056056
       -0.0000148590  -0.0000005597   0.0000045176  -0.0000111650  -0.0000008225
        0.0000044820  -0.0000080909  -0.0000009753  -0.0000036712  -0.0000000760
        0.0000005173   0.0000014414  -0.0000007710  -0.0000004363   0.0000000858
       -0.0000002216   0.0000004667   0.0000011325   0.0000005411   0.0000003645
       -0.0000004591  -0.0000007646   0.0000003260  -0.0000010170  -0.0000005460
        0.0000000765  -0.0000015917  -0.0000013778  -0.0000008641   0.0000002519
        0.0000001258   0.0000000907   0.0000011072  -0.0000001154   0.0000002462
        0.0000003427  -0.0000001524  -0.0000003514  -0.0000018356  -0.0000013293
        0.0000004457   0.0000000995   0.0000004310  -0.0000006401   0.0000001007
       -0.0000005489  -0.0000007591   0.0000000644   0.0000000778   0.0000005191
       -0.0000020327  -0.0000013471   0.0000001565   0.0000014287  -0.0000007789
        0.0000002308  -0.0000012814  -0.0000009050  -0.0000001040  -0.0000012169
       -0.0000001826   0.0000001771  -0.0000000206  -0.0000003246   0.0000002501
        0.0000788266  -0.0000566701  -0.0000393141
       -0.0177858003  -0.0159924575   0.5136622459  -0.0381212804  -0.0319836195
       -0.0883556863   0.0099679024   0.0077991418   0.0051684307   0.0001696690
       -0.0001224607   0.0002131762   0.0000451744   0.0000748000   0.0000420389
       -0.0000269631  -0.0000396271  -0.0000000371   0.0000023298  -0.0001409976
        0.0000747741  -0.0000371761   0.0000421827   0.0000411702   0.0000196170
        0.0000036041   0.0000051173   0.0000665617  -0.0000265902  -0.0000424291
       -0.0000189748  -0.0000079177  -0.0000105261   0.0000112647   0.0000026654
        0.0000052698   0.0000079749   0.0000026066  -0.0000022109  -0.0000018146
       -0.0000004548   0.0000017161   0.0000078358   0.0000061830   0.0000034371
       -0.0000039447  -0.0000046633  -0.0000044891  -0.0000032972   0.0000039432
        0.0000009769  -0.0000061205   0.0000010320   0.0000008646  -0.0000007515
       -0.0000003044   0.0000000499  -0.0000080337  -0.0000001033  -0.0000003620
        0.0000015129  -0.0000031530  -0.0000016146   0.0000002597  -0.0000013596
        0.0000008850   0.0000000919   0.0000004034   0.0000014235   0.0000000673
        0.0000005358   0.0000007975  -0.0000007724  -0.0000001591  -0.0000014059
        0.0000013228  -0.0000015394  -0.0000001008   0.0000003423  -0.0000009803
       -0.0000001089  -0.0000022347   0.0000014041   0.0000005571   0.0000048895
        0.0000003303   0.0000001043  -0.0000093276   0.0000019960   0.0000002021
        0.0000144601  -0.0000029452  -0.0000003803  -0.0000081118   0.0000016301
       -0.0000003500  -0.0000002906  -0.0000005216  -0.0000010363  -0.0000009973
        0.0000011781  -0.0000004270   0.0000086833   0.0000022781   0.0000009221
       -0.0000017169   0.0000043786   0.0000013534  -0.0000032544  -0.0000060199
        0.0000025697   0.0000000951   0.0000062584   0.0000073728   0.0000100739
        0.0000048016   0.0000191679   0.0000083301  -0.0000083968   0.0000014160
       -0.0000078773   0.0000057989   0.0000063186  -0.0000136767   0.0000069483
        0.0000168867  -0.0000165769   0.0000054918  -0.0000032296  -0.0000038482
        0.0000006396   0.0000021861  -0.0000110856   0.0000039455   0.0000025948
        0.0000139971  -0.0000006953  -0.0000041319  -0.0000013290   0.0000044346
       -0.0000000838   0.0000075795   0.0000005746  -0.0000001455  -0.0000031343
       -0.0000023596   0.0000001016   0.0000104408   0.0000004063  -0.0000012043
       -0.0000011525  -0.0000008871   0.0000004368   0.0000002959   0.0000007330
       -0.0000004722  -0.0000005878  -0.0000004319   0.0000006078  -0.0000003969
        0.0000002681   0.0000003012  -0.0000001351   0.0000004605   0.0000017693
        0.0000000690   0.0000001796   0.0000004585  -0.0000004891   0.0000008189
        0.0000011197   0.0000045413   0.0000025897   0.0000005070  -0.0000036902
       -0.0000002320  -0.0000003034   0.0000070901   0.0000001697  -0.0000004276
       -0.0000123212  -0.0000027073   0.0000001087   0.0000071240   0.0000009751
       -0.0000007101  -0.0000015194   0.0000006603  -0.0000005313   0.0000043024
        0.0000021538  -0.0000004841  -0.0000101278  -0.0000013767  -0.0000004994
        0.0000487385   0.0000381583  -0.0000737747  -0.0000602519  -0.0000007760
       -0.0000716500   0.0097320631   0.1098773957  -0.1158486152   0.0039973377
       -0.0013033602  -0.0452056218   0.0537638629  -0.0533180963  -0.2542563644
       -0.0032012342  -0.0013985295  -0.0002811651  -0.0208522923  -0.0184510083
       -0.0152968976   0.0013145750   0.0033549850  -0.0010438813   0.0008887826
        0.0011891290   0.0011749227   0.0000007088   0.0001505886  -0.0000149974
        0.0001513110   0.0000740802   0.0000243984   0.0000163422   0.0000333917
        0.0000440096   0.0000202769   0.0000081344   0.0000241156   0.0000370398
        0.0000016610  -0.0000103800  -0.0001212056   0.0001529126   0.0000087861
        0.0000133090  -0.0000389480  -0.0000113797   0.0000475653   0.0000203683
       -0.0000431883  -0.0000543235  -0.0000217520   0.0000036776   0.0000314993
       -0.0000163453  -0.0000024854  -0.0000129219   0.0000093033  -0.0000159378
        0.0000099606  -0.0000146937  -0.0000022058   0.0000030151  -0.0000015945
        0.0000001980   0.0000002944  -0.0000021146  -0.0000003917   0.0000005743
       -0.0000013807  -0.0000002640  -0.0000008232   0.0000010576   0.0000001343
        0.0000000287  -0.0000000470  -0.0000004758   0.0000004606  -0.0000002307
        0.0000003116  -0.0000005395  -0.0000003733  -0.0000000625  -0.0000003648
        0.0000005086   0.0000004865  -0.0000002231  -0.0000000055   0.0000002157
        0.0000000385   0.0000006043  -0.0000010061  -0.0000002251  -0.0000005830
       -0.0000002669  -0.0000001018   0.0000006389  -0.0000005869  -0.0000001527
        0.0000011658   0.0000000126  -0.0000005554  -0.0000008900   0.0000000773
       -0.0000002934  -0.0000001159   0.0000009982  -0.0000006418  -0.0000008541
       -0.0000000177  -0.0000001094   0.0000005957  -0.0000004741  -0.0000009894
        0.0000001565   0.0000002109  -0.0000007398  -0.0000003190  -0.0000002591
        0.0000002006  -0.0000013615  -0.0000005580  -0.0000031039   0.0000055539
        0.0000034510   0.0000001759   0.0000050565   0.0000041947  -0.0000010019
        0.0000077233   0.0000047643   0.0000049800   0.0000062378   0.0000045926
       -0.0000052149   0.0000013914   0.0000018931   0.0000022520  -0.0000030512
       -0.0000002639  -0.0000014935  -0.0000036932  -0.0000004637  -0.0000001547
        0.0000003849  -0.0000008072   0.0000007315  -0.0000013838  -0.0000006685
       -0.0000002843  -0.0000001797   0.0000000375   0.0000003843  -0.0000005806
        0.0000000996   0.0000000657  -0.0000002155   0.0000006449  -0.0000001051
       -0.0000002973  -0.0000002734   0.0000007476  -0.0000011032  -0.0000001143
       -0.0000003447  -0.0000009374  -0.0000008887   0.0000003846   0.0000005354
        0.0000004068  -0.0000000376   0.0000000001   0.0000008360   0.0000000315
       -0.0000005800  -0.0000012733  -0.0000000601  -0.0000001244  -0.0000006080
        0.0000003983   0.0000001927   0.0000004647  -0.0000001366  -0.0000001404
        0.0000002888  -0.0000002650  -0.0000003385   0.0000001487   0.0000006400
       -0.0000007006  -0.0000001633  -0.0000004651  -0.0000013282  -0.0000002338
       -0.0000432082   0.0000004808   0.0000282386
       -0.1357048884  -0.0547078778  -0.0381212804   0.5054963026  -0.0293608811
       -0.0140453766  -0.0676082907  -0.0150254601   0.0111341109   0.0021259699
        0.0181816765  -0.0105406010  -0.0031118487   0.0032935452   0.0000742490
       -0.0000598276  -0.0000888120   0.0001573901   0.0000442683   0.0001110866
       -0.0000922711  -0.0000158966  -0.0000256318  -0.0000076868   0.0000019571
        0.0000044938  -0.0000123542   0.0002235884   0.0005918893  -0.0006831415
       -0.0001426945   0.0001081930   0.0000754371   0.0000437048  -0.0001020292
        0.0000357606   0.0000231145   0.0000106228  -0.0000024334  -0.0000133267
       -0.0000060607   0.0000011038   0.0000156065   0.0000048876   0.0000022027
       -0.0000191288   0.0000065004   0.0000099405   0.0000060063   0.0000039587
        0.0000031697  -0.0000098685  -0.0000021589  -0.0000008129   0.0000042684
        0.0000017777  -0.0000002279  -0.0000063786  -0.0000062984  -0.0000003800
        0.0000007231  -0.0000003364  -0.0000011341  -0.0000008842  -0.0000001177
        0.0000007117   0.0000006896   0.0000007105  -0.0000001497  -0.0000001927
        0.0000001245   0.0000008493  -0.0000008475   0.0000033794  -0.0000015134
        0.0000001595   0.0000014669   0.0000002854  -0.0000011258   0.0000018765
       -0.0000000838  -0.0000043273  -0.0000001421   0.0000007744   0.0000035423
        0.0000009253   0.0000011813  -0.0000049555  -0.0000003900  -0.0000004814
        0.0000057818  -0.0000003841  -0.0000007664  -0.0000023577  -0.0000009636
        0.0000007707   0.0000013721  -0.0000002808   0.0000003406  -0.0000035896
        0.0000015981   0.0000021033   0.0000074630   0.0000000593  -0.0000003903
        0.0000410366   0.0000302977   0.0000084133  -0.0000470070   0.0000068787
        0.0000945245   0.0000187565   0.0001293548   0.0001152213  -0.0001494579
        0.0000729323  -0.0000010543   0.0000696222  -0.0000110166   0.0000056017
       -0.0000788335  -0.0000062265  -0.0000243095   0.0000633713  -0.0001013646
       -0.0000520453   0.0000086007   0.0000077932   0.0000029276   0.0000108227
       -0.0000134982  -0.0000011534   0.0000040850  -0.0000027325  -0.0000005862
       -0.0000178507  -0.0000087980  -0.0000115406   0.0000033276  -0.0000043852
       -0.0000034469  -0.0000047499   0.0000034642   0.0000019834  -0.0000068363
       -0.0000039558   0.0000004180   0.0000002488   0.0000022113  -0.0000002122
       -0.0000008670   0.0000039439   0.0000024724   0.0000020740  -0.0000017428
       -0.0000028729  -0.0000021022  -0.0000019721   0.0000015726   0.0000010792
       -0.0000004732  -0.0000003529  -0.0000007146  -0.0000017570   0.0000035560
        0.0000013741  -0.0000006491  -0.0000023029  -0.0000018189  -0.0000004455
        0.0000003347   0.0000063890   0.0000021413   0.0000006923  -0.0000061528
       -0.0000026529  -0.0000004083   0.0000095651   0.0000012017   0.0000005220
       -0.0000176577  -0.0000043546   0.0000001644   0.0000116716   0.0000038108
        0.0000000201  -0.0000020279   0.0000016206   0.0000006700   0.0000013025
       -0.0000038527  -0.0000020579  -0.0000044366   0.0000013798   0.0000007430
       -0.0001486137   0.0000464857   0.0002083888  -0.0002213715  -0.0001231295
       -0.0000218804  -0.0039479382  -0.0047865112  -0.0011582430  -0.0253649112
       -0.0150068252  -0.0118218420   0.0039531908   0.0017809965  -0.0002098866
       -0.2088915034   0.1032457405  -0.0056614589  -0.0604367279   0.0173745426
        0.0551659700  -0.0068986100  -0.0218733011   0.0129359346  -0.0000699416
       -0.0038445965   0.0036339792   0.0002207517   0.0002623056  -0.0004356432
        0.0004053983   0.0002010433  -0.0006147300   0.0000719982  -0.0000425906
       -0.0000510329   0.0000419095  -0.0000694630   0.0000123939   0.0000303389
       -0.0000166655   0.0000443629  -0.0000933043  -0.0000407754  -0.0000500656
        0.0000006680  -0.0000223998   0.0000431436   0.0000207937   0.0000046283
       -0.0000182422  -0.0000231556  -0.0000360529  -0.0000055275   0.0000083322
       -0.0000001834   0.0000007833   0.0000008292   0.0000082620   0.0000104570
       -0.0000286418  -0.0000079025  -0.0000546747   0.0000070526  -0.0000068231
       -0.0000074464  -0.0000033363  -0.0000032094  -0.0000036247   0.0000010189
       -0.0000002478  -0.0000016240   0.0000003944   0.0000004695  -0.0000002491
       -0.0000003213  -0.0000003552  -0.0000005954   0.0000006116   0.0000000421
        0.0000001191  -0.0000003861  -0.0000007669  -0.0000002293  -0.0000000338
        0.0000001008  -0.0000001545   0.0000000776  -0.0000005290  -0.0000006453
        0.0000004110  -0.0000001763   0.0000004297  -0.0000002678   0.0000010437
       -0.0000005094   0.0000001005  -0.0000032623   0.0000007604   0.0000006987
       -0.0000021201   0.0000007516  -0.0000002363   0.0000002132  -0.0000002686
        0.0000007571   0.0000002687  -0.0000001187  -0.0000002295   0.0000007645
       -0.0000001839  -0.0000000381  -0.0000019534   0.0000010761   0.0000000117
       -0.0000006693  -0.0000008395  -0.0000001351   0.0000001659  -0.0000000037
        0.0000005612  -0.0000012004  -0.0000013238  -0.0000003993   0.0000100092
       -0.0000169270  -0.0000039198   0.0000094566   0.0000052880  -0.0000050720
       -0.0000084635   0.0000063499   0.0000100381  -0.0000175365  -0.0000066487
        0.0000098346  -0.0000041980   0.0000083170  -0.0000071042   0.0000007566
        0.0000034971  -0.0000006172   0.0000071139   0.0000037296   0.0000000977
        0.0000001005  -0.0000014706  -0.0000011086   0.0000006640   0.0000007770
        0.0000006355   0.0000016934  -0.0000013088  -0.0000003251  -0.0000002819
       -0.0000003509   0.0000019116   0.0000020631   0.0000017092  -0.0000001026
       -0.0000004952  -0.0000003919  -0.0000016453   0.0000007831  -0.0000000387
        0.0000001684  -0.0000006006  -0.0000008488   0.0000019617   0.0000018053
       -0.0000005650   0.0000017852   0.0000001378   0.0000004346  -0.0000001397
        0.0000001831   0.0000008399   0.0000005835  -0.0000006330  -0.0000009230
        0.0000016471   0.0000002479   0.0000002585  -0.0000017836   0.0000022343
       -0.0000005730   0.0000011738   0.0000025452   0.0000009124   0.0000003974
       -0.0000017491   0.0000001208  -0.0000014077   0.0000006607   0.0000017834
        0.0001502857  -0.0001399608  -0.0000682685
       -0.0529741974  -0.1100620961  -0.0319836195  -0.0293608811   0.4731919134
        0.0195912785  -0.0184266408  -0.1462609233   0.0563314626   0.0037021026
       -0.0226035619   0.0114511517   0.0025289991  -0.0016063818  -0.0007372054
       -0.0001140416   0.0001261395  -0.0001096452  -0.0000343273  -0.0000111561
       -0.0000735046   0.0000017939   0.0000109236  -0.0000153132  -0.0000091281
        0.0000011298  -0.0000045199   0.0000612918  -0.0007736554   0.0004435690
        0.0000117086  -0.0000295197  -0.0000300173   0.0000038117   0.0000455688
       -0.0000408301   0.0000054922  -0.0000041636   0.0000005495  -0.0000104971
       -0.0000034262  -0.0000011230   0.0000168720   0.0000050299   0.0000007359
       -0.0000127429   0.0000009800   0.0000025170   0.0000069349   0.0000044312
        0.0000028242  -0.0000070818  -0.0000012440  -0.0000003924   0.0000035932
       -0.0000017473  -0.0000013562  -0.0000047809  -0.0000001651  -0.0000005865
        0.0000008438   0.0000002616   0.0000003006   0.0000009536  -0.0000003745
        0.0000003154   0.0000015735   0.0000000959   0.0000005301   0.0000010074
        0.0000001051  -0.0000000224   0.0000000071   0.0000010102  -0.0000005952
        0.0000015566   0.0000000100   0.0000003079   0.0000007911   0.0000002698
       -0.0000002691  -0.0000058877   0.0000025893   0.0000013060   0.0000052798
        0.0000005386   0.0000004866  -0.0000074951  -0.0000005635  -0.0000007514
        0.0000111246  -0.0000017073  -0.0000005724  -0.0000080965   0.0000008629
        0.0000001059   0.0000041048   0.0000007553   0.0000002493  -0.0000054858
        0.0000019811   0.0000013058   0.0000114420  -0.0000005218  -0.0000008018
       -0.0000041778  -0.0000102998  -0.0000056342  -0.0000106785  -0.0000117324
       -0.0000702721   0.0001128588  -0.0001002554  -0.0000575831   0.0000545212
        0.0000381079   0.0000411870  -0.0000233940  -0.0000401702  -0.0000176102
       -0.0000012520  -0.0000117388  -0.0000218895   0.0000008356  -0.0000165628
        0.0000223259   0.0000191997   0.0000147783  -0.0000012909   0.0000617893
       -0.0000192133  -0.0000053148  -0.0000453404   0.0000031034   0.0000019676
        0.0000161500   0.0000156270   0.0000062489  -0.0000139056   0.0000032262
        0.0000023133   0.0000136781   0.0000010809  -0.0000004606  -0.0000143073
       -0.0000061049  -0.0000004960  -0.0000012406  -0.0000072854  -0.0000034045
        0.0000012319   0.0000038108   0.0000015976   0.0000007264   0.0000022171
       -0.0000017635  -0.0000024707   0.0000004197   0.0000013675  -0.0000007509
        0.0000012060  -0.0000004021  -0.0000006179   0.0000004212   0.0000017929
       -0.0000018371  -0.0000014070  -0.0000002179  -0.0000013691  -0.0000001958
       -0.0000001494   0.0000104030   0.0000056912   0.0000018124  -0.0000095406
        0.0000011314   0.0000003041   0.0000150762  -0.0000013065  -0.0000008388
       -0.0000229793  -0.0000042018  -0.0000007236   0.0000156851   0.0000024157
        0.0000002525  -0.0000068689   0.0000011428   0.0000001356   0.0000095614
        0.0000044320   0.0000017403  -0.0000192342  -0.0000037085  -0.0000013583
       -0.0001212476   0.0000752850   0.0000475787   0.0000297116   0.0000525965
       -0.0000643969  -0.0201868291  -0.0192027314  -0.0087845964   0.0080076780
        0.0084186215   0.0048527151  -0.0067408466  -0.0066971976  -0.0069872700
        0.1030409585  -0.1035069189   0.0027381069   0.0177477984  -0.0587321530
       -0.0563454627  -0.0061614978  -0.0164444157   0.0092361793   0.0001449615
        0.0032536278  -0.0000013656  -0.0004554380   0.0003917775   0.0003543147
       -0.0009276288   0.0005658063   0.0000825484  -0.0000445505  -0.0001103660
        0.0000708383  -0.0000112660   0.0001031254  -0.0000274086  -0.0000343032
        0.0000392236  -0.0000039093   0.0001302948   0.0000859611   0.0000791510
        0.0000010993   0.0000099344  -0.0000180891  -0.0000029685   0.0000059010
        0.0000245956   0.0000040426  -0.0000091083   0.0000047643  -0.0000033138
        0.0000065586  -0.0000021878   0.0000009852   0.0000053702  -0.0000094090
        0.0000215392  -0.0000292885   0.0000309737   0.0000023123  -0.0000015375
       -0.0000021670  -0.0000024388  -0.0000036503  -0.0000024616  -0.0000004579
       -0.0000008591  -0.0000006344  -0.0000009553   0.0000013748   0.0000001053