$hessian                                                                        
        0.4840422987  -0.0069371694   0.0129535504  -0.0833130594   0.0112440692
        0.0549852077  -0.0055226386   0.0065782078   0.0113705004   0.0043072722
        0.0027247173   0.0006626376  -0.0002812469   0.0000840540   0.0005435344
       -0.0007912209  -0.0003151920  -0.0003640493   0.0000270602  -0.0000311505
       -0.0001651538   0.0000498720  -0.0003112682   0.0003129711  -0.0001824317
        0.0005954680   0.0001339307   0.0000350061   0.0000090022   0.0000295774
        0.0000673808  -0.0001509589  -0.0006141570  -0.0007210813   0.0001991318
        0.0005774122   0.0007118935   0.0002184162  -0.0006751189  -0.0000687083
        0.0000695337  -0.0000009823  -0.0000375221  -0.0000658364  -0.0000251626
       -0.0000348277   0.0000105652  -0.0000008027   0.0000097987   0.0000385447
        0.0000072279   0.0000083268   0.0001123503  -0.0000285489   0.0001213895
       -0.0000416530   0.0000111593  -0.0000897363   0.0001720627   0.0000853211
        0.0001211792  -0.0002702133   0.0000069555  -0.0000495881  -0.0000271195
       -0.0000678953   0.0000777520   0.0001382285   0.0000980197  -0.0001142836
        0.0000258602   0.0000046390   0.0000096210   0.0000168164  -0.0000191584
       -0.0000548119   0.0000298791  -0.0000269673   0.0000113919  -0.0000906627
        0.0000213485   0.0000759027   0.0000285582  -0.0000491182  -0.0000171777
       -0.0001612557   0.0000697421   0.0000008869   0.0000556481  -0.0001061331
       -0.0000323192   0.0001011494   0.0000960575   0.0000437111   0.0000030678
       -0.0000511744   0.0000372400   0.0000409879  -0.0000444976  -0.0000086186
        0.0000099612   0.0000043045   0.0000178214  -0.0000177898  -0.0000236757
       -0.0000595709   0.0000088340   0.0000495934   0.0000265144  -0.0000726893
       -0.0000157249  -0.0000571972   0.0000106473   0.0000551091   0.0000821182
       -0.0000290218  -0.0000844818   0.0000457261   0.0000657387  -0.0000144906
        0.0000700739  -0.0000750043  -0.0000502465   0.0000937197   0.0000795078
        0.0000008519   0.0000435503   0.0000153754  -0.0000352208  -0.0000371304
        0.0000131112  -0.0000060915   0.0000824069   0.0000291831  -0.0000524990
        0.0067935512   0.0007366281   0.0025869444   0.0002935800  -0.0004229063
        0.0055759984  -0.2228641173  -0.0972823460   0.0188042480  -0.0485731110
        0.0343349091   0.0027483429  -0.1302129773   0.0500705931  -0.1080501127
       -0.0015689940  -0.0010100559  -0.0004417851  -0.0001811762   0.0001109366
        0.0004062667  -0.0000135593  -0.0000010809  -0.0000133567   0.0000004223
        0.0000058660   0.0000212891  -0.0000095807  -0.0000052432   0.0000009419
       -0.0000025517  -0.0000015964   0.0000321679   0.0000017276  -0.0000132779
        0.0000061457  -0.0000109469  -0.0000251113   0.0000067669   0.0000091114
        0.0000142379   0.0000302337   0.0000313955  -0.0000223726   0.0000072527
        0.0000156599  -0.0000210781   0.0000081423  -0.0000011228  -0.0000186804
        0.0000013186   0.0000031318  -0.0000033197   0.0000079165  -0.0000046449
       -0.0000095581   0.0000034971  -0.0000087923  -0.0000045293   0.0000125557
       -0.0000044867   0.0000010671   0.0000005099  -0.0000046998  -0.0000111801
        0.0000074465  -0.0000123925   0.0000032324   0.0000002862   0.0000021500
        0.0000013875   0.0000085643  -0.0000036151  -0.0000091905   0.0000064137
       -0.0000065308   0.0000094280   0.0000099351  -0.0000004107   0.0000055038
        0.0000020498  -0.0000146638   0.0000082041   0.0000235063  -0.0000420734
       -0.0000402105   0.0000520583  -0.0002680566  -0.0001160558  -0.0000296459
       -0.0000192295  -0.0000240548   0.0000670276  -0.0000392902  -0.0000237803
        0.0000087473  -0.0000161287  -0.0000117131   0.0000169137  -0.0020143208
       -0.0003563451  -0.0014868873
       -0.0069371694   0.5274154541  -0.0078152025   0.0148917459  -0.0714821090
       -0.0301848062   0.0123314054  -0.0091695790  -0.0251566225   0.0027546710
       -0.0042289951  -0.0000152388   0.0000096176  -0.0001012736   0.0000239194
       -0.0002962928   0.0001851488  -0.0000331869   0.0000676901  -0.0000894331
       -0.0001153714   0.0000005301   0.0000071596   0.0000406176   0.0000380939
       -0.0000824627  -0.0000174339  -0.0000009803   0.0000154992   0.0000277862
       -0.0001119505   0.0000971950   0.0000963842  -0.0000185830  -0.0003920948
       -0.0000016126  -0.0004103836   0.0001668800   0.0014279424  -0.0000951472
        0.0001830791   0.0000115423   0.0000636748  -0.0000322169  -0.0000297015
       -0.0000345743   0.0000175483  -0.0000125421   0.0000345520  -0.0000020663
        0.0000023291  -0.0000245182   0.0000553812  -0.0000154541   0.0000768118
       -0.0000263669   0.0000255633  -0.0000617438   0.0000914438  -0.0000113286
       -0.0000196767  -0.0001050376   0.0000199491   0.0000472332   0.0000593374
        0.0000135546  -0.0000412975  -0.0000545057  -0.0000155430   0.0000269195
        0.0000521380   0.0000209334  -0.0000199403  -0.0000413462  -0.0000001189
        0.0000182110   0.0000034450  -0.0000032460  -0.0000174999  -0.0000406801
        0.0000090009   0.0000566016   0.0000307276  -0.0000196449  -0.0000543876
       -0.0000540170   0.0000130235   0.0000011792   0.0000384860  -0.0000401274
       -0.0000145387   0.0000322174   0.0000365965   0.0000371740   0.0000130859
       -0.0000365620   0.0000306373   0.0000153809  -0.0000333346  -0.0000099312
        0.0000101436   0.0000110554   0.0000195920  -0.0000095099  -0.0000167277
       -0.0000522052  -0.0000011264   0.0000546014   0.0000291974  -0.0000516214
       -0.0000254681  -0.0000655866  -0.0000112549   0.0000690517   0.0000476280
       -0.0000579952  -0.0000496392  -0.0000448778   0.0000540690   0.0000198020
        0.0000708069  -0.0001171145  -0.0000529800   0.0000734083  -0.0000109158
        0.0000108457   0.0000109045   0.0000420926   0.0000006542  -0.0000125557
       -0.0000092069   0.0000014276   0.0000025582   0.0000185603   0.0000066425
        0.0015722584  -0.0019366988   0.0020959452  -0.0073191136   0.0018226661
        0.0187124479  -0.0986850367  -0.0955886875   0.0101708168   0.0338929240
       -0.2783603948  -0.0247324366   0.0495973781  -0.0699608746   0.0567612890
       -0.0003894953   0.0010247573  -0.0014257340   0.0005836940  -0.0004801341
       -0.0012853655  -0.0000280205   0.0000339122   0.0000320896  -0.0000030721
        0.0000122625   0.0000056206  -0.0000072492  -0.0000017364   0.0000026234
        0.0000023676   0.0000008711   0.0000140117  -0.0000001895   0.0000009336
       -0.0000049318  -0.0000032794   0.0000073427  -0.0000075562  -0.0000303363
        0.0000112894   0.0000008148   0.0000120889  -0.0000064088   0.0000109476
       -0.0000019038  -0.0000207995   0.0000069120  -0.0000162876  -0.0000087726
        0.0000058291  -0.0000017342  -0.0000002587   0.0000031751  -0.0000050032
       -0.0000027687   0.0000013186  -0.0000080887  -0.0000003551   0.0000045824
       -0.0000044458   0.0000046347   0.0000017309  -0.0000015298   0.0000015933
        0.0000014826  -0.0000054334  -0.0000000422   0.0000021375   0.0000001450
        0.0000022554   0.0000038395   0.0000024258   0.0000006606  -0.0000003816
       -0.0000029349   0.0000081221   0.0000042517  -0.0000007067   0.0000113397
       -0.0000046996  -0.0000149362   0.0000320823   0.0000009226   0.0000415041
       -0.0000266656  -0.0000099725  -0.0002764694  -0.0000477878  -0.0000114243
        0.0000398643   0.0000215165   0.0000554278  -0.0000460387  -0.0000051123
        0.0000122021  -0.0000076000   0.0000038861   0.0000063332  -0.0012827487
        0.0010138282   0.0013244203
        0.0129535504  -0.0078152025   0.4744202471   0.0553726107  -0.0236163183
       -0.1869750589   0.0069840499  -0.0090989618  -0.0122729652   0.0010563842
       -0.0006963944   0.0025584699   0.0002103026   0.0001439454  -0.0010117694
       -0.0002970520  -0.0001854840   0.0001537436  -0.0001064176   0.0000069213
        0.0002337649   0.0000565991   0.0003156274  -0.0003361158   0.0001979099
       -0.0005168159  -0.0001954602   0.0000262407  -0.0000024379  -0.0000126101
       -0.0002670735   0.0000560295   0.0004185081   0.0002400618   0.0000751112
       -0.0008883668   0.0004794762  -0.0004313643  -0.0002320328   0.0000101624
       -0.0002482501   0.0000402481  -0.0000226302  -0.0000343646   0.0000162618
        0.0000258525  -0.0000056249   0.0000074067  -0.0000453319  -0.0000107036
       -0.0000069007  -0.0000023927   0.0000025749   0.0000132443  -0.0000605813
       -0.0000099861  -0.0000164539  -0.0000542341  -0.0001161804  -0.0000697275
        0.0000113442   0.0001460494  -0.0000196949  -0.0000042543   0.0000905530
        0.0000467088   0.0000029747  -0.0001809653  -0.0000173410   0.0001824213
       -0.0000446299  -0.0000064981  -0.0000110103  -0.0000779854   0.0000308163
        0.0000831501  -0.0000662883   0.0000366856  -0.0000685859   0.0001189153
       -0.0000393826  -0.0001431462  -0.0000354748   0.0000551197  -0.0000101938
        0.0002276364  -0.0000845753  -0.0000752854  -0.0000518681   0.0001887611
       -0.0000114446  -0.0001225899  -0.0000569780  -0.0000762176  -0.0000232977
        0.0000758304  -0.0000737848  -0.0000485431   0.0000765560   0.0000076593
       -0.0000167041  -0.0000132432  -0.0000469500   0.0000290644   0.0000425103
        0.0001115346  -0.0000303715  -0.0001013933  -0.0000231884   0.0001422492
        0.0000259788   0.0000716553  -0.0000405883  -0.0000672189  -0.0000914211
        0.0000595245   0.0000960613   0.0000970911  -0.0000726148  -0.0001089226
        0.0001978316  -0.0000291867  -0.0001909011  -0.0000442072   0.0000886050
       -0.0000257411  -0.0000864070  -0.0000549839   0.0000620511   0.0001046739
        0.0000852647  -0.0001038326   0.0000053743   0.0000485233   0.0000526594
        0.0020409489   0.0041110714  -0.0005600190   0.0108061148   0.0007451204
       -0.0270485051   0.0156312347   0.0080032891  -0.0393229272   0.0024480459
       -0.0255135579  -0.0463482689  -0.1065175880   0.0554518996  -0.1633111576
       -0.0008648255   0.0008141614   0.0003800154   0.0001317188   0.0000098779
       -0.0002780389   0.0000059347   0.0000017521   0.0000009619   0.0000186409
       -0.0000080163  -0.0000328383   0.0000267558   0.0000110412  -0.0000271360
       -0.0000021869  -0.0000046647  -0.0000235002  -0.0000044307   0.0000157864
       -0.0000033050   0.0000019311   0.0000164079  -0.0000162561   0.0000862410
        0.0000222029   0.0000082598  -0.0000072377   0.0000255857  -0.0000047771
        0.0000041723   0.0000358430  -0.0000045592   0.0000148553   0.0000228793
       -0.0000008514  -0.0000140854   0.0000191936  -0.0000148071   0.0000113790
        0.0000271975  -0.0000058635   0.0000282779   0.0000112945  -0.0000149172
        0.0000177420  -0.0000128287  -0.0000010756   0.0000003245   0.0000187149
       -0.0000056842   0.0000197992  -0.0000046459   0.0000015199  -0.0000044981
       -0.0000018427  -0.0000149879   0.0000014176   0.0000136527  -0.0000052532
        0.0000042580  -0.0000166240  -0.0000100378  -0.0000057382  -0.0000175572
        0.0000024999  -0.0000117550  -0.0000006143   0.0000017776  -0.0000541167
       -0.0000421754   0.0000409137  -0.0000184230   0.0000464202  -0.0000337821
        0.0000084148  -0.0000510572   0.0000690695  -0.0000017695  -0.0000019964
        0.0000196767  -0.0000001507   0.0000038204  -0.0000069618  -0.0006685026
       -0.0017040457   0.0007723672
       -0.0833130594   0.0148917459   0.0553726107   0.2249200665  -0.0944611506
       -0.1478146087  -0.0763039468   0.0777225476   0.0136252494  -0.0106682514
        0.0105615195   0.0217603485  -0.0026116954   0.0044035520  -0.0083936223
       -0.0011307539   0.0014421183   0.0015828000   0.0003243726  -0.0003531857
       -0.0004051052  -0.0000145741   0.0013317596  -0.0009637475   0.0011632179
       -0.0033171934  -0.0008092253  -0.0000204748   0.0000639325   0.0000773832
       -0.0016040470   0.0008337545   0.0031185982   0.0022608352  -0.0020687524
       -0.0027256957   0.0018502200   0.0003225887   0.0099777006  -0.0001265550
        0.0008748884   0.0002149171   0.0003169948  -0.0000393434  -0.0002848734
        0.0001182138   0.0001963562  -0.0000483226  -0.0002250499  -0.0001609309
       -0.0000507569  -0.0000497509  -0.0002444326   0.0001002161  -0.0003432066
        0.0001104582   0.0001802191   0.0001556955  -0.0001790342  -0.0004479334
       -0.0007516823   0.0006439199  -0.0000791093   0.0006500595   0.0003661537
        0.0002987488  -0.0003396699  -0.0010589956  -0.0003671370   0.0006751767
        0.0000145558   0.0000863518  -0.0001688929  -0.0002836963   0.0000820491
        0.0003235490  -0.0001293615   0.0001064315  -0.0001516161   0.0002497954
       -0.0000801718  -0.0001952350  -0.0000325989   0.0001169063  -0.0001406618
        0.0005190966  -0.0002231664  -0.0001020619  -0.0001865828   0.0004182792
        0.0000024704  -0.0002385285  -0.0001589802  -0.0001371564  -0.0000126998
        0.0001337920  -0.0001069921  -0.0001278726   0.0001214399   0.0000304592
       -0.0000323729  -0.0000270670  -0.0000276475   0.0000616523   0.0000199735
        0.0001386690  -0.0000088897  -0.0001218248  -0.0000119420   0.0001873209
       -0.0000000258   0.0000923993  -0.0000474890  -0.0000819334  -0.0001046603
        0.0000906765   0.0001365899   0.0001070678  -0.0000909337  -0.0000356779
        0.0001129110   0.0000465845  -0.0001386900  -0.0001139674   0.0000374094
        0.0000517258  -0.0001312274  -0.0000654718   0.0000872906   0.0002646555
        0.0001000545  -0.0001494076  -0.0004104543  -0.0000868793   0.0001822084
        0.0002116440  -0.0076529118   0.0018161390  -0.0546240897  -0.0151004945
        0.0368166261  -0.0133754102   0.0030822688   0.0267494652  -0.0025959307
        0.0033928432   0.0050877719   0.0074106039  -0.0040924644  -0.0133424539
        0.0018848424  -0.0009318939  -0.0000082351   0.0055180847   0.0021391823
        0.0042861139   0.0000742445  -0.0000966654  -0.0000439562  -0.0000501967
        0.0000117027  -0.0000208527   0.0000171136   0.0000114324  -0.0000258711
        0.0000179273  -0.0000024559  -0.0000124254  -0.0000090257   0.0000392914
       -0.0000130735  -0.0000281004   0.0000799492  -0.0000280341  -0.0000213460
       -0.0000233567  -0.0000117653  -0.0000286439   0.0000292920   0.0000625869
       -0.0000114102   0.0000347441  -0.0000344777   0.0000227128   0.0000079867
        0.0000150390  -0.0000195773   0.0000222285  -0.0000283895   0.0000122231
        0.0000256406  -0.0000107398   0.0000290524   0.0000086039  -0.0000328230
        0.0000159605  -0.0000155037   0.0000004600   0.0000010177   0.0000222945
       -0.0000111434   0.0000255307  -0.0000026532  -0.0000012034  -0.0000032037
       -0.0000016945  -0.0000214467   0.0000004808   0.0000102589  -0.0000040092
        0.0000075255  -0.0000251245  -0.0000179443  -0.0000092124  -0.0000263565
        0.0000055347  -0.0000005168  -0.0000141237  -0.0000071141   0.0000222492
       -0.0000102364  -0.0000502023  -0.0000931820  -0.0001505588  -0.0001312317
        0.0000830938  -0.0000111157   0.0000217277   0.0000124550  -0.0000030071
        0.0000111554   0.0000107996   0.0000204138  -0.0000230492   0.0012904830
        0.0073764388  -0.0054369257
        0.0112440692  -0.0714821090  -0.0236163183  -0.0944611506   0.5747188850
       -0.0527114071   0.0473285901  -0.2433774564   0.0115700165   0.0316083459
        0.0010885339  -0.0861711430  -0.0027609344  -0.0360417317   0.0300310570
        0.0050368837  -0.0111749119  -0.0057502728  -0.0020560525   0.0019093993
        0.0030546797   0.0005277016  -0.0072029906   0.0045725074  -0.0060393034
        0.0180760687   0.0039809264   0.0000139922  -0.0003970823  -0.0003556982
        0.0075921363  -0.0039378908  -0.0160806577  -0.0114876422   0.0146985510
        0.0182044172   0.0111278058   0.0066008100  -0.0393508733   0.0012077339
       -0.0015636879  -0.0000316336  -0.0003957262  -0.0000339884   0.0003214544
       -0.0000070844  -0.0000484083   0.0001126714   0.0000153596   0.0001725874
        0.0000853764   0.0002548590  -0.0001083766  -0.0002436212  -0.0002219941
        0.0005045392  -0.0005987576   0.0006715945  -0.0013600982   0.0024415599
        0.0005455639  -0.0009438053  -0.0011567871  -0.0002033891   0.0003449880
       -0.0005995948   0.0003364421   0.0021260919   0.0019048037  -0.0012374568
        0.0000372547  -0.0004768062   0.0005718247   0.0004217306  -0.0003014307
       -0.0006417319   0.0002215931  -0.0001061518   0.0003372606  -0.0003745896
        0.0001262362   0.0001507283   0.0000079951  -0.0001149880   0.0003874623
       -0.0006950236   0.0004096724   0.0001553166   0.0002322157  -0.0008788488
       -0.0000255536   0.0004634382   0.0002190307   0.0001966821  -0.0000396000
       -0.0001953962   0.0001252021   0.0002546825  -0.0001362967  -0.0000340171
        0.0000277398   0.0000182198  -0.0000631483  -0.0001210719   0.0000603426
       -0.0000944108  -0.0000528385   0.0000736443  -0.0001180372  -0.0002030057
        0.0001481552  -0.0000348193   0.0000466192   0.0000297999   0.0000478744
       -0.0000893865  -0.0000719953  -0.0000376235   0.0000583696   0.0000801803
       -0.0002127870  -0.0000564747   0.0001930790   0.0001240554   0.0000025436
       -0.0000308792   0.0002164770   0.0000474763  -0.0000255987  -0.0005508638
       -0.0001608606   0.0002744775   0.0015288545   0.0003452744  -0.0009843225
       -0.0289319246   0.0084119736   0.0712126001   0.0157226511  -0.2036210662
        0.0707629510  -0.0053748076   0.0040283470   0.0119975222   0.0130214401
       -0.0094049004  -0.0268400481  -0.0036512339   0.0025680878   0.0084879835
        0.0067153856  -0.0225778115  -0.0011368202   0.0020212482   0.0013032649
       -0.0002264125  -0.0001168321   0.0004693111   0.0001593243   0.0000992380
       -0.0001438196  -0.0000575420  -0.0000119688  -0.0000504852   0.0001521426
       -0.0001006265  -0.0000123615  -0.0000202700   0.0000451135  -0.0001656466
        0.0000815269   0.0000582267  -0.0003164369   0.0000820490   0.0000302313
       -0.0000542096  -0.0000165347   0.0000202187  -0.0000281625  -0.0000772233
       -0.0000037276  -0.0000144159   0.0000628950   0.0000177044   0.0000365630
        0.0000259306   0.0000190259  -0.0000160307   0.0000233733  -0.0000065290
        0.0000229207   0.0000487452   0.0000056799  -0.0000082160   0.0000171380
        0.0000027711   0.0000082788   0.0000071885   0.0000033399  -0.0000069334
        0.0000121014  -0.0000408852   0.0000026979   0.0000033862   0.0000055283
       -0.0000018033   0.0000179463   0.0000019993  -0.0000120363   0.0000053363
        0.0000116055   0.0000132823   0.0000091895   0.0000121318   0.0000439107
       -0.0000058105   0.0000036160   0.0000221033  -0.0000074784  -0.0000236044
        0.0000539380  -0.0000048666  -0.0001177224  -0.0002932488  -0.0000573626
       -0.0000499167  -0.0000009416  -0.0000750475   0.0000416205   0.0000219106
        0.0000014028  -0.0000044465  -0.0000084276  -0.0000008858  -0.0000936404
       -0.0232116351   0.0174327406
        0.0549852077  -0.0301848062  -0.1869750589  -0.1478146087  -0.0527114071
        0.5730701892   0.0359970127  -0.0720857249  -0.0963470521   0.0068410113
       -0.0289687790   0.0032411523  -0.0030618227   0.0103471170  -0.0031831374
       -0.0009668501   0.0039826784  -0.0005980215   0.0004446602  -0.0002801042
       -0.0006073865  -0.0001550476   0.0020592416  -0.0011496373   0.0014432488
       -0.0046203925  -0.0007901593   0.0000545468   0.0001026112   0.0000205412
       -0.0015636797   0.0005889336   0.0034298826   0.0035535877  -0.0045934008
       -0.0056428155   0.0008533766  -0.0040799254   0.0074094078  -0.0002671771
        0.0008688205   0.0002250260   0.0001615186  -0.0001114395  -0.0002067040
        0.0001275453   0.0001992022  -0.0000315462  -0.0002250509  -0.0000211731
       -0.0000309458   0.0002136094   0.0000021539   0.0000646800  -0.0002804447
       -0.0001373143   0.0002500908  -0.0001261699   0.0007034654  -0.0004624821
        0.0011411198   0.0000993552   0.0006904853  -0.0012098303  -0.0008758567
       -0.0002388927   0.0008038267   0.0006845548  -0.0002921520  -0.0011506041
       -0.0000026398   0.0000710810   0.0001179511   0.0005082270  -0.0000253316
       -0.0005198925   0.0002201876  -0.0002324195   0.0003237813  -0.0004860910
        0.0001639427   0.0004614602   0.0000980660  -0.0002520044   0.0002676433
       -0.0009667142   0.0003907134   0.0001768470   0.0002475378  -0.0005428596
        0.0000127013   0.0003907499   0.0002612839   0.0002693411   0.0000891928
       -0.0002784214   0.0002272626   0.0001383772  -0.0002677363  -0.0000618279
        0.0000625286   0.0000605088   0.0001765556  -0.0000755047  -0.0001688886
       -0.0004133766   0.0001151610   0.0003942657   0.0001611094  -0.0005075633
       -0.0001418881  -0.0002972051   0.0000733635   0.0002723456   0.0003903095
       -0.0002413557  -0.0004049214  -0.0002247160   0.0002559064   0.0003035003
       -0.0003462094  -0.0000692102   0.0003848879   0.0002806538  -0.0000239718
       -0.0000943613   0.0001696270   0.0002638251  -0.0001244730  -0.0002293704
       -0.0002304431   0.0001993586  -0.0004691188  -0.0004039673  -0.0000221224
        0.0173231667   0.0139264916  -0.0580138403   0.0146521983   0.1533817923
       -0.1939977674   0.0082786205   0.0019658124  -0.0090198969   0.0037409774
       -0.0048582332  -0.0054177193   0.0083766292  -0.0008753692  -0.0279545319
       -0.0058894297   0.0199631290   0.0023656965   0.0042753437  -0.0009330976
       -0.0034514600  -0.0000267367  -0.0000782988   0.0000371712  -0.0000628225
        0.0000357462   0.0000295843  -0.0000193077   0.0000154002  -0.0000511808
        0.0000252139   0.0000195554   0.0000226799  -0.0000210349   0.0000333588
       -0.0000239323  -0.0000387039   0.0000376930  -0.0000089844  -0.0000016827
        0.0000298886  -0.0000165086   0.0000316258  -0.0000101818   0.0000593522
        0.0000110357  -0.0000697273  -0.0000118297  -0.0000601221  -0.0000386043
       -0.0000086775   0.0000483546  -0.0000651796   0.0000600300  -0.0000260972
       -0.0000783844   0.0000005177  -0.0000768178  -0.0000275819   0.0000755354
       -0.0000411172   0.0000369695  -0.0000006826  -0.0000058973  -0.0000569616
        0.0000177770  -0.0000426893   0.0000033028  -0.0000022206   0.0000038635
        0.0000081749   0.0000413278  -0.0000065503  -0.0000363176   0.0000079276
       -0.0000232538   0.0000495284   0.0000265706   0.0000051515   0.0000597131
       -0.0000232471   0.0000120680   0.0000550615  -0.0000008685  -0.0000781598
        0.0001388404  -0.0000524840  -0.0001291657  -0.0002408200   0.0001451153
       -0.0001370763   0.0000502835  -0.0001736794   0.0000397377   0.0000150753
       -0.0000089924  -0.0000054798  -0.0000637318   0.0000389463  -0.0004043542
       -0.0028167997   0.0035183478
       -0.0055226386   0.0123314054   0.0069840499  -0.0763039468   0.0473285901
        0.0359970127   0.2025719324  -0.1047707648  -0.1643121780  -0.0886179323
        0.0478687039   0.0852398133  -0.0017371371  -0.0251553314   0.0273391939
        0.0086804482  -0.0019665612  -0.0037422167  -0.0010614136   0.0011444139
        0.0017585680  -0.0003370553  -0.0021709351   0.0010492500  -0.0018320193
        0.0055423417   0.0014076793   0.0000161356  -0.0001063827  -0.0000586842
        0.0020185618  -0.0013124743  -0.0049993539  -0.0029825213   0.0026960629
        0.0050185224   0.0020910429   0.0003501741  -0.0077944603  -0.0000611345
        0.0000498741  -0.0000216943  -0.0001315102  -0.0000608729   0.0001191065
       -0.0002321361  -0.0001862741  -0.0000004086   0.0002809779   0.0000767071
        0.0000322998  -0.0002065511   0.0001435864  -0.0001112403   0.0004025230
       -0.0000455052  -0.0001605642   0.0002175523  -0.0002455031   0.0006947343
       -0.0009761916  -0.0006088380  -0.0005312937   0.0010637025   0.0008371477
        0.0000750935  -0.0006155351  -0.0001729886   0.0004763052   0.0006794019
        0.0001186416  -0.0001260857  -0.0000304546  -0.0003833259  -0.0000701250
        0.0002583396  -0.0001020105   0.0001375071  -0.0002041763   0.0001781226
       -0.0000631031  -0.0001735901   0.0000266860   0.0001106043  -0.0002273129
        0.0004790302  -0.0001635787  -0.0000726695  -0.0000961715   0.0000640520
       -0.0000369774  -0.0000895330  -0.0000588526  -0.0001027341  -0.0000695829
        0.0001009671  -0.0000930679  -0.0000035525   0.0001191961   0.0000291862
       -0.0000312814  -0.0000293115  -0.0001083855   0.0000197537   0.0000984071
        0.0002210657  -0.0000791285  -0.0002203658  -0.0000907304   0.0002209966
        0.0000988132   0.0001966345  -0.0000058557  -0.0001684486  -0.0002065180
        0.0001417831   0.0002042968  -0.0003817237  -0.0002934118  -0.0003783637
        0.0001750986   0.0000557561  -0.0001383890  -0.0000714976  -0.0000081711
       -0.0000060522  -0.0000183672  -0.0001549893  -0.0000011143   0.0000166498
        0.0000913631  -0.0000196344   0.0006142867   0.0001917315  -0.0002111040
       -0.0125709064   0.0058618821   0.0152473067   0.0077838363   0.0158422758
       -0.0296715009   0.0007764454   0.0008905820   0.0003042497   0.0000782729
        0.0008029734   0.0023402775   0.0001589817   0.0007156007  -0.0003289891
       -0.0363069750  -0.0108173270   0.0164617040  -0.0034801465   0.0039021724
        0.0092209839   0.0001683427   0.0002344911   0.0000567782   0.0000273905
       -0.0000235912   0.0000136461  -0.0000626352  -0.0000171285   0.0000651280
       -0.0000446897   0.0000108687   0.0000470611   0.0000549016  -0.0000884386
        0.0000324760  -0.0000191620  -0.0001608734   0.0000789822  -0.0000402522
        0.0000076760  -0.0000402511   0.0000060033  -0.0000172721  -0.0000074335
       -0.0000033605   0.0000189301   0.0000246858   0.0000342581   0.0000003772
        0.0000228772   0.0000017756   0.0000305073  -0.0000254196   0.0000267736
        0.0000221778   0.0000249904   0.0000296013   0.0000091985  -0.0000405121
        0.0000174971  -0.0000140614   0.0000045293  -0.0000080986   0.0000285594
       -0.0000063068   0.0000104243  -0.0000016929  -0.0000001991   0.0000086481
       -0.0000107309  -0.0000270835   0.0000061910   0.0000357025   0.0000011574
       -0.0000154177  -0.0000035874   0.0000196591   0.0000200272  -0.0000462972
        0.0000255633   0.0000362255  -0.0000456347   0.0000047565  -0.0004374648
       -0.0001453545  -0.0001910751   0.0000157603   0.0000735115   0.0000273858
        0.0000012061  -0.0000073536   0.0000623777  -0.0000020128   0.0000023259
        0.0000041383   0.0000021839   0.0000314455   0.0000000621   0.0066287635
        0.0011046594   0.0025091451
        0.0065782078  -0.0091695790  -0.0090989618   0.0777225476  -0.2433774564
       -0.0720857249  -0.1047707648   0.5868104870  -0.0592400084   0.0198336689
       -0.1049916517  -0.0075654251  -0.0060649962   0.0320927706  -0.0061478799
       -0.0026135221   0.0035965157   0.0099355411   0.0015404485  -0.0017978805
       -0.0022882579  -0.0004716570   0.0041380131  -0.0025695382   0.0035637961
       -0.0104302230  -0.0026305895   0.0000642601   0.0002352068   0.0001871960
       -0.0045333160   0.0020197894   0.0096095948   0.0063956846  -0.0071753256
       -0.0099590841  -0.0052548540  -0.0026223664   0.0195979288  -0.0002808676
        0.0003681835   0.0000483829   0.0002170658   0.0000090079  -0.0001516745
        0.0001633987   0.0002341258  -0.0000086589  -0.0002137774  -0.0000979958
       -0.0000601165   0.0001044882  -0.0000409819   0.0001535813  -0.0001737136
       -0.0000865477   0.0003345638  -0.0004300130   0.0006323976  -0.0012876051
        0.0006105033   0.0006807834   0.0006615718  -0.0007393972  -0.0006187619
        0.0001670328   0.0002416442  -0.0006749048  -0.0009629065   0.0000041604
       -0.0000829884   0.0002819334  -0.0002044801   0.0000825335   0.0001818420
        0.0000673932  -0.0000091416  -0.0000606359   0.0000056614  -0.0000068557
       -0.0000088987   0.0000750224  -0.0000212784  -0.0000442964  -0.0000278867
       -0.0000924427  -0.0000425199  -0.0000166638   0.0000031788   0.0002952599
        0.0000521129  -0.0001205003  -0.0000500470  -0.0000030725   0.0000784740
        0.0000035263   0.0000286928  -0.0001005991  -0.0000515488  -0.0000158797
        0.0000172027   0.0000198651   0.0000915550   0.0000137452  -0.0000811069
       -0.0001250927   0.0000669632   0.0001395522   0.0000900543  -0.0000681740
       -0.0001039090  -0.0001083488  -0.0000413375   0.0001009465   0.0001083600
       -0.0000600013  -0.0001004388  -0.0001040372   0.0000701795  -0.0000335205
       -0.0001059124   0.0000424922   0.0000734386   0.0000638786   0.0000373739
       -0.0000010354  -0.0000827121   0.0000655837   0.0000653085   0.0001826630
        0.0000074294  -0.0001154574  -0.0009203379  -0.0002360543   0.0004886256
        0.0132361627  -0.0061981142  -0.0353331603  -0.0059568551  -0.0604675081
        0.0595426257  -0.0007655378  -0.0007503126   0.0007295450   0.0006164716
       -0.0002819810  -0.0011067679   0.0003027806  -0.0001092480   0.0015113612
       -0.0107536406  -0.1706193692   0.1282970558   0.0115567232  -0.0088364535
       -0.0245465087   0.0000487139  -0.0002675151   0.0001147327  -0.0000561421
        0.0000595038   0.0000273209   0.0001029681   0.0000242352  -0.0001196750
        0.0000717633   0.0000046094  -0.0000507116  -0.0000737840   0.0001390397
       -0.0000657682  -0.0000570585   0.0002292026  -0.0000444012  -0.0000167012
       -0.0000687197   0.0000627545  -0.0000139315   0.0000070889   0.0000253810
        0.0000006977  -0.0000197985  -0.0000436435  -0.0000423574  -0.0000196917