$hessian                                                                        
        0.4807506771   0.0041487397  -0.0133098161  -0.1167331465  -0.0262301883
       -0.0711943576  -0.0107179157  -0.0096223196  -0.0111040249   0.0039201647
       -0.0031503671  -0.0006149880  -0.0005125936   0.0004279232  -0.0008959203
       -0.0003622900   0.0000352439   0.0011144517  -0.0001284461  -0.0000839525
       -0.0001620572   0.0001065861  -0.0002225619   0.0001751374   0.0000722918
        0.0003132206  -0.0000738344   0.0000299766  -0.0000251012  -0.0000247516
       -0.0002012232  -0.0000367425  -0.0000041336  -0.0001699118   0.0006406729
       -0.0001120506  -0.0000269701  -0.0004110069  -0.0006396590  -0.0000260663
        0.0000114943   0.0000206007  -0.0000946752  -0.0000138503   0.0000201803
       -0.0000204272   0.0000458722   0.0000020463   0.0000269901  -0.0000319959
       -0.0000108960   0.0000039514  -0.0000463834   0.0000186934   0.0001519285
       -0.0000077687   0.0000086128  -0.0000148348  -0.0000811189  -0.0001099216
        0.0000393279   0.0001754326  -0.0000256547  -0.0000387623   0.0001591731
        0.0000932621   0.0000821611  -0.0002794646  -0.0001269932  -0.0002224536
        0.0000171423   0.0000483491   0.0000475061  -0.0001107686   0.0000202864
       -0.0000985888  -0.0000480086   0.0000407899   0.0000623861   0.0000753382
       -0.0000215255   0.0000713493  -0.0000156306   0.0000208614   0.0000661418
        0.0001389827  -0.0000647065   0.0000172460  -0.0000498447   0.0001076216
       -0.0000127595  -0.0000483537  -0.0000581233   0.0000533801  -0.0000167517
        0.0000445710   0.0000485930  -0.0000523379   0.0000428156  -0.0000129132
       -0.0000111847  -0.0000101125   0.0000066032   0.0000281003   0.0000077161
       -0.0000453728   0.0000156334  -0.0000289824   0.0000116293   0.0000522218
        0.0000077847  -0.0000376077  -0.0000076323  -0.0000305725   0.0000539671
        0.0000130555   0.0000538972   0.0000022597  -0.0000368893  -0.0000066683
        0.0000316592   0.0000699987   0.0000221056   0.0001182661  -0.0000363857
       -0.0000212675   0.0000398355  -0.0000293797   0.0000187033  -0.0000777584
        0.0000377921  -0.0000415919   0.0000560030  -0.0000591837   0.0000453666
        0.0049157972  -0.0009807353  -0.0032913374  -0.0055106531  -0.0006888863
       -0.0115294191  -0.2027343994   0.1093879278   0.0016584147  -0.0592474415
       -0.0591212521   0.0074389428  -0.0910128570  -0.0155963819   0.1003559770
       -0.0010784663   0.0013059567   0.0007192131  -0.0003794940  -0.0001496770
       -0.0003641184  -0.0000076272   0.0000172732   0.0000120440  -0.0000210110
       -0.0000140400  -0.0000183608  -0.0000146048   0.0000033660   0.0000033965
       -0.0000075934  -0.0000137621  -0.0000311847  -0.0000015794   0.0000135322
       -0.0000062679  -0.0000089630   0.0000090135  -0.0000109625  -0.0000212293
       -0.0000045133  -0.0000233406   0.0000241148   0.0000301098  -0.0000030045
        0.0000103579   0.0000186783  -0.0000090964   0.0000046956   0.0000186073
        0.0000013044   0.0000105876   0.0000113871  -0.0000114772  -0.0000077666
        0.0000187583  -0.0000005425  -0.0000182459   0.0000103224  -0.0000069332
       -0.0000125094  -0.0000064524   0.0000030365  -0.0000022134   0.0000128004
       -0.0000054021  -0.0000141371  -0.0000023656  -0.0000002673   0.0000015911
        0.0000008017  -0.0000129987  -0.0000016282   0.0000110897  -0.0000010442
       -0.0000066218  -0.0000103362  -0.0000111085   0.0000025282  -0.0000134032
       -0.0000045729  -0.0000031215  -0.0000131029  -0.0000133250  -0.0000135714
       -0.0000030054  -0.0000262106  -0.0000239199  -0.0000128272  -0.0000146062
       -0.0000287159  -0.0000066126  -0.0000120137  -0.0000283436   0.0000085466
        0.0000000752  -0.0000052972   0.0000104013  -0.0000113579  -0.0010738250
        0.0001079166   0.0019853041
        0.0041487397   0.5238357149  -0.0147543821  -0.0301813543  -0.0775850910
       -0.0344206702  -0.0187010643  -0.0120195546  -0.0205851733  -0.0030030137
       -0.0039417654   0.0013582833   0.0001111983  -0.0001087213   0.0001791471
        0.0002056198   0.0001283620  -0.0004049463   0.0000556266  -0.0000104703
        0.0001008947  -0.0000580288   0.0001778835  -0.0001587869  -0.0000900097
       -0.0002775787   0.0000271631  -0.0000098420   0.0000177812   0.0000113346
        0.0002102113   0.0001246537   0.0001097073  -0.0000607587  -0.0005609771
       -0.0000530859   0.0006867278   0.0003029253   0.0013053675   0.0000490560
        0.0001016025  -0.0000063637  -0.0000254547   0.0000099411  -0.0000240738
        0.0000006365  -0.0000056332  -0.0000203275  -0.0000134875  -0.0000072032
        0.0000103392   0.0000041435  -0.0000009160  -0.0000046992  -0.0000272009
        0.0000096331   0.0000085707  -0.0000186658   0.0000192067  -0.0000038187
        0.0000853467  -0.0000272648   0.0000331699  -0.0000623514  -0.0000232342
        0.0000155189  -0.0000239415   0.0000453113  -0.0000092098   0.0000435106
        0.0000195981  -0.0000006968  -0.0000072898   0.0000152907  -0.0000030973
        0.0000074281   0.0000125346  -0.0000089702  -0.0000136598  -0.0000318722
        0.0000059900  -0.0000424292   0.0000149084  -0.0000034567  -0.0000010011
       -0.0000663859   0.0000147765  -0.0000028986   0.0000211667  -0.0000450756
        0.0000103806   0.0000294687   0.0000272778  -0.0000385215   0.0000148061
       -0.0000310304  -0.0000262425   0.0000164526  -0.0000265402   0.0000146902
        0.0000020761   0.0000096656  -0.0000187031  -0.0000059705  -0.0000159745
        0.0000528302  -0.0000059273   0.0000423879  -0.0000260931  -0.0000482868
       -0.0000279375   0.0000580135  -0.0000154650   0.0000479890  -0.0000535251
       -0.0000286332  -0.0000449976   0.0000610296   0.0000303217   0.0000624269
       -0.0000355345  -0.0000784877  -0.0000436831  -0.0000094814  -0.0000255057
        0.0000466373  -0.0000010637   0.0000403488   0.0000107514   0.0000076149
       -0.0000181596   0.0000117388   0.0000157322   0.0000378672   0.0000067985
       -0.0016083539  -0.0011255796   0.0026507593   0.0095777777   0.0033886292
        0.0137752103   0.1113858878  -0.1191642421  -0.0000536679  -0.0585499688
       -0.2675654097   0.0256032764  -0.0152497947  -0.0472141052   0.0269807384
        0.0001625310   0.0010971484  -0.0015165553  -0.0009037387  -0.0005833670
       -0.0010384454   0.0000394220   0.0000322745   0.0000238198   0.0000046371
        0.0000092315  -0.0000019546   0.0000015739   0.0000023724  -0.0000062459
        0.0000053060   0.0000027967   0.0000098682  -0.0000009566   0.0000045819
       -0.0000085374   0.0000014255   0.0000104055  -0.0000134046   0.0000314980
        0.0000190228   0.0000026593  -0.0000046337  -0.0000042671   0.0000107776
        0.0000041798  -0.0000116354   0.0000050286   0.0000099142  -0.0000043355
        0.0000024354  -0.0000045854  -0.0000055596   0.0000007041   0.0000037708
       -0.0000086508  -0.0000015854   0.0000086182  -0.0000040457  -0.0000010326
        0.0000073407   0.0000043625  -0.0000020190  -0.0000007071  -0.0000019090
       -0.0000009037   0.0000029854  -0.0000002108  -0.0000015666   0.0000014144
       -0.0000026168   0.0000016100  -0.0000007877  -0.0000026045  -0.0000038041
        0.0000019957   0.0000026633   0.0000021322   0.0000029236   0.0000097778
       -0.0000002101   0.0000149171   0.0000238398   0.0000041452  -0.0000130322
       -0.0000017900  -0.0000246764   0.0000038158   0.0000534529  -0.0000284590
       -0.0000180239  -0.0000080387   0.0000047576   0.0000150967   0.0000155267
        0.0000021687  -0.0000052600   0.0000130685   0.0000001187   0.0017958920
        0.0008844620   0.0008739197
       -0.0133098161  -0.0147543821   0.4800210025  -0.0698053840  -0.0295386532
       -0.1463964543  -0.0054178949  -0.0064098867  -0.0039843959  -0.0008065711
        0.0008904045   0.0036265570  -0.0005520364   0.0006741199  -0.0014977995
        0.0009711501  -0.0007545072   0.0009908339  -0.0003248104  -0.0001947389
       -0.0004027751   0.0001129986  -0.0005708379   0.0006358430   0.0002854277
        0.0009401164  -0.0001787230  -0.0000046156  -0.0000133826   0.0000282601
       -0.0003039713  -0.0003035027  -0.0004949970   0.0003819947   0.0014591928
       -0.0001050187  -0.0015086949  -0.0004690112  -0.0016861398  -0.0000774327
       -0.0000878920   0.0000625954   0.0000301095  -0.0000609141  -0.0000118748
       -0.0000599201   0.0000252180   0.0000135621   0.0001125376  -0.0000388629
       -0.0000325520  -0.0000525655  -0.0000554573   0.0000270588   0.0001993831
       -0.0000064469  -0.0000102563   0.0000148866  -0.0001402100  -0.0001063134
       -0.0000178791   0.0002364572  -0.0001090124   0.0000143088   0.0000232155
        0.0000866301  -0.0000325598  -0.0002301549  -0.0000128972  -0.0001739835
       -0.0000686998  -0.0000217290   0.0000083536  -0.0000563460   0.0000181956
       -0.0000701260  -0.0000618316   0.0000500232   0.0000528862   0.0001296265
       -0.0000329094   0.0001625202  -0.0000662747   0.0000424873   0.0000110240
        0.0002319110  -0.0000678303   0.0000764038  -0.0000673389   0.0002249954
       -0.0000092727  -0.0001545449  -0.0001011556   0.0000962760  -0.0000414270
        0.0000815121   0.0000924428  -0.0000824655   0.0000802521  -0.0000249002
       -0.0000192038  -0.0000230654   0.0000416941   0.0000383136   0.0000379428
       -0.0001246759  -0.0000055512  -0.0001004089   0.0000250478   0.0001513168
        0.0000292709  -0.0000821541  -0.0000101551  -0.0000682382   0.0001122781
        0.0000608366   0.0001145771  -0.0000763618  -0.0000711132  -0.0000809543
       -0.0002058079   0.0000159271  -0.0001702081   0.0000416592   0.0000410819
        0.0000029503   0.0000968319  -0.0000807841   0.0000452894  -0.0001335332
        0.0000849898  -0.0000892173   0.0000741435  -0.0000017231   0.0000429447
       -0.0028719653   0.0035735317   0.0010361808  -0.0179545818  -0.0015585098
       -0.0241685715   0.0037176157  -0.0019552604  -0.0377221522   0.0073396003
        0.0248546682  -0.0464728243   0.0978352193   0.0257879165  -0.2232337568
        0.0013634005   0.0003419587  -0.0000365786   0.0000375095   0.0000738498
       -0.0000255422  -0.0000066726   0.0000086647  -0.0000122950  -0.0000248698
       -0.0000266519  -0.0000211952  -0.0000361943  -0.0000019250  -0.0000054037
       -0.0000006304  -0.0000301392  -0.0000149040  -0.0000032743   0.0000106142
        0.0000012542  -0.0000081500  -0.0000117841  -0.0000044290  -0.0000892656
        0.0000229381   0.0000254730   0.0000056253   0.0000289462   0.0000003172
       -0.0000082174   0.0000434059  -0.0000081600  -0.0000199029   0.0000296751
        0.0000052062   0.0000160827   0.0000201309  -0.0000165139  -0.0000108844
        0.0000248617  -0.0000001228  -0.0000273377   0.0000138534  -0.0000155180
       -0.0000171474  -0.0000137063   0.0000010649   0.0000009352   0.0000234851
       -0.0000043830  -0.0000166019  -0.0000052732   0.0000030238   0.0000012056
        0.0000000885  -0.0000162120  -0.0000022696   0.0000163656  -0.0000005666
       -0.0000063687  -0.0000167714  -0.0000098901   0.0000098372  -0.0000233295
        0.0000021334   0.0000060643  -0.0000110397   0.0000040753   0.0000195396
       -0.0000267477   0.0000127811   0.0000009812   0.0000185650  -0.0000026578
        0.0000069301  -0.0000169126   0.0000416708  -0.0000091320   0.0000101089
        0.0000134940  -0.0000091997   0.0000201577  -0.0000078069   0.0009227288
       -0.0018121635   0.0001749507
       -0.1167331465  -0.0301813543  -0.0698053840   0.3217223538   0.1128620224
        0.1971262053  -0.0935898056  -0.0999305519  -0.0034200853  -0.0183658162
       -0.0194254216  -0.0161340553  -0.0003951740  -0.0029968610   0.0085195667
       -0.0015285346   0.0001081802  -0.0023214341   0.0005470437   0.0003564894
        0.0005272601  -0.0000855482   0.0001830643  -0.0002628894   0.0000841687
        0.0000682456   0.0001003384   0.0000024634  -0.0000060819  -0.0000335336
       -0.0005769522  -0.0001648213  -0.0002402968  -0.0001589223  -0.0008500141
       -0.0003826887   0.0015605119  -0.0023004202  -0.0048685223   0.0000030064
       -0.0004201348  -0.0001002842   0.0001829658  -0.0000462391   0.0001538165
        0.0000439909  -0.0000559416   0.0000217473  -0.0000926737   0.0000898589
        0.0000199258  -0.0001017714   0.0001679202  -0.0001163790  -0.0001988349
       -0.0002069986   0.0000190202   0.0002981546   0.0002824124   0.0003331311
       -0.0007496285  -0.0002634707  -0.0000037144   0.0006678456  -0.0006431076
       -0.0003821304  -0.0003356046   0.0008841549   0.0004442679   0.0007141743
       -0.0000960080  -0.0001743777  -0.0001460210   0.0003551346  -0.0000388436
        0.0003256897   0.0001296548  -0.0001255280  -0.0001972449  -0.0002279428
        0.0000835399  -0.0001941983   0.0000287562  -0.0000789633  -0.0002371100
       -0.0004928519   0.0002151543  -0.0000728114   0.0001777048  -0.0003092322
        0.0000081221   0.0001483540   0.0001664371  -0.0001377897   0.0000701900
       -0.0001091768  -0.0001282319   0.0000972668  -0.0001178784   0.0000430410
        0.0000298545   0.0000377314  -0.0000603631  -0.0000481187  -0.0000532871
        0.0001942869  -0.0000177422   0.0001471588  -0.0000584541  -0.0001906335
       -0.0000516670   0.0001431830  -0.0000479440   0.0001095319  -0.0001614305
       -0.0001126659  -0.0001788966   0.0000990477   0.0000980073   0.0000398447
        0.0001051896  -0.0000499358   0.0001057542  -0.0001280726  -0.0000433433
       -0.0000783926  -0.0000746789   0.0001230687  -0.0000245989   0.0001882866
       -0.0000731408   0.0000540449  -0.0001379326  -0.0000364401  -0.0002221820
       -0.0078488567   0.0121875850  -0.0170945644  -0.0737973415   0.0412557429
       -0.0683742099  -0.0198665610  -0.0043893466  -0.0224361266  -0.0065039028
       -0.0059011822  -0.0065969113   0.0071919650   0.0042468867   0.0048069395
        0.0030885130   0.0055956606  -0.0006884843   0.0027734041  -0.0030026116
       -0.0056490691   0.0000804823   0.0000601858   0.0000172294  -0.0000106383
        0.0000303790   0.0000399819   0.0000419257  -0.0000051237   0.0000130465
       -0.0000008590   0.0000240848   0.0000239768  -0.0000046450  -0.0000206902
        0.0000064305   0.0000004901  -0.0000377150   0.0000428627   0.0000099298
        0.0000351574   0.0000088580  -0.0000193717  -0.0000244736  -0.0000202592
       -0.0000081240  -0.0000285273   0.0000432389   0.0000258233  -0.0000143030
       -0.0000048468  -0.0000358250  -0.0000338367   0.0000373377   0.0000112168
       -0.0000433110   0.0000063111   0.0000425156  -0.0000225062   0.0000289585
        0.0000253965   0.0000170553   0.0000003339  -0.0000004736  -0.0000335523
        0.0000117460   0.0000214981   0.0000006250   0.0000002918  -0.0000019528
       -0.0000041639   0.0000254082  -0.0000002069  -0.0000163896   0.0000019308
        0.0000139422   0.0000273310   0.0000257637  -0.0000050281   0.0000318466
       -0.0000000582   0.0000053981   0.0000344733   0.0000075511  -0.0000166247
        0.0000058795   0.0000301582  -0.0002656689   0.0002435913   0.0002683787
        0.0000607067   0.0000282091  -0.0000069999   0.0000591134  -0.0000145776
       -0.0000101664   0.0000106365  -0.0000391832   0.0000224571   0.0026363494
       -0.0075253539   0.0068224500
       -0.0262301883  -0.0775850910  -0.0295386532   0.1128620224   0.5659480496
       -0.0835848833  -0.0571834572  -0.2575191779   0.0392111320  -0.0483458463
       -0.0125486318  -0.0660825055   0.0010073510  -0.0375011396   0.0216339228
       -0.0002939984  -0.0071943299   0.0045542814  -0.0026559897  -0.0012617735
       -0.0033530539   0.0017200412  -0.0078079643   0.0078926658   0.0040974450
        0.0132930479  -0.0014621798   0.0007226665  -0.0001335399   0.0005237625
       -0.0063235264  -0.0027100699  -0.0069170977   0.0075295577   0.0144609961
        0.0075563997  -0.0124596246   0.0013482238  -0.0222839740  -0.0007692565
        0.0021019202   0.0002252747  -0.0005653028  -0.0004317232  -0.0003127941
       -0.0002126087   0.0005925538   0.0000185614   0.0005044670  -0.0002880755
       -0.0001706078  -0.0004180361  -0.0003600635  -0.0002059593   0.0015163282
        0.0001901914   0.0001080695   0.0003175893  -0.0006549081   0.0007241401
        0.0006111519  -0.0001753903  -0.0028538227  -0.0010249084   0.0005471249
        0.0005432177   0.0010430487  -0.0016978078   0.0005450239  -0.0012557908
        0.0000737113  -0.0001117966   0.0001647676  -0.0005744308  -0.0000693091
       -0.0004456442  -0.0001857219   0.0003181232   0.0002696394   0.0003692998
       -0.0001325042   0.0003982236  -0.0000500407   0.0001866434   0.0002615359
        0.0009569289  -0.0003001291   0.0003312624  -0.0003024714   0.0009041428
       -0.0000614405  -0.0006717657  -0.0003476431   0.0003530360  -0.0000173569
        0.0002851360   0.0002290093  -0.0004763258   0.0002175177  -0.0000420166
       -0.0000485543  -0.0000862344  -0.0000182515   0.0002239345  -0.0000282526
       -0.0001939329   0.0000273791  -0.0001810955  -0.0001165969   0.0004371860
       -0.0000833071  -0.0001319701  -0.0002025845  -0.0001376993   0.0001751745
        0.0001205248   0.0001127494  -0.0001375886  -0.0002208872  -0.0002290658
       -0.0003381833   0.0003593304  -0.0002394708   0.0000891161  -0.0000257484
        0.0000013548   0.0004100726  -0.0001791906   0.0002056802  -0.0006850656
        0.0004288755  -0.0005409392   0.0000200269  -0.0001894982  -0.0003474611
        0.0433164323   0.0302107867   0.0476080898  -0.0047195366  -0.1757142155
        0.0716364007   0.0090013428   0.0055208071   0.0113766251  -0.0191380546
       -0.0123012500  -0.0212620878   0.0017682711   0.0017695433   0.0009835374
       -0.0065285796  -0.0200840623   0.0029571958  -0.0027073180   0.0014884206
        0.0000888436   0.0001317539   0.0003950831  -0.0000360882   0.0000318528
       -0.0000958303   0.0000589828   0.0001474009  -0.0001640993   0.0002691362
       -0.0000027015  -0.0001941989   0.0001800202  -0.0000582371  -0.0000759788
        0.0001461808   0.0000036712  -0.0002640061   0.0003119747   0.0000911072
       -0.0000709376   0.0000405608   0.0000992779   0.0000600297   0.0000864637
        0.0000404112   0.0000889159   0.0000565051  -0.0000332877   0.0001207837
        0.0000664199   0.0000250501   0.0000593938  -0.0000565065  -0.0000228246
        0.0000403758   0.0000103533  -0.0000511359   0.0000315308  -0.0000808873
       -0.0000274857  -0.0000311434   0.0000078276   0.0000044976   0.0000487573
       -0.0000044590  -0.0000595824   0.0000108143   0.0000007480  -0.0000267414
        0.0000016264  -0.0000620715  -0.0000143522   0.0000514177   0.0000006203
       -0.0000063150  -0.0000014481   0.0000269025  -0.0000009161  -0.0000813576
        0.0000501336  -0.0000091319  -0.0000621876   0.0000223440  -0.0000384939
       -0.0000402288   0.0001007460   0.0002393987  -0.0000179822  -0.0000531255
       -0.0000057001   0.0000096387   0.0000704922   0.0000173884   0.0000050640
        0.0000029388  -0.0000115248   0.0000447655  -0.0000269500   0.0038197543
       -0.0212238429   0.0192547732
       -0.0711943576  -0.0344206702  -0.1463964543   0.1971262053  -0.0835848833
        0.4947545395  -0.0297628361  -0.0262743079  -0.0805376289   0.0014267457
       -0.0217089578   0.0162160210   0.0059820868   0.0154375519  -0.0050081205
       -0.0020195391   0.0042784095  -0.0061841908   0.0024318593   0.0013923465
        0.0030246546  -0.0012940760   0.0050244179  -0.0052282606  -0.0023647106
       -0.0078772008   0.0010316904  -0.0004864804   0.0000727531  -0.0003498170
        0.0031428123   0.0012535938   0.0035425646  -0.0052511305  -0.0092671657
       -0.0046602415   0.0014799137  -0.0026429791   0.0117505930   0.0004964226
       -0.0004037284   0.0001571996   0.0000881324   0.0000346708   0.0000556181
        0.0000495481  -0.0000883085  -0.0000556070  -0.0001133512   0.0001827792
        0.0000666550   0.0000224043   0.0002296424   0.0001140589  -0.0005405742
       -0.0000533039  -0.0000488544  -0.0000820965   0.0005279978  -0.0000635577
       -0.0015742906  -0.0000892227   0.0017547281   0.0016181548  -0.0007776301
       -0.0008948936  -0.0010927034   0.0018726320   0.0002164801   0.0018285276
       -0.0000804411  -0.0001250402  -0.0003047088   0.0007395912  -0.0000318322
        0.0007786116   0.0002977254  -0.0003971030  -0.0004599842  -0.0006888507
        0.0002137563  -0.0006460224   0.0001883022  -0.0002720459  -0.0004159311
       -0.0013761068   0.0005199172  -0.0003517624   0.0004587702  -0.0011578639
        0.0000731502   0.0007893087   0.0005377709  -0.0004901898   0.0001556934
       -0.0003979831  -0.0003839050   0.0004713001  -0.0003613082   0.0000963648
        0.0000854200   0.0001187961  -0.0001407874  -0.0002122747  -0.0001115632
        0.0005128930  -0.0000202496   0.0004226364  -0.0000505638  -0.0006983612
       -0.0000647918   0.0003656736   0.0000609875   0.0003105214  -0.0004667282
       -0.0002982820  -0.0004202634   0.0003005774   0.0003177556   0.0003212171
        0.0005279211  -0.0002808822   0.0004669249  -0.0003096641  -0.0000038480
       -0.0001451893  -0.0004183499   0.0003798725  -0.0001614351   0.0007033590
       -0.0004211078   0.0004209557  -0.0001321527  -0.0001244595  -0.0001048263
       -0.0363610099  -0.0010304731  -0.0566949184  -0.0403994236   0.1413721152
       -0.1923371401  -0.0063857462   0.0021340262  -0.0041734422  -0.0003590892
       -0.0021387005   0.0011731173  -0.0171282389  -0.0058913183  -0.0278527019
        0.0069167806   0.0214922681  -0.0016817095  -0.0057001727  -0.0005862426
       -0.0008088077   0.0000162795  -0.0001439712   0.0000760739   0.0000461890
        0.0000627132  -0.0000317216  -0.0000407577   0.0000872829  -0.0001610007
        0.0000066721   0.0001421473  -0.0000705394   0.0000380544   0.0000133983
       -0.0000782827   0.0000319410   0.0001024413  -0.0001402079  -0.0000227891
        0.0000420478  -0.0000473964  -0.0000762543  -0.0000573587  -0.0000136797
       -0.0000207827  -0.0001179129  -0.0000176526   0.0000627533  -0.0000897588
       -0.0000495762  -0.0000544086  -0.0000840474   0.0000830186   0.0000346511
       -0.0000705786  -0.0000025516   0.0000899159  -0.0000463215   0.0001010627
        0.0000433622   0.0000477802   0.0000038015   0.0000050877  -0.0000864602
        0.0000233641   0.0000789097   0.0000002429  -0.0000022049   0.0000129170
       -0.0000032922   0.0000830169   0.0000121692  -0.0000644039  -0.0000007468
        0.0000224602   0.0000496186   0.0000210410  -0.0000077283   0.0001213506
       -0.0000338603   0.0000045607   0.0001051455  -0.0000112225  -0.0000253964
        0.0001056854  -0.0000545856   0.0002806679  -0.0002278997   0.0000969317
        0.0000940859   0.0000579325  -0.0001307127   0.0000053382  -0.0000167945
       -0.0000037718   0.0000069617  -0.0001040035   0.0000454642   0.0000675725
        0.0019650421  -0.0001468856
       -0.0107179157  -0.0187010643  -0.0054178949  -0.0935898056  -0.0571834572
       -0.0297628361   0.3135170621   0.1238966535   0.2277706882  -0.1494010937
       -0.0782460585  -0.1102378957  -0.0116648339   0.0346727297  -0.0416150616
        0.0090245617   0.0010113336   0.0026315384  -0.0011831851  -0.0009032137
       -0.0009980915  -0.0003123507   0.0008270029  -0.0000793696  -0.0002569402
       -0.0014470318   0.0001096763  -0.0002433772  -0.0000112251  -0.0001760769
        0.0003895403   0.0001844126   0.0007159733  -0.0003997555   0.0005397130
       -0.0011948286  -0.0003756493   0.0004105638   0.0000627323  -0.0002796087
       -0.0008466763   0.0001835227   0.0000347283   0.0001477281  -0.0000440782
       -0.0002920685   0.0001319510   0.0000543474   0.0003262819  -0.0000106461
       -0.0000437886  -0.0003467225  -0.0001484755   0.0001550235   0.0004426603
        0.0001614742  -0.0000535527   0.0001902971   0.0000660760  -0.0003738285
       -0.0020207210   0.0009028018   0.0011751896   0.0019419623  -0.0010792416
       -0.0007111408  -0.0011056246   0.0011447139   0.0001037662   0.0014827674
       -0.0002158493  -0.0001152364  -0.0002025378   0.0006924583   0.0000083562
        0.0006173381   0.0002199686  -0.0003113548  -0.0003999256  -0.0004788981
        0.0001838843  -0.0004504958   0.0000910545  -0.0001888158  -0.0004270687
       -0.0010142293   0.0004045966  -0.0002054400   0.0003195796  -0.0005586604
       -0.0000400620   0.0004194316   0.0002806249  -0.0002874227   0.0001707775
       -0.0002229963  -0.0002725114   0.0002194297  -0.0002766327   0.0000620827
        0.0000583313   0.0001109355  -0.0001568624  -0.0001110130  -0.0001209756
        0.0003613432  -0.0000058719   0.0003093470  -0.0000672998  -0.0004526045
       -0.0000725305   0.0002899852  -0.0000628654   0.0002244379  -0.0003444481
       -0.0002145299  -0.0003137496   0.0002702051   0.0001600110   0.0002610069
        0.0003966837  -0.0000713957   0.0003105558  -0.0001697237  -0.0000110657
       -0.0000320913  -0.0001627377   0.0003068596   0.0000033522   0.0003700812
       -0.0001779527   0.0001523248   0.0003162763  -0.0003441323  -0.0000816967
       -0.0194244986  -0.0193621873  -0.0102531949   0.0191265560  -0.0102656150
        0.0337748712   0.0007256678  -0.0014368733  -0.0001293132  -0.0015888452
       -0.0017111888  -0.0032031054   0.0000304748  -0.0011177933   0.0005969485
       -0.0515013232   0.0352718751  -0.0497180264  -0.0068563925  -0.0058101897
       -0.0087659326   0.0001137455  -0.0001768486  -0.0000257980   0.0000251920
       -0.0000241847  -0.0000564923  -0.0001446617   0.0000209248  -0.0001124452
       -0.0000034368   0.0000125908  -0.0001171089   0.0000579757   0.0000541721
       -0.0000557986  -0.0000751414   0.0000892484  -0.0001581141  -0.0000642670
       -0.0000220976   0.0000557858  -0.0000282190   0.0000111991  -0.0000029458
       -0.0000061483  -0.0000622793  -0.0000059398   0.0000545847  -0.0000085318
       -0.0000442905   0.0000032849  -0.0000706726   0.0000344752   0.0000364511
       -0.0000336205  -0.0000079788   0.0000455876  -0.0000290880   0.0000628522
        0.0000252310   0.0000379791   0.0000015175   0.0000127558  -0.0000565235
        0.0000222454   0.0000683230   0.0000043237  -0.0000033873   0.0000191338
        0.0000037728   0.0000718307   0.0000149850  -0.0000577859   0.0000000326
        0.0000054356   0.0000179815  -0.0000231933  -0.0000065746   0.0001002447
       -0.0000517248   0.0000197764   0.0000872753  -0.0000215609  -0.0000702608
        0.0000562643  -0.0000289824  -0.0000204986  -0.0001039503  -0.0000272104
        0.0000371332  -0.0000005979  -0.0001041508  -0.0000346560  -0.0000030225
       -0.0000088378   0.0000171670  -0.0000851417   0.0000205517   0.0047277936
       -0.0003472176  -0.0039242747
       -0.0096223196  -0.0120195546  -0.0064098867  -0.0999305519  -0.2575191779
       -0.0262743079   0.1238966535   0.5736512537  -0.0944076849  -0.0378591920
       -0.1110749785  -0.0149564549   0.0064473867   0.0389930475  -0.0131424530
        0.0032360049   0.0013907478   0.0082553500  -0.0007534715  -0.0009572482
       -0.0006153764   0.0001138299   0.0018152429  -0.0014090123  -0.0010181815
       -0.0034192101   0.0001860209  -0.0003627223   0.0000466647  -0.0001869086
        0.0019438654   0.0002479374   0.0020900520  -0.0020446326  -0.0026721133
       -0.0025824467   0.0026422136  -0.0005932467   0.0063205980  -0.0001034638
       -0.0007819915   0.0001208726   0.0000877276   0.0001501681   0.0000685158
       -0.0001810558   0.0000638451   0.0000461424   0.0001655121   0.0000229826
       -0.0000196303  -0.0001719070  -0.0000503384   0.0001806060   0.0000407382
        0.0000758743   0.0000357777   0.0000504163   0.0002006346  -0.0006551834
       -0.0015078463   0.0009251151   0.0015284344   0.0016114160  -0.0006403227
       -0.0004946939  -0.0008473288   0.0006900283  -0.0002734987   0.0009872622
       -0.0001277738   0.0000388943  -0.0000748634   0.0004603647   0.0000309007
        0.0003718157   0.0001530632  -0.0002279319  -0.0002549574  -0.0003456410
        0.0001295838  -0.0003682623   0.0000801667  -0.0001310046  -0.0002282515
       -0.0007428612   0.0002625372  -0.0001878816   0.0002304011  -0.0004581622
       -0.0000340926   0.0003730119   0.0002025436  -0.0002386352   0.0001230720
       -0.0001817411  -0.0002221909   0.0002300491  -0.0002259041   0.0000502582
        0.0000450668   0.0000996002  -0.0000868880  -0.0001294295  -0.0000594788
        0.0002326066  -0.0000280182   0.0002103602   0.0000071936  -0.0003522643
       -0.0000074015   0.0002000939  -0.0000092127   0.0001662919  -0.0002312937
       -0.0001987312  -0.0001785653   0.0001296698   0.0001711224   0.0001544831
        0.0003516575  -0.0000996127   0.0002734695  -0.0001264257   0.0000218494
       -0.0000267396  -0.0001820459   0.0002268107  -0.0000291496   0.0003573511
       -0.0001765459   0.0002094917   0.0003632138  -0.0003419701   0.0001015327
       -0.0224686002  -0.0222463442  -0.0241529240   0.0193797882  -0.0496911798
        0.0603483947   0.0009371897  -0.0005534517   0.0007865892  -0.0013495338
       -0.0004319163  -0.0011581389  -0.0001340086  -0.0000577041   0.0016229893
        0.0353100105  -0.1429539250   0.1208161115  -0.0176641650  -0.0110858271
       -0.0195625704  -0.0000200693  -0.0001018846   0.0002003759  -0.0000136649
        0.0000161888  -0.0000052063  -0.0001886450   0.0000383492  -0.0001547417
       -0.0000006472   0.0000450872  -0.0001430790   0.0000583403   0.0000730013
       -0.0000847334   0.0000230728   0.0000976698  -0.0001485072   0.0000268459
       -0.0001052949   0.0000449753  -0.0000316855  -0.0000067066  -0.0000018082
       -0.0000083233  -0.0000652514  -0.0000238740   0.0000512725  -0.0000353907