      -----------------------------------------------------------      
     |                   =====================                   |     
     |                           x T B                           |     
     |                   =====================                   |     
     |                         S. Grimme                         |     
     |          Mulliken Center for Theoretical Chemistry        |     
     |                    University of Bonn                     |     
      -----------------------------------------------------------      

   * xtb version 6.7.1 (edcfbbe) compiled by 'albert@albert-system' on 2024-07-22

   xtb is free software: you can redistribute it and/or modify it under
   the terms of the GNU Lesser General Public License as published by
   the Free Software Foundation, either version 3 of the License, or
   (at your option) any later version.
   
   xtb is distributed in the hope that it will be useful,
   but WITHOUT ANY WARRANTY; without even the implied warranty of
   MERCHANTABILITY or FITNESS FOR A PARTICULAR PURPOSE.  See the
   GNU Lesser General Public License for more details.
   
   Cite this work as:
   * C. Bannwarth, E. Caldeweyher, S. Ehlert, A. Hansen, P. Pracht,
     J. Seibert, S. Spicher, S. Grimme, WIREs Comput. Mol. Sci., 2020, 11,
     e01493. DOI: 10.1002/wcms.1493
   
   for GFN2-xTB:
   * C. Bannwarth, S. Ehlert and S. Grimme., J. Chem. Theory Comput., 2019,
     15, 1652-1671. DOI: 10.1021/acs.jctc.8b01176
   for GFN1-xTB:
   * S. Grimme, C. Bannwarth, P. Shushkov, J. Chem. Theory Comput., 2017,
     13, 1989-2009. DOI: 10.1021/acs.jctc.7b00118
   for GFN0-xTB:
   * P. Pracht, E. Caldeweyher, S. Ehlert, S. Grimme, ChemRxiv, 2019, preprint.
     DOI: 10.26434/chemrxiv.8326202.v1
   for GFN-FF:
   * S. Spicher and S. Grimme, Angew. Chem. Int. Ed., 2020, 59, 15665-15673.
     DOI: 10.1002/anie.202004239
   
   for ALPB and GBSA implicit solvation:
   * S. Ehlert, M. Stahn, S. Spicher, S. Grimme, J. Chem. Theory Comput.,
     2021, 17, 4250-4261. DOI: 10.1021/acs.jctc.1c00471
   
   for ddCOSMO and CPCM-X implicit solvation:
   * M. Stahn, S. Ehlert, S. Grimme, J. Phys. Chem. A,
     2023, XX, XXXX-XXXX. DOI: 10.1021/acs.jpca.3c04382
   
   for DFT-D4:
   * E. Caldeweyher, C. Bannwarth and S. Grimme, J. Chem. Phys., 2017,
     147, 034112. DOI: 10.1063/1.4993215
   * E. Caldeweyher, S. Ehlert, A. Hansen, H. Neugebauer, S. Spicher,
     C. Bannwarth and S. Grimme, J. Chem. Phys., 2019, 150, 154122.
     DOI: 10.1063/1.5090222
   * E. Caldeweyher, J.-M. Mewes, S. Ehlert and S. Grimme, Phys. Chem. Chem. Phys.
     2020, 22, 8499-8512. DOI: 10.1039/D0CP00502A
   
   for sTDA-xTB:
   * S. Grimme and C. Bannwarth, J. Chem. Phys., 2016, 145, 054103.
     DOI: 10.1063/1.4959605
   
   in the mass-spec context:
   * V. Asgeirsson, C. Bauer and S. Grimme, Chem. Sci., 2017, 8, 4879.
     DOI: 10.1039/c7sc00601b
   * J. Koopman and S. Grimme, ACS Omega 2019, 4, 12, 15120-15133.
     DOI: 10.1021/acsomega.9b02011
   
   for metadynamics refer to:
   * S. Grimme, J. Chem. Theory Comput., 2019, 155, 2847-2862
     DOI: 10.1021/acs.jctc.9b00143
   
   for SPH calculations refer to:
   * S. Spicher and S. Grimme, J. Chem. Theory Comput., 2021, 17, 1701-1714
     DOI: 10.1021/acs.jctc.0c01306
   
   for ONIOM refer to:
   * C. Plett, A. Katbashev, S. Ehlert, S. Grimme, M. Bursch,
     Phys. Chem. Chem. Phys., 2023, 25, 17860-17868. DOI: 10.1039/D3CP02178E
   
   for DIPRO refer to:
   * J. Kohn, N. Gildemeister, S. Grimme, D. Fazzi, A. Hansen,
     J. Chem. Phys., 2023, just accepted.
   
   for PTB refer to:
   * S. Grimme, M. Mueller, A. Hansen, J. Chem. Phys., 2023, 158, 124111.
     DOI: 10.1063/5.0137838
   
   with help from (in alphabetical order)
   P. Atkinson, C. Bannwarth, F. Bohle, G. Brandenburg, E. Caldeweyher
   M. Checinski, S. Dohm, S. Ehlert, S. Ehrlich, I. Gerasimov, C. Hölzer
   A. Katbashev, J. Kohn, J. Koopman, C. Lavigne, S. Lehtola, F. März, M. Müller,
   F. Musil, H. Neugebauer, J. Pisarek, C. Plett, P. Pracht, F. Pultar,
   J. Seibert, P. Shushkov, S. Spicher, M. Stahn, M. Steiner, T. Strunk,
   J. Stückrath, T. Rose, and J. Unsleber
   
 * started run on 2025/08/25 at 08:09:52.882     
   ID    Z sym.   atoms
    1    6 C      1-12, 14-20, 23-29, 31-44, 46, 47
    2    7 N      13, 21, 22, 30
    3    8 O      45
    4    1 H      48-79

           -------------------------------------------------
          |                Calculation Setup                |
           -------------------------------------------------

          program call               : xtb data2507/toluene/2,7-MeCzOXD/2,7-MeCzOXD.xyz --gfn 2 --gbsa toluene --ohess vtight --parallel 40 --molden --ceasefiles --namespace data2507/toluene/2,7-MeCzOXD/2,7-MeCzOXD_toluene_S0_preOpt
          calculation namespace      : data2507/toluene/2,7-MeCzOXD/2,7-MeCzOXD_toluene_S0_preOpt
          coordinate file            : data2507/toluene/2,7-MeCzOXD/2,7-MeCzOXD.xyz
          omp threads                :                    40


           -------------------------------------------------
          |                 G F N 2 - x T B                 |
           -------------------------------------------------

        Reference                      10.1021/acs.jctc.8b01176
      * Hamiltonian:
        H0-scaling (s, p, d)           1.850000    2.230000    2.230000
        zeta-weighting                 0.500000
      * Dispersion:
        s8                             2.700000
        a1                             0.520000
        a2                             5.000000
        s9                             5.000000
      * Repulsion:
        kExp                           1.500000    1.000000
        rExp                           1.000000
      * Coulomb:
        alpha                          2.000000
        third order                    shell-resolved
        anisotropic                    true
        a3                             3.000000
        a5                             4.000000
        cn-shift                       1.200000
        cn-exp                         4.000000
        max-rad                        5.000000

      * Solvation model:               GBSA
        Solvent                        toluene
        Parameter file                 internal GFN2-xTB/GBSA
        Dielectric constant                7.0000E+00
        Reference state                gsolv [1 M gas/solution]
        Free energy shift                  4.5239E-03 Eh       2.8388E+00 kcal/mol
        Temperature                        2.9815E+02 K
        Density                            8.6700E-01 kg/L
        Solvent mass                       9.2140E+01 g/mol
        Interaction kernel             Still
        Born radius scaling (c1)           1.5686E+00
        Born radii integrator          GBOBC
        Born offset                        0.0000E+00 a0       0.0000E+00 AA
        H-bond correction              false
        Ion screening                  false
        Surface tension                    1.0000E-05 Eh       1.5569E+01 dyn/cm
        Grid points                               230 per atom

          ...................................................
          :                      SETUP                      :
          :.................................................:
          :  # basis functions                 220          :
          :  # atomic orbitals                 220          :
          :  # shells                          126          :
          :  # electrons                       226          :
          :  max. iterations                   250          :
          :  Hamiltonian                  GFN2-xTB          :
          :  restarted?                      false          :
          :  GBSA solvation                   true          :
          :  PC potential                    false          :
          :  electronic temp.          300.0000000     K    :
          :  accuracy                    1.0000000          :
          :  -> integral cutoff          0.2500000E+02      :
          :  -> integral neglect         0.1000000E-07      :
          :  -> SCF convergence          0.1000000E-05 Eh   :
          :  -> wf. convergence          0.1000000E-03 e    :
          :  Broyden damping             0.4000000          :
          :  net charge                          0          :
          :  unpaired electrons                  0          :
          ...................................................

 iter      E             dE          RMSdq      gap      omega  full diag
   1   -124.0429388 -0.124043E+03  0.403E+00    2.45       0.0  T
   2   -124.1285286 -0.855898E-01  0.245E+00    2.10       1.0  T
   3   -124.0903090  0.382196E-01  0.122E+00    1.93       1.0  T
   4   -124.1545739 -0.642649E-01  0.231E-01    1.79       1.0  T
   5   -124.1570588 -0.248490E-02  0.917E-02    1.80       1.0  T
   6   -124.1573686 -0.309813E-03  0.445E-02    1.82       1.0  T
   7   -124.1574792 -0.110576E-03  0.177E-02    1.83       1.0  T
   8   -124.1574818 -0.255347E-05  0.686E-03    1.83       1.6  T
   9   -124.1574841 -0.229653E-05  0.210E-03    1.83       5.4  T
  10   -124.1574841 -0.879874E-07  0.974E-04    1.83      11.5  T
  11   -124.1574842 -0.165034E-07  0.607E-04    1.83      18.5  T

   *** convergence criteria satisfied after 11 iterations ***

         #    Occupation            Energy/Eh            Energy/eV
      -------------------------------------------------------------
         1        2.0000           -0.7719482             -21.0058
       ...           ...                  ...                  ...
       107        2.0000           -0.3998935             -10.8817
       108        2.0000           -0.3982462             -10.8368
       109        2.0000           -0.3948562             -10.7446
       110        2.0000           -0.3689682             -10.0401
       111        2.0000           -0.3657567              -9.9527
       112        2.0000           -0.3612005              -9.8288
       113        2.0000           -0.3583439              -9.7510 (HOMO)
       114                         -0.2910912              -7.9210 (LUMO)
       115                         -0.2703009              -7.3553
       116                         -0.2513609              -6.8399
       117                         -0.2511567              -6.8343
       118                         -0.2428208              -6.6075
       ...                                ...                  ...
       220                          0.7254476              19.7404
      -------------------------------------------------------------
                  HL-Gap            0.0672527 Eh            1.8300 eV
             Fermi-level           -0.3247175 Eh           -8.8360 eV

 SCC (total)                   0 d,  0 h,  0 min,  0.164 sec
 SCC setup                      ...        0 min,  0.008 sec (  5.004%)
 Dispersion                     ...        0 min,  0.004 sec (  2.141%)
 classical contributions        ...        0 min,  0.000 sec (  0.118%)
 integral evaluation            ...        0 min,  0.008 sec (  4.949%)
 iterations                     ...        0 min,  0.132 sec ( 80.716%)
 molecular gradient             ...        0 min,  0.011 sec (  6.725%)
 printout                       ...        0 min,  0.000 sec (  0.301%)

         :::::::::::::::::::::::::::::::::::::::::::::::::::::
         ::                     SUMMARY                     ::
         :::::::::::::::::::::::::::::::::::::::::::::::::::::
         :: total energy            -122.147730607276 Eh    ::
         :: total w/o Gsasa/hb      -122.101004049516 Eh    ::
         :: gradient norm              0.119487425958 Eh/a0 ::
         :: HOMO-LUMO gap              1.830040419817 eV    ::
         ::.................................................::
         :: SCC energy              -124.154248973196 Eh    ::
         :: -> isotropic ES            0.046328618609 Eh    ::
         :: -> anisotropic ES          0.015078568569 Eh    ::
         :: -> anisotropic XC          0.072577537984 Eh    ::
         :: -> dispersion             -0.107226739193 Eh    ::
         :: -> Gsolv                  -0.053042209920 Eh    ::
         ::    -> Gelec               -0.006315652161 Eh    ::
         ::    -> Gsasa               -0.051250437632 Eh    ::
         ::    -> Ghb                  0.000000000000 Eh    ::
         ::    -> Gshift               0.004523879872 Eh    ::
         :: repulsion energy           2.006518365920 Eh    ::
         :: add. restraining           0.000000000000 Eh    ::
         :: total charge              -0.000000000000 e     ::
         :::::::::::::::::::::::::::::::::::::::::::::::::::::

      ----------------------------------------------------------- 
     |                   =====================                   |
     |                        A N C O P T                        |
     |                   =====================                   |
     |               Approximate Normal Coordinate               |
     |                Rational Function Optimizer                |
      ----------------------------------------------------------- 

Optimization log is written to '/dev/null'
      ----------------------------------------------------------- 
     |                   =====================                   |
     |                        A N C O P T                        |
     |                   =====================                   |
     |               Approximate Normal Coordinate               |
     |                Rational Function Optimizer                |
      ----------------------------------------------------------- 

          ...................................................
          :                      SETUP                      :
          :.................................................:
          :   optimization level         verytight          :
          :   max. optcycles                  1580          :
          :   ANC micro-cycles                  20          :
          :   degrees of freedom               231          :
          :.................................................:
          :   RF solver                   davidson          :
          :   write xtbopt.log                true          :
          :   linear?                        false          :
          :   energy convergence         0.1000000E-06 Eh   :
          :   grad. convergence          0.2000000E-03 Eh/α :
          :   maxmium RF displ.          1.0000000          :
          :   Hlow (freq-cutoff)         0.1000000E-01      :
          :   Hmax (freq-cutoff)         5.0000000          :
          :   S6 in model hess.         20.0000000          :
          ...................................................

generating ANC from exact Hessian ...
Using Lindh-Hessian (1995)
 Shifting diagonal of input Hessian by   9.941671537469530E-003
 Lowest  eigenvalues of input Hessian
    0.000000    0.000000    0.000000    0.000000    0.000000    0.000000
    0.010000    0.010073    0.010121    0.010301    0.010532    0.010840
    0.010902    0.010940    0.011316    0.011599    0.012006    0.012382
 Highest eigenvalues
    2.088980    2.093154    2.104085    2.106241    2.108612    2.130919
 

........................................................................
.............................. CYCLE    1 ..............................
........................................................................

 iter      E             dE          RMSdq      gap      omega  full diag
   1   -124.1574842 -0.124157E+03  0.202E-04    1.83       0.0  T
   2   -124.1574842 -0.538989E-09  0.134E-04    1.83      83.9  T
   3   -124.1574842 -0.238259E-09  0.966E-05    1.83     116.4  T
     SCC iter.                  ...        0 min,  0.027 sec
     gradient                   ...        0 min,  0.010 sec
 * total energy  :  -122.1477306 Eh     change       -0.6044772E-08 Eh
   gradient norm :     0.1194856 Eh/α   predicted     0.0000000E+00 (-100.00%)
   displ. norm   :     0.3527594 α      lambda       -0.2184590E-01
   maximum displ.:     0.1249516 α      in ANC's #48, #45, #46, ...

........................................................................
.............................. CYCLE    2 ..............................
........................................................................

 iter      E             dE          RMSdq      gap      omega  full diag
   1   -124.2559929 -0.124256E+03  0.170E-01    1.91       0.0  T
   2   -124.2560589 -0.659639E-04  0.102E-01    1.91       1.0  T
   3   -124.2559337  0.125147E-03  0.455E-02    1.91       1.0  T
   4   -124.2560947 -0.160999E-03  0.643E-03    1.91       1.7  T
   5   -124.2560975 -0.277841E-05  0.339E-03    1.91       3.3  T
   6   -124.2560978 -0.314345E-06  0.135E-03    1.91       8.3  T
   7   -124.2560979 -0.267837E-07  0.331E-04    1.91      34.0  T
   8   -124.2560979 -0.180951E-08  0.194E-04    1.91      57.9  T
     SCC iter.                  ...        0 min,  0.064 sec
     gradient                   ...        0 min,  0.010 sec
 * total energy  :  -122.1625352 Eh     change       -0.1480462E-01 Eh
   gradient norm :     0.0400336 Eh/α   predicted    -0.1229167E-01 ( -16.97%)
   displ. norm   :     0.3463111 α      lambda       -0.5712926E-02
   maximum displ.:     0.1350604 α      in ANC's #48, #17, #46, ...

........................................................................
.............................. CYCLE    3 ..............................
........................................................................

 iter      E             dE          RMSdq      gap      omega  full diag
   1   -124.3059292 -0.124306E+03  0.115E-01    1.93       0.0  T
   2   -124.3059715 -0.422986E-04  0.686E-02    1.94       1.0  T
   3   -124.3058991  0.723945E-04  0.344E-02    1.94       1.0  T
   4   -124.3059969 -0.978766E-04  0.496E-03    1.94       2.3  T
   5   -124.3059983 -0.133890E-05  0.216E-03    1.94       5.2  T
   6   -124.3059984 -0.131008E-06  0.993E-04    1.94      11.3  T
   7   -124.3059984 -0.182502E-07  0.272E-04    1.94      41.4  T
     SCC iter.                  ...        0 min,  0.056 sec
     gradient                   ...        0 min,  0.010 sec
 * total energy  :  -122.1659934 Eh     change       -0.3458142E-02 Eh
   gradient norm :     0.0117365 Eh/α   predicted    -0.3200281E-02 (  -7.46%)
   displ. norm   :     0.2599590 α      lambda       -0.1112922E-02
   maximum displ.:     0.1228605 α      in ANC's #17, #18, #48, ...

........................................................................
.............................. CYCLE    4 ..............................
........................................................................

 iter      E             dE          RMSdq      gap      omega  full diag
   1   -124.3140240 -0.124314E+03  0.646E-02    1.93       0.0  T
   2   -124.3140385 -0.145311E-04  0.386E-02    1.94       1.0  T
   3   -124.3140153  0.231819E-04  0.188E-02    1.93       1.0  T
   4   -124.3140467 -0.314210E-04  0.302E-03    1.93       3.7  T
   5   -124.3140472 -0.425391E-06  0.118E-03    1.93       9.5  T
   6   -124.3140472 -0.375433E-07  0.605E-04    1.93      18.6  T
   7   -124.3140472 -0.102236E-07  0.162E-04    1.93      69.4  T
     SCC iter.                  ...        0 min,  0.060 sec
     gradient                   ...        0 min,  0.010 sec
 * total energy  :  -122.1668134 Eh     change       -0.8200012E-03 Eh
   gradient norm :     0.0085201 Eh/α   predicted    -0.5940700E-03 ( -27.55%)
   displ. norm   :     0.3504394 α      lambda       -0.8589964E-03
   maximum displ.:     0.1696215 α      in ANC's #17, #10, #11, ...

........................................................................
.............................. CYCLE    5 ..............................
........................................................................

 iter      E             dE          RMSdq      gap      omega  full diag
   1   -124.3149714 -0.124315E+03  0.801E-02    1.92       0.0  T
   2   -124.3149885 -0.171184E-04  0.468E-02    1.93       1.0  T
   3   -124.3149551  0.334276E-04  0.210E-02    1.93       1.0  T
   4   -124.3149981 -0.430226E-04  0.335E-03    1.93       3.4  T
   5   -124.3149985 -0.423893E-06  0.146E-03    1.93       7.7  T
   6   -124.3149986 -0.565840E-07  0.699E-04    1.93      16.1  T
   7   -124.3149986 -0.158664E-07  0.199E-04    1.93      56.7  T
     SCC iter.                  ...        0 min,  0.060 sec
     gradient                   ...        0 min,  0.010 sec
 * total energy  :  -122.1674096 Eh     change       -0.5961891E-03 Eh
   gradient norm :     0.0060396 Eh/α   predicted    -0.4822465E-03 ( -19.11%)
   displ. norm   :     0.3093587 α      lambda       -0.4528381E-03
   maximum displ.:     0.1352550 α      in ANC's #17, #10, #11, ...

........................................................................
.............................. CYCLE    6 ..............................
........................................................................

 iter      E             dE          RMSdq      gap      omega  full diag
   1   -124.3136487 -0.124314E+03  0.680E-02    1.93       0.0  T
   2   -124.3136573 -0.859593E-05  0.389E-02    1.93       1.0  T
   3   -124.3136399  0.173616E-04  0.148E-02    1.93       1.0  T
   4   -124.3136619 -0.219178E-04  0.248E-03    1.93       4.5  T
   5   -124.3136620 -0.144484E-06  0.119E-03    1.93       9.5  T
   6   -124.3136621 -0.496322E-07  0.472E-04    1.93      23.9  T
   7   -124.3136621 -0.783258E-08  0.168E-04    1.93      66.9  T
     SCC iter.                  ...        0 min,  0.060 sec
     gradient                   ...        0 min,  0.010 sec
 * total energy  :  -122.1677383 Eh     change       -0.3287801E-03 Eh
   gradient norm :     0.0074564 Eh/α   predicted    -0.2480889E-03 ( -24.54%)
   displ. norm   :     0.3080252 α      lambda       -0.3577450E-03
   maximum displ.:     0.1438690 α      in ANC's #10, #11, #17, ...

........................................................................
.............................. CYCLE    7 ..............................
........................................................................

 iter      E             dE          RMSdq      gap      omega  full diag
   1   -124.3127079 -0.124313E+03  0.672E-02    1.93       0.0  T
   2   -124.3127145 -0.652822E-05  0.382E-02    1.94       1.0  T
   3   -124.3127035  0.109562E-04  0.120E-02    1.94       1.0  T
   4   -124.3127174 -0.139323E-04  0.225E-03    1.94       5.0  T
   5   -124.3127176 -0.110896E-06  0.109E-03    1.94      10.3  T
   6   -124.3127176 -0.469442E-07  0.390E-04    1.94      28.8  T
   7   -124.3127176 -0.579465E-08  0.160E-04    1.94      70.5  T
     SCC iter.                  ...        0 min,  0.060 sec
     gradient                   ...        0 min,  0.011 sec
 * total energy  :  -122.1679971 Eh     change       -0.2587402E-03 Eh
   gradient norm :     0.0068938 Eh/α   predicted    -0.1958463E-03 ( -24.31%)
   displ. norm   :     0.2700876 α      lambda       -0.2644609E-03
   maximum displ.:     0.1475953 α      in ANC's #10, #11, #5, ...

........................................................................
.............................. CYCLE    8 ..............................
........................................................................

 iter      E             dE          RMSdq      gap      omega  full diag
   1   -124.3128002 -0.124313E+03  0.603E-02    1.94       0.0  T
   2   -124.3128047 -0.445244E-05  0.345E-02    1.95       1.0  T
   3   -124.3127996  0.509280E-05  0.881E-03    1.95       1.3  T
   4   -124.3128062 -0.660461E-05  0.192E-03    1.95       5.9  T
   5   -124.3128063 -0.126601E-06  0.890E-04    1.95      12.6  T
   6   -124.3128063 -0.247028E-07  0.348E-04    1.95      32.4  T
     SCC iter.                  ...        0 min,  0.052 sec
     gradient                   ...        0 min,  0.011 sec
 * total energy  :  -122.1681910 Eh     change       -0.1939008E-03 Eh
   gradient norm :     0.0043602 Eh/α   predicted    -0.1418954E-03 ( -26.82%)
   displ. norm   :     0.2456663 α      lambda       -0.2025699E-03
   maximum displ.:     0.1373461 α      in ANC's #10, #11, #5, ...

........................................................................
.............................. CYCLE    9 ..............................
........................................................................

 iter      E             dE          RMSdq      gap      omega  full diag
   1   -124.3134316 -0.124313E+03  0.565E-02    1.95       0.0  T
   2   -124.3134352 -0.367142E-05  0.326E-02    1.95       1.0  T
   3   -124.3134314  0.384114E-05  0.778E-03    1.95       1.4  T
   4   -124.3134364 -0.496518E-05  0.175E-03    1.95       6.4  T
   5   -124.3134365 -0.123213E-06  0.787E-04    1.95      14.3  T
   6   -124.3134365 -0.168952E-07  0.312E-04    1.95      36.0  T
     SCC iter.                  ...        0 min,  0.052 sec
     gradient                   ...        0 min,  0.011 sec
 * total energy  :  -122.1683433 Eh     change       -0.1523650E-03 Eh
   gradient norm :     0.0027888 Eh/α   predicted    -0.1073987E-03 ( -29.51%)
   displ. norm   :     0.2557928 α      lambda       -0.1638041E-03
   maximum displ.:     0.1398618 α      in ANC's #10, #11, #5, ...

........................................................................
.............................. CYCLE   10 ..............................
........................................................................

 iter      E             dE          RMSdq      gap      omega  full diag
   1   -124.3137657 -0.124314E+03  0.577E-02    1.95       0.0  T
   2   -124.3137694 -0.370540E-05  0.334E-02    1.95       1.0  T
   3   -124.3137642  0.524791E-05  0.880E-03    1.95       1.3  T
   4   -124.3137708 -0.662215E-05  0.170E-03    1.96       6.6  T
   5   -124.3137709 -0.100163E-06  0.821E-04    1.96      13.7  T
   6   -124.3137709 -0.209355E-07  0.300E-04    1.96      37.5  T
     SCC iter.                  ...        0 min,  0.052 sec
     gradient                   ...        0 min,  0.012 sec
 * total energy  :  -122.1684612 Eh     change       -0.1178364E-03 Eh
   gradient norm :     0.0030888 Eh/α   predicted    -0.8726179E-04 ( -25.95%)
   displ. norm   :     0.2073330 α      lambda       -0.9885707E-04
   maximum displ.:     0.1106681 α      in ANC's #10, #5, #2, ...

........................................................................
.............................. CYCLE   11 ..............................
........................................................................

 iter      E             dE          RMSdq      gap      omega  full diag
   1   -124.3142436 -0.124314E+03  0.436E-02    1.95       0.0  T
   2   -124.3142453 -0.167509E-05  0.253E-02    1.96       1.0  T
   3   -124.3142420  0.326872E-05  0.655E-03    1.96       1.7  T
   4   -124.3142460 -0.396624E-05  0.114E-03    1.96       9.9  T
   5   -124.3142461 -0.516012E-07  0.553E-04    1.96      20.3  T
   6   -124.3142461 -0.750950E-08  0.215E-04    1.96      52.5  T
     SCC iter.                  ...        0 min,  0.054 sec
     gradient                   ...        0 min,  0.012 sec
 * total energy  :  -122.1685307 Eh     change       -0.6955692E-04 Eh
   gradient norm :     0.0032318 Eh/α   predicted    -0.5155961E-04 ( -25.87%)
   displ. norm   :     0.1598534 α      lambda       -0.5810102E-04
   maximum displ.:     0.0816745 α      in ANC's #10, #2, #5, ...

........................................................................
.............................. CYCLE   12 ..............................
........................................................................

 iter      E             dE          RMSdq      gap      omega  full diag
   1   -124.3142991 -0.124314E+03  0.312E-02    1.95       0.0  T
   2   -124.3143000 -0.885721E-06  0.181E-02    1.96       1.0  T
   3   -124.3142983  0.169814E-05  0.489E-03    1.95       2.3  T
   4   -124.3143004 -0.207535E-05  0.785E-04    1.96      14.3  T
   5   -124.3143004 -0.210082E-07  0.403E-04    1.96      27.9  T
   6   -124.3143004 -0.491021E-08  0.154E-04    1.96      72.9  T
     SCC iter.                  ...        0 min,  0.052 sec
     gradient                   ...        0 min,  0.011 sec
 * total energy  :  -122.1685714 Eh     change       -0.4065385E-04 Eh
   gradient norm :     0.0020858 Eh/α   predicted    -0.2979306E-04 ( -26.72%)
   displ. norm   :     0.1210968 α      lambda       -0.4235116E-04
   maximum displ.:     0.0594724 α      in ANC's #2, #10, #5, ...

........................................................................
.............................. CYCLE   13 ..............................
........................................................................

 iter      E             dE          RMSdq      gap      omega  full diag
   1   -124.3149257 -0.124315E+03  0.209E-02    1.96       0.0  T
   2   -124.3149259 -0.248235E-06  0.123E-02    1.96       1.0  T
   3   -124.3149256  0.334676E-06  0.216E-03    1.96       5.2  T
   4   -124.3149260 -0.403652E-06  0.402E-04    1.96      28.0  T
   5   -124.3149260 -0.666341E-08  0.204E-04    1.96      55.1  T
     SCC iter.                  ...        0 min,  0.043 sec
     gradient                   ...        0 min,  0.011 sec
 * total energy  :  -122.1686008 Eh     change       -0.2938465E-04 Eh
   gradient norm :     0.0020741 Eh/α   predicted    -0.2148770E-04 ( -26.87%)
   displ. norm   :     0.1248842 α      lambda       -0.3790475E-04
   maximum displ.:     0.0660717 α      in ANC's #2, #5, #10, ...

........................................................................
.............................. CYCLE   14 ..............................
........................................................................

 iter      E             dE          RMSdq      gap      omega  full diag
   1   -124.3143027 -0.124314E+03  0.192E-02    1.96       0.0  T
   2   -124.3143030 -0.299461E-06  0.113E-02    1.96       1.0  T
   3   -124.3143026  0.445421E-06  0.262E-03    1.96       4.3  T
   4   -124.3143031 -0.529991E-06  0.412E-04    1.96      27.3  T
   5   -124.3143031 -0.947612E-08  0.189E-04    1.96      59.6  T
     SCC iter.                  ...        0 min,  0.044 sec
     gradient                   ...        0 min,  0.011 sec
 * total energy  :  -122.1686273 Eh     change       -0.2651198E-04 Eh
   gradient norm :     0.0019023 Eh/α   predicted    -0.1925124E-04 ( -27.39%)
   displ. norm   :     0.1848129 α      lambda       -0.3551567E-04
   maximum displ.:     0.1020148 α      in ANC's #2, #5, #22, ...

........................................................................
.............................. CYCLE   15 ..............................
........................................................................

 iter      E             dE          RMSdq      gap      omega  full diag
   1   -124.3140636 -0.124314E+03  0.310E-02    1.96       0.0  T
   2   -124.3140649 -0.128337E-05  0.181E-02    1.96       1.0  T
   3   -124.3140627  0.219468E-05  0.577E-03    1.96       1.9  T
   4   -124.3140655 -0.277054E-05  0.982E-04    1.96      11.5  T
   5   -124.3140655 -0.237334E-07  0.492E-04    1.96      22.9  T
   6   -124.3140655 -0.788641E-08  0.177E-04    1.96      63.6  T
     SCC iter.                  ...        0 min,  0.052 sec
     gradient                   ...        0 min,  0.011 sec
 * total energy  :  -122.1686610 Eh     change       -0.3366783E-04 Eh
   gradient norm :     0.0027936 Eh/α   predicted    -0.1802980E-04 ( -46.45%)
   displ. norm   :     0.0925368 α      lambda       -0.2932000E-04
   maximum displ.:     0.0553620 α      in ANC's #2, #5, #22, ...

........................................................................
.............................. CYCLE   16 ..............................
........................................................................

 iter      E             dE          RMSdq      gap      omega  full diag
   1   -124.3137460 -0.124314E+03  0.136E-02    1.96       0.0  T
   2   -124.3137461 -0.104270E-06  0.797E-03    1.96       1.4  T
   3   -124.3137459  0.151735E-06  0.146E-03    1.96       7.7  T
   4   -124.3137461 -0.188786E-06  0.315E-04    1.96      35.7  T
   5   -124.3137461 -0.316908E-08  0.164E-04    1.96      68.6  T
     SCC iter.                  ...        0 min,  0.043 sec
     gradient                   ...        0 min,  0.011 sec
 * total energy  :  -122.1686851 Eh     change       -0.2409453E-04 Eh
   gradient norm :     0.0021534 Eh/α   predicted    -0.1478585E-04 ( -38.63%)
   displ. norm   :     0.1760911 α      lambda       -0.5041021E-04
   maximum displ.:     0.1060395 α      in ANC's #2, #5, #22, ...

........................................................................
.............................. CYCLE   17 ..............................
........................................................................

 iter      E             dE          RMSdq      gap      omega  full diag
   1   -124.3137018 -0.124314E+03  0.265E-02    1.96       0.0  T
   2   -124.3137022 -0.454470E-06  0.154E-02    1.96       1.0  T
   3   -124.3137017  0.504800E-06  0.278E-03    1.96       4.1  T
   4   -124.3137024 -0.663746E-06  0.650E-04    1.96      17.3  T
   5   -124.3137024 -0.877290E-08  0.304E-04    1.96      37.1  T
     SCC iter.                  ...        0 min,  0.043 sec
     gradient                   ...        0 min,  0.011 sec
 * total energy  :  -122.1687216 Eh     change       -0.3656524E-04 Eh
   gradient norm :     0.0016438 Eh/α   predicted    -0.2598735E-04 ( -28.93%)
   displ. norm   :     0.2431150 α      lambda       -0.3148286E-04
   maximum displ.:     0.1519942 α      in ANC's #2, #5, #22, ...

........................................................................
.............................. CYCLE   18 ..............................
........................................................................

 iter      E             dE          RMSdq      gap      omega  full diag
   1   -124.3137237 -0.124314E+03  0.352E-02    1.96       0.0  T
   2   -124.3137244 -0.652786E-06  0.206E-02    1.96       1.0  T
   3   -124.3137236  0.787017E-06  0.340E-03    1.96       3.3  T
   4   -124.3137246 -0.101108E-05  0.790E-04    1.96      14.2  T
   5   -124.3137246 -0.150098E-07  0.390E-04    1.96      28.9  T
   6   -124.3137246 -0.278511E-08  0.163E-04    1.96      68.9  T
     SCC iter.                  ...        0 min,  0.052 sec
     gradient                   ...        0 min,  0.011 sec
 * total energy  :  -122.1687537 Eh     change       -0.3207904E-04 Eh
   gradient norm :     0.0025388 Eh/α   predicted    -0.1615857E-04 ( -49.63%)
   displ. norm   :     0.1082071 α      lambda       -0.2574769E-04
   maximum displ.:     0.0709877 α      in ANC's #2, #5, #22, ...

........................................................................
.............................. CYCLE   19 ..............................
........................................................................

 iter      E             dE          RMSdq      gap      omega  full diag
   1   -124.3144460 -0.124314E+03  0.152E-02    1.96       0.0  T
   2   -124.3144461 -0.910183E-07  0.895E-03    1.96       1.3  T
   3   -124.3144459  0.225382E-06  0.164E-03    1.96       6.8  T
   4   -124.3144461 -0.264364E-06  0.281E-04    1.96      40.0  T
   5   -124.3144461 -0.290444E-08  0.148E-04    1.96      76.0  T
     SCC iter.                  ...        0 min,  0.043 sec
     gradient                   ...        0 min,  0.011 sec
 * total energy  :  -122.1687763 Eh     change       -0.2255065E-04 Eh
   gradient norm :     0.0021113 Eh/α   predicted    -0.1302664E-04 ( -42.23%)
   displ. norm   :     0.2278523 α      lambda       -0.5159032E-04
   maximum displ.:     0.1474663 α      in ANC's #2, #5, #22, ...

........................................................................
.............................. CYCLE   20 ..............................
........................................................................

 iter      E             dE          RMSdq      gap      omega  full diag
   1   -124.3148382 -0.124315E+03  0.317E-02    1.96       0.0  T
   2   -124.3148385 -0.259261E-06  0.187E-02    1.96       1.0  T
   3   -124.3148377  0.737016E-06  0.299E-03    1.96       3.8  T
   4   -124.3148386 -0.871581E-06  0.503E-04    1.96      22.4  T
   5   -124.3148386 -0.566872E-08  0.284E-04    1.96      39.6  T
     SCC iter.                  ...        0 min,  0.043 sec
     gradient                   ...        0 min,  0.011 sec
 * total energy  :  -122.1688167 Eh     change       -0.4043684E-04 Eh
   gradient norm :     0.0016689 Eh/α   predicted    -0.2713561E-04 ( -32.89%)
   displ. norm   :     0.3902630 α      lambda       -0.4289410E-04
   maximum displ.:     0.2585016 α      in ANC's #2, #5, #22, ...
 * RMSD in coord.:     0.3610936 α      energy gain  -0.2108608E-01 Eh

generating ANC from exact Hessian ...
Using Lindh-Hessian (1995)
 Shifting diagonal of input Hessian by   9.942856944937944E-003
 Lowest  eigenvalues of input Hessian
    0.000000    0.000000    0.000000    0.000000    0.000000    0.000000
    0.010000    0.010079    0.010158    0.010368    0.010585    0.010901
    0.010989    0.011093    0.011536    0.011850    0.012329    0.012531
 Highest eigenvalues
    2.152217    2.181379    2.190226    2.201255    2.228031    2.253918
 

........................................................................
.............................. CYCLE   21 ..............................
........................................................................

 iter      E             dE          RMSdq      gap      omega  full diag
   1   -124.3142952 -0.124314E+03  0.522E-02    1.96       0.0  T
   2   -124.3142957 -0.552307E-06  0.307E-02    1.96       1.0  T
   3   -124.3142947  0.105643E-05  0.380E-03    1.96       3.0  T
   4   -124.3142960 -0.132388E-05  0.810E-04    1.96      13.9  T
   5   -124.3142960 -0.752459E-08  0.434E-04    1.96      25.9  T
   6   -124.3142960 -0.562568E-08  0.152E-04    1.96      73.8  T
     SCC iter.                  ...        0 min,  0.052 sec
     gradient                   ...        0 min,  0.011 sec
 * total energy  :  -122.1688608 Eh     change       -0.4408317E-04 Eh
   gradient norm :     0.0025065 Eh/α   predicted     0.0000000E+00 (-100.00%)
   displ. norm   :     0.0300156 α      lambda       -0.2339989E-04
   maximum displ.:     0.0111150 α      in ANC's #16, #10, #2, ...

........................................................................
.............................. CYCLE   22 ..............................
........................................................................

 iter      E             dE          RMSdq      gap      omega  full diag
   1   -124.3149388 -0.124315E+03  0.702E-03    1.96       0.0  T
   2   -124.3149388 -0.798844E-07  0.409E-03    1.96       2.8  T
   3   -124.3149388  0.309400E-07  0.911E-04    1.96      12.4  T
   4   -124.3149389 -0.438611E-07  0.234E-04    1.96      48.1  T
     SCC iter.                  ...        0 min,  0.035 sec
     gradient                   ...        0 min,  0.011 sec
 * total energy  :  -122.1688794 Eh     change       -0.1858772E-04 Eh
   gradient norm :     0.0010677 Eh/α   predicted    -0.1173207E-04 ( -36.88%)
   displ. norm   :     0.1123280 α      lambda       -0.3180476E-04
   maximum displ.:     0.0448362 α      in ANC's #2, #10, #16, ...

........................................................................
.............................. CYCLE   23 ..............................
........................................................................

 iter      E             dE          RMSdq      gap      omega  full diag
   1   -124.3155876 -0.124316E+03  0.214E-02    1.96       0.0  T
   2   -124.3155881 -0.445942E-06  0.124E-02    1.96       1.0  T
   3   -124.3155877  0.351384E-06  0.267E-03    1.96       4.2  T
   4   -124.3155882 -0.475313E-06  0.583E-04    1.96      19.3  T
   5   -124.3155882 -0.873115E-08  0.280E-04    1.96      40.2  T
     SCC iter.                  ...        0 min,  0.043 sec
     gradient                   ...        0 min,  0.012 sec
 * total energy  :  -122.1689021 Eh     change       -0.2271462E-04 Eh
   gradient norm :     0.0021632 Eh/α   predicted    -0.1599178E-04 ( -29.60%)
   displ. norm   :     0.0284229 α      lambda       -0.9109015E-05
   maximum displ.:     0.0143150 α      in ANC's #2, #10, #4, ...

........................................................................
.............................. CYCLE   24 ..............................
........................................................................

 iter      E             dE          RMSdq      gap      omega  full diag
   1   -124.3153273 -0.124315E+03  0.446E-03    1.96       0.0  T
   2   -124.3153273 -0.226788E-07  0.259E-03    1.96       4.3  T
   3   -124.3153273  0.192874E-07  0.570E-04    1.96      19.7  T
   4   -124.3153274 -0.248666E-07  0.143E-04    1.96      78.7  T
     SCC iter.                  ...        0 min,  0.035 sec
     gradient                   ...        0 min,  0.011 sec
 * total energy  :  -122.1689108 Eh     change       -0.8711506E-05 Eh
   gradient norm :     0.0015496 Eh/α   predicted    -0.4809271E-05 ( -44.79%)
   displ. norm   :     0.2077818 α      lambda       -0.3724013E-04
   maximum displ.:     0.1032802 α      in ANC's #2, #10, #4, ...

........................................................................
.............................. CYCLE   25 ..............................
........................................................................

 iter      E             dE          RMSdq      gap      omega  full diag
   1   -124.3139056 -0.124314E+03  0.314E-02    1.96       0.0  T
   2   -124.3139064 -0.815027E-06  0.183E-02    1.95       1.0  T
   3   -124.3139056  0.865522E-06  0.375E-03    1.95       3.0  T
   4   -124.3139067 -0.110905E-05  0.875E-04    1.95      12.9  T
   5   -124.3139067 -0.224815E-07  0.412E-04    1.95      27.3  T
   6   -124.3139067 -0.163305E-08  0.189E-04    1.95      59.4  T
     SCC iter.                  ...        0 min,  0.052 sec
     gradient                   ...        0 min,  0.012 sec
 * total energy  :  -122.1689356 Eh     change       -0.2483869E-04 Eh
   gradient norm :     0.0024488 Eh/α   predicted    -0.1898235E-04 ( -23.58%)
   displ. norm   :     0.0244083 α      lambda       -0.9223462E-05
   maximum displ.:     0.0142711 α      in ANC's #2, #10, #22, ...

........................................................................
.............................. CYCLE   26 ..............................
........................................................................

 iter      E             dE          RMSdq      gap      omega  full diag
   1   -124.3143123 -0.124314E+03  0.347E-03    1.95       0.0  T
   2   -124.3143124 -0.170582E-07  0.203E-03    1.95       5.5  T
   3   -124.3143124  0.403692E-08  0.344E-04    1.95      32.7  T
   4   -124.3143124 -0.555849E-08  0.114E-04    1.95      98.5  T
     SCC iter.                  ...        0 min,  0.035 sec
     gradient                   ...        0 min,  0.014 sec
 * total energy  :  -122.1689441 Eh     change       -0.8431601E-05 Eh
   gradient norm :     0.0017778 Eh/α   predicted    -0.4614622E-05 ( -45.27%)
   displ. norm   :     0.2290397 α      lambda       -0.4097263E-04
   maximum displ.:     0.1293910 α      in ANC's #2, #22, #10, ...

........................................................................
.............................. CYCLE   27 ..............................
........................................................................

 iter      E             dE          RMSdq      gap      omega  full diag
   1   -124.3158737 -0.124316E+03  0.298E-02    1.95       0.0  T
   2   -124.3158743 -0.534285E-06  0.176E-02    1.95       1.0  T
   3   -124.3158739  0.414248E-06  0.268E-03    1.95       4.2  T
   4   -124.3158744 -0.521463E-06  0.672E-04    1.95      16.8  T
   5   -124.3158744 -0.188943E-07  0.294E-04    1.95      38.3  T
     SCC iter.                  ...        0 min,  0.044 sec
     gradient                   ...        0 min,  0.012 sec
 * total energy  :  -122.1689800 Eh     change       -0.3596528E-04 Eh
   gradient norm :     0.0018107 Eh/α   predicted    -0.2096473E-04 ( -41.71%)
   displ. norm   :     0.2271742 α      lambda       -0.2050222E-04
   maximum displ.:     0.1281049 α      in ANC's #2, #22, #10, ...

........................................................................
.............................. CYCLE   28 ..............................
........................................................................

 iter      E             dE          RMSdq      gap      omega  full diag
   1   -124.3149452 -0.124315E+03  0.275E-02    1.95       0.0  T
   2   -124.3149454 -0.273748E-06  0.163E-02    1.94       1.0  T
   3   -124.3149451  0.343323E-06  0.235E-03    1.94       4.8  T
   4   -124.3149455 -0.427127E-06  0.494E-04    1.94      22.8  T
   5   -124.3149455 -0.631508E-08  0.249E-04    1.94      45.1  T
     SCC iter.                  ...        0 min,  0.043 sec
     gradient                   ...        0 min,  0.012 sec
 * total energy  :  -122.1690067 Eh     change       -0.2669554E-04 Eh
   gradient norm :     0.0014798 Eh/α   predicted    -0.1048680E-04 ( -60.72%)
   displ. norm   :     0.3998829 α      lambda       -0.3585688E-04
   maximum displ.:     0.2321440 α      in ANC's #2, #22, #10, ...

........................................................................
.............................. CYCLE   29 ..............................
........................................................................

 iter      E             dE          RMSdq      gap      omega  full diag
   1   -124.3123272 -0.124312E+03  0.470E-02    1.94       0.0  T
   2   -124.3123284 -0.123527E-05  0.279E-02    1.94       1.0  T
   3   -124.3123274  0.101946E-05  0.417E-03    1.94       2.7  T
   4   -124.3123287 -0.126983E-05  0.112E-03    1.94      10.1  T
   5   -124.3123287 -0.560527E-07  0.528E-04    1.94      21.3  T
   6   -124.3123287  0.278249E-10  0.247E-04    1.94      45.6  T
     SCC iter.                  ...        0 min,  0.052 sec
     gradient                   ...        0 min,  0.011 sec
 * total energy  :  -122.1690232 Eh     change       -0.1648307E-04 Eh
   gradient norm :     0.0044616 Eh/α   predicted    -0.1920397E-04 (  16.51%)
   displ. norm   :     0.0786142 α      lambda       -0.2979573E-04
   maximum displ.:     0.0360072 α      in ANC's #10, #2, #22, ...

........................................................................
.............................. CYCLE   30 ..............................
........................................................................

 iter      E             dE          RMSdq      gap      omega  full diag
   1   -124.3138502 -0.124314E+03  0.119E-02    1.94       0.0  T
   2   -124.3138505 -0.229625E-06  0.689E-03    1.94       1.6  T
   3   -124.3138504  0.644738E-07  0.134E-03    1.94       8.4  T
   4   -124.3138505 -0.868164E-07  0.435E-04    1.94      25.8  T
   5   -124.3138505 -0.104740E-07  0.173E-04    1.94      64.8  T
     SCC iter.                  ...        0 min,  0.043 sec
     gradient                   ...        0 min,  0.011 sec
 * total energy  :  -122.1690434 Eh     change       -0.2020381E-04 Eh
   gradient norm :     0.0022431 Eh/α   predicted    -0.1499048E-04 ( -25.80%)
   displ. norm   :     0.0528382 α      lambda       -0.2201962E-04
   maximum displ.:     0.0303525 α      in ANC's #2, #10, #22, ...

........................................................................
.............................. CYCLE   31 ..............................
........................................................................

 iter      E             dE          RMSdq      gap      omega  full diag
   1   -124.3149007 -0.124315E+03  0.982E-03    1.94       0.0  T
   2   -124.3149009 -0.174184E-06  0.563E-03    1.94       2.0  T
   3   -124.3149008  0.116137E-06  0.148E-03    1.94       7.6  T
   4   -124.3149009 -0.158792E-06  0.393E-04    1.94      28.6  T
   5   -124.3149009 -0.596660E-08  0.172E-04    1.94      65.5  T
     SCC iter.                  ...        0 min,  0.043 sec
     gradient                   ...        0 min,  0.011 sec
 * total energy  :  -122.1690609 Eh     change       -0.1750776E-04 Eh
   gradient norm :     0.0011226 Eh/α   predicted    -0.1104094E-04 ( -36.94%)
   displ. norm   :     0.2280458 α      lambda       -0.3473541E-04
   maximum displ.:     0.1512011 α      in ANC's #2, #22, #28, ...

........................................................................
.............................. CYCLE   32 ..............................
........................................................................

 iter      E             dE          RMSdq      gap      omega  full diag
   1   -124.3163549 -0.124316E+03  0.320E-02    1.94       0.0  T
   2   -124.3163559 -0.954777E-06  0.186E-02    1.94       1.0  T
   3   -124.3163548  0.111191E-05  0.420E-03    1.94       2.7  T
   4   -124.3163563 -0.147170E-05  0.101E-03    1.94      11.1  T
   5   -124.3163563 -0.170820E-07  0.453E-04    1.94      24.8  T
   6   -124.3163563 -0.559004E-08  0.163E-04    1.94      69.0  T
     SCC iter.                  ...        0 min,  0.051 sec
     gradient                   ...        0 min,  0.011 sec
 * total energy  :  -122.1690972 Eh     change       -0.3626182E-04 Eh
   gradient norm :     0.0016846 Eh/α   predicted    -0.1777226E-04 ( -50.99%)
   displ. norm   :     0.3607901 α      lambda       -0.3729433E-04
   maximum displ.:     0.2408923 α      in ANC's #2, #22, #24, ...

........................................................................
.............................. CYCLE   33 ..............................
........................................................................

 iter      E             dE          RMSdq      gap      omega  full diag
   1   -124.3146405 -0.124315E+03  0.440E-02    1.94       0.0  T
   2   -124.3146417 -0.121667E-05  0.258E-02    1.94       1.0  T
   3   -124.3146408  0.886626E-06  0.407E-03    1.94       2.8  T
   4   -124.3146421 -0.125931E-05  0.123E-03    1.94       9.1  T
   5   -124.3146421 -0.322353E-07  0.533E-04    1.94      21.1  T
   6   -124.3146421 -0.503714E-08  0.197E-04    1.94      57.3  T
     SCC iter.                  ...        0 min,  0.052 sec
     gradient                   ...        0 min,  0.011 sec
 * total energy  :  -122.1691323 Eh     change       -0.3515714E-04 Eh
   gradient norm :     0.0026190 Eh/α   predicted    -0.1972526E-04 ( -43.89%)
   displ. norm   :     0.0867793 α      lambda       -0.2108977E-04
   maximum displ.:     0.0584850 α      in ANC's #2, #22, #11, ...

........................................................................
.............................. CYCLE   34 ..............................
........................................................................

 iter      E             dE          RMSdq      gap      omega  full diag
   1   -124.3146803 -0.124315E+03  0.118E-02    1.94       0.0  T
   2   -124.3146804 -0.858053E-07  0.696E-03    1.94       1.6  T
   3   -124.3146803  0.106157E-06  0.117E-03    1.94       9.7  T
   4   -124.3146804 -0.126998E-06  0.274E-04    1.94      41.0  T
   5   -124.3146804 -0.376932E-08  0.126E-04    1.94      89.2  T
     SCC iter.                  ...        0 min,  0.043 sec
     gradient                   ...        0 min,  0.011 sec
 * total energy  :  -122.1691499 Eh     change       -0.1754353E-04 Eh
   gradient norm :     0.0022270 Eh/α   predicted    -0.1062845E-04 ( -39.42%)
   displ. norm   :     0.2165460 α      lambda       -0.4820581E-04
   maximum displ.:     0.1451088 α      in ANC's #2, #22, #11, ...

........................................................................
.............................. CYCLE   35 ..............................
........................................................................

 iter      E             dE          RMSdq      gap      omega  full diag
   1   -124.3148194 -0.124315E+03  0.315E-02    1.95       0.0  T
   2   -124.3148198 -0.340069E-06  0.186E-02    1.95       1.0  T
   3   -124.3148190  0.766355E-06  0.295E-03    1.95       3.8  T
   4   -124.3148199 -0.900481E-06  0.537E-04    1.95      21.0  T
   5   -124.3148199 -0.113576E-07  0.273E-04    1.95      41.2  T
     SCC iter.                  ...        0 min,  0.043 sec
     gradient                   ...        0 min,  0.011 sec
 * total energy  :  -122.1691813 Eh     change       -0.3141400E-04 Eh
   gradient norm :     0.0017207 Eh/α   predicted    -0.2523675E-04 ( -19.66%)
   displ. norm   :     0.2458846 α      lambda       -0.1761741E-04
   maximum displ.:     0.1755237 α      in ANC's #2, #22, #5, ...

........................................................................
.............................. CYCLE   36 ..............................
........................................................................

 iter      E             dE          RMSdq      gap      omega  full diag
   1   -124.3141928 -0.124314E+03  0.337E-02    1.95       0.0  T
   2   -124.3141931 -0.238062E-06  0.199E-02    1.95       1.0  T
   3   -124.3141928  0.317845E-06  0.215E-03    1.95       5.2  T
   4   -124.3141932 -0.418402E-06  0.526E-04    1.95      21.4  T
   5   -124.3141932 -0.453230E-08  0.269E-04    1.95      41.9  T
     SCC iter.                  ...        0 min,  0.044 sec
     gradient                   ...        0 min,  0.011 sec
 * total energy  :  -122.1691962 Eh     change       -0.1486361E-04 Eh
   gradient norm :     0.0024480 Eh/α   predicted    -0.9047906E-05 ( -39.13%)
   displ. norm   :     0.0678778 α      lambda       -0.1994128E-04
   maximum displ.:     0.0408142 α      in ANC's #2, #4, #6, ...

........................................................................
.............................. CYCLE   37 ..............................
........................................................................

 iter      E             dE          RMSdq      gap      omega  full diag
   1   -124.3156532 -0.124316E+03  0.156E-02    1.95       0.0  T
   2   -124.3156536 -0.427161E-06  0.888E-03    1.95       1.3  T
   3   -124.3156535  0.169839E-06  0.206E-03    1.95       5.5  T
   4   -124.3156537 -0.269174E-06  0.598E-04    1.95      18.8  T
   5   -124.3156537 -0.117823E-07  0.263E-04    1.95      42.8  T
     SCC iter.                  ...        0 min,  0.043 sec
     gradient                   ...        0 min,  0.011 sec
 * total energy  :  -122.1692062 Eh     change       -0.1008652E-04 Eh
   gradient norm :     0.0011495 Eh/α   predicted    -0.1001838E-04 (  -0.68%)
   displ. norm   :     0.2002476 α      lambda       -0.1934760E-04
   maximum displ.:     0.1513730 α      in ANC's #2, #22, #5, ...

........................................................................
.............................. CYCLE   38 ..............................
........................................................................

 iter      E             dE          RMSdq      gap      omega  full diag
   1   -124.3150099 -0.124315E+03  0.266E-02    1.94       0.0  T
   2   -124.3150104 -0.534886E-06  0.156E-02    1.94       1.0  T
   3   -124.3150096  0.790664E-06  0.323E-03    1.94       3.5  T
   4   -124.3150106 -0.964387E-06  0.771E-04    1.94      14.6  T
   5   -124.3150106 -0.248057E-07  0.367E-04    1.94      30.6  T
     SCC iter.                  ...        0 min,  0.043 sec
     gradient                   ...        0 min,  0.011 sec
 * total energy  :  -122.1692260 Eh     change       -0.1975225E-04 Eh
   gradient norm :     0.0018614 Eh/α   predicted    -0.9847240E-05 ( -50.15%)
   displ. norm   :     0.2409441 α      lambda       -0.2388723E-04
   maximum displ.:     0.1821029 α      in ANC's #2, #5, #22, ...

........................................................................
.............................. CYCLE   39 ..............................
........................................................................

 iter      E             dE          RMSdq      gap      omega  full diag
   1   -124.3146608 -0.124315E+03  0.337E-02    1.94       0.0  T
   2   -124.3146621 -0.131244E-05  0.195E-02    1.94       1.0  T
   3   -124.3146603  0.187346E-05  0.505E-03    1.94       2.2  T
   4   -124.3146626 -0.234647E-05  0.118E-03    1.94       9.5  T
   5   -124.3146626 -0.503116E-07  0.554E-04    1.94      20.3  T
   6   -124.3146627 -0.614806E-08  0.214E-04    1.94      52.5  T
     SCC iter.                  ...        0 min,  0.052 sec
     gradient                   ...        0 min,  0.011 sec
 * total energy  :  -122.1692402 Eh     change       -0.1419310E-04 Eh
   gradient norm :     0.0032635 Eh/α   predicted    -0.1225365E-04 ( -13.66%)
   displ. norm   :     0.0706243 α      lambda       -0.1761882E-04
   maximum displ.:     0.0532830 α      in ANC's #2, #5, #4, ...

........................................................................
.............................. CYCLE   40 ..............................
........................................................................

 iter      E             dE          RMSdq      gap      omega  full diag
   1   -124.3147845 -0.124315E+03  0.101E-02    1.94       0.0  T
   2   -124.3147847 -0.163157E-06  0.582E-03    1.94       1.9  T
   3   -124.3147846  0.139168E-06  0.145E-03    1.94       7.8  T
   4   -124.3147848 -0.180330E-06  0.417E-04    1.94      27.0  T
   5   -124.3147848 -0.858402E-08  0.182E-04    1.94      62.0  T
     SCC iter.                  ...        0 min,  0.043 sec
     gradient                   ...        0 min,  0.011 sec
 * total energy  :  -122.1692536 Eh     change       -0.1338387E-04 Eh
   gradient norm :     0.0020310 Eh/α   predicted    -0.8857668E-05 ( -33.82%)
   displ. norm   :     0.1526504 α      lambda       -0.1981420E-04
   maximum displ.:     0.1207811 α      in ANC's #2, #22, #5, ...

........................................................................
.............................. CYCLE   41 ..............................
........................................................................

 iter      E             dE          RMSdq      gap      omega  full diag
   1   -124.3147856 -0.124315E+03  0.184E-02    1.94       0.0  T
   2   -124.3147858 -0.232529E-06  0.107E-02    1.94       1.0  T
   3   -124.3147855  0.339464E-06  0.207E-03    1.94       5.4  T
   4   -124.3147859 -0.421538E-06  0.492E-04    1.94      22.9  T
   5   -124.3147859 -0.789672E-08  0.235E-04    1.94      47.9  T
     SCC iter.                  ...        0 min,  0.043 sec
     gradient                   ...        0 min,  0.011 sec
 * total energy  :  -122.1692673 Eh     change       -0.1372450E-04 Eh
   gradient norm :     0.0013994 Eh/α   predicted    -0.1014205E-04 ( -26.10%)
   displ. norm   :     0.2607674 α      lambda       -0.1419829E-04
   maximum displ.:     0.2088064 α      in ANC's #2, #22, #5, ...

........................................................................
.............................. CYCLE   42 ..............................
........................................................................

 iter      E             dE          RMSdq      gap      omega  full diag
   1   -124.3147860 -0.124315E+03  0.295E-02    1.94       0.0  T
   2   -124.3147864 -0.348995E-06  0.173E-02    1.94       1.0  T
   3   -124.3147857  0.720262E-06  0.293E-03    1.94       3.8  T
   4   -124.3147866 -0.885498E-06  0.635E-04    1.94      17.7  T
   5   -124.3147866 -0.610800E-08  0.311E-04    1.94      36.2  T
     SCC iter.                  ...        0 min,  0.045 sec
     gradient                   ...        0 min,  0.012 sec
 * total energy  :  -122.1692801 Eh     change       -0.1283119E-04 Eh
   gradient norm :     0.0018586 Eh/α   predicted    -0.7318605E-05 ( -42.96%)
   displ. norm   :     0.1284858 α      lambda       -0.1115908E-04
   maximum displ.:     0.1041599 α      in ANC's #2, #4, #5, ...
 * RMSD in coord.:     0.3430879 α      energy gain  -0.4634343E-03 Eh

generating ANC from exact Hessian ...
Using Lindh-Hessian (1995)
 Shifting diagonal of input Hessian by   9.943890035666359E-003
 Lowest  eigenvalues of input Hessian
    0.000000    0.000000    0.000000    0.000000    0.000000    0.000000
    0.010000    0.010075    0.010155    0.010371    0.010563    0.010874
    0.010979    0.011097    0.011521    0.011834    0.012333    0.012518
 Highest eigenvalues
    2.152709    2.181043    2.189036    2.199680    2.227458    2.254717
 

........................................................................
.............................. CYCLE   43 ..............................
........................................................................

 iter      E             dE          RMSdq      gap      omega  full diag
   1   -124.3162519 -0.124316E+03  0.143E-02    1.94       0.0  T
   2   -124.3162521 -0.209603E-06  0.836E-03    1.94       1.3  T
   3   -124.3162519  0.126548E-06  0.140E-03    1.94       8.0  T
   4   -124.3162521 -0.145271E-06  0.456E-04    1.94      24.7  T
   5   -124.3162521 -0.171494E-07  0.167E-04    1.94      67.4  T
     SCC iter.                  ...        0 min,  0.043 sec
     gradient                   ...        0 min,  0.011 sec
 * total energy  :  -122.1692884 Eh     change       -0.8320447E-05 Eh
   gradient norm :     0.0015253 Eh/α   predicted     0.0000000E+00 (-100.00%)
   displ. norm   :     0.0230620 α      lambda       -0.7181921E-05
   maximum displ.:     0.0098761 α      in ANC's #18, #10, #22, ...

........................................................................
.............................. CYCLE   44 ..............................
........................................................................

 iter      E             dE          RMSdq      gap      omega  full diag
   1   -124.3157483 -0.124316E+03  0.620E-03    1.94       0.0  T
   2   -124.3157484 -0.100644E-06  0.351E-03    1.94       3.2  T
   3   -124.3157483  0.525800E-07  0.105E-03    1.94      10.7  T
   4   -124.3157484 -0.760846E-07  0.284E-04    1.94      39.6  T
   5   -124.3157484 -0.323483E-08  0.128E-04    1.94      88.1  T
     SCC iter.                  ...        0 min,  0.043 sec
     gradient                   ...        0 min,  0.011 sec
 * total energy  :  -122.1692961 Eh     change       -0.7703578E-05 Eh
   gradient norm :     0.0005088 Eh/α   predicted    -0.3660799E-05 ( -52.48%)
   displ. norm   :     0.0466748 α      lambda       -0.7138203E-05
   maximum displ.:     0.0186343 α      in ANC's #18, #10, #22, ...

........................................................................
.............................. CYCLE   45 ..............................
........................................................................

 iter      E             dE          RMSdq      gap      omega  full diag
   1   -124.3155103 -0.124316E+03  0.106E-02    1.94       0.0  T
   2   -124.3155105 -0.199148E-06  0.597E-03    1.93       1.9  T
   3   -124.3155103  0.194268E-06  0.179E-03    1.93       6.3  T
   4   -124.3155106 -0.274677E-06  0.405E-04    1.93      27.8  T
   5   -124.3155106 -0.204571E-08  0.199E-04    1.93      56.7  T
     SCC iter.                  ...        0 min,  0.043 sec
     gradient                   ...        0 min,  0.011 sec
 * total energy  :  -122.1693039 Eh     change       -0.7721670E-05 Eh
   gradient norm :     0.0008848 Eh/α   predicted    -0.3573182E-05 ( -53.73%)
   displ. norm   :     0.0718789 α      lambda       -0.7264579E-05
   maximum displ.:     0.0270390 α      in ANC's #10, #22, #18, ...

........................................................................
.............................. CYCLE   46 ..............................
........................................................................

 iter      E             dE          RMSdq      gap      omega  full diag
   1   -124.3153684 -0.124315E+03  0.150E-02    1.93       0.0  T
   2   -124.3153687 -0.345796E-06  0.850E-03    1.93       1.3  T
   3   -124.3153683  0.403905E-06  0.247E-03    1.93       4.5  T
   4   -124.3153689 -0.556694E-06  0.568E-04    1.93      19.8  T
   5   -124.3153689 -0.301822E-08  0.277E-04    1.93      40.6  T
     SCC iter.                  ...        0 min,  0.043 sec
     gradient                   ...        0 min,  0.011 sec
 * total energy  :  -122.1693119 Eh     change       -0.8068076E-05 Eh
   gradient norm :     0.0012663 Eh/α   predicted    -0.3642727E-05 ( -54.85%)
   displ. norm   :     0.1071770 α      lambda       -0.9078132E-05
   maximum displ.:     0.0401080 α      in ANC's #22, #10, #24, ...

........................................................................
.............................. CYCLE   47 ..............................
........................................................................

 iter      E             dE          RMSdq      gap      omega  full diag
   1   -124.3152444 -0.124315E+03  0.205E-02    1.93       0.0  T
   2   -124.3152449 -0.514875E-06  0.117E-02    1.93       1.0  T
   3   -124.3152443  0.578686E-06  0.297E-03    1.93       3.8  T
   4   -124.3152451 -0.795458E-06  0.743E-04    1.93      15.1  T
   5   -124.3152451 -0.662688E-08  0.350E-04    1.93      32.1  T
     SCC iter.                  ...        0 min,  0.043 sec
     gradient                   ...        0 min,  0.011 sec
 * total energy  :  -122.1693221 Eh     change       -0.1019184E-04 Eh
   gradient norm :     0.0013041 Eh/α   predicted    -0.4595040E-05 ( -54.91%)
   displ. norm   :     0.1376649 α      lambda       -0.1118057E-04
   maximum displ.:     0.0535851 α      in ANC's #22, #24, #10, ...

........................................................................
.............................. CYCLE   48 ..............................
........................................................................

 iter      E             dE          RMSdq      gap      omega  full diag
   1   -124.3153063 -0.124315E+03  0.234E-02    1.93       0.0  T
   2   -124.3153068 -0.489245E-06  0.135E-02    1.93       1.0  T
   3   -124.3153063  0.522807E-06  0.292E-03    1.93       3.9  T
   4   -124.3153070 -0.714420E-06  0.757E-04    1.93      14.9  T
   5   -124.3153070 -0.774706E-08  0.359E-04    1.93      31.3  T
     SCC iter.                  ...        0 min,  0.043 sec
     gradient                   ...        0 min,  0.011 sec
 * total energy  :  -122.1693333 Eh     change       -0.1120748E-04 Eh
   gradient norm :     0.0012741 Eh/α   predicted    -0.5640433E-05 ( -49.67%)
   displ. norm   :     0.1039562 α      lambda       -0.1084306E-04
   maximum displ.:     0.0417677 α      in ANC's #22, #24, #23, ...

........................................................................
.............................. CYCLE   49 ..............................
........................................................................

 iter      E             dE          RMSdq      gap      omega  full diag
   1   -124.3157973 -0.124316E+03  0.152E-02    1.93       0.0  T
   2   -124.3157974 -0.105844E-06  0.901E-03    1.93       1.2  T
   3   -124.3157973  0.113754E-06  0.141E-03    1.93       8.0  T
   4   -124.3157975 -0.145357E-06  0.310E-04    1.93      36.2  T
   5   -124.3157975 -0.274943E-08  0.164E-04    1.93      68.6  T
     SCC iter.                  ...        0 min,  0.043 sec
     gradient                   ...        0 min,  0.011 sec
 * total energy  :  -122.1693458 Eh     change       -0.1245040E-04 Eh
   gradient norm :     0.0010572 Eh/α   predicted    -0.5459665E-05 ( -56.15%)
   displ. norm   :     0.1858137 α      lambda       -0.1483794E-04
   maximum displ.:     0.0769296 α      in ANC's #22, #24, #23, ...

........................................................................
.............................. CYCLE   50 ..............................
........................................................................

 iter      E             dE          RMSdq      gap      omega  full diag
   1   -124.3155619 -0.124316E+03  0.250E-02    1.93       0.0  T
   2   -124.3155621 -0.148070E-06  0.149E-02    1.93       1.0  T
   3   -124.3155619  0.147593E-06  0.159E-03    1.93       7.1  T
   4   -124.3155621 -0.202166E-06  0.459E-04    1.93      24.5  T
   5   -124.3155621 -0.488562E-08  0.250E-04    1.93      44.9  T
     SCC iter.                  ...        0 min,  0.043 sec
     gradient                   ...        0 min,  0.011 sec
 * total energy  :  -122.1693594 Eh     change       -0.1359626E-04 Eh
   gradient norm :     0.0023093 Eh/α   predicted    -0.7533742E-05 ( -44.59%)
   displ. norm   :     0.0709418 α      lambda       -0.2146095E-04
   maximum displ.:     0.0279258 α      in ANC's #16, #23, #22, ...

........................................................................
.............................. CYCLE   51 ..............................
........................................................................

 iter      E             dE          RMSdq      gap      omega  full diag
   1   -124.3164107 -0.124316E+03  0.160E-02    1.93       0.0  T
   2   -124.3164113 -0.552367E-06  0.892E-03    1.93       1.3  T
   3   -124.3164108  0.476569E-06  0.278E-03    1.93       4.0  T
   4   -124.3164115 -0.673731E-06  0.696E-04    1.93      16.2  T
   5   -124.3164115 -0.136809E-07  0.331E-04    1.93      34.0  T
     SCC iter.                  ...        0 min,  0.043 sec
     gradient                   ...        0 min,  0.011 sec
 * total energy  :  -122.1693722 Eh     change       -0.1278067E-04 Eh
   gradient norm :     0.0014585 Eh/α   predicted    -0.1079433E-04 ( -15.54%)
   displ. norm   :     0.1450458 α      lambda       -0.1169817E-04
   maximum displ.:     0.0614139 α      in ANC's #22, #23, #24, ...

........................................................................
.............................. CYCLE   52 ..............................
........................................................................

 iter      E             dE          RMSdq      gap      omega  full diag
   1   -124.3158227 -0.124316E+03  0.206E-02    1.93       0.0  T
   2   -124.3158231 -0.389455E-06  0.120E-02    1.93       1.0  T
   3   -124.3158226  0.496322E-06  0.280E-03    1.93       4.0  T
   4   -124.3158232 -0.656537E-06  0.702E-04    1.93      16.0  T
   5   -124.3158232 -0.511980E-08  0.336E-04    1.93      33.5  T
     SCC iter.                  ...        0 min,  0.043 sec
     gradient                   ...        0 min,  0.011 sec
 * total energy  :  -122.1693830 Eh     change       -0.1086709E-04 Eh
   gradient norm :     0.0015845 Eh/α   predicted    -0.5909412E-05 ( -45.62%)
   displ. norm   :     0.0776446 α      lambda       -0.1417509E-04
   maximum displ.:     0.0292677 α      in ANC's #10, #18, #21, ...

........................................................................
.............................. CYCLE   53 ..............................
........................................................................

 iter      E             dE          RMSdq      gap      omega  full diag
   1   -124.3158890 -0.124316E+03  0.192E-02    1.93       0.0  T
   2   -124.3158897 -0.688496E-06  0.109E-02    1.93       1.0  T
   3   -124.3158892  0.525041E-06  0.330E-03    1.93       3.4  T
   4   -124.3158899 -0.771518E-06  0.713E-04    1.93      15.8  T
   5   -124.3158899 -0.102230E-07  0.346E-04    1.93      32.5  T
     SCC iter.                  ...        0 min,  0.043 sec
     gradient                   ...        0 min,  0.011 sec
 * total energy  :  -122.1693953 Eh     change       -0.1224187E-04 Eh
   gradient norm :     0.0008934 Eh/α   predicted    -0.7107216E-05 ( -41.94%)
   displ. norm   :     0.0785113 α      lambda       -0.6614622E-05
   maximum displ.:     0.0356303 α      in ANC's #18, #22, #19, ...

........................................................................
.............................. CYCLE   54 ..............................
........................................................................

 iter      E             dE          RMSdq      gap      omega  full diag
   1   -124.3153701 -0.124315E+03  0.108E-02    1.93       0.0  T
   2   -124.3153702 -0.937700E-07  0.640E-03    1.93       1.8  T
   3   -124.3153701  0.123067E-06  0.137E-03    1.93       8.2  T
   4   -124.3153703 -0.149439E-06  0.301E-04    1.93      37.3  T
   5   -124.3153703 -0.377415E-08  0.145E-04    1.93      77.4  T
     SCC iter.                  ...        0 min,  0.043 sec
     gradient                   ...        0 min,  0.011 sec
 * total energy  :  -122.1694001 Eh     change       -0.4862194E-05 Eh
   gradient norm :     0.0012908 Eh/α   predicted    -0.3316657E-05 ( -31.79%)
   displ. norm   :     0.0396229 α      lambda       -0.4380307E-05
   maximum displ.:     0.0167564 α      in ANC's #6, #16, #10, ...

........................................................................
.............................. CYCLE   55 ..............................
........................................................................

 iter      E             dE          RMSdq      gap      omega  full diag
   1   -124.3157311 -0.124316E+03  0.768E-03    1.93       0.0  T
   2   -124.3157312 -0.568864E-07  0.448E-03    1.93       2.5  T
   3   -124.3157311  0.755685E-07  0.980E-04    1.93      11.5  T
   4   -124.3157312 -0.914740E-07  0.243E-04    1.93      46.2  T
     SCC iter.                  ...        0 min,  0.034 sec
     gradient                   ...        0 min,  0.011 sec
 * total energy  :  -122.1694038 Eh     change       -0.3697993E-05 Eh
   gradient norm :     0.0006456 Eh/α   predicted    -0.2194399E-05 ( -40.66%)
   displ. norm   :     0.0436166 α      lambda       -0.2930025E-05
   maximum displ.:     0.0196695 α      in ANC's #22, #4, #10, ...

........................................................................
.............................. CYCLE   56 ..............................
........................................................................

 iter      E             dE          RMSdq      gap      omega  full diag
   1   -124.3156880 -0.124316E+03  0.618E-03    1.93       0.0  T
   2   -124.3156881 -0.229486E-07  0.367E-03    1.93       3.1  T
   3   -124.3156880  0.495111E-07  0.830E-04    1.93      13.6  T
   4   -124.3156881 -0.590072E-07  0.121E-04    1.93      93.2  T
     SCC iter.                  ...        0 min,  0.035 sec
     gradient                   ...        0 min,  0.011 sec
 * total energy  :  -122.1694073 Eh     change       -0.3471821E-05 Eh
   gradient norm :     0.0003373 Eh/α   predicted    -0.1470659E-05 ( -57.64%)
   displ. norm   :     0.0864238 α      lambda       -0.4189390E-05
   maximum displ.:     0.0420060 α      in ANC's #22, #4, #24, ...

........................................................................
.............................. CYCLE   57 ..............................
........................................................................

 iter      E             dE          RMSdq      gap      omega  full diag
   1   -124.3156008 -0.124316E+03  0.116E-02    1.93       0.0  T
   2   -124.3156009 -0.705593E-07  0.691E-03    1.93       1.6  T
   3   -124.3156007  0.129207E-06  0.138E-03    1.93       8.1  T
   4   -124.3156009 -0.155309E-06  0.213E-04    1.93      52.7  T
   5   -124.3156009 -0.954714E-09  0.107E-04    1.93     105.1  T
     SCC iter.                  ...        0 min,  0.043 sec
     gradient                   ...        0 min,  0.011 sec
 * total energy  :  -122.1694113 Eh     change       -0.4008081E-05 Eh
   gradient norm :     0.0006657 Eh/α   predicted    -0.2103798E-05 ( -47.51%)
   displ. norm   :     0.0865111 α      lambda        0.1016859E-05
   maximum displ.:     0.0420500 α      in ANC's #22, #4, #24, ...

........................................................................
.............................. CYCLE   58 ..............................
........................................................................

 iter      E             dE          RMSdq      gap      omega  full diag
   1   -124.3153332 -0.124315E+03  0.117E-02    1.93       0.0  T
   2   -124.3153333 -0.814109E-07  0.695E-03    1.93       1.6  T
   3   -124.3153331  0.124969E-06  0.139E-03    1.93       8.1  T
   4   -124.3153333 -0.151574E-06  0.231E-04    1.93      48.7  T
   5   -124.3153333 -0.133072E-08  0.112E-04    1.93     100.2  T
     SCC iter.                  ...        0 min,  0.043 sec
     gradient                   ...        0 min,  0.011 sec
 * total energy  :  -122.1694101 Eh     change        0.1245763E-05 Eh
   gradient norm :     0.0015182 Eh/α   predicted     0.5101213E-06 ( -59.05%)
   displ. norm   :     0.0460448 α      lambda       -0.3765462E-05
   maximum displ.:     0.0203266 α      in ANC's #22, #24, #23, ...

........................................................................
.............................. CYCLE   59 ..............................
........................................................................

 iter      E             dE          RMSdq      gap      omega  full diag
   1   -124.3157244 -0.124316E+03  0.630E-03    1.93       0.0  T
   2   -124.3157244 -0.460616E-07  0.371E-03    1.93       3.0  T
   3   -124.3157244  0.285125E-07  0.755E-04    1.93      14.9  T
   4   -124.3157244 -0.374509E-07  0.206E-04    1.93      54.7  T
     SCC iter.                  ...        0 min,  0.035 sec
     gradient                   ...        0 min,  0.011 sec
 * total energy  :  -122.1694133 Eh     change       -0.3266268E-05 Eh
   gradient norm :     0.0005622 Eh/α   predicted    -0.1888066E-05 ( -42.19%)
   displ. norm   :     0.0132491 α      lambda       -0.1240279E-05
   maximum displ.:     0.0063821 α      in ANC's #22, #5, #14, ...

........................................................................
.............................. CYCLE   60 ..............................
........................................................................

 iter      E             dE          RMSdq      gap      omega  full diag
   1   -124.3157184 -0.124316E+03  0.254E-03    1.93       0.0  T
   2   -124.3157184 -0.741076E-08  0.148E-03    1.93       7.6  T
   3   -124.3157184  0.680507E-08  0.382E-04    1.93      29.5  T
   4   -124.3157184 -0.894806E-08  0.705E-05    1.93     159.5  T
     SCC iter.                  ...        0 min,  0.035 sec
     gradient                   ...        0 min,  0.011 sec
 * total energy  :  -122.1694147 Eh     change       -0.1370373E-05 Eh
   gradient norm :     0.0001637 Eh/α   predicted    -0.6245710E-06 ( -54.42%)
   displ. norm   :     0.0481642 α      lambda       -0.1641802E-05
   maximum displ.:     0.0246759 α      in ANC's #22, #3, #6, ...

........................................................................
.............................. CYCLE   61 ..............................
........................................................................

 iter      E             dE          RMSdq      gap      omega  full diag
   1   -124.3157732 -0.124316E+03  0.711E-03    1.93       0.0  T
   2   -124.3157732 -0.305108E-07  0.415E-03    1.93       2.7  T
[...]
     7   6 C       53   1 H                                       1.0799188
     8   6 C       54   1 H                                       1.0807742
    10   6 C       55   1 H                                       1.0871396
    10   6 C       56   1 H                                       1.0895361
    10   6 C       57   1 H                                       1.0896955
    11   6 C       58   1 H                                       1.0809597
    15   6 C       59   1 H                                       1.0799114
    16   6 C       60   1 H                                       1.0793128
    17   6 C       61   1 H                                       1.0790266
    18   6 C       62   1 H                                       1.0800550
    25   6 C       63   1 H                                       1.0802543
    26   6 C       64   1 H                                       1.0789590 (min)
    27   6 C       65   1 H                                       1.0792980
    28   6 C       66   1 H                                       1.0796454
    32   6 C       67   1 H                                       1.0804121
    34   6 C       68   1 H                                       1.0895925
    34   6 C       69   1 H                                       1.0870277
    34   6 C       70   1 H                                       1.0894938
    35   6 C       71   1 H                                       1.0806793
    36   6 C       72   1 H                                       1.0798405
    39   6 C       73   1 H                                       1.0797837
    40   6 C       74   1 H                                       1.0810267
    42   6 C       75   1 H                                       1.0899860
    42   6 C       76   1 H                                       1.0867868
    42   6 C       77   1 H                                       1.0900543
    43   6 C       78   1 H                                       1.0821035
    47   6 C       79   1 H                                       1.0811772

 * 4 distinct bonds (by element types)

   Z      Z             #   av. dist./Å        max./Å        min./Å
   1 H    6 C          32     1.0834178     1.0904791     1.0789590
   6 C    6 C          40     1.3964113     1.4482948     1.3793203
   6 C    7 N           8     1.3648955     1.3969066     1.2996032
   6 C    8 O           2     1.3572201     1.3604376     1.3540026

           -------------------------------------------------
          |               Frequency Printout                |
           -------------------------------------------------
 projected vibrational frequencies (cm⁻¹)
eigval :       -0.00    -0.00    -0.00     0.00     0.00     0.00
eigval :       10.59    16.70    20.60    30.77    35.93    45.48
eigval :       49.72    55.07    57.31    62.69    63.63    66.48
eigval :       69.89    71.22    82.52   100.41   103.85   115.32
eigval :      118.75   124.23   135.75   140.61   148.49   171.60
eigval :      180.79   181.78   210.92   236.45   244.23   248.18
eigval :      250.27   262.28   283.11   295.52   309.63   316.18
eigval :      322.12   324.73   331.73   359.07   360.61   364.95
eigval :      386.99   400.62   405.96   411.19   424.87   432.05
eigval :      432.59   443.10   448.58   452.77   471.74   498.04
eigval :      502.00   504.48   507.67   534.27   555.28   555.89
eigval :      563.03   565.77   568.32   571.21   597.78   601.59
eigval :      606.71   608.52   640.14   655.48   669.45   670.85
eigval :      678.39   681.84   690.70   703.37   705.11   712.06
eigval :      718.49   726.22   747.96   749.27   770.79   771.68
eigval :      792.05   794.74   806.44   808.24   817.02   819.57
eigval :      867.09   868.51   870.79   873.20   879.21   879.60
eigval :      889.27   889.91   905.89   907.01   909.13   910.04
eigval :      918.31   923.80   929.66   930.11   953.27   958.13
eigval :      971.59   978.05   979.60   980.04  1003.65  1005.74
eigval :     1017.81  1018.34  1030.96  1032.00  1032.23  1036.99
eigval :     1038.43  1041.59  1042.73  1059.96  1091.39  1094.01
eigval :     1118.88  1122.52  1146.60  1147.82  1162.57  1163.19
eigval :     1169.10  1169.84  1174.31  1177.38  1180.96  1186.66
eigval :     1187.15  1205.52  1206.27  1240.43  1241.33  1244.69
eigval :     1247.42  1260.25  1262.26  1265.18  1290.19  1294.17
eigval :     1295.51  1301.91  1302.31  1317.70  1321.91  1355.52
eigval :     1356.25  1360.00  1360.51  1370.22  1371.42  1400.69
eigval :     1401.34  1401.55  1403.62  1411.74  1414.33  1428.01
eigval :     1428.90  1445.41  1446.14  1468.97  1469.87  1472.01
eigval :     1473.97  1477.21  1477.45  1477.71  1478.39  1479.45
eigval :     1483.83  1488.80  1489.69  1500.02  1501.69  1534.12
eigval :     1539.31  1560.53  1563.49  1569.24  1569.70  1582.87
eigval :     1583.19  1591.41  1591.46  1605.96  1606.80  1615.34
eigval :     1616.67  2994.66  2998.29  3000.90  3002.44  3008.66
eigval :     3014.24  3015.69  3026.01  3035.53  3040.89  3042.99
eigval :     3045.50  3054.31  3062.01  3066.98  3068.80  3068.89
eigval :     3071.38  3071.60  3074.28  3082.33  3084.62  3084.68
eigval :     3085.87  3086.49  3087.29  3088.28  3088.57  3096.02
eigval :     3096.70  3104.13  3104.44
 reduced masses (amu)
   1: 11.41   2: 11.52   3: 11.55   4: 11.30   5: 11.49   6: 11.10   7: 10.67   8: 10.78
   9: 10.75  10: 10.95  11: 11.18  12:  1.28  13: 10.99  14:  9.95  15:  6.82  16:  8.04
  17:  9.00  18:  7.49  19:  6.03  20:  8.19  21: 12.47  22:  9.31  23:  4.16  24: 10.66
  25:  8.80  26:  9.74  27: 10.74  28: 10.62  29: 10.65  30: 11.43  31: 10.10  32: 10.00
  33: 10.93  34: 10.98  35: 10.58  36: 10.08  37: 10.75  38: 10.91  39: 10.95  40: 10.84
  41:  9.75  42:  9.41  43: 10.19  44: 10.44  45: 10.54  46:  9.69  47:  9.73  48: 11.92
  49: 11.01  50: 10.44  51:  9.37  52:  9.64  53: 10.42  54: 10.06  55: 10.09  56: 10.93
  57: 10.96  58: 11.17  59: 10.98  60: 10.91  61: 11.05  62: 10.77  63: 10.85  64: 11.49
  65: 10.57  66: 10.57  67:  9.94  68: 10.01  69: 10.99  70: 10.98  71: 11.32  72: 11.39
  73: 11.33  74: 11.37  75: 11.23  76: 11.16  77: 11.59  78: 11.61  79: 11.58  80: 11.68
  81: 11.41  82: 11.61  83: 11.59  84: 11.57  85: 11.97  86: 11.74  87: 10.90  88: 10.94
  89:  9.43  90:  9.87  91:  5.81  92:  5.86  93:  3.60  94:  3.62  95:  4.19  96:  4.16
  97:  3.28  98:  3.32  99:  3.33 100:  3.32 101: 11.02 102: 11.17 103:  3.54 104:  3.55
 105:  3.41 106:  3.38 107:  3.34 108:  3.31 109:  3.88 110:  3.96 111:  3.19 112:  3.31
 113: 11.37 114: 11.34 115: 11.92 116: 11.23 117:  9.47 118:  9.60 119:  7.06 120:  6.88
 121:  4.53 122:  4.52 123:  4.56 124:  4.59 125:  4.57 126:  4.92 127: 10.37 128:  6.85
 129:  7.76 130: 12.32 131:  6.39 132:  6.44 133:  8.92 134:  9.31 135:  6.02 136:  4.79
 137:  5.09 138:  4.96 139:  2.87 140:  2.76 141:  7.58 142:  1.52 143:  5.47 144:  7.60
 145:  7.65 146:  4.16 147:  4.19 148:  4.82 149:  4.95 150:  4.38 151:  4.23 152:  8.10
 153:  6.20 154:  8.98 155: 10.92 156:  9.69 157:  9.89 158:  9.56 159:  9.41 160: 11.82
 161: 11.88 162: 11.35 163: 11.36 164: 11.20 165: 11.32 166: 10.24 167: 10.33 168:  3.38
 169:  3.37 170:  3.20 171:  3.17 172:  9.40 173:  9.49 174: 10.47 175: 10.47 176: 10.13
 177: 10.16 178:  8.49 179:  7.96 180: 10.20 181:  9.97 182:  1.78 183:  1.75 184:  3.29
 185:  2.79 186:  4.60 187:  3.17 188:  3.56 189:  4.23 190:  8.51 191:  8.60 192: 12.35
 193: 12.21 194: 11.63 195: 11.59 196: 11.56 197: 11.57 198: 11.49 199: 11.47 200: 11.59
 201: 11.56 202: 11.69 203: 11.67 204: 11.70 205: 11.70 206:  1.93 207:  1.81 208:  1.93
 209:  1.94 210:  1.54 211:  1.55 212:  1.54 213:  1.70 214:  1.63 215:  1.66 216:  1.66
 217:  1.67 218:  1.82 219:  1.82 220:  1.82 221:  1.78 222:  1.78 223:  1.79 224:  1.78
 225:  1.82 226:  1.88 227:  1.87 228:  1.79 229:  1.87 230:  1.77 231:  1.87 232:  1.79
 233:  1.80 234:  1.86 235:  1.85 236:  1.92 237:  1.92
 IR intensities (km·mol⁻¹)
   1:  0.12   2:  0.03   3:  0.02   4:  0.05   5:  0.07   6:  0.11   7:  0.04   8:  0.01
   9:  0.12  10:  0.55  11:  0.76  12:  0.55  13:  1.16  14:  0.53  15:  0.16  16:  0.93
  17:  1.45  18:  1.00  19:  0.50  20:  0.14  21:  1.62  22:  0.49  23:  0.25  24:  0.49
  25:  0.12  26:  0.05  27:  0.53  28:  0.23  29:  0.29  30:  0.85  31:  1.54  32:  4.25
  33:  0.02  34:  0.35  35:  0.30  36:  1.42  37:  1.59  38:  0.58  39:  0.34  40:  0.31
  41:  0.33  42:  0.07  43:  1.86  44:  0.17  45:  0.35  46:  0.32  47:  0.38  48:  1.58
  49:  2.28  50:  0.49  51:  0.70  52:  1.22  53:  7.08  54:  4.54  55:  3.73  56:  1.01
  57:  2.36  58:  4.01  59:  2.86  60:  1.61  61:  0.76  62:  1.36  63:  1.97  64:  1.75
  65:  4.14  66:  4.37  67:  3.14  68:  3.72  69:  1.52  70:  3.91  71:  4.08  72:  1.69
  73:  3.84  74:  2.53  75:  0.32  76:  4.40  77:  2.54  78:  2.76  79:  9.31  80:  5.18
  81:  6.77  82:  3.15  83:  4.18  84:  8.45  85:  0.36  86: 23.98  87:  2.05  88:  0.68
  89:  5.95  90:  3.47  91: 14.86  92: 16.79  93: 44.94  94: 20.08  95:  0.47  96:  1.89
  97:  0.23  98:  0.83  99:  0.69 100:  1.17 101:  1.29 102:  0.76 103:  0.78 104:  0.23
 105:  0.01 106:  0.11 107:  0.14 108:  0.02 109:  0.10 110:  0.48 111:  0.54 112:  1.65
 113:  2.59 114:  2.19 115:  1.23 116:  1.44 117:  6.49 118: 12.85 119:  0.30 120:  1.75
 121:  9.34 122:  6.56 123:  7.59 124:  1.68 125: 16.00 126: 13.48 127:  9.93 128:  6.63
 129:  6.78 130: 28.08 131:  0.19 132:  0.08 133:  0.20 134:  2.28 135:  1.47 136:  1.10
 137: 21.17 138:  8.89 139:  2.64 140:  3.35 141: 13.55 142:  6.48 143: 29.07 144:266.94
 145:105.42 146:  7.49 147: 11.93 148:  9.33 149: 19.73 150:  0.71 151: 10.41 152:  2.98
 153:  3.79 154: 14.76 155:104.81 156: 41.50 157: 56.37 158:  3.25 159: 15.28 160: 15.21
 161:  0.85 162:  4.44 163:  2.47 164: 23.56 165: 19.82 166:105.33 167:189.67 168:  2.97
 169:  2.28 170:  1.82 171:  0.81 172:  4.69 173: 10.18 174: 67.29 175:266.27 176: 77.86
 177: 84.88 178: 65.90 179: 46.59 180:291.23 181:529.20 182:  7.13 183:  3.03 184:  6.02
 185: 13.84 186: 18.38 187:  4.91 188:  6.61 189: 11.90 190:  4.17 191:  0.83 192:152.83
 193:  9.53 194: 27.30 195: 30.54 196:  8.80 197:  8.79 198:121.13 199: 31.62 200:  3.71
 201:  3.50 202:147.81 203:175.81 204: 26.60 205: 48.85 206: 41.03 207:  6.09 208: 29.66
 209: 27.52 210: 59.53 211: 60.50 212: 55.97 213: 39.16 214: 49.76 215: 37.12 216: 37.84
 217: 32.66 218:122.64 219:115.28 220:114.92 221: 75.01 222: 57.22 223: 45.48 224: 36.44
 225: 89.13 226: 48.96 227: 15.81 228: 21.17 229:170.14 230:  3.68 231:197.87 232:  7.18
 233:  5.03 234: 50.98 235: 48.50 236: 53.70 237: 69.04
 Raman intensities (Ä⁴*amu⁻¹)
   1:  0.00   2:  0.00   3:  0.00   4:  0.00   5:  0.00   6:  0.00   7:  0.00   8:  0.00
   9:  0.00  10:  0.00  11:  0.00  12:  0.00  13:  0.00  14:  0.00  15:  0.00  16:  0.00
  17:  0.00  18:  0.00  19:  0.00  20:  0.00  21:  0.00  22:  0.00  23:  0.00  24:  0.00
  25:  0.00  26:  0.00  27:  0.00  28:  0.00  29:  0.00  30:  0.00  31:  0.00  32:  0.00
  33:  0.00  34:  0.00  35:  0.00  36:  0.00  37:  0.00  38:  0.00  39:  0.00  40:  0.00
  41:  0.00  42:  0.00  43:  0.00  44:  0.00  45:  0.00  46:  0.00  47:  0.00  48:  0.00
  49:  0.00  50:  0.00  51:  0.00  52:  0.00  53:  0.00  54:  0.00  55:  0.00  56:  0.00
  57:  0.00  58:  0.00  59:  0.00  60:  0.00  61:  0.00  62:  0.00  63:  0.00  64:  0.00
  65:  0.00  66:  0.00  67:  0.00  68:  0.00  69:  0.00  70:  0.00  71:  0.00  72:  0.00
  73:  0.00  74:  0.00  75:  0.00  76:  0.00  77:  0.00  78:  0.00  79:  0.00  80:  0.00
  81:  0.00  82:  0.00  83:  0.00  84:  0.00  85:  0.00  86:  0.00  87:  0.00  88:  0.00
  89:  0.00  90:  0.00  91:  0.00  92:  0.00  93:  0.00  94:  0.00  95:  0.00  96:  0.00
  97:  0.00  98:  0.00  99:  0.00 100:  0.00 101:  0.00 102:  0.00 103:  0.00 104:  0.00
 105:  0.00 106:  0.00 107:  0.00 108:  0.00 109:  0.00 110:  0.00 111:  0.00 112:  0.00
 113:  0.00 114:  0.00 115:  0.00 116:  0.00 117:  0.00 118:  0.00 119:  0.00 120:  0.00
 121:  0.00 122:  0.00 123:  0.00 124:  0.00 125:  0.00 126:  0.00 127:  0.00 128:  0.00
 129:  0.00 130:  0.00 131:  0.00 132:  0.00 133:  0.00 134:  0.00 135:  0.00 136:  0.00
 137:  0.00 138:  0.00 139:  0.00 140:  0.00 141:  0.00 142:  0.00 143:  0.00 144:  0.00
 145:  0.00 146:  0.00 147:  0.00 148:  0.00 149:  0.00 150:  0.00 151:  0.00 152:  0.00
 153:  0.00 154:  0.00 155:  0.00 156:  0.00 157:  0.00 158:  0.00 159:  0.00 160:  0.00
 161:  0.00 162:  0.00 163:  0.00 164:  0.00 165:  0.00 166:  0.00 167:  0.00 168:  0.00
 169:  0.00 170:  0.00 171:  0.00 172:  0.00 173:  0.00 174:  0.00 175:  0.00 176:  0.00
 177:  0.00 178:  0.00 179:  0.00 180:  0.00 181:  0.00 182:  0.00 183:  0.00 184:  0.00
 185:  0.00 186:  0.00 187:  0.00 188:  0.00 189:  0.00 190:  0.00 191:  0.00 192:  0.00
 193:  0.00 194:  0.00 195:  0.00 196:  0.00 197:  0.00 198:  0.00 199:  0.00 200:  0.00
 201:  0.00 202:  0.00 203:  0.00 204:  0.00 205:  0.00 206:  0.00 207:  0.00 208:  0.00
 209:  0.00 210:  0.00 211:  0.00 212:  0.00 213:  0.00 214:  0.00 215:  0.00 216:  0.00
 217:  0.00 218:  0.00 219:  0.00 220:  0.00 221:  0.00 222:  0.00 223:  0.00 224:  0.00
 225:  0.00 226:  0.00 227:  0.00 228:  0.00 229:  0.00 230:  0.00 231:  0.00 232:  0.00
 233:  0.00 234:  0.00 235:  0.00 236:  0.00 237:  0.00
 output can be read by thermo (or use thermo option).
 writing <g98.out> molden fake output.
 recommended (thermochemical) frequency scaling factor: 1.0
           -------------------------------------------------
          |             Thermodynamic Functions             |
           -------------------------------------------------

Molecule has no symmetry elements
It seems to be the C1 point group
c1  symmetry found (for desy threshold:  0.10E+00) used in thermo

          ...................................................
          :                      SETUP                      :
          :.................................................:
          :  # frequencies                         231      :
          :  # imaginary freq.                       0      :
          :  linear?                             false      :
          :  only rotor calc.                    false      :
          :  symmetry                               c1      :
          :  rotational number                       1      :
          :  scaling factor                  1.0000000      :
          :  rotor cutoff                   50.0000000 cm⁻¹ :
          :  imag. cutoff                  -20.0000000 cm⁻¹ :
          :.................................................:

    mode    ω/cm⁻¹     T·S(HO)/kcal·mol⁻¹    T·S(FR)/kcal·mol⁻¹   T·S(vib)
   ------------------------------------------------------------------------
       1     10.59    -2.35452 (  0.20%)    -1.51629 ( 99.80%)    -1.51798
       2     16.70    -2.08474 (  1.23%)    -1.38137 ( 98.77%)    -1.39002
       3     20.60    -1.96053 (  2.80%)    -1.31923 ( 97.20%)    -1.33719
       4     30.77    -1.72310 ( 12.54%)    -1.20038 ( 87.46%)    -1.26593
       5     35.93    -1.63147 ( 21.04%)    -1.15446 ( 78.96%)    -1.25484
       6     45.48    -1.49217 ( 40.64%)    -1.08460 ( 59.36%)    -1.25024
       7     49.72    -1.43964 ( 49.43%)    -1.05822 ( 50.57%)    -1.24677
       8     55.07    -1.37935 ( 59.54%)    -1.02791 ( 40.46%)    -1.23718
       9     57.31    -1.35589 ( 63.32%)    -1.01611 ( 36.68%)    -1.23125
      10     62.69    -1.30316 ( 71.19%)    -0.98956 ( 28.81%)    -1.21280
      11     63.63    -1.29439 ( 72.39%)    -0.98514 ( 27.61%)    -1.20902
      12     66.48    -1.26862 ( 75.76%)    -0.97215 ( 24.24%)    -1.19675
      13     69.89    -1.23925 ( 79.24%)    -0.95733 ( 20.76%)    -1.18073
      14     71.22    -1.22818 ( 80.46%)    -0.95175 ( 19.54%)    -1.17415
      15     82.52    -1.14193 ( 88.12%)    -0.90812 ( 11.88%)    -1.11416
      16    100.41    -1.02751 ( 94.21%)    -0.84998 (  5.79%)    -1.01723
      17    103.85    -1.00799 ( 94.90%)    -0.84002 (  5.10%)    -0.99942
      18    115.32    -0.94731 ( 96.59%)    -0.80898 (  3.41%)    -0.94259
      19    118.75    -0.93043 ( 96.95%)    -0.80031 (  3.05%)    -0.92646
      20    124.23    -0.90442 ( 97.44%)    -0.78693 (  2.56%)    -0.90142
      21    135.75    -0.85357 ( 98.19%)    -0.76066 (  1.81%)    -0.85189
      22    140.61    -0.83348 ( 98.43%)    -0.75024 (  1.57%)    -0.83217
      23    148.49    -0.80247 ( 98.73%)    -0.73409 (  1.27%)    -0.80160
      24    171.60    -0.72089 ( 99.28%)    -0.69124 (  0.72%)    -0.72068
      25    180.79    -0.69178 ( 99.42%)    -0.67578 (  0.58%)    -0.69169
      26    181.78    -0.68875 ( 99.43%)    -0.67417 (  0.57%)    -0.68866
      27    210.92    -0.60694 ( 99.69%)    -0.63012 (  0.31%)    -0.60702
      28    236.45    -0.54543 ( 99.80%)    -0.59627 (  0.20%)    -0.54554
      29    244.23    -0.52829 ( 99.82%)    -0.58669 (  0.18%)    -0.52839
      30    248.18    -0.51982 ( 99.84%)    -0.58193 (  0.16%)    -0.51992
      31    250.27    -0.51541 ( 99.84%)    -0.57945 (  0.16%)    -0.51551
      32    262.28    -0.49092 ( 99.87%)    -0.56556 (  0.13%)    -0.49102
      33    283.11    -0.45163 ( 99.90%)    -0.54292 (  0.10%)    -0.45172
      34    295.52    -0.42998 ( 99.92%)    -0.53021 (  0.08%)    -0.43006
   ------------------------------------------------------------------------

   temp. (K)  partition function   enthalpy   heat capacity  entropy
                                   cal/mol     cal/K/mol   cal/K/mol   J/K/mol
 298.15  VIB  0.143E+19            23341.758    143.483    147.576
         ROT  0.581E+08              888.752      2.981     38.508
         INT  0.831E+26            24230.510    146.464    186.085
         TR   0.145E+29             1481.254      4.968     45.081
         TOT                       25711.7643   151.4319   231.1660   967.1987

       T/K    H(0)-H(T)+PV         H(T)/Eh          T*S/Eh         G(T)/Eh
   ------------------------------------------------------------------------
    298.15    0.409743E-01    0.654625E+00    0.109834E+00    0.544790E+00
   ------------------------------------------------------------------------

         :::::::::::::::::::::::::::::::::::::::::::::::::::::
         ::                  THERMODYNAMIC                  ::
         :::::::::::::::::::::::::::::::::::::::::::::::::::::
         :: total free energy        -121.624666052684 Eh   ::
         ::.................................................::
         :: total energy             -122.169456228056 Eh   ::
         :: zero point energy           0.613650317817 Eh   ::
         :: G(RRHO) w/o ZPVE           -0.068860142445 Eh   ::
         :: G(RRHO) contrib.            0.544790175372 Eh   ::
         :::::::::::::::::::::::::::::::::::::::::::::::::::::

optimized geometry written to: xtbopt.xyz


           -------------------------------------------------
          | TOTAL ENERGY             -122.169456228056 Eh   |
          | TOTAL ENTHALPY           -121.514831605733 Eh   |
          | TOTAL FREE ENERGY        -121.624666052684 Eh   |
          | GRADIENT NORM               0.000036032623 Eh/α |
          | HOMO-LUMO GAP               1.933440241434 eV   |
           -------------------------------------------------

------------------------------------------------------------------------
 * finished run on 2025/08/25 at 08:10:03.602     
------------------------------------------------------------------------
 total:
 * wall-time:     0 d,  0 h,  0 min, 10.718 sec
 *  cpu-time:     0 d,  0 h,  6 min, 53.734 sec
 * ratio c/w:    38.600 speedup
 SCF:
 * wall-time:     0 d,  0 h,  0 min,  0.164 sec
 *  cpu-time:     0 d,  0 h,  0 min,  6.005 sec
 * ratio c/w:    36.521 speedup
 ANC optimizer:
 * wall-time:     0 d,  0 h,  0 min,  6.942 sec
 *  cpu-time:     0 d,  0 h,  4 min, 37.647 sec
 * ratio c/w:    39.997 speedup
 analytical hessian:
 * wall-time:     0 d,  0 h,  0 min,  3.421 sec
 *  cpu-time:     0 d,  0 h,  2 min,  3.034 sec
 * ratio c/w:    35.968 speedup

