$hessian                                                                        
        0.4953162249   0.0078967400   0.0374930173  -0.0944456843   0.0176216624
        0.0558719801  -0.0058123505   0.0062200954   0.0077516217   0.0055316224
       -0.0016222313  -0.0086632949  -0.0249639660  -0.0003124511   0.0195347196
       -0.0005035358  -0.0019741821   0.0003528139  -0.0011445127  -0.0004289019
       -0.0016032034  -0.0000599628   0.0004646378   0.0001109935  -0.0001044642
       -0.0001428325   0.0002267845   0.0000422886   0.0000031733  -0.0000546240
       -0.0000265596   0.0000180354  -0.0000042109   0.0000193273  -0.0000054165
        0.0000203507   0.0000095673  -0.0000015440   0.0000025168   0.0000686781
        0.0000084445  -0.0000348934  -0.0000583901  -0.0000095208   0.0000237227
       -0.0000032007  -0.0000002552  -0.0000272491   0.0000097965   0.0000071468
        0.0000092488   0.0000025156  -0.0000012809  -0.0000172501  -0.0000133853
       -0.0000059658  -0.0000103406   0.0000160240   0.0000069717   0.0000225403
       -0.0000133229  -0.0000069199  -0.0000221214   0.0000042929   0.0000050198
        0.0000263850  -0.0000055071  -0.0000027671  -0.0000217187   0.0000005664
        0.0000022731   0.0000174728   0.0000167383   0.0000073489   0.0000047514
       -0.0000147942  -0.0000047484   0.0000040859   0.0000559553   0.0000121569
        0.0000178711  -0.0000389220   0.0000031756  -0.0000040240  -0.0000001542
        0.0001213020  -0.0000525549  -0.0000395610  -0.0001460142  -0.0000047505
       -0.0000110429   0.0001388578   0.0000020167   0.0000016522   0.0000151036
       -0.0000177437  -0.0000178643   0.0000005450  -0.0000088115  -0.0000140464
       -0.0000099610  -0.0000006494  -0.0000006004  -0.0000087811  -0.0000067749
        0.0000598758   0.0000019839   0.0000592375  -0.0000527279  -0.0000018008
       -0.0000024809   0.0000266130  -0.0000742695  -0.0001036186   0.0000974192
        0.0001133282   0.0000700249  -0.0001315075   0.0000507805  -0.0000078214
        0.0000878604   0.0000378431   0.0000385252  -0.0001138261   0.0000992180
        0.0000055090   0.0002272954  -0.0001012821   0.0000673921  -0.0003315884
        0.0001393837  -0.0000701501   0.0002244671  -0.0000820574   0.0000397929
       -0.0001263336   0.0000084224  -0.0000929930   0.0000514339  -0.0000360584
        0.0000175567   0.0000419395   0.0001883418  -0.0004932068  -0.0004217587
        0.0005583629   0.0006352611  -0.2121160031  -0.1084721830  -0.0035508280
       -0.1061023930   0.0247792486  -0.1028429592  -0.0562118721   0.0546921470
       -0.0015353266  -0.0000606018   0.0015571766   0.0001588958   0.0006652120
       -0.0009517202  -0.0004626866   0.0001596705  -0.0003066354   0.0005205957
        0.0004255410  -0.0002534355  -0.0004248489  -0.0004629830   0.0003837562
       -0.0031603510   0.0008535452   0.0000553286  -0.0006941400   0.0000454567
       -0.0000883237   0.0004325779  -0.0002475719  -0.0001186037   0.0000549508
       -0.0000161716  -0.0000112537   0.0000227970  -0.0000173178   0.0000130394
       -0.0000084156  -0.0000201168   0.0000024678  -0.0000006515  -0.0000028220
       -0.0000021545  -0.0000005957  -0.0000007610  -0.0000010961   0.0000006866
       -0.0000049713  -0.0000021673   0.0000085565  -0.0000103248  -0.0000030703
        0.0000043081  -0.0000071693  -0.0000020695   0.0000051197  -0.0000096063
       -0.0000023528  -0.0000005001  -0.0000055002  -0.0000032498  -0.0000062360
        0.0000028144   0.0000001545   0.0000003024  -0.0000032914  -0.0000013804
       -0.0000078914  -0.0000016361  -0.0000065126   0.0000084654   0.0000051107
        0.0000028914   0.0000007143  -0.0000058692  -0.0000095390  -0.0000034460
        0.0000069013   0.0000005036   0.0000013711  -0.0000064364  -0.0000076905
       -0.0000065852   0.0000021310  -0.0000028793   0.0000079140   0.0000009912
       -0.0000002073   0.0000003622  -0.0000097129  -0.0000077499  -0.0000012167
        0.0000057494   0.0000044017  -0.0000009624   0.0000051486  -0.0000026781
        0.0000003856   0.0000050019  -0.0000115803  -0.0000028749   0.0000017499
       -0.0000097366  -0.0000100218  -0.0000147429  -0.0000343473  -0.0000138302
        0.0000269680  -0.0000185517   0.0000185506   0.0000168609  -0.0000115958
       -0.0000023516   0.0000056379  -0.0000117431   0.0000044223  -0.0003391999
        0.0000922796   0.0003840374
        0.0078967400   0.5232458118  -0.0127073934   0.0130586941  -0.0688969301
       -0.0197747334   0.0174001796  -0.0153396495  -0.0227322535  -0.0017038448
        0.0013289388   0.0042892188  -0.0076210730   0.0043802565   0.0094748708
       -0.0013219683  -0.0010108564   0.0000104050  -0.0000379507   0.0003613443
       -0.0008114542  -0.0007490641  -0.0004317822  -0.0000345215   0.0004483381
        0.0003740103   0.0002043139   0.0000443589  -0.0000193485  -0.0000564521
       -0.0000724197  -0.0000723274   0.0000514689   0.0000369506   0.0000042483
        0.0000189124  -0.0000078052   0.0000009799   0.0000288965   0.0001367650
        0.0000018331  -0.0000527755  -0.0000967416  -0.0000108694   0.0000581530
        0.0000018385   0.0000064020  -0.0000559319  -0.0000212131   0.0000001235
        0.0000204490  -0.0000019065  -0.0000040247  -0.0000307857  -0.0000381414
       -0.0000135190  -0.0000194114   0.0000362442   0.0000189642   0.0000441424
       -0.0000252811  -0.0000163544  -0.0000472742   0.0000310742   0.0000158054
        0.0000417335  -0.0000239116  -0.0000136040  -0.0000528998   0.0000035821
        0.0000075752   0.0000448403   0.0000230881   0.0000114735   0.0000125685
       -0.0000249116  -0.0000050351   0.0000110011   0.0000492845   0.0000020577
        0.0000196159  -0.0000032743   0.0000834174  -0.0000530938  -0.0000591728
       -0.0000073114  -0.0000591867   0.0000794405  -0.0001710231   0.0000371956
       -0.0000321541   0.0002853055  -0.0000384504   0.0000235355   0.0000338280
       -0.0000146652  -0.0000206945  -0.0000077564  -0.0000110424  -0.0000129935
       -0.0000280229   0.0000084791   0.0000048836  -0.0000281507  -0.0000170342
        0.0002488260   0.0000607996   0.0001048635  -0.0001628426  -0.0001342571
       -0.0000364452   0.0000709761   0.0000612149  -0.0000737388   0.0000171927
        0.0000204428  -0.0000131944  -0.0001313825   0.0000480214  -0.0000043670
        0.0000909631   0.0000582269   0.0000424464  -0.0000446787   0.0000993516
        0.0000443754   0.0002094795  -0.0000826588   0.0000578772  -0.0002569527
        0.0000885570  -0.0000446012   0.0001977163  -0.0000886560   0.0000466780
       -0.0001058233   0.0000010165  -0.0001057400   0.0000656165  -0.0000715853
       -0.0000448515   0.0004015259   0.0003743743   0.0000080724  -0.0004175917
       -0.0017318851  -0.0000800331  -0.1088380932  -0.1130549390  -0.0009705141
        0.0246501694  -0.0542004739   0.0408561730   0.0547112308  -0.2708059328
        0.0027273004   0.0020366615  -0.0063355121  -0.0013678299   0.0011364504
        0.0006996908  -0.0007975921  -0.0000210164   0.0007295960  -0.0009942936
       -0.0004520290   0.0006112127   0.0008325126   0.0005487526   0.0002093248
        0.0012911552   0.0001287879   0.0000436076  -0.0002358003  -0.0001259186
       -0.0000262424   0.0001453112  -0.0001648799  -0.0000306623   0.0000788293
        0.0000128082   0.0000066369  -0.0000043731  -0.0000169874   0.0000233916
       -0.0000175376  -0.0000188129   0.0000001469  -0.0000049004   0.0000029115
       -0.0000045271  -0.0000115572   0.0000043094   0.0000011861   0.0000059701
       -0.0000025126  -0.0000010289   0.0000075001  -0.0000060338  -0.0000035897
        0.0000028123  -0.0000053946  -0.0000018208   0.0000048599  -0.0000054260
       -0.0000041171  -0.0000015172  -0.0000017519  -0.0000022683  -0.0000064115
        0.0000070551   0.0000025417   0.0000023504  -0.0000070138  -0.0000120940
       -0.0000009382  -0.0000215124   0.0000050191   0.0000065947   0.0000057890
        0.0000041450   0.0000024901  -0.0000137612  -0.0000131302  -0.0000044227
        0.0000065815   0.0000060578  -0.0000000465  -0.0000175710  -0.0000085960
       -0.0000141031   0.0000059081   0.0000031375   0.0000086237   0.0000045070
        0.0000025221   0.0000000733  -0.0000219518  -0.0000089242  -0.0000017595
        0.0000063675   0.0000069528   0.0000051901   0.0000093563   0.0000026769
        0.0000005284   0.0000041481  -0.0000223069   0.0000085777   0.0000070614
       -0.0000326591  -0.0000049560  -0.0000148062   0.0000157719  -0.0000080953
        0.0000122350  -0.0000112574   0.0000205577   0.0000078159  -0.0000217805
       -0.0000029770  -0.0000141117  -0.0000139551   0.0000042328  -0.0011228228
       -0.0005465734   0.0007297357
        0.0374930173  -0.0127073934   0.4670052745   0.0486110040  -0.0236782779
       -0.1341021001   0.0036545662  -0.0048493614  -0.0041752728   0.0111057608
       -0.0049883740  -0.0303780626   0.0085878419   0.0030887151  -0.0019474273
       -0.0014600576  -0.0000322982  -0.0009445288   0.0005690324   0.0005786822
        0.0000514030  -0.0003787110  -0.0004748946  -0.0000648031   0.0003521695
        0.0002526622   0.0000790115   0.0000142324   0.0000082860  -0.0000474638
       -0.0000156263  -0.0000311750   0.0000305317   0.0000147871   0.0000098499
       -0.0000005050   0.0000001544   0.0000052471   0.0000053494   0.0000635838
        0.0000020264  -0.0000294734  -0.0000470312   0.0000032263   0.0000551882
        0.0000036267   0.0000019934  -0.0000538813  -0.0000209143  -0.0000034507
        0.0000126358  -0.0000026383  -0.0000006423  -0.0000169138  -0.0000183947
       -0.0000061922  -0.0000045192   0.0000166884   0.0000107616   0.0000124855
       -0.0000159229  -0.0000095193  -0.0000152130   0.0000215295   0.0000079621
        0.0000162177  -0.0000191381  -0.0000048503  -0.0000234076   0.0000021166
        0.0000012698   0.0000214264   0.0000112507   0.0000076463   0.0000061457
       -0.0000091774  -0.0000032591   0.0000011917   0.0000130120  -0.0000054442
        0.0000104209   0.0000140796   0.0000420017  -0.0000325110  -0.0000279923
       -0.0000410417  -0.0000045172   0.0000623965  -0.0000742558   0.0000274060
       -0.0000303271   0.0001538704  -0.0000341504   0.0000121044   0.0000112235
       -0.0000078573  -0.0000087691  -0.0000030518  -0.0000045864  -0.0000043291
       -0.0000111914   0.0000000745  -0.0000007663  -0.0000110581  -0.0000107106
        0.0001433290   0.0000421683   0.0000470890  -0.0001018718  -0.0001006860
       -0.0000261444   0.0000288371   0.0000557278  -0.0000200326  -0.0000151070
       -0.0000334407  -0.0000392063  -0.0001244965   0.0000471824  -0.0000081933
        0.0000670778  -0.0000749617  -0.0000068753  -0.0000405843   0.0000336379
        0.0000025003   0.0001157703  -0.0000566000   0.0000290741  -0.0001433710
        0.0000699655  -0.0000368530   0.0000891170  -0.0000387890   0.0000378715
       -0.0000953175   0.0000144253  -0.0000559473   0.0000692874  -0.0000569433
       -0.0000074645   0.0003035847  -0.0001027049   0.0001552189  -0.0004431157
       -0.0009957355   0.0001963666  -0.0040831393  -0.0011572242  -0.0425620167
       -0.1024154469   0.0406807999  -0.2081592525  -0.0015949551   0.0031374163
       -0.0427398213   0.0000911814  -0.0002932305   0.0004721463  -0.0000463126
        0.0006036393   0.0001595356  -0.0003344648   0.0008710983   0.0008100667
        0.0008701504  -0.0007719561   0.0009649472  -0.0021382897   0.0008085538
       -0.0054520918   0.0009711418   0.0000064440   0.0007505107   0.0000631444
        0.0000639088   0.0000051939  -0.0000569796   0.0000170103   0.0001445663
       -0.0000086822  -0.0000083371   0.0000003367  -0.0000080815   0.0000062468
        0.0000017381  -0.0000070494  -0.0000041673  -0.0000004531   0.0000065106
       -0.0000005250  -0.0000071314   0.0000053022   0.0000013561   0.0000086041
        0.0000026529   0.0000009430   0.0000029705   0.0000029946   0.0000007019
        0.0000030960   0.0000000226   0.0000006091   0.0000032314   0.0000000574
        0.0000011842   0.0000032710  -0.0000003808   0.0000015352   0.0000006004
        0.0000009841   0.0000003294   0.0000059818  -0.0000027631  -0.0000145541
        0.0000114147  -0.0000131612   0.0000036589   0.0000028925   0.0000012196
       -0.0000027395   0.0000033235  -0.0000079424  -0.0000019524  -0.0000000789
       -0.0000000197   0.0000016378   0.0000021087  -0.0000088617  -0.0000014920
       -0.0000019624   0.0000027509   0.0000016294   0.0000065048   0.0000046305
        0.0000002985   0.0000053650  -0.0000087547  -0.0000007148   0.0000030018
       -0.0000016630   0.0000003679   0.0000071323   0.0000043514   0.0000035914
        0.0000015465   0.0000045048  -0.0000082351   0.0000092351   0.0000170482
       -0.0000152806   0.0000006764  -0.0000244328   0.0000236441   0.0000219838
        0.0000189275   0.0000006176   0.0000245636   0.0000056895   0.0000087025
        0.0000065447   0.0000038644   0.0000160834   0.0000121984   0.0002679531
       -0.0000345379  -0.0002367421
       -0.0944456843   0.0130586941   0.0486110040   0.4628843469   0.0056665246
        0.0022637646  -0.0675169062   0.0217782536  -0.0005484453  -0.0881795148
        0.0107499919  -0.0463547843  -0.1451764226  -0.0488257154  -0.0032688764
       -0.0297932486  -0.0107673994  -0.0016565013  -0.0011893078   0.0046903414
       -0.0000367140  -0.0027931421  -0.0019676595  -0.0005136694   0.0020142284
        0.0015917320   0.0003994148  -0.0004083296   0.0002314512  -0.0001568760
       -0.0000058553  -0.0002028663   0.0000460876  -0.0000815594  -0.0000133873
        0.0000656784   0.0000977060  -0.0000537256   0.0000307862   0.0000239808
        0.0000940559  -0.0000867903  -0.0000418172  -0.0000270597   0.0000217536
       -0.0000013775  -0.0000067095  -0.0000439348   0.0000160627   0.0000054820
        0.0000135895  -0.0000078290  -0.0000043782  -0.0000122839  -0.0000081382
       -0.0000050968  -0.0000055927   0.0000073491  -0.0000006161   0.0000068859
       -0.0000249618  -0.0000083878  -0.0000056828  -0.0000050140  -0.0000016633
        0.0000154843  -0.0000028432  -0.0000047444  -0.0000090057  -0.0000032828
       -0.0000048959   0.0000084128   0.0000161750   0.0000027844  -0.0000003504
       -0.0000131617  -0.0000097649   0.0000009512   0.0000475592   0.0000207490
        0.0000264035   0.0001548600   0.0000737558   0.0000017958  -0.0002115175
       -0.0006022868  -0.0001195251   0.0002417286   0.0000056931   0.0000580831
       -0.0001836170   0.0003510848  -0.0001368589   0.0000242385   0.0000010131
        0.0000053478  -0.0000110805   0.0000036239  -0.0000076487   0.0000021752
        0.0000139620  -0.0000114786  -0.0000024223   0.0000092803   0.0000074795
        0.0007334538   0.0001326001   0.0002094371  -0.0003835466  -0.0006943666
       -0.0000564486   0.0002081318   0.0005590939   0.0000838645  -0.0002701325
       -0.0003569839  -0.0001029315   0.0003291150  -0.0000591979   0.0000764862
       -0.0001784031  -0.0000289264  -0.0001076069   0.0000884504  -0.0001165511
       -0.0000313763  -0.0002204394   0.0001228424  -0.0000624739   0.0002491809
       -0.0001001608   0.0000877601  -0.0001623335   0.0001027244  -0.0000464331
        0.0001440707  -0.0000038776   0.0000974066  -0.0001600239   0.0001772435
        0.0000233598   0.0025015667   0.0023464773  -0.0002051511  -0.0010055595
       -0.0121721205   0.0005049629  -0.0191369867   0.0037346540   0.0217395459
        0.0071849817  -0.0029634875  -0.0096908618  -0.0051618811   0.0041944084
        0.0060696792  -0.0037687919   0.0168403703   0.0012696230   0.0015413265
       -0.0263934002   0.0003089694  -0.0033595731   0.0151648343  -0.0017342813
       -0.0049614318   0.0039653597  -0.0068076393   0.0073683690  -0.0030863581
        0.0119942829  -0.0171598476   0.0030236876  -0.0224900331   0.0010330898
       -0.0007154175   0.0001315301  -0.0007788787  -0.0005576277  -0.0000871234
       -0.0000354018   0.0000047482   0.0000524743  -0.0000223301   0.0000250981
       -0.0000104648  -0.0000351778   0.0000102011  -0.0000004195  -0.0000082081
        0.0000008416  -0.0000054596  -0.0000077874  -0.0000020805   0.0000027056
       -0.0000076167  -0.0000051977   0.0000086972  -0.0000120572  -0.0000061310
        0.0000033006  -0.0000095010  -0.0000066405   0.0000024310  -0.0000106756
       -0.0000064831  -0.0000020681  -0.0000038726  -0.0000062916  -0.0000064393
        0.0000027638   0.0000013520  -0.0000013341  -0.0000188390   0.0000120146
       -0.0000312230   0.0000260368  -0.0000024927   0.0000434319   0.0000060357
        0.0000056031  -0.0000011190   0.0000057020  -0.0000048272  -0.0000037623
        0.0000073718   0.0000062780  -0.0000001855   0.0000066097  -0.0000084805
        0.0000040865  -0.0000004224  -0.0000067496   0.0000006848  -0.0000051911
        0.0000058752  -0.0000007003   0.0000062132  -0.0000108536  -0.0000107239
        0.0000140701   0.0000074114  -0.0000071370   0.0000002550  -0.0000085524
       -0.0000005397   0.0000007835   0.0000144553   0.0000219076  -0.0000228792
        0.0000045221  -0.0000162384   0.0000380047  -0.0000344921   0.0000016036
        0.0000103385   0.0000070801  -0.0000049168  -0.0000067729   0.0000129085
        0.0000142822   0.0000115855   0.0000121227   0.0000299455  -0.0000263211
        0.0010208244   0.0001347294
        0.0176216624  -0.0688969301  -0.0236782779   0.0056665246   0.4940323505
       -0.0000774637   0.0198730391  -0.1818588250   0.0020360757   0.0145856212
       -0.0682390603   0.0231230181  -0.0565379386  -0.0992131732  -0.0019517487
        0.0041966989   0.0075915811   0.0002284857   0.0027225878  -0.0006274654
        0.0004143451   0.0001381081  -0.0003926494  -0.0000788078   0.0000801273
        0.0000907318  -0.0000531613  -0.0000544551   0.0000496919   0.0000570791
        0.0000891128   0.0000185985  -0.0000278372  -0.0000281585  -0.0000149139
       -0.0000129654   0.0000151101  -0.0000050629  -0.0000261351  -0.0000759787
        0.0000092701   0.0000506811   0.0000725960  -0.0000082451  -0.0000434269
       -0.0000042279  -0.0000026795   0.0000459414   0.0000277882  -0.0000051688
       -0.0000171932   0.0000016754  -0.0000003735   0.0000201797   0.0000310890
        0.0000105582   0.0000143937  -0.0000297840  -0.0000161641  -0.0000397954
        0.0000143331   0.0000109559   0.0000415796  -0.0000299067  -0.0000158566
       -0.0000360105   0.0000227755   0.0000071840   0.0000439460  -0.0000021066
       -0.0000077375  -0.0000396217  -0.0000152228  -0.0000100582  -0.0000095083
        0.0000224212   0.0000015947  -0.0000122514  -0.0000421115   0.0000105346
       -0.0000095795   0.0000341444  -0.0000680556   0.0000500884   0.0000367758
       -0.0001524790  -0.0000032514   0.0000215706   0.0002431960  -0.0000048536
       -0.0000030160  -0.0002421460   0.0000314436  -0.0000019877  -0.0000268816
        0.0000110364   0.0000161764   0.0000124882   0.0000037080   0.0000211178
        0.0000333961  -0.0000093097   0.0000073193   0.0000298601   0.0000144624
       -0.0001025198  -0.0000615645  -0.0000424028   0.0000055883  -0.0000185772
       -0.0000004193   0.0000938359  -0.0002239233   0.0000897213  -0.0011556579
       -0.0008544664  -0.0000332771   0.0000561500   0.0000278859  -0.0000286902
       -0.0001371209   0.0000281322  -0.0000984236   0.0001355794  -0.0000924730
        0.0000111000  -0.0002616700   0.0001237397  -0.0000804375   0.0003633031
       -0.0001624058   0.0001072210  -0.0002261481   0.0001185309  -0.0000608166
        0.0001531139  -0.0000219393   0.0000803141  -0.0001098168   0.0000840608
       -0.0000179445   0.0012592521  -0.0042142936   0.0004063030  -0.0235438322
       -0.0218188405  -0.0006567673  -0.0091570021   0.0025885120   0.0117170266
       -0.0028275137   0.0010851578   0.0044255835   0.0165188745  -0.0103485137
       -0.0225450434   0.0038421375  -0.0114018666  -0.0028928474  -0.0015001038
       -0.0204142930   0.0001405176   0.0035144676  -0.0107635162   0.0033392130
        0.0150692568  -0.0096716252   0.0236491680  -0.0025131981   0.0010037737
       -0.0047262877  -0.0087746031   0.0023149403  -0.0129186511   0.0006765809
       -0.0004593885   0.0000004187   0.0008178404   0.0002371251   0.0000680901
       -0.0000365458   0.0000146071   0.0000145849   0.0000024255  -0.0000065460
        0.0000112651   0.0000004490   0.0000059152   0.0000076553  -0.0000125315
        0.0000074731   0.0000164066  -0.0000094605  -0.0000001104  -0.0000055200
       -0.0000011126  -0.0000006510  -0.0000042181   0.0000021966   0.0000007308
       -0.0000014197   0.0000010447  -0.0000007243  -0.0000045004   0.0000021597
       -0.0000008604   0.0000012063   0.0000005798   0.0000001056   0.0000047860
       -0.0000114061  -0.0000002702  -0.0000012707  -0.0000089191   0.0000255120
       -0.0000138803   0.0000161202  -0.0000112337  -0.0000015678  -0.0000031844
       -0.0000020980   0.0000008470   0.0000116494   0.0000038947   0.0000027507
       -0.0000022793  -0.0000005996  -0.0000038957   0.0000130613   0.0000024085
        0.0000096066  -0.0000082777  -0.0000066611  -0.0000100777  -0.0000089774
       -0.0000007024  -0.0000021992   0.0000161435   0.0000010872  -0.0000047788
        0.0000005647  -0.0000014653  -0.0000037240  -0.0000116814  -0.0000070066
       -0.0000009378  -0.0000169023   0.0000015950  -0.0000120957  -0.0000225160
        0.0000186217   0.0000035100   0.0000053759  -0.0000330761   0.0000138191
       -0.0000048813   0.0000265564  -0.0000081859  -0.0000080118   0.0000059755
        0.0000072058   0.0000055037   0.0000181370   0.0000177330  -0.0006008617
        0.0005071475  -0.0000210383
        0.0558719801  -0.0197747334  -0.1341021001   0.0022637646  -0.0000774637
        0.4506986745  -0.0004399569   0.0021091206  -0.0629599976  -0.0530897621
        0.0191685876  -0.1421394783  -0.0024581085  -0.0024821115  -0.0544740145
       -0.0026743640  -0.0005905651   0.0034862944  -0.0005190923   0.0001848490
        0.0073575016   0.0006729429  -0.0001534378  -0.0004337488  -0.0002089081
       -0.0001104986  -0.0014276878  -0.0000549318  -0.0002028687   0.0002592061
        0.0000377506   0.0000344182  -0.0000645094   0.0000674756  -0.0000473614
       -0.0000101093  -0.0000258966  -0.0000029005   0.0000138917  -0.0000417398
       -0.0000038094   0.0000184748   0.0000008250  -0.0000013676  -0.0000020281
        0.0000000674  -0.0000019609  -0.0000021186   0.0000029809  -0.0000011003
       -0.0000050539   0.0000013395   0.0000046519   0.0000033786   0.0000059815
        0.0000026647   0.0000051468  -0.0000101983  -0.0000013471  -0.0000212837
        0.0000012975   0.0000000435   0.0000178527  -0.0000094372  -0.0000071490
       -0.0000121270   0.0000024842   0.0000058350   0.0000149279   0.0000001623
       -0.0000062659  -0.0000149422  -0.0000038574  -0.0000005046  -0.0000028731
        0.0000066944  -0.0000018007  -0.0000080218  -0.0000106217  -0.0000022632
        0.0000026865  -0.0000157641   0.0000171468  -0.0000038129  -0.0000476077
        0.0000805239   0.0002084579  -0.0000088084   0.0001566193   0.0000237580
        0.0000905207  -0.0002261539  -0.0000146371  -0.0000110028  -0.0000078226
        0.0000403453   0.0000060289   0.0000046129   0.0000038168   0.0000205389
        0.0000200472  -0.0000057437  -0.0000056681   0.0000047455  -0.0000041768
       -0.0001920001  -0.0000814994  -0.0001774179   0.0001374807   0.0001610343
       -0.0000271635  -0.0000501426  -0.0000380313   0.0002476510   0.0001013555
       -0.0000509878   0.0000687296   0.0000039625  -0.0000044581  -0.0001741732
       -0.0000276348  -0.0000693363   0.0000800082  -0.0001405573   0.0000294621
       -0.0000082781   0.0000977522  -0.0001091629  -0.0000763356  -0.0000985718
        0.0000676161  -0.0000194871   0.0000609818  -0.0000308888   0.0000209992
       -0.0000280804  -0.0000061678   0.0000012297   0.0000878271  -0.0000191248
       -0.0000161195  -0.0009870343   0.0005306897   0.0048005554   0.0005926881
        0.0010868432  -0.0002043438   0.0044576262   0.0000917685  -0.0028038690
        0.0127413846  -0.0047845190  -0.0252393836   0.0012378877  -0.0025486098
       -0.0015082143   0.0048273596  -0.0235065079  -0.0017219880   0.0000526960
       -0.0006969994  -0.0001102148  -0.0049875268   0.0247725650  -0.0028067575
       -0.0017144960   0.0029291031  -0.0024019298  -0.0106282905   0.0040277789
       -0.0253053345  -0.0053044991  -0.0000280956  -0.0044133021   0.0001570407
        0.0000205596  -0.0022679850   0.0001829518   0.0000293090  -0.0007170421
       -0.0000178737   0.0000041954   0.0000021424  -0.0000002231  -0.0000120425
       -0.0000012711   0.0000008797   0.0000073356   0.0000104681   0.0000046473
        0.0000035961   0.0000094199   0.0000022515  -0.0000011358  -0.0000027145
        0.0000038602   0.0000007316  -0.0000030676   0.0000051075   0.0000016240
        0.0000007068   0.0000023548   0.0000008298  -0.0000005699   0.0000016033
        0.0000013939   0.0000028231  -0.0000004792   0.0000012408   0.0000017038
       -0.0000028977  -0.0000001220   0.0000023513   0.0000039440   0.0000110373
        0.0000143822   0.0000073289   0.0000020411  -0.0000295644  -0.0000019692
       -0.0000053694   0.0000014776   0.0000003966   0.0000024969   0.0000036825
       -0.0000001243  -0.0000010070   0.0000010011   0.0000029362   0.0000010305
        0.0000101729  -0.0000053272   0.0000004582  -0.0000014745   0.0000009915
       -0.0000039719   0.0000024972   0.0000016572   0.0000022397   0.0000036428
       -0.0000038724  -0.0000004255   0.0000025624  -0.0000042645   0.0000009273
        0.0000021750  -0.0000151061   0.0000034954   0.0000296121  -0.0000038727
        0.0000110576   0.0000352686   0.0000320410   0.0000845016  -0.0000242883
       -0.0000113156   0.0000165365   0.0000256069   0.0000045317  -0.0000050994
        0.0000193511   0.0000044307   0.0000026843   0.0000004176  -0.0000089066
        0.0000069987  -0.0017842978
       -0.0058123505   0.0174001796   0.0036545662  -0.0675169062   0.0198730391
       -0.0004399569   0.5237143441   0.0078030999  -0.0000124451  -0.0051569396
        0.0156968520  -0.0041129005   0.0014438054  -0.0241783114   0.0002785303
       -0.0014624308  -0.0004113259   0.0000173601   0.0007762300  -0.0004569736
        0.0000594560  -0.0000330056  -0.0002537630  -0.0000012273   0.0000277088
       -0.0001132756   0.0000232092   0.0000230601  -0.0000265646  -0.0000285084
       -0.0000249136   0.0000232645  -0.0000064277   0.0000331379  -0.0000058229
        0.0000150661  -0.0000000810   0.0000028590   0.0000100893   0.0000725442
        0.0000050024  -0.0000486465  -0.0000787526  -0.0000065759   0.0000373005
       -0.0000030905  -0.0000007755  -0.0000413728   0.0000041590   0.0000110764
        0.0000116961   0.0000044728   0.0000000240  -0.0000263396  -0.0000138623
       -0.0000058014  -0.0000108125   0.0000200182   0.0000098669   0.0000271354
       -0.0000133659  -0.0000088506  -0.0000283626   0.0000090676   0.0000074961
        0.0000324343  -0.0000073059  -0.0000021349  -0.0000284166   0.0000019217
        0.0000035263   0.0000240380   0.0000189209   0.0000088506   0.0000046402
       -0.0000174942  -0.0000038655   0.0000032276   0.0000636690   0.0000058084
        0.0000216679  -0.0000427597   0.0000250813  -0.0000110869   0.0000108550
        0.0000370185   0.0000149621  -0.0000187082  -0.0001082496  -0.0000000774
        0.0000422833   0.0000737671   0.0000013378  -0.0000120029   0.0000150687
       -0.0000112571  -0.0000194446  -0.0000017734  -0.0000058029  -0.0000200538
       -0.0000202312   0.0000041812  -0.0000102060  -0.0000191773  -0.0000115391
       -0.0000340564  -0.0000158169   0.0000083318  -0.0000355273   0.0000493322
       -0.0000130573  -0.0000222901  -0.0001696909  -0.0000388920  -0.0000819097
       -0.0001503994   0.0000224666  -0.0003278233   0.0001114208  -0.0000424669
        0.0001896001  -0.0000237543   0.0000726121  -0.0001811804   0.0001721309
        0.0000101459   0.0003555262  -0.0001669316   0.0000929682  -0.0004529286
        0.0001912647  -0.0001082008   0.0002992448  -0.0001267793   0.0000696654
       -0.0002026721   0.0000189309  -0.0001346996   0.0001611862  -0.0001216223
        0.0000141068  -0.0000823658  -0.0012256051   0.0001276766  -0.0038057861
       -0.0019448690  -0.0002545386   0.0005328383   0.0012640719  -0.0000256269
        0.0003774321  -0.0001883636  -0.0005390071  -0.0018108555   0.0018224288
        0.0029546509  -0.1121071426   0.0350091706   0.1021553490  -0.2283202580
       -0.0995235865  -0.0052915063  -0.0983310745   0.0293944516  -0.0960636106
       -0.0014221008   0.0016097894  -0.0028644123   0.0003453531  -0.0002288037
        0.0004910105   0.0004880116   0.0013101175  -0.0000229041  -0.0015836996
       -0.0022856819  -0.0000653784   0.0000333263  -0.0000179597   0.0000154902
       -0.0000000988  -0.0000116599   0.0000140987  -0.0000085419   0.0000041292
       -0.0000048637  -0.0000143137  -0.0000021406  -0.0000013560  -0.0000074443
       -0.0000087489  -0.0000035444  -0.0000008185  -0.0000015385   0.0000053010
       -0.0000057332  -0.0000017346   0.0000089818  -0.0000088274  -0.0000025337
        0.0000036932  -0.0000064661  -0.0000015791   0.0000046729  -0.0000079769
       -0.0000012786  -0.0000013821  -0.0000045394  -0.0000022627  -0.0000059860
        0.0000035138  -0.0000014970  -0.0000001197   0.0000007611  -0.0000152219
        0.0000060802  -0.0000056040  -0.0000036253   0.0000024721   0.0000050772
        0.0000018534   0.0000009456  -0.0000075990  -0.0000048239  -0.0000028543
        0.0000053057   0.0000002695   0.0000027425  -0.0000070785  -0.0000031975
       -0.0000079613   0.0000061560   0.0000004083   0.0000090782   0.0000060298
        0.0000003634   0.0000018083  -0.0000107778  -0.0000020332   0.0000036061