$hessian                                                                        
        0.5619011495   0.1709769040   0.1453662321  -0.1926901836   0.0402193813
       -0.1527497869  -0.0503352035  -0.0228532531  -0.0142374225  -0.0022740209
        0.0148026363  -0.0130166358  -0.0017252796  -0.0005283103   0.0000129565
        0.0004356697  -0.0001886972   0.0003772284  -0.0000717814  -0.0001274740
       -0.0000894179  -0.0000070014  -0.0000298583   0.0000040978  -0.0000056037
        0.0000394714  -0.0000035453   0.0000269548  -0.0000206532   0.0000001332
        0.0000106484   0.0000129299   0.0000000011  -0.0000029239   0.0000253402
       -0.0000030348  -0.0000629044   0.0000332252   0.0000024399   0.0000483253
       -0.0000119402  -0.0000025992  -0.0000146717  -0.0000129105   0.0000046515
       -0.0000031746   0.0000025148   0.0000009647   0.0000088524  -0.0000044689
       -0.0000072116  -0.0000087754  -0.0000001998   0.0000059003  -0.0000096143
        0.0000020848   0.0000072487   0.0000055608   0.0000126926  -0.0000064761
        0.0000053980  -0.0000086050  -0.0000054207  -0.0000054538  -0.0000048717
        0.0000123877  -0.0000075449   0.0000064257  -0.0000000201  -0.0000066915
        0.0000083402   0.0000009538   0.0000054139  -0.0000062324  -0.0000035844
       -0.0000024250  -0.0000014509   0.0000052324  -0.0000014195   0.0000191716
       -0.0000056116   0.0000202417  -0.0000352616   0.0000046135  -0.0000261505
        0.0000259452   0.0000014558  -0.0000171397  -0.0000267603  -0.0000070497
        0.0000189423   0.0000384453   0.0000074817  -0.0000611331  -0.0000413564
       -0.0000028162   0.0000494682   0.0000283313   0.0000039653  -0.0000156227
        0.0000119679  -0.0000034812  -0.0000009266  -0.0000053224   0.0000043783
        0.0000078798   0.0000021079  -0.0000046829  -0.0000095377   0.0000033516
        0.0000017846  -0.0000085543  -0.0000025568   0.0000066002   0.0000074794
       -0.0000118257  -0.0000035610   0.0000035022   0.0000047984  -0.0000071632
       -0.0000033277   0.0000120175   0.0000037708  -0.0000054926  -0.0000050994
        0.0000030948  -0.0000046971  -0.0000086919   0.0000012352   0.0000049288
        0.0000017917  -0.0000061751  -0.0000036157   0.0000041136   0.0000038835
       -0.0000015812  -0.0000208584  -0.0000042444   0.0000108895  -0.0000258795
        0.0000046117  -0.0000015702  -0.0000005015  -0.0000001567  -0.0000006325
        0.0000072835  -0.0000088381   0.0000668354  -0.0000697645  -0.0000097468
       -0.0001502704  -0.0000156912   0.0000157152   0.0001562410   0.0000708204
       -0.0000114460  -0.0001777203  -0.0000074201   0.0000039832   0.0001340683
        0.0005635944  -0.0001861114   0.0000062759  -0.0000166454   0.0000456169
        0.0000501382   0.0000117087   0.0000403680   0.0000948588  -0.0000559147
        0.0000847842  -0.0000178977   0.0000195237  -0.0000123719  -0.0000260512
        0.0000575424  -0.0000309967   0.0000620295  -0.0000680553   0.0000299971
        0.0028100343  -0.0191450282   0.0228612842  -0.0931226331  -0.0680121112
        0.0412317600  -0.2257540484  -0.1182578972  -0.0131643181   0.0029952517
       -0.0005167982   0.0022720758  -0.0024633914  -0.0051886440  -0.0023747250
        0.0000748429  -0.0001274499  -0.0000126092   0.0000052723   0.0000001424
        0.0000008038  -0.0000043992   0.0000005585  -0.0000009832   0.0000000722
       -0.0000016780   0.0000008033  -0.0000012975   0.0000000059   0.0000002397
       -0.0000003907   0.0000000234  -0.0000018420  -0.0000006044  -0.0000027290
       -0.0000010506   0.0000004913  -0.0000007611   0.0000001849  -0.0000018221
       -0.0000038985   0.0000033648  -0.0000042534  -0.0000007019   0.0000026578
       -0.0000019791   0.0000023678  -0.0000014077  -0.0000071430   0.0000003848
       -0.0000040606  -0.0000013369  -0.0000009873  -0.0000001102  -0.0000000034
       -0.0000029954  -0.0000017033  -0.0000006925   0.0000011804  -0.0000022923
        0.0000007087  -0.0000004491  -0.0000022681  -0.0000016907   0.0000038828
       -0.0000012448  -0.0000037685   0.0000001881   0.0000009705  -0.0000016313
       -0.0000023905  -0.0000018252  -0.0000041817  -0.0000022931  -0.0000020898
        0.0000023044  -0.0000038947  -0.0000003147   0.0000208650   0.0000226382
        0.0000117729  -0.0001196287  -0.0000748550  -0.0000650263   0.0000298433
       -0.0000229393  -0.0000385779   0.0000097375   0.0000054624  -0.0000157937
        0.0000063609   0.0000046031  -0.0000039733   0.0000140106   0.0000150020
       -0.0000623912  -0.0024284330  -0.0055287117  -0.0019454820   0.0025783761
        0.0140328425  -0.0143199884
        0.1709769040   0.4228332289  -0.2112895793  -0.0071144583  -0.0835770701
        0.0336006816   0.0131919398   0.0286299444  -0.0205331008   0.0145037050
       -0.0191815191   0.0254411702  -0.0009317593  -0.0006932073   0.0000028337
        0.0005990412  -0.0000633456   0.0001239351  -0.0001214646  -0.0001003656
        0.0000443252   0.0000843513   0.0000162106   0.0000194088  -0.0000480266
       -0.0000258598  -0.0000241347   0.0000342514  -0.0000145035   0.0000015522
       -0.0000029648   0.0000048302  -0.0000017219   0.0000004384   0.0000174751
       -0.0000015675  -0.0000361124   0.0000115160  -0.0000006496   0.0000268035
       -0.0000021576  -0.0000028982  -0.0000086576  -0.0000075657   0.0000033035
       -0.0000002148   0.0000026506  -0.0000002838   0.0000050462  -0.0000026189
       -0.0000030077  -0.0000041711   0.0000004011   0.0000034566  -0.0000044436
        0.0000019286   0.0000042313   0.0000038914   0.0000050047  -0.0000039851
        0.0000041070  -0.0000028913  -0.0000026414  -0.0000040090  -0.0000023232
        0.0000065216  -0.0000022813   0.0000024512   0.0000000062  -0.0000038299
        0.0000048698   0.0000011775   0.0000029554  -0.0000014061  -0.0000033725
       -0.0000006681  -0.0000012605   0.0000036880   0.0000001280   0.0000062353
       -0.0000012463   0.0000154670  -0.0000126209   0.0000033573  -0.0000230651
        0.0000022834   0.0000020761  -0.0000036579  -0.0000091220  -0.0000022046
        0.0000041065   0.0000172085   0.0000016719  -0.0000319161  -0.0000172994
       -0.0000012826   0.0000242601   0.0000161874   0.0000019631  -0.0000071256
        0.0000058750  -0.0000018428  -0.0000005077  -0.0000029329   0.0000027125
        0.0000044334   0.0000016077  -0.0000021857  -0.0000055870   0.0000026006
        0.0000014775  -0.0000043184  -0.0000013418   0.0000040204   0.0000033736
       -0.0000079345  -0.0000012576   0.0000006263   0.0000044675  -0.0000026461
        0.0000007209   0.0000054961   0.0000007258  -0.0000042911  -0.0000018043
        0.0000028053  -0.0000028786  -0.0000059609   0.0000007481   0.0000030539
        0.0000007320  -0.0000039418  -0.0000029908   0.0000035182   0.0000029596
       -0.0000013768  -0.0000140118  -0.0000021859   0.0000078142  -0.0000120044
        0.0000021528   0.0000011045  -0.0000043763  -0.0000002273  -0.0000019371
        0.0000120570   0.0000044023   0.0000172047  -0.0000045399  -0.0000140993
       -0.0000426832   0.0000181911   0.0000020701   0.0000534303   0.0000673515
       -0.0000202826  -0.0000018434   0.0000010848  -0.0000338545   0.0000258630
        0.0001269931  -0.0001783197  -0.0000665221  -0.0000785586   0.0000957192
        0.0000913520  -0.0001528895   0.0000213686  -0.0000091703   0.0000447322
       -0.0000595955  -0.0000254917  -0.0000374402   0.0000948670   0.0000852304
       -0.0000048939  -0.0000594589  -0.0000324023   0.0001180735  -0.0000119509
       -0.0551384571  -0.0330808247  -0.0032612114  -0.0207631498  -0.1970873986
        0.1506256149  -0.1182580621  -0.1120168393  -0.0026411417   0.0139058592
       -0.0054400587   0.0173617339  -0.0055709257   0.0023296760   0.0024754884
       -0.0000653196   0.0000391062  -0.0000795466   0.0000030341   0.0000028093
       -0.0000000302  -0.0000031116   0.0000015704  -0.0000002878   0.0000000683
       -0.0000014549   0.0000003864  -0.0000002446   0.0000004022  -0.0000002309
        0.0000000455   0.0000004351  -0.0000007738  -0.0000001407  -0.0000010556
       -0.0000004863   0.0000005152   0.0000000585  -0.0000001387  -0.0000010325
       -0.0000020751   0.0000008317  -0.0000023563  -0.0000001178   0.0000008338
       -0.0000006464   0.0000004184  -0.0000014108  -0.0000041006  -0.0000001776
       -0.0000021314  -0.0000010932  -0.0000003278  -0.0000000053   0.0000001292
       -0.0000012462  -0.0000005369  -0.0000004152   0.0000010685  -0.0000010892
        0.0000004078  -0.0000002464  -0.0000010317  -0.0000011279   0.0000026950
       -0.0000002208  -0.0000027308   0.0000001949   0.0000011599  -0.0000013003
       -0.0000021376  -0.0000007859  -0.0000018111  -0.0000012591  -0.0000013726
        0.0000020480  -0.0000012047  -0.0000001894  -0.0000096706   0.0000199750
        0.0000022085  -0.0000039166  -0.0000047495  -0.0000479416   0.0000215891
       -0.0000085477  -0.0000239795   0.0000123142   0.0000128089  -0.0000071759
        0.0000024055  -0.0000076287  -0.0000132435   0.0000188672   0.0000245409
       -0.0000579876  -0.0051772763   0.0022134824   0.0025741777  -0.0001811713
       -0.0049332728   0.0058626501
        0.1453662321  -0.2112895793   0.4592125893  -0.0998284896   0.0696683679
       -0.1992222559  -0.0537053061  -0.0479338431   0.0134565817  -0.0133153273
        0.0257073815  -0.0444338054  -0.0001071581   0.0001732649  -0.0003874831
       -0.0003993627  -0.0000499449   0.0002344505   0.0001376440   0.0000053490
       -0.0000980654  -0.0001144587  -0.0000237181  -0.0000087750   0.0000594753
        0.0000610753   0.0000201136  -0.0000193595   0.0000055962  -0.0000026153
        0.0000098216  -0.0000014290   0.0000024879  -0.0000050765  -0.0000009499
        0.0000008478  -0.0000026898   0.0000091356   0.0000005737   0.0000035968
       -0.0000040258   0.0000029228  -0.0000025399  -0.0000016613   0.0000005336
       -0.0000011187  -0.0000003439   0.0000006985  -0.0000003603  -0.0000000689
       -0.0000006692  -0.0000011166   0.0000001584   0.0000000969  -0.0000017289
       -0.0000011859   0.0000011453  -0.0000008119   0.0000008662   0.0000003323
       -0.0000015949  -0.0000011785   0.0000019207   0.0000002693  -0.0000000657
       -0.0000002445  -0.0000007338   0.0000023985  -0.0000016751  -0.0000003645
       -0.0000004801   0.0000009780  -0.0000000549  -0.0000011998   0.0000016966
        0.0000004323   0.0000009416  -0.0000016327  -0.0000017478   0.0000069881
       -0.0000039175  -0.0000012067  -0.0000079467   0.0000008373   0.0000051678
        0.0000152680  -0.0000015905  -0.0000022797  -0.0000116068  -0.0000021025
        0.0000050504   0.0000097467   0.0000039592  -0.0000046998  -0.0000118259
       -0.0000004555   0.0000076524   0.0000045504   0.0000008921  -0.0000033764
        0.0000027634  -0.0000010743  -0.0000014045   0.0000021234  -0.0000002102
        0.0000004940  -0.0000016907   0.0000000063   0.0000005929   0.0000003412
       -0.0000009821  -0.0000019613   0.0000012718   0.0000002230   0.0000006246
       -0.0000033502  -0.0000002926  -0.0000000055   0.0000011439  -0.0000004160
       -0.0000001265   0.0000014830   0.0000001690   0.0000005751  -0.0000024149
       -0.0000010475   0.0000002357   0.0000006284  -0.0000003762  -0.0000004337
        0.0000010791   0.0000003193   0.0000007034  -0.0000008460  -0.0000007776
       -0.0000001794  -0.0000050246  -0.0000017480  -0.0000018722  -0.0000047215
        0.0000010672  -0.0000021802   0.0000046808   0.0000001225  -0.0000047552
       -0.0000080702  -0.0000100688   0.0000440602  -0.0000569652   0.0000083914
       -0.0000829865  -0.0000289518   0.0000075611   0.0000822421  -0.0000493874
        0.0000096956  -0.0001718706  -0.0000213394   0.0000584474   0.0000408060
        0.0002762044   0.0000750695   0.0001033837   0.0002215119  -0.0000268994
       -0.0000249369   0.0003699563   0.0000559440   0.0001407519  -0.0000943099
        0.0001164856   0.0000214477   0.0000960864  -0.0001604555  -0.0001344410
        0.0000466726   0.0000593340   0.0001117312  -0.0002052837   0.0000939054
        0.0628396349   0.0234239301   0.0222972252  -0.0114745058   0.1139715207
       -0.1843633476  -0.0131842821  -0.0026521867  -0.0411579181  -0.0137003241
        0.0065069899  -0.0166344507  -0.0018400958   0.0025257887   0.0036257305
        0.0001127611  -0.0001734784   0.0000565070   0.0000018502  -0.0000032385
       -0.0000009927  -0.0000013496   0.0000002200  -0.0000005785  -0.0000001322
       -0.0000000342  -0.0000003658  -0.0000006710  -0.0000004186   0.0000000179
       -0.0000005947  -0.0000005983  -0.0000005713  -0.0000007291  -0.0000008009
       -0.0000004155  -0.0000008808  -0.0000008572   0.0000004626  -0.0000005752
       -0.0000001799   0.0000010911  -0.0000005410  -0.0000008311   0.0000006028
       -0.0000008986   0.0000007225   0.0000004208  -0.0000006758  -0.0000001458
       -0.0000007092   0.0000001186   0.0000000513  -0.0000005113  -0.0000006086
       -0.0000008278  -0.0000006689  -0.0000000325  -0.0000007347  -0.0000005755
       -0.0000002417  -0.0000000442  -0.0000005119  -0.0000000934   0.0000002204
       -0.0000005857   0.0000001502   0.0000002898  -0.0000003968  -0.0000001333
        0.0000002797  -0.0000001387  -0.0000012076  -0.0000000743  -0.0000002808
       -0.0000001101  -0.0000013805  -0.0000003037   0.0000225678  -0.0000073494
        0.0000112027  -0.0000553914  -0.0000355040   0.0000590839  -0.0000273528
        0.0000045806   0.0000317414  -0.0000130813  -0.0000046062   0.0000001589
       -0.0000029107   0.0000121327   0.0000208159  -0.0000207892  -0.0000146337
        0.0000321888  -0.0023917875   0.0023742816   0.0036782590   0.0015480390
        0.0172032902  -0.0167129490
       -0.1926901836  -0.0071144583  -0.0998284896   0.5459273802   0.1630102939
        0.1425591232  -0.2574533803  -0.0987837696  -0.0479946580   0.0015839969
       -0.0542195884   0.0601156218   0.0046627029  -0.0016629590  -0.0010478009
       -0.0000918266   0.0006289600  -0.0006977786   0.0003061178   0.0001149507
        0.0003123692   0.0000606315   0.0000971701   0.0000632545  -0.0000394745
       -0.0000160339  -0.0000558095   0.0000252079  -0.0000098745   0.0000008376
       -0.0000141342   0.0000145694  -0.0000014438   0.0000331882  -0.0000042973
       -0.0000040942  -0.0000262577   0.0000137619   0.0000015573   0.0000244328
       -0.0000234180   0.0000035707  -0.0000050611  -0.0000030871  -0.0000001678
       -0.0000003938  -0.0000027341   0.0000012458  -0.0000004985  -0.0000007313
        0.0000006367  -0.0000000178   0.0000058735  -0.0000029946  -0.0000004107
       -0.0000054177   0.0000036522  -0.0000007239   0.0000080462  -0.0000047969
        0.0000041319  -0.0000064553  -0.0000035395  -0.0000013383  -0.0000052917
        0.0000044759   0.0000015830   0.0000059281  -0.0000053606  -0.0000016844
       -0.0000025636   0.0000039721   0.0000016931  -0.0000031270   0.0000016227
        0.0000004373   0.0000023580  -0.0000018808  -0.0000032659   0.0000128528
       -0.0000038585   0.0000086035  -0.0000143441   0.0000017040  -0.0000124487
       -0.0000052862   0.0000010051  -0.0000454736   0.0000121573  -0.0000006585
        0.0000170836   0.0000233999   0.0000016869  -0.0000389725  -0.0000163318
       -0.0000077008   0.0000261407   0.0000127301   0.0000084271  -0.0000011055
        0.0000008678  -0.0000039358  -0.0000010764   0.0000041386  -0.0000004671
        0.0000017618   0.0000012672  -0.0000013788   0.0000003925  -0.0000065634
        0.0000025529  -0.0000018960   0.0000060091   0.0000005351   0.0000027393
       -0.0000081442   0.0000032357   0.0000033072   0.0000042840  -0.0000061510
       -0.0000042950   0.0000042098   0.0000034125   0.0000041189  -0.0000068175
       -0.0000016134  -0.0000034111   0.0000037461   0.0000038361   0.0000012573
        0.0000025790  -0.0000001139   0.0000037569  -0.0000011141  -0.0000011445
       -0.0000014414  -0.0000032867   0.0000003684   0.0000313370   0.0000025273
       -0.0000004591  -0.0000095953  -0.0000420585  -0.0000004778   0.0000790521
        0.0000465809   0.0000255352  -0.0001997638   0.0000582663  -0.0000072849
        0.0002869922   0.0000210901  -0.0000361440  -0.0002646934  -0.0000377791
        0.0000024716   0.0004355969  -0.0001405054   0.0000844972  -0.0008633453
       -0.0012356274   0.0005151811  -0.0002200446  -0.0000796557  -0.0000826290
        0.0000633350  -0.0003826738   0.0001448924  -0.0001579139   0.0001595634
       -0.0001873142  -0.0000322560  -0.0000819853   0.0001259730   0.0001410052
       -0.0000606116  -0.0000528241  -0.0001259852   0.0001916753  -0.0001251490
       -0.0512046621  -0.0098765327  -0.0237141394   0.0376380350   0.0548752814
       -0.0329102907  -0.0201714385   0.0029397691  -0.0189595108  -0.0496064444
       -0.0346919156   0.0267425009  -0.0199327134  -0.0106291540  -0.0033755397
       -0.0001989722   0.0001010567  -0.0001741923  -0.0000098314   0.0000003962
       -0.0000002389   0.0000014956  -0.0000036199  -0.0000000744  -0.0000014552
       -0.0000002580   0.0000008090   0.0000000122   0.0000003594   0.0000003914
        0.0000014343   0.0000000588  -0.0000015480   0.0000011514  -0.0000004454
       -0.0000007309   0.0000006737  -0.0000014118  -0.0000007031   0.0000012774
       -0.0000007327   0.0000005744   0.0000010418  -0.0000006929  -0.0000000303
        0.0000009705  -0.0000018134  -0.0000004138   0.0000029305   0.0000002416
       -0.0000004270   0.0000002256  -0.0000007211  -0.0000006135   0.0000011792
       -0.0000004134  -0.0000009608   0.0000012362  -0.0000000375  -0.0000004236
        0.0000001210   0.0000008652  -0.0000002983   0.0000003034   0.0000003670
       -0.0000001382   0.0000006802   0.0000007967  -0.0000000674   0.0000011844
        0.0000017679  -0.0000001627   0.0000008859   0.0000046483   0.0000010833
       -0.0000019215   0.0000059410   0.0000026937  -0.0000746940  -0.0000150297
       -0.0000682870   0.0000134110  -0.0000603697  -0.0001318508   0.0000388035
       -0.0000041106   0.0000029819   0.0000006865   0.0000184008  -0.0000043657
        0.0000066695  -0.0000002465  -0.0000132062   0.0000242197   0.0000322422
       -0.0000323573  -0.0004458152   0.0000223580  -0.0002939989   0.0024837049
       -0.0032003107  -0.0008956001
        0.0402193813  -0.0835770701   0.0696683679   0.1630102939   0.4295677940
       -0.2231842165  -0.1463473959  -0.1417115828  -0.0048456564  -0.0191145082
       -0.0332931583   0.0231887987  -0.0017526350   0.0008568266   0.0055708885
       -0.0007533617  -0.0003279395  -0.0003436879   0.0001020833   0.0001670099
       -0.0004050219  -0.0000649524   0.0000289535  -0.0000342796  -0.0000183982
        0.0000619084   0.0000598251   0.0000328158  -0.0000207724   0.0000085157
       -0.0000092693   0.0000096229  -0.0000004450   0.0000255675   0.0000183482
       -0.0000064662  -0.0000656109   0.0000453872   0.0000045414   0.0000575846
       -0.0000336748   0.0000078531  -0.0000151192  -0.0000138909   0.0000023471
       -0.0000007065   0.0000024654   0.0000004618   0.0000065747  -0.0000058552
       -0.0000037941  -0.0000061954   0.0000053712   0.0000018207  -0.0000068546
       -0.0000028256   0.0000088953   0.0000032666   0.0000207374  -0.0000115852
        0.0000028026  -0.0000186772   0.0000036748   0.0000008316  -0.0000078062
        0.0000075003  -0.0000019988   0.0000109432  -0.0000069385  -0.0000065408
        0.0000038289   0.0000054282   0.0000080587  -0.0000084841  -0.0000029316
       -0.0000016102   0.0000036704   0.0000026836  -0.0000045062   0.0000317942
       -0.0000116628   0.0000283150  -0.0000434265   0.0000041151  -0.0000263424
        0.0000179658  -0.0000029333  -0.0000411041  -0.0000212127  -0.0000101152
        0.0000319139   0.0000473532   0.0000143335  -0.0000752103  -0.0000419832
       -0.0000080604   0.0000591923   0.0000328616   0.0000092616  -0.0000125510
        0.0000114942  -0.0000065234  -0.0000025790   0.0000003661   0.0000037125
        0.0000080000   0.0000019503  -0.0000040628  -0.0000048215  -0.0000016514
        0.0000023755  -0.0000077366   0.0000043898   0.0000049243   0.0000070673
       -0.0000158204  -0.0000002668   0.0000056266   0.0000063714  -0.0000086466
       -0.0000037890   0.0000111006   0.0000039638  -0.0000002165  -0.0000084414
        0.0000007300  -0.0000056393  -0.0000027490   0.0000037291   0.0000056174
        0.0000034650  -0.0000051963   0.0000000363   0.0000027617   0.0000028334
       -0.0000023158  -0.0000222274  -0.0000039883   0.0000284024  -0.0000160415
        0.0000058816  -0.0000057214  -0.0000269731   0.0000007268   0.0000440154
        0.0000355920  -0.0000215217  -0.0000624255  -0.0000380832  -0.0000007734
        0.0000520359   0.0000190094   0.0000622206  -0.0000082934   0.0000269200
        0.0000070432   0.0000002044   0.0000213772  -0.0003375709  -0.0000605918
       -0.0003113311   0.0000109576  -0.0000426066  -0.0000035825   0.0000828098
        0.0001035351  -0.0001733437   0.0001142280  -0.0000270780   0.0000538450
       -0.0000315718  -0.0000607269  -0.0000090192   0.0000470178   0.0000688892
        0.0000019003  -0.0000681853  -0.0000153009   0.0000162800  -0.0000246772
       -0.0090434651  -0.0029770730  -0.0094812252   0.0194854811  -0.0011929061
        0.0173323750  -0.0115371594   0.0026567474  -0.0107514198  -0.0346705230
       -0.1735886872   0.1273303218   0.0033942766   0.0029728873   0.0003454271
       -0.0002006598   0.0000108431   0.0001853006  -0.0000103541   0.0000069131
        0.0000037659  -0.0000023894  -0.0000004886  -0.0000019227  -0.0000024432
       -0.0000024812   0.0000017142  -0.0000009669   0.0000006855   0.0000000649
        0.0000011104  -0.0000003439  -0.0000029093   0.0000005329  -0.0000026856
       -0.0000016807   0.0000004734  -0.0000018862   0.0000000682   0.0000002197
       -0.0000036356   0.0000028712  -0.0000032030  -0.0000006185   0.0000029097
       -0.0000018352   0.0000007519  -0.0000022920  -0.0000043037  -0.0000000963
       -0.0000038776  -0.0000010708  -0.0000014382  -0.0000009094   0.0000010746
       -0.0000025692  -0.0000023958   0.0000010867   0.0000006409  -0.0000025926
        0.0000010094   0.0000006830  -0.0000023781  -0.0000005750   0.0000040505
       -0.0000014390  -0.0000024912   0.0000013841   0.0000009082  -0.0000008708
       -0.0000014782  -0.0000018175  -0.0000006921   0.0000029325  -0.0000012426
        0.0000003518  -0.0000016678   0.0000010182   0.0000166699   0.0000389228
        0.0000300129  -0.0000291445  -0.0000783540  -0.0001017433   0.0000097419
       -0.0000036658  -0.0000146177  -0.0000024283   0.0000173605  -0.0000084720
       -0.0000003202   0.0000145271  -0.0000068877   0.0000192467   0.0000280348
       -0.0000476737   0.0000592617   0.0003382599  -0.0006274726  -0.0027530393
        0.0003724094   0.0062965245
       -0.1527497869   0.0336006816  -0.1992222559   0.1425591232  -0.2231842165
        0.4700141952   0.0030872577   0.0310563994  -0.0783826680   0.0228177939
       -0.0046536889   0.0220143527  -0.0006297645   0.0060849092   0.0003252407
       -0.0008762739  -0.0002239519  -0.0000523521   0.0001220608   0.0002380413
       -0.0001286239  -0.0000319329   0.0000225899   0.0000316713   0.0000049859
       -0.0001224913   0.0000238451  -0.0000362857   0.0000284852   0.0000078566
       -0.0000055168  -0.0000380367   0.0000007751  -0.0000252322  -0.0000300000
        0.0000106757   0.0001112380  -0.0000779638  -0.0000085388  -0.0000933338
        0.0000504824  -0.0000052211   0.0000189144   0.0000202751  -0.0000011866
        0.0000035000  -0.0000028068  -0.0000012468  -0.0000104437   0.0000074320
        0.0000071517   0.0000087900  -0.0000060725  -0.0000029808   0.0000106552
        0.0000042076  -0.0000128041  -0.0000057237  -0.0000379315   0.0000164150
       -0.0000073380   0.0000318325   0.0000004213   0.0000007119   0.0000090310
       -0.0000159975   0.0000044389  -0.0000116304   0.0000070341   0.0000119230
       -0.0000071399  -0.0000075308  -0.0000111205   0.0000100996   0.0000091171
        0.0000030937  -0.0000005618  -0.0000063493   0.0000059488  -0.0000462640
        0.0000118781  -0.0000510353   0.0000798133  -0.0000113689   0.0000443626
       -0.0000483652  -0.0000029548   0.0000603281   0.0000436370   0.0000150046
       -0.0000597266  -0.0000857466  -0.0000161255   0.0001262369   0.0000851598
        0.0000100524  -0.0001099866  -0.0000619537  -0.0000137820   0.0000249937
       -0.0000192248   0.0000078028   0.0000018245   0.0000030663  -0.0000056469
       -0.0000111587  -0.0000060232   0.0000071725   0.0000091454   0.0000035922
       -0.0000046480   0.0000102874  -0.0000046540  -0.0000077512  -0.0000107822
        0.0000248732   0.0000002343  -0.0000113629  -0.0000094719   0.0000181146
        0.0000110632  -0.0000206077  -0.0000113658   0.0000002185   0.0000124711
       -0.0000010343   0.0000100501   0.0000046887  -0.0000066771  -0.0000095288
       -0.0000037245   0.0000096346   0.0000004474  -0.0000024382  -0.0000039828
        0.0000033857   0.0000353875   0.0000045586  -0.0000431405   0.0000277086
       -0.0000051695   0.0000070635   0.0000318127  -0.0000006257  -0.0000246515
       -0.0000276196   0.0000084368  -0.0000582566   0.0001404513  -0.0000094265
        0.0001611957   0.0000010776   0.0000106566  -0.0002088965  -0.0001186856
       -0.0000070887   0.0001306779   0.0003875852  -0.0000115274   0.0010573515
        0.0004869378   0.0001547330   0.0000578267  -0.0001266680   0.0000267466
        0.0000121202  -0.0001274904  -0.0000986203  -0.0001275648   0.0000671988
       -0.0001256195   0.0000260280  -0.0000639531   0.0000681232   0.0000646974
       -0.0000713756   0.0000074962  -0.0000710364   0.0001291927  -0.0000753142
       -0.0247243987  -0.0101926288  -0.0133081229   0.0063038472   0.0443771705
       -0.0427305053  -0.0029260362   0.0000502325  -0.0016309256   0.0268406489
        0.1273748265  -0.1550577428  -0.0195155494  -0.0105464443  -0.0022980198
       -0.0000464707  -0.0000790824  -0.0001270224   0.0000052570  -0.0000130273
       -0.0000066278  -0.0000013125   0.0000055262   0.0000023840   0.0000025364
        0.0000026154  -0.0000032639   0.0000010677   0.0000002198  -0.0000007613
       -0.0000008551   0.0000004168   0.0000025468  -0.0000011007   0.0000033373
        0.0000017651  -0.0000012013   0.0000015415  -0.0000003529  -0.0000003881
        0.0000056455  -0.0000042564   0.0000049109   0.0000007026  -0.0000060331
        0.0000024708  -0.0000038284   0.0000030165   0.0000090554  -0.0000013956
        0.0000060998   0.0000007785   0.0000024306   0.0000001705  -0.0000019268
        0.0000035153   0.0000031014  -0.0000011511  -0.0000012525   0.0000036608
       -0.0000015882  -0.0000009471   0.0000034120   0.0000008888  -0.0000054206
        0.0000019978   0.0000039928  -0.0000017005  -0.0000011907   0.0000014841
        0.0000029276   0.0000036155   0.0000007704  -0.0000026109   0.0000022210
       -0.0000021734   0.0000068057  -0.0000014928   0.0000627726   0.0000413910
       -0.0000264341   0.0000505478   0.0000329667   0.0000474631  -0.0000020700
        0.0000167445   0.0000336373   0.0000069035  -0.0000041845   0.0000164116
        0.0000020953  -0.0000216367   0.0000022506  -0.0000039879  -0.0000086298
        0.0000397522  -0.0002456388  -0.0005809035   0.0002236896  -0.0011340395
        0.0060463139   0.0002426443
       -0.0503352035   0.0131919398  -0.0537053061  -0.2574533803  -0.1463473959
        0.0030872577   0.5578610921   0.1632463465   0.1554057392  -0.0885646168
       -0.0174683446  -0.0093031732  -0.0093570266  -0.0216110812   0.0157726235
       -0.0009899684  -0.0020751239   0.0007869845   0.0003663332   0.0001869790
       -0.0011070983  -0.0000722271   0.0000400839  -0.0002642735   0.0000295798
       -0.0001868942   0.0002654619  -0.0000444865   0.0000443965  -0.0000028875
       -0.0000151212  -0.0000782572  -0.0000019020  -0.0000583016  -0.0000180022
        0.0000160914   0.0001532497  -0.0001151807  -0.0000014974  -0.0001299549
        0.0000946022  -0.0000187748   0.0000248147   0.0000278264   0.0000031829
        0.0000036644  -0.0000004574  -0.0000033983  -0.0000106939   0.0000097546
        0.0000057613   0.0000097576  -0.0000133862  -0.0000007342   0.0000122978
        0.0000102489  -0.0000195005  -0.0000042029  -0.0000544139   0.0000256929
       -0.0000043164   0.0000472690  -0.0000106271  -0.0000060079   0.0000131928
       -0.0000136182   0.0000019152  -0.0000201087   0.0000150447   0.0000163542
       -0.0000039603  -0.0000161915  -0.0000156861   0.0000143116   0.0000117796
       -0.0000019821   0.0000014959  -0.0000011640   0.0000111753  -0.0000795316
        0.0000252872  -0.0000677597   0.0001211361  -0.0000248152   0.0000595421
       -0.0000663751  -0.0000067368   0.0001417045   0.0000444360   0.0000186582
       -0.0001125184  -0.0001520751  -0.0000255717   0.0002092444   0.0001440506
        0.0000290229  -0.0001865013  -0.0001066029  -0.0000356341   0.0000364635
       -0.0000303073   0.0000178346   0.0000039686  -0.0000066754  -0.0000062467
       -0.0000156770  -0.0000083633   0.0000088302   0.0000073033   0.0000129283
       -0.0000085502   0.0000153039  -0.0000167608  -0.0000107041  -0.0000144323
        0.0000473138  -0.0000054872  -0.0000155477  -0.0000199168   0.0000262951
        0.0000163729  -0.0000304952  -0.0000178582  -0.0000060441   0.0000260211
        0.0000006082   0.0000167380  -0.0000003494  -0.0000143453  -0.0000149418
       -0.0000087101   0.0000121710  -0.0000075904   0.0000011274  -0.0000023275
        0.0000065327   0.0000618231   0.0000071960  -0.0000978538   0.0000322766
       -0.0000044906   0.0000241380   0.0000915027   0.0000031527  -0.0001199493
       -0.0000784750  -0.0000748041   0.0001204668   0.0001796666   0.0000686331