110
 energy: -152.644359980337 gnorm: 0.000070874978 xtb: 6.7.1 (edcfbbe)
C            6.69263662830579        4.98765699775173        1.25651212948753
C            6.98437217299492        4.13594207174111        0.01306468228470
C            6.86196804743745        4.99986458703254       -1.25020684301619
C            8.42868654504283        3.63636003385132        0.10753874991636
C            5.97598740547162        2.99861390472997       -0.05895642841662
C            4.61323285289565        3.30930983650430       -0.15731868900179
C            3.62639578140295        2.34686968609330       -0.22474489284842
C            4.01279961524458        1.01686913551181       -0.18306895381691
C            5.37808576099374        0.67583716195780       -0.10568265865876
C            6.35039682521624        1.66527165520750       -0.04042300566794
C            5.44416417210532       -0.76011576880178       -0.13072351105002
C            6.49955882685972       -1.65913215399568       -0.05452448895914
C            6.24606312838855       -3.02084238707344       -0.07327485832001
C            7.35184531679750       -4.06331656062310        0.00518011591017
C            8.74677423828580       -3.43638420027037        0.07941934208943
C            7.14759888197713       -4.92027497570663        1.26257601310722
C            7.29625078535814       -4.95216745256694       -1.24534518960353
C            4.91551281959315       -3.45199150619085       -0.15342816449620
C            3.84784370167980       -2.58067661492676       -0.23097818147732
C            4.11618871768724       -1.22118708101515       -0.23755267150928
N            3.25430838869745       -0.13896750872704       -0.26804506304506
C            1.86731561971413       -0.19637781730099       -0.38619061407543
C            1.27174641691562       -1.01237294976235       -1.34974622559683
C           -0.10076740070444       -1.04026574605605       -1.49016546083290
C           -0.91307213422567       -0.27328254946518       -0.66141306752507
N           -2.29824822570786       -0.25241868932647       -0.84632044660548
C           -3.14604593703739       -1.33710089953349       -0.70082156250848
C           -2.85345791263099       -2.67859426736068       -0.53618204480952
C           -3.90364322031712       -3.55439396621228       -0.33179547072092
C           -5.23489856167710       -3.13418389951430       -0.28290312588820
C           -6.38438692962515       -4.09539728156299       -0.01769487373351
C           -7.06704662782687       -3.68721151886026        1.29572597702204
C           -7.38930896829077       -4.01936338471043       -1.17571530321284
C           -5.92650990334041       -5.55005324193555        0.11671674909267
C           -5.51349940353956       -1.78432830236981       -0.45371380559253
C           -4.48177951800129       -0.88466994227467       -0.66260411191965
C           -4.43541839421588        0.54630769814042       -0.79757725755446
C           -5.41378675998149        1.53131245738625       -0.80446422780702
C           -5.04571707110790        2.86215308866059       -0.91343822729088
C           -6.05758699764938        3.99746595919385       -0.87401508009975
C           -5.75255964647400        4.88487631512689        0.34136974879050
C           -7.49828699486288        3.49579474565888       -0.74515479561757
C           -5.95360101075983        4.82249750034746       -2.16431188393131
C           -3.68605263772522        3.17478912192115       -1.04910424788978
C           -2.69302423199450        2.21666639975874       -1.04983561667952
C           -3.07400116189339        0.89352577568949       -0.89597966954314
C           -0.32475375579246        0.50981467225294        0.34325015446776
C           -1.13660836304047        1.25993630056733        1.33932899876664
O           -0.81416695482059        2.34867091452412        1.76127204135061
C           -2.34278435249032        0.55351532507598        1.84449025820423
C           -2.37278764135999       -0.81475946060782        2.11607445715164
N           -3.45729860671479       -1.41782537489420        2.56888975691489
C           -4.52230521708569       -0.66380442975702        2.76552727554107
N           -4.60191615541323        0.64305890691973        2.58381324726317
C           -3.52316184471222        1.24710905958792        2.12544939621601
C            1.05821478160560        0.56274122065484        0.45348233927697
H            7.41210819216783        5.80043053973700        1.33180383041745
H            6.76524758117352        4.37766347405455        2.15461157027234
H            5.69605553672565        5.41825374013702        1.21804069466661
H            7.59604686599308        5.80267259900354       -1.22775103743521
H            7.03852682494397        4.39502832371397       -2.13738703883421
H            5.87470495280102        5.44534451491704       -1.33323007334029
H            8.69760264944497        3.04911991756207       -0.76753264834718
H            9.10391927352086        4.48814677895181        0.16031203612457
H            8.57715022823205        3.03502913469024        1.00148150765244
H            4.30691658594361        4.34365360551572       -0.18592915443849
H            2.58961134994532        2.63261020361441       -0.31686156149363
H            7.38421459565151        1.36858250866972        0.01790574583414
H            7.50134051117743       -1.27168773255351        0.02550470374699
H            8.85289790172495       -2.82212598742291        0.97056021804638
H            9.49614661391718       -4.22421624161367        0.12435965781436
H            8.95012217308171       -2.82944055453758       -0.79983822947804
H            6.19797298429001       -5.44726584814817        1.23461156900819
H            7.16227907584152       -4.29229591555355        2.15104201743958
H            7.94331101141736       -5.65750527518325        1.34734784060034
H            8.09347379712529       -5.69200280919516       -1.21521804649693
H            6.34827849559517       -5.47785121529076       -1.31784818233415
H            7.42005489451425       -4.34738233800233       -2.14140432022841
H            4.70073689800733       -4.50973200536570       -0.14985438048889
H            2.83635449323036       -2.95706396829906       -0.26915083914201
H            1.89521030769047       -1.59225485958671       -2.01287661425315
H           -0.55682023353270       -1.63777227141199       -2.26500480699218
H           -1.83462277338037       -3.03660835273768       -0.54567119643178
H           -3.66268946185055       -4.59521288675067       -0.19604005500052
H           -7.88151915148057       -4.37137251702695        1.52492785937019
H           -6.34848378330646       -3.71566993436578        2.11226502662383
H           -7.47335136865013       -2.68138852816014        1.23370596900563
H           -7.80479646804569       -3.02097569433964       -1.27788068055881
H           -6.90316046463603       -4.28340412989691       -2.11271052682557
H           -8.21031636149450       -4.71276656273148       -1.00558518220636
H           -6.79171294288821       -6.18608156569301        0.29348599831728
H           -5.43859586041907       -5.89295528516436       -0.79290256232749
H           -5.24598073626021       -5.67022009368737        0.95616684582772
H           -6.52566625002503       -1.41345215715258       -0.41018506969770
H           -6.44479145563535        1.23437675579410       -0.71492071364167
H           -4.75310206804364        5.30728734627642        0.28399720030318
H           -6.46619482264666        5.70436180590237        0.39615392412806
H           -5.82551949121978        4.30167827191045        1.25718510073953
H           -7.77323684524230        2.87341262863998       -1.59376221382662
H           -8.17659031184620        4.34633271015209       -0.71860289169500
H           -7.63359860896465        2.93003119256706        0.17357609671254
H           -4.97230591092979        5.27618069728670       -2.27011203874776
H           -6.13153783625643        4.18866081516287       -3.03071360708826
H           -6.69584626495048        5.61800619698812       -2.16025309312217
H           -3.38695717585930        4.20621077700651       -1.15313826597134
H           -1.65589956060699        2.49655333112819       -1.15960962213974
H           -1.49620242930835       -1.43859225011201        1.98882842295796
H           -5.41366370960294       -1.16269272339149        3.12190219764548
H           -3.58959805170657        2.31383538938444        1.95654997926356
H            1.49594714292174        1.17249400678944        1.22941872733572
