$hessian                                                                        
        0.5487353562   0.1666581958  -0.1513848795  -0.0896484950  -0.0169861142
        0.0168210322   0.0349529574   0.0062543976  -0.0196184809  -0.0202719609
        0.0175137376   0.0267912460  -0.0012018607  -0.0007375355  -0.0002916334
        0.0001980045  -0.0000832319  -0.0002794610   0.0000250455  -0.0000721589
        0.0001000023  -0.0000645619   0.0000028122   0.0000127783   0.0000505442
       -0.0000000061  -0.0000315953  -0.0000011917   0.0000493932  -0.0000067867
        0.0000598209  -0.0000370577   0.0000078097  -0.0000490970   0.0001335972
        0.0000038864   0.0000293470  -0.0000439582  -0.0000276231   0.0000405836
        0.0001863085   0.0000403114  -0.0000550065  -0.0000155036  -0.0000184000
       -0.0000093061   0.0000341617   0.0000006466   0.0000179081   0.0000131068
        0.0000029367   0.0000135479   0.0000427804   0.0000126178  -0.0000270734
       -0.0000504549  -0.0000097066   0.0000418412   0.0000120290   0.0000073704
        0.0000066577  -0.0000363897  -0.0000107573   0.0000156174   0.0000469455
        0.0000178411  -0.0000133056  -0.0000415928  -0.0000107605   0.0000055502
       -0.0000053517  -0.0000138912  -0.0000161677  -0.0000018368   0.0000025911
       -0.0000116746   0.0000180459   0.0000052237  -0.0001480562  -0.0001503598
        0.0000170644   0.0000684005  -0.0001551517  -0.0000773185   0.0000898382
        0.0001059643   0.0000389845  -0.0001285981   0.0000082821  -0.0000454555
        0.0000737927   0.0000751016  -0.0000745717  -0.0002236628  -0.0001116490
        0.0000164646   0.0001820871   0.0001027112  -0.0000050947  -0.0000425090
       -0.0000449468   0.0000631050  -0.0000185656  -0.0000635625   0.0000085349
        0.0002289083   0.0000281829  -0.0000643285  -0.0001596545   0.0001538766
       -0.0003933832   0.0006550743   0.0001558455   0.0002280037  -0.0003250561
       -0.0001623943   0.0002376279   0.0002281728   0.0002017356  -0.0002212547
       -0.0003766478   0.0000868782   0.0001897114  -0.0002707690   0.0000256885
       -0.0000768766  -0.0003594235   0.0001440594   0.0002311386   0.0002466228
        0.0001942678  -0.0001560094   0.0001051731   0.0001118195  -0.0001656711
        0.0000706263   0.0001771555   0.0002880206  -0.0000248993  -0.0000533188
       -0.0000782147   0.0000268955   0.0000340531   0.0000414522  -0.0000123439
       -0.0000152458   0.0000065110  -0.0000558781  -0.0000656041   0.0000742488
        0.0001379593   0.0000739267  -0.0002675826   0.0000087975  -0.0000912617
       -0.0000167776  -0.0000928362   0.0000026338  -0.0000561829   0.0001108676
        0.0000387494   0.0000793871  -0.0000590877  -0.0001147437   0.0000374873
       -0.0000393967  -0.0000298141  -0.0000050694   0.0000359879  -0.0000418958
        0.0000038634   0.0000983610   0.0000147074   0.0000136354  -0.0000057338
       -0.0000258262  -0.0000268603   0.0000121817   0.0000168581  -0.0000020178
       -0.0000058587  -0.0000094670   0.0000010723  -0.0000041678  -0.0000091669
       -0.0000012401  -0.0000025059  -0.0000004120  -0.0000089334   0.0000148923
        0.0000060022  -0.0000045537  -0.0001814881  -0.0000355577  -0.0000545752
        0.0000170716   0.0000300711   0.0000021293   0.0000161676   0.0000051126
        0.0000051182   0.0000096657  -0.0000164543  -0.0000021525   0.0000064668
       -0.0000021571   0.0000013642  -0.0000025394  -0.0000007639  -0.0000010853
       -0.0000005640  -0.0000041018  -0.0000180504  -0.0000098906   0.0006238646
        0.0001924881  -0.0000529874   0.0000917830   0.0000190264  -0.0000575490
        0.0001734045  -0.0000943986   0.0001701704  -0.0000234113  -0.0000738290
       -0.0000067144   0.0000378022   0.0001154300  -0.0001103145   0.0000191496
       -0.0000685407   0.0001371391  -0.0001136531  -0.0000496487  -0.0494780667
       -0.0522224567  -0.0122617126  -0.2509691939  -0.0004602913   0.1457985243
       -0.1604337786  -0.1258913091  -0.0331922583  -0.0058547597   0.0154005272
        0.0201605361  -0.0003573794  -0.0056000371   0.0007881828   0.0001829197
       -0.0001277709   0.0000018184   0.0000078688   0.0000035696  -0.0000070176
        0.0000022294   0.0000014129  -0.0000096367  -0.0000024921   0.0000058023
        0.0000027993  -0.0000057508  -0.0000036943  -0.0000023487   0.0000005588
       -0.0000006084   0.0000000131   0.0000003704   0.0000049103   0.0000004008
       -0.0000001056   0.0000026903  -0.0000024108  -0.0000038808   0.0000010979
        0.0000040280   0.0000062367   0.0000048194   0.0000033162  -0.0000044606
       -0.0000010127  -0.0000063934   0.0000045936  -0.0000009016  -0.0000033724
        0.0000008878  -0.0000159514   0.0000036836  -0.0000028002   0.0000126834
        0.0000057465   0.0000132133   0.0000159414  -0.0000112371   0.0000368845
       -0.0000285262  -0.0000057858   0.0000392935  -0.0000365348   0.0000245396
        0.0000750390  -0.0000302001  -0.0000083064   0.0000353661  -0.0000186840
       -0.0000439985  -0.0000169844  -0.0000342671   0.0000375822  -0.0000028997
       -0.0000083094  -0.0000034788  -0.0000146094  -0.0000105747   0.0000151019
       -0.0000247725  -0.0000326034  -0.0000018029  -0.0005888884  -0.0000611463
       -0.0004156921   0.0000317520   0.0000387317   0.0000538967  -0.0000069741
       -0.0000010042   0.0000158878   0.0000002275  -0.0000000043   0.0000120450
       -0.0000038793  -0.0000015945   0.0000037298   0.0000039207  -0.0000017978
        0.0000165694  -0.0000029465  -0.0000053472   0.0000116282  -0.0000035146
        0.0000065437  -0.0000018268   0.0000013863   0.0000058363  -0.0000042259
        0.0000065248   0.0000079253   0.0000021181   0.0000062256   0.0000021191
        0.0000094218   0.0000024238  -0.0000049389   0.0000122811  -0.0000119196
        0.0000001788   0.0000045416  -0.0000023578  -0.0000000092  -0.0000040675
       -0.0000025887   0.0000095809   0.0000015140   0.0000014948   0.0000051599
        0.0000081094   0.0000024756   0.0000015501   0.0000078584  -0.0001074440
       -0.0000870182   0.0000547516   0.0000322180  -0.0000118948   0.0000161219
       -0.0000187578  -0.0000014740   0.0000135979  -0.0000013001   0.0000120235
        0.0000155811   0.0000021444   0.0000052452   0.0000244697  -0.0002526396
       -0.0055447966   0.0015722278  -0.0051178128   0.0004433234   0.0053584376
        0.1666581958   0.4558627284   0.2136711676   0.0333009355  -0.1724412214
       -0.1511651608  -0.0317075881  -0.0413477954  -0.0180345242   0.0167475523
       -0.0061285513  -0.0133222251  -0.0008567986  -0.0010480470  -0.0002398156
        0.0005689812   0.0000908290  -0.0001020116  -0.0000062245  -0.0001412057
       -0.0000112243   0.0000016329  -0.0000014481   0.0000113601   0.0000086566
       -0.0000010660  -0.0000130417   0.0000059012   0.0000100048   0.0000003648
        0.0000052766  -0.0000186067   0.0000029489  -0.0000033574   0.0000356483
       -0.0000153483  -0.0000032398  -0.0000166039  -0.0000162170   0.0000089221
        0.0000367830   0.0000160546  -0.0000104728  -0.0000011891  -0.0000084300
        0.0000002408   0.0000079949   0.0000001241  -0.0000005342   0.0000058419
        0.0000018978   0.0000092967   0.0000011070   0.0000043187   0.0000008665
       -0.0000034144  -0.0000016945   0.0000071999  -0.0000021699   0.0000016775
       -0.0000076585  -0.0000035884  -0.0000038508   0.0000104309   0.0000040081
        0.0000071117   0.0000006208  -0.0000116511  -0.0000017135  -0.0000035085
        0.0000051534  -0.0000040528  -0.0000030287   0.0000059736   0.0000030382
        0.0000031741  -0.0000078464   0.0000001285  -0.0000570722  -0.0000194714
        0.0000134256  -0.0000015406  -0.0000621382  -0.0000336661   0.0000721638
        0.0000877672   0.0000281377  -0.0001070575  -0.0000077215  -0.0000280742
        0.0000634616   0.0000511609  -0.0000478319  -0.0002075858  -0.0001013072
        0.0000148811   0.0002204616   0.0001158561   0.0000013462  -0.0000808969
       -0.0000446467   0.0000643798   0.0000752860  -0.0000249680   0.0000674587
        0.0000044812   0.0000113773  -0.0000312900  -0.0000654664  -0.0001788824
       -0.0002129964   0.0002955581  -0.0005114434   0.0002039856   0.0002019449
       -0.0007967665   0.0001363163   0.0003655602   0.0001194319  -0.0001102296
       -0.0002358631   0.0000915468   0.0000595102  -0.0001316731   0.0000825072
        0.0000097326  -0.0000919678  -0.0000012932   0.0002122288   0.0004306159
       -0.0002875033   0.0001497645  -0.0000427078  -0.0003091825   0.0000360057
        0.0001455396   0.0001670398   0.0003438431   0.0000018895   0.0000001657
       -0.0001335544   0.0000359952   0.0000338389   0.0000236532  -0.0000107322
        0.0000039721  -0.0000522938  -0.0001006333  -0.0002021327  -0.0000125947
        0.0002682362  -0.0000262401  -0.0003198777   0.0000412678  -0.0000687967
       -0.0001276139  -0.0001156134   0.0000056888  -0.0000246156   0.0000817997
        0.0000384414   0.0000501072  -0.0000532556  -0.0000894632   0.0000215446
       -0.0000148059   0.0000007223  -0.0000082272   0.0000120665  -0.0000171461
        0.0000013124   0.0000154010   0.0000968496   0.0000140911  -0.0000142614
       -0.0000083418   0.0000043811   0.0000037437   0.0000103741  -0.0000017179
       -0.0000019224  -0.0000089888   0.0000028720  -0.0000051869  -0.0000081918
       -0.0000013923  -0.0000028144  -0.0000025370  -0.0000070562   0.0000124283
        0.0000074416   0.0000028162  -0.0000439049   0.0000117232   0.0000062480
       -0.0000066966   0.0000108329  -0.0000060100  -0.0000009844   0.0000014827
        0.0000022655   0.0000083046  -0.0000095136   0.0000017765   0.0000039722
       -0.0000040461  -0.0000029202   0.0000022019  -0.0000019132   0.0000018607
       -0.0000066678  -0.0000014506  -0.0000018889  -0.0000408683   0.0003524147
        0.0002768209  -0.0000564807  -0.0000348848  -0.0001171685   0.0001318272
       -0.0000847941  -0.0000509036  -0.0000136432   0.0000381308   0.0000481712
        0.0000246931  -0.0000223721  -0.0000700444   0.0000549336  -0.0000029137
        0.0000469809  -0.0000630527   0.0000828058   0.0000089329  -0.0144611144
        0.0106017733   0.0202806497  -0.0503051922  -0.0784903333   0.0081055446
       -0.1258563767  -0.1672273410  -0.0413784970   0.0005195985   0.0009378630
        0.0004669685  -0.0053359954  -0.0000127490  -0.0036127786  -0.0000305922
       -0.0000420268   0.0000386190   0.0000047682   0.0000019056  -0.0000060937
        0.0000007685   0.0000051293  -0.0000041195   0.0000013347   0.0000017402
       -0.0000023133   0.0000001261  -0.0000008191  -0.0000002442   0.0000011866
       -0.0000000679   0.0000051433   0.0000013570  -0.0000002384   0.0000005732
        0.0000013881   0.0000004559   0.0000008792   0.0000016523   0.0000006377
        0.0000023167   0.0000014895   0.0000011545   0.0000066578  -0.0000026755
       -0.0000009826   0.0000001544   0.0000034079  -0.0000006613  -0.0000007981
        0.0000049258  -0.0000133729   0.0000012450   0.0000017092   0.0000018894
        0.0000082734   0.0000047204   0.0000205351  -0.0000049904   0.0000164141
       -0.0000502471   0.0000046283  -0.0000396016  -0.0000598070  -0.0000058726
       -0.0000117396  -0.0000362259   0.0000135532   0.0000120255  -0.0000161166
       -0.0000171648  -0.0000270648  -0.0000363779   0.0000440664  -0.0000017135
       -0.0000008205   0.0000155327  -0.0000177187  -0.0000057061   0.0000423616
        0.0000178576  -0.0000436714   0.0000395046  -0.0002447766   0.0000056471
        0.0001470493  -0.0000404557   0.0000744175   0.0000513384  -0.0000063389
       -0.0000050529   0.0000023405  -0.0000001146   0.0000015461   0.0000033345
        0.0000018847  -0.0000009531   0.0000009060   0.0000006813  -0.0000015439
        0.0000069689   0.0000019610  -0.0000080303   0.0000034251  -0.0000027897
        0.0000052969  -0.0000080982   0.0000008727   0.0000035445  -0.0000052447
        0.0000046395   0.0000058778   0.0000012325   0.0000033860   0.0000002443
        0.0000056455   0.0000061484  -0.0000044899   0.0000084332  -0.0000076696
       -0.0000026152  -0.0000123407  -0.0000016835  -0.0000012739  -0.0000056949
       -0.0000014403   0.0000053189   0.0000007386   0.0000022779   0.0000014384
        0.0000046293   0.0000060625   0.0000035967   0.0000118492  -0.0000495250
       -0.0000050921   0.0000540175   0.0000368130  -0.0000004713   0.0000182047
       -0.0000101313   0.0000135250   0.0000118231   0.0000027628  -0.0000045823
        0.0000226383   0.0000037769   0.0000266902   0.0000616346  -0.0057320465
        0.0001592073  -0.0036392351   0.0157848086   0.0008180464  -0.0120231601
       -0.1513848795   0.2136711676   0.4421145478   0.0652058480  -0.1125837232
       -0.2127441588  -0.0567349755  -0.0461408855  -0.0017237156   0.0272742962
       -0.0128986740  -0.0395789404  -0.0001481132  -0.0003912499  -0.0003981267
        0.0004831569   0.0001431289   0.0002088772  -0.0000534560  -0.0000905001
       -0.0000637261  -0.0000272121   0.0000135261   0.0000082049   0.0000187992
       -0.0000015272  -0.0000110425   0.0000010487   0.0000287159  -0.0000022353
        0.0000408547  -0.0000243246   0.0000031538  -0.0000337014   0.0000942535
        0.0000049697   0.0000158977  -0.0000364788  -0.0000264459   0.0000346643
        0.0001275151   0.0000393629  -0.0000331914  -0.0000120634  -0.0000148153
       -0.0000042234   0.0000197751   0.0000018082   0.0000096037   0.0000080632
        0.0000021104   0.0000056070   0.0000304991   0.0000097187  -0.0000270054
       -0.0000336723  -0.0000054927   0.0000329555   0.0000075803   0.0000055314
        0.0000025389  -0.0000287915  -0.0000073398   0.0000058810   0.0000322165
        0.0000120303  -0.0000147958  -0.0000209774  -0.0000043463   0.0000069382
       -0.0000039357  -0.0000068665  -0.0000076095   0.0000020277  -0.0000006514
       -0.0000019565   0.0000072963   0.0000016384  -0.0001041459  -0.0001059685
        0.0000081915   0.0000636668  -0.0000974957  -0.0000417891   0.0000399529
        0.0000557428   0.0000228565  -0.0000610992   0.0000046145  -0.0000196146
        0.0000252805   0.0000347282  -0.0000507712  -0.0000799199  -0.0000421461
        0.0000111104   0.0000969957   0.0000491351  -0.0000065677  -0.0000032405
       -0.0000143609   0.0000250943   0.0000156703  -0.0000359531   0.0000469601
        0.0001594947   0.0000486034  -0.0000090676  -0.0000824639  -0.0001418898
       -0.0000906553   0.0002938869  -0.0000304582   0.0001317140  -0.0002354175
        0.0000829290   0.0000108905   0.0000555003   0.0000101744  -0.0001215804
       -0.0000945045  -0.0000222868   0.0000141660  -0.0001476763  -0.0000288967
       -0.0000859564  -0.0001155004   0.0001678126   0.0000688628   0.0000997006
        0.0003073298  -0.0002416549   0.0000759917   0.0001502911  -0.0000638294
        0.0000609743   0.0001963021   0.0001796395   0.0000204862  -0.0000177292
       -0.0000504532   0.0000216259   0.0000118945   0.0000261602   0.0000243737
       -0.0000059642  -0.0000407319  -0.0000166586  -0.0000726201  -0.0000232725
       -0.0001313488  -0.0000527267  -0.0001663174  -0.0000200515  -0.0000205892
       -0.0000989898  -0.0000154628   0.0000211173  -0.0000032881   0.0000491726
        0.0000121792   0.0000331866  -0.0000210784  -0.0000548896   0.0000183289
       -0.0000272253  -0.0000191180  -0.0000062600   0.0000157709  -0.0000149178
        0.0000100583  -0.0000759956   0.0001296922  -0.0000118491  -0.0000212176
       -0.0000039254   0.0000212594   0.0000028436   0.0000061117  -0.0000026320
       -0.0000008846  -0.0000065110   0.0000012811  -0.0000008377  -0.0000040533
        0.0000010568   0.0000021248  -0.0000025839  -0.0000056970   0.0000079453
        0.0000122495  -0.0000012633   0.0001202448   0.0000653418   0.0000732461
       -0.0000054952  -0.0000149812   0.0000008132  -0.0000118278  -0.0000013541
       -0.0000071984   0.0000024911   0.0000019560   0.0000049344   0.0000009362
       -0.0000041354  -0.0000040145   0.0000032801  -0.0000017199   0.0000003911
       -0.0000101511   0.0000096295   0.0000067386   0.0000335438  -0.0000946322
        0.0001621643  -0.0000002578  -0.0002750023  -0.0000921661   0.0001604635
       -0.0003903221   0.0000105702  -0.0001639435   0.0000424641   0.0000784534
        0.0000539010  -0.0000703187  -0.0001842528   0.0001176782  -0.0000144694
        0.0000950566  -0.0001880248   0.0001323890   0.0000936595   0.0239113596
        0.0488953902   0.0305909444   0.0973156470  -0.0301885764  -0.1462259896
       -0.0330551812  -0.0412591198  -0.0511131394   0.0057239832  -0.0119442732
       -0.0142763224   0.0015072162  -0.0036036745   0.0038536597  -0.0001662182
        0.0000802871   0.0000184546   0.0000024414  -0.0000079855   0.0000021155
        0.0000010185   0.0000011339  -0.0000025172  -0.0000042140   0.0000036386
        0.0000030711  -0.0000022365  -0.0000006520  -0.0000000106   0.0000016126
       -0.0000003844  -0.0000007455   0.0000010730  -0.0000020936   0.0000003250
        0.0000009007  -0.0000001961  -0.0000025302   0.0000006314  -0.0000010268
        0.0000022360  -0.0000000175   0.0000016091  -0.0000001334  -0.0000060983
       -0.0000020258   0.0000023556  -0.0000049291  -0.0000073532   0.0000031142
        0.0000090675  -0.0000070631   0.0000127558  -0.0000143474   0.0000007798
        0.0000007272   0.0000034913   0.0000086177  -0.0000035569   0.0000275052
        0.0000319035   0.0000703352   0.0000147544   0.0000075651   0.0000222398
       -0.0000010564   0.0000107890   0.0000199840   0.0000263648   0.0000140994
        0.0000347293  -0.0000097441  -0.0000182862   0.0000205051  -0.0000075119
        0.0000011460  -0.0000013658  -0.0000086002  -0.0000045811   0.0000072883
        0.0000040777  -0.0000396180   0.0000210733  -0.0002050222   0.0000660973
       -0.0000215640  -0.0000472846   0.0000368707   0.0000133942  -0.0000203246
       -0.0000082736   0.0000159984   0.0000000095   0.0000030857   0.0000044513
       -0.0000050827  -0.0000025111   0.0000005219   0.0000029873   0.0000006046
        0.0000073482   0.0000065105   0.0000059661  -0.0000119181  -0.0000014899
       -0.0000009926  -0.0000013034   0.0000000967   0.0000016246  -0.0000017597
        0.0000010117   0.0000030547   0.0000022346   0.0000023095   0.0000009431
        0.0000043486   0.0000010194  -0.0000041419   0.0000032620  -0.0000005743
       -0.0000036759  -0.0000114005  -0.0000014676  -0.0000019847  -0.0000026009
       -0.0000012118   0.0000015242   0.0000009576   0.0000008482   0.0000005978
        0.0000027074   0.0000046339   0.0000005541   0.0000086420  -0.0000011529
        0.0000303255   0.0000689299   0.0000287884  -0.0000051125   0.0000416944
        0.0000057183   0.0000107814   0.0000083984   0.0000027970  -0.0000136166
        0.0000251032   0.0000091279   0.0000196114   0.0000651510   0.0007508016
       -0.0035164462   0.0036198770   0.0195394226  -0.0004045658  -0.0144530989
       -0.0896484950   0.0333009355   0.0652058480   0.5413135021   0.1633449025
       -0.1709387225  -0.1908217692  -0.1564874043  -0.0387756222  -0.0471821673
       -0.0153900942   0.0228791697  -0.0006907506  -0.0010619308   0.0051624409
       -0.0007201324  -0.0002331254  -0.0000086977   0.0000764119   0.0000882246
       -0.0004276568  -0.0000332228   0.0000084616  -0.0000014553   0.0000282401
       -0.0000045870   0.0000103971  -0.0000054457  -0.0000020664   0.0000004764
        0.0000048875  -0.0000026810  -0.0000033531   0.0000003759  -0.0000099369
       -0.0000004261  -0.0000029507  -0.0000134386  -0.0000075320  -0.0000040604
       -0.0000024411   0.0000093085  -0.0000021304   0.0000008037  -0.0000029621
        0.0000023392  -0.0000092954   0.0000003173  -0.0000076119   0.0000004996
       -0.0000008722  -0.0000000129  -0.0000050294   0.0000019476   0.0000001687
        0.0000077610  -0.0000000559  -0.0000031316  -0.0000013276   0.0000015579
       -0.0000023448   0.0000041006  -0.0000002144  -0.0000002359  -0.0000049755
        0.0000023070   0.0000001561   0.0000049595   0.0000004736  -0.0000044342
        0.0000092310   0.0000019318   0.0000079321   0.0000057253  -0.0000014175
       -0.0000027533  -0.0000000159  -0.0000003777  -0.0000109742   0.0000050816
       -0.0000017686   0.0000092206   0.0000038385  -0.0000036189  -0.0000330906
       -0.0000067019   0.0000068580   0.0000478151   0.0000036072   0.0000369702
       -0.0000344130  -0.0000529218   0.0000695520   0.0001207200   0.0000524285
       -0.0000042597  -0.0001222119  -0.0000680209   0.0000199972   0.0000818955
        0.0000324355  -0.0000858766  -0.0000504082  -0.0000202286  -0.0000540206
        0.0000429834  -0.0000125801   0.0000067102   0.0000490266   0.0001433414
       -0.0000902781  -0.0001947919  -0.0001130455   0.0000934572   0.0000341446
        0.0000260381  -0.0001073293   0.0000439346  -0.0000100471   0.0000908546
        0.0000335164   0.0000082815   0.0000929351  -0.0000615795  -0.0000419843
       -0.0001543514   0.0000956068   0.0000151319  -0.0002074659   0.0002304455
       -0.0000395056  -0.0000437807  -0.0001458681  -0.0001058987   0.0000363548
        0.0000409671   0.0000919363  -0.0000614502  -0.0001113484  -0.0000951523
        0.0000314035  -0.0000361146  -0.0000007885   0.0000877937  -0.0000340311
        0.0000384650   0.0000917148   0.0000714150   0.0000605845  -0.0000480054
        0.0002317124   0.0002125948  -0.0002843847  -0.0000505888  -0.0000105662
        0.0000765520   0.0000529203   0.0000110379   0.0000544659  -0.0000582998
       -0.0000018558  -0.0000671589   0.0000268412   0.0000413757  -0.0000405201
       -0.0000036870   0.0000042346  -0.0000118399   0.0000155679  -0.0000052402
       -0.0000086093  -0.0000130381  -0.0000225703   0.0000017667  -0.0000033711
       -0.0000218875   0.0000765714   0.0000076730  -0.0000127901  -0.0000001223
        0.0000025831  -0.0000112564   0.0000052846  -0.0000081289  -0.0000101904
       -0.0000013949  -0.0000041726  -0.0000016500  -0.0000089402   0.0000151009
        0.0000136663  -0.0000063177   0.0001511497   0.0000001526  -0.0003700298
       -0.0000014832  -0.0000133020   0.0000266227   0.0000109876   0.0000150927
       -0.0000061467   0.0000134848  -0.0000091505   0.0000123640   0.0000074371
       -0.0000214061   0.0000008793  -0.0000031287  -0.0000023349  -0.0000206288
       -0.0000006231   0.0000104408  -0.0000134457  -0.0004474897  -0.0004613856
       -0.0004224081  -0.0001322738   0.0000070857   0.0002529639  -0.0000980406
        0.0002825622  -0.0001897872   0.0002550923   0.0000231430  -0.0000330505
        0.0000235264  -0.0000029384   0.0000856645  -0.0000296288   0.0000041503
       -0.0000797361   0.0000722328   0.0000203845  -0.0001280202  -0.0045294996
       -0.0127741310  -0.0131668810   0.0046410250   0.0227964802   0.0191733774
        0.0021913270  -0.0139234332  -0.0148465836  -0.2143973931  -0.0190714349
        0.1209720711   0.0025128091   0.0018792851   0.0003194127   0.0001441953
       -0.0001372351   0.0001458781   0.0000011293   0.0000116004  -0.0000053152
        0.0000031480   0.0000012385  -0.0000060415  -0.0000025134   0.0000032541
        0.0000023534   0.0000024469   0.0000045733   0.0000017327   0.0000057646
        0.0000007240   0.0000010218   0.0000042457  -0.0000042374   0.0000003809
        0.0000037359  -0.0000005462  -0.0000002580   0.0000052953  -0.0000039595
       -0.0000004996  -0.0000016035  -0.0000048341  -0.0000013265  -0.0000025472
       -0.0000026907   0.0000015816   0.0000030916   0.0000016355   0.0000005144
        0.0000038283  -0.0000047315  -0.0000005584   0.0000024609   0.0000092867
        0.0000002469   0.0000096117   0.0000087140  -0.0000134844  -0.0000235208
        0.0000100890   0.0000364946  -0.0000043324   0.0000097486   0.0000220268
       -0.0000545902  -0.0000067770   0.0000141445  -0.0000271888  -0.0000405080
        0.0001714223  -0.0000032475  -0.0000380414   0.0000207995   0.0000021442
       -0.0000257037   0.0000212433  -0.0000034275  -0.0000131638   0.0000316954
       -0.0000839472  -0.0000951675  -0.0000416523  -0.0008447022   0.0002991470
        0.0000417626   0.0000127936  -0.0000268891   0.0000046265   0.0000118779
        0.0000054625  -0.0000052555  -0.0000065166   0.0000002994   0.0000034803
       -0.0000015301   0.0000022007   0.0000027202   0.0000006336  -0.0000048670
        0.0000061654  -0.0000120184  -0.0000112993   0.0000128911  -0.0000071774
        0.0000052778  -0.0000038329  -0.0000000965   0.0000062593  -0.0000046293
        0.0000058478   0.0000071327   0.0000026421   0.0000060293  -0.0000002398
        0.0000079253  -0.0000024594  -0.0000056345   0.0000068907  -0.0000184504
       -0.0000065641   0.0000034369  -0.0000042538   0.0000020815  -0.0000054943
       -0.0000044478   0.0000114439   0.0000028249   0.0000009392   0.0000067292
        0.0000107107  -0.0000008220  -0.0000060754   0.0000062248  -0.0001573609
        0.0000084503   0.0000977694   0.0000110033  -0.0000078163   0.0000044487
       -0.0000693329   0.0000098982   0.0000115321  -0.0000238571   0.0000335540
        0.0000346290  -0.0000131130  -0.0000110445   0.0000155579   0.0006542319
       -0.0001876624  -0.0004513238  -0.0023412455  -0.0022188254   0.0055307005
       -0.0169861142  -0.1724412214  -0.1125837232   0.1633449025   0.4514164837
        0.2048020983  -0.1047130526  -0.2037389734  -0.0697278088  -0.0519401586
        0.0089078361   0.0477682939  -0.0007726843   0.0051597810  -0.0020065182
       -0.0018534335  -0.0008925855  -0.0000296633  -0.0000587684   0.0003939467
        0.0004092777  -0.0000737250  -0.0000356512  -0.0000646951   0.0000135321
       -0.0000028187  -0.0000076614  -0.0000241681   0.0000254183   0.0000076070
        0.0000167953   0.0000048605   0.0000109895  -0.0000191938   0.0000090429
        0.0000167174   0.0000149662  -0.0000191522   0.0000041164   0.0000165887
        0.0000322871  -0.0000035306  -0.0000134275  -0.0000090471   0.0000055653
        0.0000003509   0.0000000015   0.0000009380   0.0000079087  -0.0000108531
        0.0000028247  -0.0000175346   0.0000155750  -0.0000057024  -0.0000236708
       -0.0000138516   0.0000056590   0.0000155072   0.0000086402  -0.0000041225
        0.0000157328  -0.0000144409   0.0000044931  -0.0000192772   0.0000158664
       -0.0000113049  -0.0000172315   0.0000075835   0.0000070451   0.0000135071
       -0.0000165824   0.0000066362  -0.0000005570  -0.0000060931  -0.0000019232
       -0.0000105594   0.0000183231  -0.0000001195   0.0000046125  -0.0000264418
       -0.0000018228   0.0000393912   0.0000168670   0.0000109248  -0.0000131259
       -0.0000509626  -0.0000171783   0.0000352626   0.0000079776  -0.0000141017
       -0.0000030965   0.0000081607  -0.0000147486   0.0000485268   0.0000264492
       -0.0000079565  -0.0000641574  -0.0000374543   0.0000141597   0.0000162188
        0.0000174908   0.0000049934  -0.0000740261   0.0000029927  -0.0000553321
        0.0000667380   0.0000078762  -0.0000010679   0.0000434420  -0.0000136011
        0.0000340476  -0.0000739955   0.0001345245  -0.0000448256  -0.0000960748
       -0.0000849771  -0.0000408659  -0.0000624113   0.0000124290   0.0000632782
        0.0001139059   0.0000332930  -0.0000291115   0.0001639712   0.0000577901
        0.0000451459  -0.0000645767  -0.0000397074  -0.0000182871  -0.0000728417
       -0.0001661873   0.0000544242  -0.0001017767   0.0000124106  -0.0000720447
        0.0000894287  -0.0000239577   0.0003301649  -0.0000127545   0.0000082941
       -0.0000364751  -0.0000229344  -0.0000198100  -0.0000204507   0.0000064737
        0.0000100417  -0.0000943681   0.0000382187  -0.0000437532   0.0000949585
        0.0001101547  -0.0000921050  -0.0000926988  -0.0000832030  -0.0000037597
        0.0000425608   0.0000103465  -0.0000244272  -0.0000150017   0.0000060133
       -0.0000244237   0.0000092980   0.0000217336   0.0000325330   0.0000165102
       -0.0000059951  -0.0000012560   0.0000084208  -0.0000055512  -0.0000053063
       -0.0000079710   0.0000465271  -0.0002387179  -0.0000267287   0.0000492015
        0.0000362182  -0.0000646032   0.0000133907  -0.0000180645   0.0000127049
       -0.0000019280   0.0000077090   0.0000058071  -0.0000045966  -0.0000044610
       -0.0000005400  -0.0000042729   0.0000059866  -0.0000017619  -0.0000301057
        0.0000025662  -0.0000187848  -0.0000308557   0.0001783497   0.0001512303
        0.0000611828   0.0000216064   0.0000193395   0.0000102650   0.0000131193
       -0.0000002312  -0.0000015593  -0.0000083089   0.0000090475   0.0000006410
       -0.0000100492   0.0000066460  -0.0000090869   0.0000008336  -0.0000050585
       -0.0000065719   0.0000180196  -0.0000074637   0.0006981140   0.0000377860
       -0.0005444438  -0.0000426504   0.0001172886   0.0000862417  -0.0002007610
        0.0001204738  -0.0000332177   0.0002173568  -0.0000598836  -0.0000620824
        0.0000103962   0.0000768719   0.0001644316  -0.0002137262   0.0000263825
       -0.0001124570   0.0002051001  -0.0003007112  -0.0000781945  -0.0140403417
       -0.0430084208  -0.0255304507   0.0602425245   0.0245367541  -0.0235894815
        0.0012108929  -0.0158404227  -0.0173675613  -0.0197561418  -0.0410707180
        0.0069825411  -0.0135132938  -0.0159814690  -0.0066827712   0.0001709173
       -0.0001220314  -0.0001069660  -0.0000036979   0.0000056766   0.0000003714
       -0.0000037610   0.0000037915   0.0000025843   0.0000091420  -0.0000084093
       -0.0000026243   0.0000023309  -0.0000056111   0.0000009192  -0.0000099145
       -0.0000004268  -0.0000028197  -0.0000056547  -0.0000001116  -0.0000006996
       -0.0000058825  -0.0000017437   0.0000012389  -0.0000019208   0.0000060249
       -0.0000015901  -0.0000042411   0.0000033362  -0.0000031976   0.0000081345
        0.0000001899   0.0000141441  -0.0000013852   0.0000043238  -0.0000005587