$hessian                                                                        
        0.0823768594   0.0060629594  -0.1348858679  -0.0823326189   0.0015587195
        0.1255060077   0.0099713119  -0.0019770427  -0.0078448042   0.0052146479
       -0.0047733966  -0.0087456759   0.0012038317   0.0008022198   0.0003722244
       -0.0007852890   0.0002028610  -0.0008861110   0.0001782373   0.0005365596
        0.0000811408  -0.0011527922  -0.0010333697  -0.0001267520   0.0007569789
       -0.0004307110   0.0003337858  -0.0090451803  -0.0004336218   0.0245555628
        0.0016006910  -0.0036242426   0.0029360830  -0.0018062925   0.0000335102
        0.0012970963   0.0000641534  -0.0000123763   0.0003726307   0.0018173791
       -0.0006439726  -0.0003519306   0.0010348153   0.0018419452  -0.0009575734
        0.0006650524  -0.0023921105   0.0003467231  -0.0007580410   0.0019747293
       -0.0001960159  -0.0000139373  -0.0002492297   0.0000606197  -0.0010932076
        0.0015447559  -0.0000675271  -0.0002377876  -0.0030052999   0.0006371821
        0.0008119544   0.0028748476  -0.0007729599  -0.0014933124  -0.0006599034
        0.0004436371   0.0001174600   0.0001035785  -0.0001155542  -0.0015241342
       -0.0014852541   0.0006206226   0.0017304549   0.0017787911  -0.0005759252
        0.0005112183  -0.0019843779   0.0004613460  -0.0028133824  -0.0000468097
        0.0006480822  -0.0039439076   0.0028898458  -0.0023115792  -0.0003532997
        0.0001707945  -0.0004167354   0.0000135236   0.0001588945   0.0000932850
        0.0002043367  -0.0000398605  -0.0000913068  -0.0001096622   0.0001199701
       -0.0000550244   0.0001557129   0.0000018484  -0.0004985774  -0.0001247465
       -0.0006201853   0.0004114576  -0.0002337217   0.0002658897   0.0000313705
       -0.0000134688   0.0000244976  -0.0000309255  -0.0000499009  -0.0000572653
        0.0000049738   0.0000114444   0.0000112649  -0.0000149642   0.0000212576
       -0.0000238717  -0.0000491167   0.0000589024  -0.0000098660   0.0000736337
       -0.0000083060  -0.0000298691  -0.0000431683  -0.0000008341   0.0000715740
        0.0000094508   0.0000250107  -0.0000057841  -0.0000751687  -0.0007686789
        0.0002768659   0.0001837329   0.0001172675   0.0002314980  -0.0003673850
        0.0060629594   0.0556155631  -0.0391322847   0.0023211547  -0.0634844261
        0.0290858505  -0.0096136365   0.0035784164   0.0333929895   0.0043136093
        0.0013690397  -0.0156269405   0.0003111417  -0.0002813605  -0.0000450832
       -0.0003444645   0.0011136865  -0.0008553087   0.0000662944   0.0003534975
        0.0000363630  -0.0009460785  -0.0003319525  -0.0007943905  -0.0009274016
       -0.0028549857  -0.0017417977  -0.0032370785   0.0039810459  -0.0007361721
        0.0016986709  -0.0017984791   0.0015058566  -0.0016596777   0.0004999222
        0.0002930308   0.0001657452   0.0002813462  -0.0004897396   0.0002745048
       -0.0001336982  -0.0002576691   0.0006695961   0.0005105805  -0.0003396497
        0.0002379091  -0.0008554074   0.0001210836  -0.0000450722   0.0009043718
       -0.0000990061  -0.0000944022  -0.0000195794   0.0000545307  -0.0004976823
        0.0004178029  -0.0000514997  -0.0003777713  -0.0011034888   0.0002687761
        0.0000663091   0.0011366966  -0.0002299134  -0.0004922509   0.0002009396
        0.0000790689   0.0001313330  -0.0003294254  -0.0000110098  -0.0005812936
       -0.0006490583   0.0002639605   0.0007451138   0.0003911548  -0.0001528005
        0.0004485870  -0.0005460514   0.0000535976  -0.0006043627   0.0003457482
        0.0000406616   0.0017938473   0.0008691934  -0.0014418206   0.0001907627
        0.0007888497  -0.0011604741   0.0000491446   0.0001530246   0.0000184890
        0.0001186718  -0.0000523437  -0.0002027986  -0.0001193084  -0.0001763637
       -0.0002429322   0.0001387266  -0.0003279483  -0.0004373800  -0.0005226331
        0.0003762592  -0.0008017470  -0.0001368447   0.0001412752   0.0000075878
       -0.0000087837   0.0000123193  -0.0000085570   0.0000124369  -0.0000073989
       -0.0000037767   0.0000134143   0.0000118966  -0.0000070732   0.0000485811
       -0.0000151352  -0.0000189722   0.0000189078   0.0000321980   0.0000221844
       -0.0000060695   0.0000027089  -0.0000121976   0.0000308140   0.0000464542
       -0.0000060307  -0.0000159248  -0.0000122475  -0.0000381638  -0.0000097231
        0.0000271850  -0.0000033487   0.0003122243  -0.0001818263  -0.0002954929
       -0.1348858679  -0.0391322847   0.5104496024   0.1230377212   0.0312520469
       -0.4667793417   0.0030189176   0.0098922049  -0.0173265554   0.0057208538
        0.0022701736  -0.0175677660   0.0008016425   0.0027135928  -0.0018054273
       -0.0009540490   0.0003044182  -0.0006819763   0.0002456112   0.0006328023
        0.0007704111  -0.0012022616  -0.0001133078  -0.0010779927  -0.0007758388
       -0.0057855533  -0.0014784096   0.0030082464   0.0048908437  -0.0064122408
       -0.0014746338   0.0007796928  -0.0018397082   0.0005684756   0.0004145388
       -0.0003222816  -0.0002695263  -0.0006285202   0.0012072584  -0.0010143780
       -0.0000892438   0.0001081467  -0.0005887762  -0.0011494071   0.0002374973
        0.0000706066   0.0014123117  -0.0001602591   0.0002103553  -0.0006573465
        0.0003096992   0.0006082299   0.0006948542  -0.0001045709   0.0002663035
       -0.0017536502   0.0001365485   0.0000752500   0.0022852918  -0.0005703214
       -0.0010229380  -0.0020056245   0.0005412678   0.0009201535   0.0013673700
       -0.0003898603   0.0001689699  -0.0009275324   0.0001350566   0.0004817094
        0.0004931659  -0.0000350804  -0.0004148415  -0.0011965505   0.0003445270
        0.0001763594   0.0014350198  -0.0006512534   0.0002724243   0.0007683236
       -0.0010961158   0.0020805978  -0.0035257632   0.0005746465   0.0002622286
       -0.0013225422   0.0002945946  -0.0000585027  -0.0002567410  -0.0000089333
        0.0001653606  -0.0001841137   0.0000991868  -0.0002561954  -0.0005565747
       -0.0002406215   0.0003679483  -0.0003836242   0.0012450186   0.0002919152
       -0.0014791607   0.0006603632   0.0003057106  -0.0000286632   0.0003181823
       -0.0001030225  -0.0001655961  -0.0000889326   0.0001053478  -0.0000265951
       -0.0000493003  -0.0000454884   0.0000073020  -0.0000241739   0.0000617400
       -0.0000137298   0.0000721613  -0.0000341388   0.0000758121  -0.0000369027
        0.0000014428   0.0000441681  -0.0000049392   0.0000265713  -0.0000163238
       -0.0000203837  -0.0000982209   0.0001363505  -0.0001086411   0.0004496371
        0.0001662890   0.0003698891  -0.0005716503  -0.0006381240   0.0010079315
       -0.0823326189   0.0023211547   0.1230377212   0.3596769349  -0.0950990919
       -0.0753037108  -0.0734854635   0.0971276873  -0.0432445367  -0.0426993625
       -0.0106901816  -0.0068330397  -0.0058386772  -0.0132847218  -0.0005381079
        0.0069324394   0.0002681841   0.0059454023  -0.0014650397  -0.0034121774
       -0.0019385880   0.0073711470   0.0051913584  -0.0016006616  -0.0050762270
       -0.0050097727  -0.0118422827  -0.1280985314   0.0089777301   0.0048835257
       -0.0242715098   0.0226371743  -0.0156908685   0.0133394928  -0.0014546996
       -0.0064593227  -0.0026143959   0.0005385687  -0.0005016130  -0.0059773776
        0.0018735760   0.0011508189  -0.0055189338  -0.0076896958   0.0038051719
       -0.0030816343   0.0108321230  -0.0013927392   0.0030720065  -0.0091968633
        0.0011995624   0.0000559898   0.0009074057  -0.0002909444   0.0050828031
       -0.0064834969   0.0002809422   0.0017421478   0.0141916829  -0.0032729754
       -0.0038318246  -0.0136391696   0.0035528428   0.0068471085   0.0027905178
       -0.0019831950  -0.0005466306  -0.0003271506   0.0004775919   0.0067852210
        0.0069996384  -0.0025921086  -0.0076126140  -0.0083264354   0.0025607995
       -0.0024512356   0.0091504165  -0.0021601044   0.0118850827  -0.0059167360
        0.0040038483  -0.0265273486  -0.0032633555   0.0233253145  -0.0014691436
        0.0012476876  -0.0002759979   0.0002056884  -0.0002095904  -0.0006628847
       -0.0015290058   0.0006673103   0.0003698391   0.0002314302  -0.0005853985
        0.0001855278  -0.0015524706   0.0004134184   0.0013408476   0.0008114766
       -0.0009802858   0.0011123608   0.0011409559  -0.0007845427   0.0001735746
       -0.0001873384  -0.0003496629   0.0000160507   0.0001859150   0.0002647205
       -0.0000294117  -0.0000987576  -0.0000719971  -0.0000140092  -0.0001115309
        0.0001345496   0.0003021430  -0.0002861317   0.0000554913  -0.0002828462
       -0.0000084864   0.0001421201   0.0001489689  -0.0000219160  -0.0002742683
       -0.0000193940  -0.0001119923   0.0003887653   0.0002506972   0.0008593780
       -0.0006602490  -0.0004452259   0.0005809806   0.0005882615  -0.0007489832
        0.0015587195  -0.0634844261   0.0312520469  -0.0950990919   0.5898982106
       -0.1831694282   0.0982798190  -0.3761538226   0.1797047366  -0.0330642828
       -0.0877276135  -0.0311834921  -0.0083258011  -0.0236335523  -0.0051037287
        0.0001938574  -0.0009643037   0.0061446851  -0.0007071536  -0.0026579356
       -0.0017019781   0.0013950342   0.0050601292   0.0009828980  -0.0021824261
       -0.0016129198  -0.0132604338   0.0297954645  -0.0413189725   0.0059086379
        0.0103186299   0.0034075222  -0.0043249545   0.0061232608  -0.0023277909
        0.0013940495  -0.0008560385   0.0003163448  -0.0010602977   0.0005448518
        0.0003184557   0.0011494325  -0.0001087917   0.0003297840   0.0005637400
       -0.0006381995   0.0000174706  -0.0001360110   0.0001786393  -0.0011463699
       -0.0003355745  -0.0010899342  -0.0011812163   0.0001486168   0.0008018314
        0.0019241911  -0.0001522623   0.0002285969  -0.0016311034   0.0005313387
        0.0014510873   0.0011394051  -0.0003201998  -0.0004488314  -0.0031810504
        0.0005772289  -0.0008947446   0.0028470758  -0.0001860757   0.0011737561
        0.0006551910  -0.0007460558  -0.0016016851   0.0011338069  -0.0000820642
       -0.0012223773  -0.0011863048   0.0009932364   0.0005177870  -0.0011763093
        0.0036096085  -0.0054908649   0.0042785276   0.0014272076   0.0000872568
        0.0004070855   0.0006105467  -0.0001688513  -0.0005475181  -0.0000899363
        0.0000244546  -0.0000958058   0.0003118829   0.0000850896   0.0002282512
        0.0005580152   0.0003987535   0.0007625364   0.0034591853   0.0007224126
       -0.0006067092   0.0006972421   0.0009034833  -0.0007290178  -0.0001109547
        0.0002526939   0.0002465621   0.0001190075  -0.0001819764   0.0000273543
        0.0000822311   0.0000344422  -0.0000184648   0.0000813381  -0.0002165781
        0.0000354492  -0.0001331262  -0.0000098652  -0.0002137346  -0.0000471448
        0.0000158991  -0.0001029418   0.0000662128  -0.0001431436  -0.0001721959
        0.0000020983   0.0001122913  -0.0002663484   0.0002336426  -0.0005975444
       -0.0007093934  -0.0003723444  -0.0021499304  -0.0001875325   0.0019071970
        0.1255060077   0.0290858505  -0.4667793417  -0.0753037108  -0.1831694282
        0.7520369472  -0.0439427537   0.1822789060  -0.1646237800  -0.0217394241
       -0.0309740855  -0.0593150370   0.0006190197  -0.0026309847   0.0072266498
        0.0016587832   0.0035541531   0.0016734203  -0.0004406241  -0.0014042318
       -0.0015105993   0.0003290255   0.0032954374  -0.0043614392  -0.0077634836
       -0.0159424807  -0.0152835924   0.0159402077   0.0025690815  -0.0411139404
       -0.0104970337   0.0050961658   0.0009100171   0.0010059899   0.0013185088
       -0.0026079033  -0.0004590241   0.0002906727  -0.0014560493   0.0000052676
        0.0008785824   0.0002032733  -0.0001056730  -0.0000924259   0.0006664572
       -0.0008170995   0.0002992630  -0.0001307264   0.0004135828  -0.0011142027
       -0.0003329468  -0.0009792007  -0.0009186533   0.0001549600   0.0007956980
        0.0012367686  -0.0001929101   0.0000842785  -0.0004582376   0.0002754666
        0.0008937005   0.0001301141  -0.0000328269   0.0000594878  -0.0016563792
        0.0001817665  -0.0004186239   0.0014928230  -0.0000784000   0.0008449694
        0.0008179367  -0.0006740677  -0.0011469769   0.0000654167   0.0000313152
       -0.0010030225  -0.0002588125   0.0006969239   0.0040540788   0.0008940827
       -0.0015702537   0.0125111329  -0.0013663656   0.0027565046   0.0005759225
        0.0037533000  -0.0009327151   0.0002320032   0.0009501372   0.0000842256
       -0.0000574586   0.0002778348  -0.0002951366  -0.0002272417  -0.0005959667
       -0.0007776656  -0.0001808488   0.0002562166  -0.0013558394  -0.0016001784
        0.0019928213  -0.0012865738  -0.0006769047   0.0000538986  -0.0003871228
        0.0001588702   0.0001511457   0.0002177609  -0.0001175658   0.0001162356
        0.0000668935   0.0000492037   0.0000022988   0.0000674204  -0.0001311644
        0.0000447186  -0.0000867446  -0.0000288232  -0.0001080975  -0.0000454245
       -0.0000042690  -0.0000333429   0.0000839917  -0.0000396713  -0.0000364563
        0.0000300211   0.0001059187  -0.0001808417   0.0003061915   0.0009023322
       -0.0006736161  -0.0009979381   0.0009352959   0.0007122389  -0.0014412316
        0.0099713119  -0.0096136365   0.0030189176  -0.0734854635   0.0982798190
       -0.0439427537   0.0722388273  -0.1025409339   0.0537160623   0.0048991696
       -0.0103170828  -0.0001085264   0.0007386899   0.0000623212  -0.0006216913
       -0.0011313086  -0.0005637830  -0.0010038031   0.0001987926   0.0004329436
        0.0004333844  -0.0008938199  -0.0007388962   0.0004591886   0.0011649092
        0.0005713702   0.0010196320  -0.0073060495   0.0226038714  -0.0117697118
       -0.0043482830  -0.0010313332   0.0041408914  -0.0030448396   0.0014615878
       -0.0003840967   0.0001054433  -0.0000082704   0.0002295983   0.0016482823
       -0.0005064503  -0.0003617448   0.0009041520   0.0016645604  -0.0008591276
        0.0006462766  -0.0021783634   0.0003263600  -0.0007205028   0.0017997886
       -0.0001746495  -0.0000256547  -0.0002256289   0.0000530058  -0.0009785939
        0.0013895272  -0.0000548622  -0.0001694974  -0.0026623088   0.0005719550
        0.0007558250   0.0025058203  -0.0006805565  -0.0013191981  -0.0005616291
        0.0003928761   0.0001709945   0.0000388538  -0.0001032483  -0.0013962379
       -0.0012773689   0.0005377257   0.0015627679   0.0015917070  -0.0005099189
        0.0004250744  -0.0017468673   0.0004220519  -0.0011519357   0.0008646758
       -0.0014732682   0.0016521031   0.0006784439  -0.0031389269   0.0001271089
       -0.0003787541   0.0001929758  -0.0001129403  -0.0000060658   0.0001144452
        0.0001945316  -0.0000984984   0.0000009315   0.0000019739   0.0001191834
        0.0000732673  -0.0003404043  -0.0002579303   0.0001907275  -0.0000452995
       -0.0001292454   0.0002369578  -0.0008860536   0.0002571745  -0.0000674491
       -0.0000086404  -0.0000025392  -0.0000312124  -0.0000447874  -0.0000615503
        0.0000053490   0.0000098035   0.0000128773  -0.0000068479   0.0000220194
       -0.0000212503  -0.0000445397   0.0000455374  -0.0000079450   0.0000582765
       -0.0000125545  -0.0000259605  -0.0000395344   0.0000000734   0.0000547895
        0.0000026404   0.0000209649  -0.0000193307  -0.0000766480  -0.0001244111
        0.0002940382   0.0001431474   0.0000418432   0.0002982695  -0.0008872499
       -0.0019770427   0.0035784164   0.0098922049   0.0971276873  -0.3761538226
        0.1822789060  -0.1025409339   0.4034507789  -0.2072387523   0.0059877668
       -0.0188078455   0.0122865887  -0.0010124457  -0.0046357780  -0.0050451413
       -0.0016045685  -0.0011361858   0.0002815320   0.0002608233   0.0008364273
        0.0005908059  -0.0011119628  -0.0005452945   0.0009087768   0.0006542147
       -0.0004075452   0.0028409570   0.0009931909  -0.0036009758   0.0075626641
        0.0030225633  -0.0014940010  -0.0015315923  -0.0006698207  -0.0001028322
        0.0010777877  -0.0001733202   0.0002440268  -0.0003283684  -0.0008036156
        0.0000827075  -0.0003963097  -0.0002691134  -0.0007827400   0.0001946986
       -0.0000530005   0.0008381563  -0.0000966695   0.0002817695  -0.0002865868
        0.0001689213   0.0003752650   0.0005204753  -0.0000366654   0.0001113181
       -0.0012942013   0.0000291514  -0.0000795493   0.0017641282  -0.0004228256
       -0.0008652267  -0.0015181128   0.0004408850   0.0007408371   0.0015314674
       -0.0004162381   0.0003078438  -0.0011932681   0.0001255148   0.0001199959
        0.0003072386   0.0000324740   0.0000102654  -0.0012126093   0.0002397872
        0.0002636151   0.0012241166  -0.0005216888   0.0005907193  -0.0001798314
        0.0001643311  -0.0010130498  -0.0014177711   0.0012209054   0.0004950765
        0.0006080992  -0.0009255382  -0.0002823509  -0.0005616722  -0.0004422008
        0.0002123705  -0.0000680015  -0.0001970427  -0.0000193343  -0.0000397763
       -0.0001560427   0.0004006042  -0.0004405726  -0.0006339822  -0.0005548616
        0.0005182953  -0.0009078562   0.0004235436   0.0000868338   0.0000418282
       -0.0000955323  -0.0001060516  -0.0000081611   0.0000962023   0.0000320652
       -0.0000337805  -0.0000170234   0.0000107383  -0.0000225817   0.0000808249
       -0.0000057136   0.0000576930  -0.0000282121   0.0001027378  -0.0000159589
       -0.0000140661   0.0000553943   0.0000085805   0.0000706184   0.0000634760
        0.0000004637  -0.0000629105   0.0001387226  -0.0000203925   0.0002113057
        0.0003146113   0.0001360024   0.0004095195  -0.0003177237  -0.0011836709
       -0.0078448042   0.0333929895  -0.0173265554  -0.0432445367   0.1797047366
       -0.1646237800   0.0537160623  -0.2072387523   0.1740245296   0.0016387870
       -0.0062341604   0.0033456117  -0.0005322704  -0.0008263901   0.0002080974
       -0.0003890292  -0.0002922678  -0.0001311282  -0.0000454088  -0.0001920599
        0.0001510034  -0.0000438696  -0.0000902010   0.0009433126   0.0001426969
        0.0001826547  -0.0014635250  -0.0034198254   0.0035215782  -0.0001869548
        0.0000718913  -0.0003247661   0.0026507243  -0.0006844902   0.0005457749
       -0.0001460603   0.0002330733  -0.0004281667   0.0007963517   0.0005490604
       -0.0003298853   0.0001426537   0.0007547222   0.0007278571  -0.0003925094
        0.0003265559  -0.0011624276   0.0001561350  -0.0002541139   0.0009687116
       -0.0001459237  -0.0001152770  -0.0001472963   0.0000404402  -0.0005242895
        0.0007936467  -0.0000199677  -0.0002644946  -0.0017235261   0.0004090925
        0.0004253511   0.0016201287  -0.0004066446  -0.0007536707  -0.0004484219
        0.0002597003   0.0000199176   0.0001902705  -0.0000612659  -0.0006134063
       -0.0007277778   0.0002637017   0.0006578666   0.0010253285  -0.0002457163
        0.0003047374  -0.0010263323   0.0001917331  -0.0015319996   0.0005390556
       -0.0000357633   0.0020974879   0.0010700432  -0.0022978164  -0.0000819784
       -0.0009222591   0.0003203343  -0.0000178757  -0.0000831166   0.0001297520
        0.0000328792  -0.0001866512   0.0001269674   0.0000617784   0.0001100189
        0.0002166538  -0.0001064482  -0.0004741089   0.0016927131   0.0005311675
       -0.0005763987   0.0004556637  -0.0002778596  -0.0001047453  -0.0000376017
        0.0000458853   0.0000544505  -0.0000384580  -0.0000343905  -0.0000396787
        0.0000042879   0.0000148800   0.0000017694   0.0000066876   0.0000000150
       -0.0000134448  -0.0000477329   0.0000323266  -0.0000245774   0.0000297367
        0.0000005227  -0.0000296949  -0.0000249435  -0.0000161566  -0.0000059770
       -0.0000153007   0.0000175827  -0.0000952527  -0.0000754195  -0.0002489318
       -0.0000774710   0.0000805223  -0.0006301205  -0.0006232065   0.0010766609
        0.0052146479   0.0043136093   0.0057208538  -0.0426993625  -0.0330642828
       -0.0217394241   0.0048991696   0.0059877668   0.0016387870   0.1387781586
        0.0994892584   0.0396952754  -0.0541786345  -0.0423067878   0.0226348705
       -0.0023561631  -0.0181328816  -0.0044699217  -0.0050845421   0.0035902478
        0.0044594173  -0.0000780303  -0.0065572575  -0.0125929041  -0.0500790473
       -0.0027811504  -0.0318070310  -0.0066874312  -0.0060843763  -0.0035305825
       -0.0006887602  -0.0007621387   0.0008425675  -0.0008606623   0.0001078065
        0.0006340067   0.0005205357  -0.0002630535  -0.0001729081   0.0011286632
       -0.0001386570  -0.0000188499  -0.0006455408   0.0005031364  -0.0002197671
        0.0001090698  -0.0002578035   0.0000232606  -0.0005666328   0.0000312392
        0.0000836872   0.0004591574   0.0000313361  -0.0000110205   0.0000337772
       -0.0000985858   0.0000190753   0.0007453503   0.0005269618  -0.0002041730
        0.0005994549  -0.0008359388   0.0000882837  -0.0000288413  -0.0001465031
       -0.0000425913   0.0002534457  -0.0000749476   0.0000024123  -0.0004393887
        0.0002194117  -0.0001104615   0.0000572121   0.0002662250  -0.0001327186
       -0.0008833289  -0.0002993671   0.0005590047  -0.0015463257   0.0005820704
        0.0000549585  -0.0006832449   0.0009988450  -0.0017524363   0.0007891844
        0.0024852481  -0.0009692248   0.0068699264  -0.0038833945  -0.0019683328
       -0.0003782502   0.0003912310   0.0002564308   0.0069138148  -0.0036861499
       -0.0022519299   0.0007542653  -0.0001953760   0.0047885340   0.0000555689
       -0.0000339357   0.0000254087  -0.0000432569   0.0000635608   0.0001152792
       -0.0000444247  -0.0000357997   0.0000329537   0.0000237497  -0.0000215920
       -0.0000178971   0.0000116601  -0.0000081149  -0.0000028961   0.0000307458
       -0.0000128953   0.0000219276  -0.0000087743   0.0000066390  -0.0000652498
        0.0000367199   0.0000386373   0.0000566773   0.0000191226   0.0000103649
        0.0000170514  -0.0000515876   0.0000712743   0.0000993228  -0.0002087895
       -0.0000758957   0.0000490854  -0.0000623806   0.0000420151   0.0001611888
       -0.0047733966   0.0013690397   0.0022701736  -0.0106901816  -0.0877276135
       -0.0309740855  -0.0103170828  -0.0188078455  -0.0062341604   0.0994892584
        0.4912615042  -0.1026550075  -0.0391990550  -0.2415234816   0.1316230141
       -0.0246995143  -0.0669696441  -0.0339122786   0.0025199562  -0.0104672728
        0.0286731343   0.0021787566   0.0197383285  -0.0203398274  -0.0101739168
       -0.0796759858   0.0049637029  -0.0018207423   0.0045858835   0.0006156988
        0.0018481655  -0.0031115787   0.0019528323  -0.0031332361   0.0002772253
        0.0021488966   0.0027680557  -0.0005280079  -0.0001722521  -0.0006217136
       -0.0002018798  -0.0004167026  -0.0018344227  -0.0008502595   0.0001006008
        0.0003423184   0.0014048663  -0.0001688738  -0.0006495222  -0.0007456476
        0.0005373526   0.0015370569   0.0009920257  -0.0002071015   0.0003315606
       -0.0024813665   0.0001910766   0.0014239962   0.0039477793  -0.0011286402
       -0.0005722343  -0.0040774150   0.0008344755   0.0013051870   0.0018917759
       -0.0006198338   0.0007273623  -0.0016313868   0.0001717620  -0.0001937119
        0.0010252815  -0.0001381938  -0.0003542977  -0.0013831747   0.0002134833
       -0.0008776357   0.0017747442  -0.0003591469  -0.0022036833   0.0018941910
       -0.0008774857   0.0019994450  -0.0001464562  -0.0029156925  -0.0000355516
       -0.0021238290   0.0043575661  -0.0037561972  -0.0028316823  -0.0027573217
        0.0001431825   0.0008238632   0.0010083236  -0.0031224565  -0.0027770889
       -0.0026215138   0.0019581729  -0.0032711204   0.0258484526   0.0001241755
        0.0000209629   0.0000452105  -0.0000788068   0.0001634924   0.0002321727
       -0.0002634098  -0.0002771453   0.0000191926   0.0001832011  -0.0000807286
       -0.0000689088  -0.0000272382  -0.0000205715  -0.0000426788   0.0001486161
       -0.0000318044   0.0001731266  -0.0000593032   0.0001320087  -0.0000968843
        0.0000664468   0.0001354283   0.0000611491   0.0000802998   0.0000194524
        0.0000292341  -0.0001887150   0.0003423413   0.0000671561   0.0000078903
        0.0000655739   0.0003145762   0.0004629213  -0.0001227816   0.0002542262
       -0.0087456759  -0.0156269405  -0.0175677660  -0.0068330397  -0.0311834921
       -0.0593150370  -0.0001085264   0.0122865887   0.0033456117   0.0396952754
       -0.1026550075   0.6030170503   0.0093656540   0.0837668488  -0.1475487821
        0.0122852685   0.0220595708   0.0467463597   0.0037046038   0.0283595049
       -0.0380811861  -0.0280627688  -0.0763591186  -0.0424887971  -0.0209786774
        0.0531682833  -0.3137859509  -0.0016289436   0.0014860059   0.0021980181
        0.0011708904  -0.0022446479   0.0013897051  -0.0015743223   0.0003109701
        0.0008726733   0.0016186436  -0.0008933943   0.0007644944  -0.0002861349
       -0.0001431860  -0.0002857825  -0.0010382324  -0.0004617593  -0.0000135341
        0.0002533351   0.0007802543  -0.0000942025  -0.0003905440  -0.0003464252
        0.0003156556   0.0009385753   0.0006173059  -0.0001052043   0.0001403417
       -0.0014714114   0.0001100557   0.0008043686   0.0022658521  -0.0006631133
       -0.0003426295  -0.0023211508   0.0004725628   0.0007150823   0.0011238494
       -0.0003715983   0.0004326857  -0.0009897092   0.0001027511  -0.0001750963
        0.0005239389  -0.0000579642  -0.0001428209  -0.0007714292   0.0000988082
       -0.0004733136   0.0009866594  -0.0001877382  -0.0018099040   0.0015660342
       -0.0006953685   0.0012627913  -0.0002349036  -0.0019290308   0.0041611143
        0.0252364165  -0.0183462559  -0.0013523522  -0.0026784679  -0.0005068423
        0.0001236287   0.0010619055  -0.0002235654  -0.0024028695  -0.0026586569
       -0.0005146057  -0.0005511043   0.0050822067  -0.0170625205   0.0001311721
        0.0000331238  -0.0001044139   0.0000357345   0.0000746793   0.0001415434
       -0.0001840458  -0.0001734975   0.0000054819   0.0001116437  -0.0000490000
       -0.0000411622  -0.0000127645  -0.0000135223  -0.0000282878   0.0000901965
       -0.0000199662   0.0001019642  -0.0000294770   0.0000849209  -0.0000567564
        0.0000376166   0.0000810890   0.0000362094   0.0000447051   0.0000169034
        0.0000156793  -0.0001192399   0.0002161732   0.0000325737  -0.0000803577
        0.0000772501   0.0002362739   0.0001995131   0.0000293514   0.0000719942
        0.0012038317   0.0003111417   0.0008016425  -0.0058386772  -0.0083258011
        0.0006190197   0.0007386899  -0.0010124457  -0.0005322704  -0.0541786345
       -0.0391990550   0.0093656540   0.1619644144   0.1392277008   0.0685844846
       -0.0733012715  -0.0768409864  -0.0328769259  -0.0006883479   0.0047674846
       -0.0271093742  -0.0095742582  -0.0147011475   0.0008837640   0.0049956193
        0.0078448277   0.0167171768   0.0004555422  -0.0014843259  -0.0003989220
       -0.0004225054   0.0010039643  -0.0005341396   0.0006775495  -0.0002097974
       -0.0001003695  -0.0003146747   0.0002898439  -0.0002780925   0.0001448453
        0.0000080395   0.0000992715   0.0000097710   0.0001654341   0.0000233208
       -0.0001327427  -0.0000385061   0.0000093921   0.0000861877  -0.0001184175
       -0.0000360873  -0.0002684123  -0.0002334389   0.0000254085   0.0000977619
        0.0004298015  -0.0000296499  -0.0000239486  -0.0003596433   0.0001004450
        0.0001679696   0.0003123249  -0.0000727090  -0.0000971891  -0.0004211080
        0.0000822505  -0.0001260584   0.0003696458  -0.0000386872   0.0001344303
        0.0000495491  -0.0000529551  -0.0001180624   0.0000947732   0.0000127979
       -0.0001660818  -0.0002264512   0.0001290868   0.0005301773  -0.0004266168
        0.0002810603  -0.0002355945   0.0002894614   0.0004548835  -0.0376602814
       -0.0017808519  -0.0299994051  -0.0014703367  -0.0060930934  -0.0027003524
        0.0068298589  -0.0017157716  -0.0016425274  -0.0002516113  -0.0000907311
        0.0000763540   0.0068664523  -0.0016403814  -0.0017836280   0.0000138051
       -0.0000426643   0.0000915008  -0.0000048074  -0.0000766449  -0.0000642429
        0.0000491607   0.0000432467  -0.0000090760  -0.0000260791   0.0000163582
        0.0000068236  -0.0000032694   0.0000065563   0.0000015434  -0.0000319745
        0.0000072704  -0.0000153811   0.0000024940  -0.0000242288   0.0000033866
       -0.0000142958  -0.0000226101  -0.0000016277  -0.0000119231  -0.0000088952
       -0.0000023506   0.0000298335  -0.0000487800   0.0000028733   0.0000093833
       -0.0000750375  -0.0001008700  -0.0000467402  -0.0000199931   0.0000075038
        0.0008022198  -0.0002813605   0.0027135928  -0.0132847218  -0.0236335523
       -0.0026309847   0.0000623212  -0.0046357780  -0.0008263901  -0.0423067878
       -0.2415234816   0.0837668488   0.1392277008   0.5896519971  -0.0063551361
       -0.0657340542  -0.2421928267  -0.0576247438  -0.0032528444   0.0249295887
       -0.0772143038  -0.0140925879  -0.0514841384  -0.0017278983   0.0145634069
        0.0157554085   0.0669554148   0.0002613894  -0.0013451311  -0.0003703859
       -0.0015101300  -0.0003859335  -0.0009978211   0.0015164262   0.0008618212
       -0.0014158465  -0.0034834214   0.0009263698   0.0002401910   0.0013297111
       -0.0002598321  -0.0000927851   0.0025932289   0.0013148424  -0.0006362155
        0.0003491676  -0.0023918346   0.0002857873   0.0003725468   0.0020910492
       -0.0005810981  -0.0011367318  -0.0005395897   0.0001629721  -0.0011657764
        0.0022036643  -0.0001452194  -0.0019647806  -0.0048192534   0.0013065298
        0.0002135700   0.0052037522  -0.0010352770  -0.0018554880  -0.0010961610
        0.0006438714  -0.0005547667   0.0008249502  -0.0001320962  -0.0006632245
       -0.0021004587   0.0006304373   0.0015943435   0.0018554340  -0.0004446075
        0.0018446547  -0.0022636790   0.0002092401   0.0017763236  -0.0018115165
        0.0008898391  -0.0016280913  -0.0010473046   0.0005509151  -0.0018490360
       -0.0416110059   0.0060764339  -0.0090137967  -0.0245049625  -0.0115153374