 Entering Gaussian System
 *********************************************
 Gaussian 98:
 frequency output generated by the xtb code
 *********************************************
                         Standard orientation:
 --------------------------------------------------------------------
  Center     Atomic     Atomic              Coordinates (Angstroms)
  Number     Number      Type              X           Y           Z
 --------------------------------------------------------------------
    1         35             0        4.857252   -1.511212    1.172734
    2          6             0        5.105215   -1.986214   -0.704410
    3          6             0        3.778890   -2.326034   -1.358607
    4          6             0        3.157270   -3.598015   -0.783830
    5          6             0        1.738529   -3.872902   -1.287739
    6          6             0        0.731412   -2.752408   -1.018372
    7          6             0        0.575596   -2.415328    0.464459
    8          6             0       -0.209944   -1.105326    0.693398
    9          6             0       -0.296625   -0.845013    2.212658
   10          6             0       -1.265847    0.262855    2.628640
   11          6             0       -0.813990    1.658473    2.208643
   12          6             0       -1.730376    2.777648    2.703634
   13          6             0       -3.186286    2.670940    2.242344
   14          6             0       -3.362598    2.437142    0.753520
   15         35             0       -2.453758    3.781878   -0.328750
   16          6             0        0.460885    0.017773   -0.061278
   17          6             0        1.720113    0.502820    0.077189
   18          6             0        2.141302    1.526798   -0.799861
   19         35             0        3.924807    2.146185   -0.692417
   20          6             0        1.281128    2.071178   -1.782705
   21          6             0        0.015685    1.598011   -1.932495
   22          6             0       -0.434298    0.532696   -1.086572
   23          6             0       -1.630338   -0.157597   -1.030674
   24          6             0       -2.833491   -0.036562   -1.800855
   25          6             0       -3.887690   -0.847426   -1.515206
   26          6             0       -3.798185   -1.801626   -0.476609
   27         35             0       -5.291981   -2.907866   -0.110943
   28          6             0       -2.624191   -1.953557    0.296964
   29          6             0       -1.564782   -1.150737    0.027916
   30          1             0        5.572973   -1.118266   -1.167517
   31          1             0        5.794512   -2.829979   -0.712682
   32          1             0        3.098736   -1.482953   -1.227019
   33          1             0        3.952573   -2.451151   -2.431081
   34          1             0        3.144439   -3.532157    0.305588
   35          1             0        3.787548   -4.452062   -1.046592
   36          1             0        1.383506   -4.791319   -0.814721
   37          1             0        1.771898   -4.049176   -2.365682
   38          1             0       -0.238691   -3.056841   -1.419373
   39          1             0        1.030158   -1.857291   -1.567050
   40          1             0        0.067265   -3.237337    0.971745
   41          1             0        1.553660   -2.288377    0.927517
   42          1             0       -0.614541   -1.772481    2.694342
   43          1             0        0.704294   -0.608743    2.578593
   44          1             0       -2.250941    0.043077    2.211925
   45          1             0       -1.358427    0.239702    3.717743
   46          1             0       -0.737354    1.714290    1.123025
   47          1             0        0.187840    1.838872    2.605798
   48          1             0       -1.320003    3.728665    2.355162
   49          1             0       -1.723123    2.798482    3.795773
   50          1             0       -3.705863    3.589329    2.528438
   51          1             0       -3.680380    1.841247    2.755225
   52          1             0       -2.950240    1.481027    0.436284
   53          1             0       -4.413630    2.488411    0.470547
   54          1             0        2.398786    0.132682    0.830319
   55          1             0        1.648268    2.869321   -2.409231
   56          1             0       -0.649989    2.015604   -2.669829
   57          1             0       -2.890367    0.697599   -2.588763
   58          1             0       -4.807555   -0.776822   -2.075788
   59          1             0       -2.595509   -2.696709    1.079162
 --------------------------------------------------------------------
     1 basis functions        1 primitive gaussians
     1 alpha electrons        1 beta electrons
 
 Harmonic frequencies (cm**-1), IR intensities (km*mol⁻¹),
 Raman scattering activities (A**4/amu), Raman depolarization ratios,
 reduced masses (AMU), force constants (mDyne/A) and normal coordinates:
                      1                      2                      3
                        a                      a                      a 
 Frequencies --     9.2229                13.0851                19.9675
 Red. masses --    66.4141                60.1546                64.8244
 Frc consts  --     0.0000                 0.0000                 0.0000
 IR Inten    --     0.3918                 0.2428                 0.2001
 Raman Activ --     0.0000                 0.0000                 0.0000
 Depolar     --     0.0000                 0.0000                 0.0000
 Atom AN      X      Y      Z        X      Y      Z        X      Y      Z
   1  35     0.08  -0.13  -0.00    -0.37  -0.34   0.47    -0.18   0.03   0.04
   2   6     0.03  -0.05  -0.00     0.03  -0.08   0.19    -0.02   0.10  -0.00
   3   6     0.02  -0.02  -0.01     0.08  -0.03   0.05     0.00   0.09  -0.04
   4   6    -0.00  -0.01  -0.01     0.01  -0.05  -0.06     0.03   0.04  -0.11
   5   6    -0.00   0.02  -0.02     0.02   0.04  -0.13     0.04   0.03  -0.13
   6   6     0.02   0.03  -0.01     0.06   0.06  -0.11     0.02   0.00  -0.09
   7   6     0.02   0.03  -0.01     0.06   0.03  -0.10     0.02  -0.03  -0.08
   8   6     0.04   0.04  -0.00     0.05   0.02  -0.07     0.01  -0.04  -0.05
   9   6     0.06   0.03   0.00     0.09   0.01  -0.07     0.03  -0.07  -0.04
  10   6     0.05   0.02   0.02     0.09  -0.01  -0.03     0.04  -0.08  -0.01
  11   6    -0.01   0.02  -0.04     0.07   0.00  -0.03     0.03  -0.08   0.00
  12   6    -0.02   0.01  -0.03     0.07  -0.01   0.02     0.02  -0.08  -0.01
  13   6    -0.05  -0.06   0.06     0.06  -0.02   0.06     0.03  -0.08  -0.06
  14   6    -0.13  -0.14   0.08     0.02  -0.00   0.06     0.07  -0.11  -0.06
  15  35    -0.63  -0.42  -0.09    -0.07   0.07   0.14     0.37  -0.41  -0.15
  16   6     0.06   0.03   0.00     0.02   0.04  -0.08     0.01  -0.03  -0.04
  17   6     0.06   0.02   0.01     0.02   0.05  -0.10    -0.01   0.01  -0.00
  18   6     0.08   0.01   0.01    -0.01   0.07  -0.10    -0.02   0.03   0.01
  19  35     0.24  -0.05   0.02    -0.05   0.22  -0.36    -0.16   0.32   0.26
  20   6     0.09   0.02   0.00    -0.05   0.07  -0.07    -0.00  -0.02  -0.03
  21   6     0.09   0.04  -0.00    -0.05   0.06  -0.05     0.02  -0.07  -0.07
  22   6     0.07   0.04  -0.00    -0.01   0.04  -0.05     0.02  -0.06  -0.07
  23   6     0.06   0.06  -0.01    -0.00   0.03  -0.03     0.02  -0.06  -0.06
  24   6     0.07   0.07  -0.01    -0.02   0.03   0.01     0.02  -0.07  -0.07
  25   6     0.05   0.10  -0.01    -0.01   0.01   0.02     0.00  -0.03  -0.02
  26   6     0.03   0.11   0.00     0.03  -0.01   0.01    -0.02   0.02   0.02
  27  35     0.00   0.38   0.05     0.16  -0.10   0.07    -0.18   0.31   0.31
  28   6     0.02   0.09   0.01     0.06  -0.00  -0.03    -0.01   0.01   0.01
  29   6     0.04   0.06  -0.00     0.04   0.02  -0.04     0.01  -0.03  -0.04
  30   1     0.01  -0.02   0.00     0.02  -0.02   0.07    -0.01   0.04   0.01
  31   1     0.00  -0.02  -0.00     0.00  -0.03   0.07     0.00   0.04  -0.01
  32   1     0.01  -0.00  -0.00     0.02  -0.01   0.01    -0.01   0.02  -0.00
  33   1     0.01  -0.00  -0.00     0.05   0.00   0.02     0.01   0.04  -0.01
  34   1     0.00  -0.01  -0.00    -0.01  -0.03  -0.02     0.01  -0.00  -0.03
  35   1    -0.00  -0.01  -0.01    -0.00  -0.02  -0.03     0.02   0.02  -0.04
  36   1    -0.01   0.01  -0.01    -0.01   0.01  -0.06     0.02   0.00  -0.05
  37   1    -0.00   0.01  -0.01     0.02   0.03  -0.04     0.01   0.02  -0.04
  38   1     0.00   0.02  -0.00     0.01   0.03  -0.04     0.01  -0.00  -0.03
  39   1     0.01   0.01  -0.00     0.02   0.02  -0.03    -0.00   0.01  -0.02
  40   1     0.00   0.01  -0.00     0.02   0.01  -0.03     0.01  -0.01  -0.03
  41   1     0.01   0.00  -0.00     0.02   0.01  -0.03     0.01  -0.01  -0.02
  42   1     0.02   0.01   0.00     0.03  -0.00  -0.02     0.01  -0.02  -0.02
  43   1     0.02   0.01  -0.00     0.03   0.00  -0.03     0.01  -0.02  -0.01
  44   1     0.01  -0.01   0.02     0.02  -0.00  -0.00     0.01  -0.02   0.00
  45   1     0.03   0.01   0.01     0.03  -0.01  -0.01     0.02  -0.03  -0.00
  46   1    -0.02  -0.00  -0.01     0.01   0.00  -0.01     0.01  -0.02   0.00
  47   1     0.00   0.02  -0.02     0.02   0.00  -0.01     0.01  -0.02   0.01
  48   1    -0.02   0.00  -0.03     0.02  -0.00   0.00     0.01  -0.02   0.00
  49   1     0.01   0.01  -0.01     0.03  -0.01   0.00    -0.00  -0.03  -0.00
  50   1    -0.02  -0.02   0.01     0.02  -0.01   0.02     0.01  -0.02  -0.03
  51   1     0.00  -0.02   0.04     0.02  -0.01   0.02     0.00  -0.02  -0.02
  52   1    -0.03  -0.04   0.03     0.01   0.00   0.01     0.02  -0.04  -0.01
  53   1    -0.04  -0.06   0.04     0.00  -0.00   0.03     0.02  -0.02  -0.03
  54   1     0.02   0.00   0.00     0.01   0.02  -0.04    -0.01   0.01   0.01
  55   1     0.03   0.00   0.00    -0.02   0.02  -0.02    -0.00  -0.01  -0.01
  56   1     0.03   0.01   0.00    -0.02   0.02  -0.01     0.01  -0.03  -0.03
  57   1     0.02   0.02  -0.00    -0.02   0.01   0.01     0.01  -0.03  -0.03
  58   1     0.02   0.03  -0.00    -0.01   0.00   0.01    -0.00  -0.01  -0.01
  59   1     0.00   0.03   0.00     0.02  -0.00  -0.01    -0.01   0.01   0.01
                      4                      5                      6
                        a                      a                      a 
 Frequencies --    22.2626                30.3120                37.6751
 Red. masses --    59.6283                52.1219                59.6504
 Frc consts  --     0.0000                 0.0000                 0.0000
 IR Inten    --     0.1955                 1.7877                 2.6514
 Raman Activ --     0.0000                 0.0000                 0.0000
 Depolar     --     0.0000                 0.0000                 0.0000
 Atom AN      X      Y      Z        X      Y      Z        X      Y      Z
   1  35    -0.08   0.42   0.24    -0.37   0.07  -0.09     0.57  -0.26   0.14
   2   6     0.01   0.25   0.07    -0.15   0.06  -0.05     0.09  -0.06   0.03
   3   6     0.03   0.20   0.05    -0.15   0.06  -0.04     0.04   0.04   0.08
   4   6     0.09   0.15  -0.00    -0.13   0.04  -0.05    -0.01   0.06   0.07
   5   6     0.12   0.08  -0.05    -0.15   0.06   0.00    -0.00   0.09   0.03
   6   6     0.04   0.01  -0.05    -0.12   0.07   0.06     0.01   0.11   0.00
   7   6    -0.02  -0.03  -0.05    -0.04   0.08   0.06    -0.05   0.08   0.00
   8   6    -0.02  -0.04  -0.03    -0.01   0.09   0.09    -0.06   0.07   0.01
   9   6    -0.02  -0.07  -0.03     0.02   0.09   0.09    -0.07   0.04   0.02
  10   6    -0.01  -0.08   0.00     0.04   0.10   0.11    -0.09   0.02   0.04
  11   6    -0.01  -0.07   0.04     0.05   0.09   0.08    -0.09   0.03   0.08
  12   6     0.00  -0.08   0.06     0.07   0.11   0.05    -0.13   0.01   0.07
  13   6    -0.00  -0.06   0.06     0.06   0.11   0.08    -0.11   0.01   0.00
  14   6     0.00  -0.04   0.05     0.03  -0.02   0.10    -0.04  -0.03   0.00
  15  35     0.07  -0.09   0.20     0.22  -0.45  -0.10     0.27  -0.32   0.01
  16   6    -0.02  -0.03  -0.02    -0.01   0.08   0.07    -0.07   0.08   0.02
  17   6    -0.01  -0.05  -0.03     0.00   0.06   0.05    -0.06   0.06  -0.01
  18   6     0.01  -0.08  -0.05     0.02   0.03   0.02    -0.07   0.06  -0.03
  19  35     0.15  -0.49  -0.33     0.11  -0.06  -0.06    -0.15   0.07  -0.26
  20   6     0.02  -0.06  -0.04     0.03   0.01   0.01    -0.09   0.07  -0.00
  21   6    -0.00  -0.02  -0.02     0.02   0.04   0.03    -0.10   0.08   0.02
  22   6    -0.01  -0.01  -0.02     0.00   0.07   0.06    -0.08   0.08   0.03
  23   6    -0.02  -0.01  -0.02    -0.01   0.09   0.08    -0.08   0.07   0.02
  24   6    -0.02   0.02  -0.02     0.00   0.07   0.06    -0.07   0.07   0.02
  25   6    -0.03   0.03  -0.02     0.02   0.03   0.03    -0.06   0.05   0.00
  26   6    -0.04   0.02  -0.02     0.02   0.03   0.02    -0.05   0.03  -0.01
  27  35    -0.16   0.15  -0.04     0.22  -0.24  -0.24    -0.11   0.01  -0.11
  28   6    -0.04  -0.00  -0.03     0.00   0.07   0.06    -0.06   0.04  -0.01
  29   6    -0.03  -0.02  -0.03    -0.01   0.10   0.09    -0.06   0.06   0.01
  30   1    -0.01   0.09   0.03    -0.05   0.02  -0.01     0.04  -0.02   0.01
  31   1     0.02   0.08   0.01    -0.04   0.02  -0.02     0.01  -0.03  -0.01
  32   1    -0.00   0.05   0.02    -0.05   0.01  -0.01     0.03   0.02   0.04
  33   1     0.02   0.07   0.01    -0.05   0.02  -0.01    -0.00   0.01   0.02
  34   1     0.02   0.03  -0.00    -0.02   0.00  -0.01    -0.01   0.02   0.02
  35   1     0.04   0.05  -0.00    -0.04   0.01  -0.03    -0.01   0.01   0.03
  36   1     0.05   0.01  -0.02    -0.04   0.02   0.00    -0.01   0.03   0.00
  37   1     0.05   0.03  -0.01    -0.06   0.02   0.00     0.01   0.03   0.01
  38   1     0.02  -0.01  -0.03    -0.04   0.02   0.03     0.01   0.04  -0.01
  39   1     0.00   0.01  -0.01    -0.04   0.02   0.01     0.02   0.03   0.01
  40   1    -0.01  -0.01  -0.03    -0.01   0.03   0.03    -0.02   0.02  -0.01
  41   1    -0.01  -0.01  -0.00    -0.00   0.02   0.00    -0.02   0.02   0.01
  42   1    -0.01  -0.02  -0.01     0.00   0.03   0.03    -0.01   0.01  -0.00
  43   1    -0.01  -0.02  -0.01     0.01   0.02   0.02    -0.02   0.02   0.01
  44   1    -0.00  -0.02   0.00     0.01   0.03   0.04    -0.02   0.00   0.01
  45   1    -0.00  -0.03   0.00     0.02   0.03   0.03    -0.03  -0.00   0.01
  46   1    -0.00  -0.01   0.01     0.01   0.02   0.02    -0.01   0.01   0.03
  47   1    -0.00  -0.02   0.01     0.02   0.03   0.02    -0.03   0.01   0.04
  48   1     0.00  -0.02   0.02     0.02   0.03   0.00    -0.03   0.01   0.03
  49   1     0.00  -0.03   0.02     0.02   0.05   0.01    -0.05  -0.00   0.02
  50   1     0.00  -0.02   0.02     0.02   0.04   0.00    -0.03   0.01  -0.01
  51   1    -0.00  -0.02   0.01     0.01   0.05   0.05    -0.04   0.01   0.00
  52   1    -0.00  -0.01   0.01    -0.01  -0.02   0.05    -0.02  -0.02   0.02
  53   1     0.00  -0.01   0.01     0.01   0.00   0.03    -0.01   0.01  -0.02
  54   1    -0.00  -0.02  -0.01    -0.00   0.02   0.02    -0.01   0.01  -0.01
  55   1     0.01  -0.02  -0.01     0.01  -0.00  -0.01    -0.03   0.02  -0.00
  56   1    -0.00  -0.00  -0.00     0.01   0.01   0.00    -0.03   0.02   0.01
  57   1    -0.00   0.01  -0.00    -0.00   0.02   0.02    -0.02   0.02   0.01
  58   1    -0.01   0.01  -0.00     0.01   0.00   0.00    -0.02   0.01   0.00
  59   1    -0.01  -0.00  -0.01     0.00   0.02   0.02    -0.01   0.01  -0.01
                      7                      8                      9
                        a                      a                      a 
 Frequencies --    39.6674                41.1501                57.5655
 Red. masses --    25.6658                32.7268                26.7847
 Frc consts  --     0.0000                 0.0000                 0.0000
 IR Inten    --     1.3386                 4.4779                 0.4523
 Raman Activ --     0.0000                 0.0000                 0.0000
 Depolar     --     0.0000                 0.0000                 0.0000
 Atom AN      X      Y      Z        X      Y      Z        X      Y      Z
   1  35    -0.10  -0.23  -0.02    -0.23   0.33  -0.19     0.11  -0.07   0.05
   2   6    -0.08   0.12  -0.07     0.12  -0.34   0.08    -0.14   0.10  -0.04
   3   6    -0.09   0.14  -0.05     0.16  -0.34  -0.01    -0.20   0.06   0.09
   4   6    -0.04   0.08  -0.14    -0.01  -0.19   0.14    -0.07  -0.00   0.09
   5   6    -0.06   0.10  -0.08    -0.02  -0.08   0.11    -0.07  -0.10   0.15
   6   6    -0.05   0.09   0.01     0.07   0.02   0.03    -0.10  -0.11   0.09
   7   6     0.05   0.08   0.02     0.03   0.04   0.02    -0.03   0.01   0.07
   8   6     0.03   0.06   0.06     0.01   0.04  -0.00    -0.00   0.04   0.02
   9   6     0.00   0.04   0.06    -0.00   0.02   0.00     0.03   0.06   0.02
  10   6    -0.09  -0.04   0.06    -0.06  -0.04   0.03     0.03   0.05   0.04
  11   6    -0.19  -0.00   0.11    -0.10  -0.01   0.09     0.01   0.05   0.03
  12   6    -0.35  -0.09   0.02    -0.18  -0.08   0.09     0.00   0.03   0.07
  13   6    -0.27  -0.18  -0.19    -0.15  -0.12  -0.01    -0.00  -0.01   0.10
  14   6    -0.04  -0.08  -0.23    -0.03  -0.07  -0.03    -0.02  -0.01   0.10
  15  35     0.05   0.19  -0.00     0.16  -0.11   0.23    -0.02   0.01   0.34
  16   6     0.02   0.07   0.07     0.01   0.04   0.00     0.02  -0.01  -0.03
  17   6     0.02   0.07   0.07     0.01   0.05  -0.01     0.01   0.03  -0.02
  18   6     0.04   0.03   0.03     0.01   0.03  -0.02     0.03  -0.04  -0.11
  19  35     0.18  -0.12  -0.09     0.04   0.07  -0.14    -0.05   0.23  -0.11
  20   6     0.05   0.00   0.00     0.01   0.03  -0.03     0.08  -0.18  -0.23
  21   6     0.05   0.00   0.01     0.01   0.02  -0.02     0.10  -0.22  -0.24
  22   6     0.04   0.03   0.03     0.02   0.03  -0.01     0.07  -0.11  -0.12
  23   6     0.05  -0.01   0.01     0.03   0.01  -0.03     0.06  -0.09  -0.10
  24   6     0.08  -0.08  -0.05     0.04  -0.00  -0.05     0.12  -0.17  -0.19
  25   6     0.08  -0.08  -0.03     0.04   0.00  -0.05     0.10  -0.13  -0.17
  26   6     0.06  -0.02   0.03     0.02   0.02  -0.03     0.03  -0.01  -0.06
  27  35     0.17  -0.00   0.20     0.02   0.13  -0.03    -0.02   0.10  -0.15
  28   6     0.05   0.03   0.06     0.02   0.03  -0.02    -0.02   0.06   0.04
  29   6     0.04   0.03   0.05     0.02   0.02  -0.02     0.00   0.02   0.01
  30   1    -0.04   0.05   0.00     0.08  -0.15  -0.02    -0.07   0.04  -0.01
  31   1    -0.01   0.04  -0.05     0.01  -0.12   0.11    -0.03   0.04  -0.05
  32   1    -0.03   0.03   0.01     0.06  -0.07  -0.07    -0.07   0.00   0.06
  33   1    -0.03   0.07  -0.02     0.08  -0.16   0.01    -0.09   0.03   0.02
  34   1     0.00  -0.00  -0.04    -0.02  -0.01   0.04    -0.01  -0.01   0.03
  35   1    -0.01   0.03  -0.07    -0.03  -0.09   0.09    -0.00   0.01   0.01
  36   1    -0.01   0.02  -0.03    -0.04  -0.01   0.04    -0.01  -0.02   0.07
  37   1    -0.03   0.04  -0.03    -0.00  -0.04   0.04    -0.03  -0.05   0.05
  38   1    -0.02   0.03   0.02     0.02   0.03  -0.00    -0.03  -0.05   0.05
  39   1    -0.02   0.03   0.00     0.05  -0.00   0.01    -0.05  -0.04  -0.00
  40   1     0.03   0.02   0.01     0.01   0.01   0.00    -0.00   0.02   0.05
  41   1     0.02   0.03  -0.01     0.01   0.02   0.01    -0.00   0.01   0.01
  42   1     0.02   0.00   0.02     0.01  -0.00  -0.00     0.01   0.02   0.01
  43   1    -0.00   0.03   0.02    -0.00   0.02   0.00     0.01   0.02  -0.00
  44   1    -0.02  -0.03   0.01    -0.01  -0.02  -0.00     0.01   0.01   0.01
  45   1    -0.04  -0.02   0.02    -0.02  -0.03   0.01     0.01   0.01   0.01
  46   1    -0.02   0.00   0.03    -0.01   0.01   0.03    -0.00   0.02   0.01
  47   1    -0.07   0.03   0.06    -0.04   0.01   0.04     0.01   0.02   0.00
  48   1    -0.11  -0.01   0.04    -0.06  -0.01   0.05    -0.01   0.01   0.02
  49   1    -0.15  -0.04   0.01    -0.07  -0.04   0.03     0.01   0.00   0.02
  50   1    -0.11  -0.07  -0.06    -0.06  -0.04  -0.00    -0.01  -0.01   0.03
  51   1    -0.08  -0.08  -0.09    -0.04  -0.05  -0.02     0.01  -0.01   0.03
  52   1     0.02  -0.01  -0.07    -0.00  -0.02  -0.01    -0.01  -0.00   0.03
  53   1     0.00  -0.04  -0.11    -0.00  -0.02  -0.03    -0.00  -0.00   0.03
  54   1     0.00   0.03   0.03     0.00   0.02  -0.00    -0.00   0.04   0.01
  55   1     0.02  -0.01  -0.01     0.00   0.01  -0.01     0.03  -0.07  -0.09
  56   1     0.02  -0.00  -0.00     0.00   0.00  -0.01     0.04  -0.09  -0.09
  57   1     0.03  -0.04  -0.03     0.01  -0.01  -0.02     0.05  -0.07  -0.08
  58   1     0.03  -0.04  -0.02     0.01  -0.00  -0.02     0.04  -0.06  -0.07
  59   1     0.01   0.02   0.03     0.00   0.01  -0.00    -0.02   0.04   0.03
                     10                     11                     12
                        a                      a                      a 
 Frequencies --    69.7101                80.8186                83.1477
 Red. masses --    16.8777                25.1137                18.2390
 Frc consts  --     0.0000                 0.0000                 0.0000
 IR Inten    --     1.8992                 2.2272                 2.5054
 Raman Activ --     0.0000                 0.0000                 0.0000
 Depolar     --     0.0000                 0.0000                 0.0000
 Atom AN      X      Y      Z        X      Y      Z        X      Y      Z
   1  35    -0.03  -0.01   0.03    -0.02  -0.01  -0.01    -0.08  -0.10  -0.05
   2   6    -0.18   0.18  -0.06    -0.00  -0.01  -0.00    -0.01   0.07  -0.04
   3   6    -0.20   0.02   0.08    -0.00  -0.01  -0.00     0.01   0.01  -0.03
   4   6     0.02  -0.08   0.09    -0.00  -0.01   0.00     0.06  -0.00  -0.01
   5   6     0.02  -0.27   0.19    -0.01   0.01   0.03     0.04  -0.04   0.06
   6   6    -0.05  -0.31   0.09     0.00   0.01   0.06     0.05  -0.03   0.05
   7   6     0.05  -0.11   0.06     0.03  -0.01   0.07     0.09   0.04   0.04
   8   6     0.07  -0.08  -0.05     0.01  -0.02   0.10     0.00   0.00  -0.04
   9   6     0.06  -0.02  -0.05     0.03  -0.07   0.11    -0.14   0.04  -0.05
  10   6     0.00  -0.06  -0.08     0.09  -0.03   0.15    -0.17   0.06  -0.16
  11   6    -0.04  -0.04  -0.05     0.17  -0.04   0.19    -0.11   0.04  -0.15
  12   6    -0.08  -0.08  -0.03     0.13  -0.01   0.05     0.02   0.09  -0.02
  13   6    -0.07  -0.11  -0.06     0.17  -0.08  -0.04    -0.03   0.22   0.12
  14   6    -0.03  -0.04  -0.08     0.25  -0.16  -0.04    -0.19   0.19   0.14
  15  35     0.08  -0.05   0.00    -0.12   0.08  -0.15     0.09  -0.13   0.10
  16   6     0.08  -0.08  -0.05    -0.00   0.01   0.13    -0.01   0.04   0.00
  17   6     0.09  -0.08  -0.08    -0.00   0.03   0.10    -0.02   0.05   0.03
  18   6     0.02   0.02   0.00    -0.06   0.07   0.11    -0.03   0.10   0.08
  19  35     0.03   0.19  -0.18    -0.09   0.05  -0.25     0.05  -0.11  -0.03
  20   6    -0.05   0.14   0.13    -0.12   0.14   0.20    -0.07   0.19   0.16
  21   6    -0.05   0.13   0.15    -0.10   0.09   0.20    -0.06   0.16   0.12
  22   6     0.03   0.03   0.06    -0.01   0.00   0.13    -0.01   0.05   0.01
  23   6     0.02   0.05   0.07     0.04  -0.09   0.05     0.04  -0.06  -0.10
  24   6    -0.03   0.18   0.16     0.14  -0.18  -0.11     0.08  -0.16  -0.18
  25   6    -0.03   0.17   0.14     0.13  -0.19  -0.16     0.10  -0.20  -0.20
  26   6     0.03   0.04   0.01     0.04  -0.08  -0.05     0.08  -0.14  -0.15
  27  35     0.04   0.12  -0.09    -0.19   0.17  -0.17     0.04   0.08   0.20
  28   6     0.07  -0.08  -0.07    -0.02  -0.03   0.05     0.07  -0.10  -0.13
  29   6     0.07  -0.06  -0.03     0.01  -0.05   0.08     0.05  -0.07  -0.12
  30   1    -0.11   0.08  -0.01    -0.00  -0.00  -0.00    -0.02   0.04  -0.00
  31   1    -0.01   0.08  -0.06    -0.00  -0.00   0.00     0.01   0.03  -0.02
  32   1    -0.09  -0.02   0.05    -0.00  -0.00  -0.00    -0.01  -0.00  -0.01
  33   1    -0.09   0.02   0.02    -0.00  -0.00  -0.00     0.00   0.00  -0.01
  34   1     0.03  -0.03   0.03     0.01  -0.00   0.00     0.03   0.00  -0.00
  35   1     0.04   0.00   0.01    -0.00  -0.00  -0.00     0.02   0.00  -0.01
  36   1     0.04  -0.07   0.09    -0.00   0.00   0.01     0.02  -0.01   0.03
  37   1    -0.00  -0.11   0.06    -0.01   0.01   0.01     0.00  -0.02   0.02
  38   1    -0.02  -0.13   0.06    -0.00   0.01   0.02     0.01  -0.02   0.03
  39   1    -0.05  -0.11  -0.02    -0.00   0.01   0.02     0.00  -0.02  -0.00
  40   1     0.02  -0.01   0.06     0.02  -0.01   0.02     0.05   0.01   0.03
  41   1     0.02  -0.02  -0.01     0.01   0.00   0.01     0.03   0.04  -0.00
  42   1     0.03  -0.01  -0.01    -0.00  -0.02   0.02    -0.06   0.01  -0.02
  43   1     0.01   0.01  -0.02     0.01  -0.04   0.03    -0.05   0.01   0.01
  44   1     0.01  -0.03  -0.03     0.03   0.01   0.04    -0.04   0.02  -0.07
  45   1    -0.01  -0.02  -0.02     0.02  -0.02   0.04    -0.08   0.02  -0.05
  46   1    -0.01  -0.00  -0.01     0.09  -0.02   0.06    -0.06   0.02  -0.04
  47   1    -0.01  -0.00  -0.01     0.04  -0.02   0.09    -0.02  -0.01  -0.06
  48   1    -0.03  -0.02   0.01     0.04  -0.01  -0.00     0.02   0.02  -0.01
  49   1    -0.03  -0.04  -0.01     0.02   0.02   0.01     0.04   0.02  -0.01
  50   1    -0.03  -0.04  -0.01     0.03  -0.02  -0.03     0.02   0.08   0.04
  51   1    -0.02  -0.04  -0.03     0.05  -0.02  -0.01    -0.02   0.08   0.06
  52   1    -0.01  -0.01  -0.03     0.14  -0.02  -0.00    -0.12   0.03   0.04
  53   1    -0.01  -0.01  -0.03     0.07  -0.12  -0.02    -0.06   0.12   0.06
  54   1     0.04  -0.04  -0.04     0.01   0.01   0.02    -0.00   0.00   0.00
  55   1    -0.03   0.06   0.06    -0.05   0.06   0.07    -0.03   0.08   0.07
  56   1    -0.03   0.06   0.07    -0.04   0.04   0.08    -0.02   0.07   0.05
  57   1    -0.02   0.08   0.08     0.06  -0.08  -0.05     0.03  -0.06  -0.06
  58   1    -0.02   0.08   0.06     0.06  -0.08  -0.08     0.04  -0.07  -0.07
  59   1     0.03  -0.05  -0.04    -0.02   0.00   0.03     0.02  -0.03  -0.03
                     13                     14                     15
                        a                      a                      a 
 Frequencies --    96.3363               115.2579               123.0034
 Red. masses --    27.3272                20.7482                17.0740
 Frc consts  --     0.0000                 0.0000                 0.0000
 IR Inten    --     0.9380                 0.8657                 0.1666
 Raman Activ --     0.0000                 0.0000                 0.0000
 Depolar     --     0.0000                 0.0000                 0.0000
 Atom AN      X      Y      Z        X      Y      Z        X      Y      Z
   1  35    -0.19  -0.19  -0.11    -0.16  -0.24  -0.12    -0.02  -0.02  -0.01
   2   6     0.14   0.11  -0.05     0.09   0.21  -0.09     0.05   0.02  -0.00
   3   6     0.22   0.03  -0.15     0.16  -0.00  -0.11     0.07   0.01  -0.04
   4   6     0.20   0.07  -0.07     0.20   0.09   0.14     0.04   0.04  -0.01
   5   6     0.16   0.07   0.04     0.18  -0.04   0.25     0.04   0.03  -0.02
   6   6     0.16   0.05   0.14     0.14  -0.04   0.08     0.01  -0.00   0.00
   7   6     0.12  -0.02   0.15     0.02   0.07   0.04    -0.07  -0.06   0.01
   8   6     0.04  -0.06   0.13    -0.03   0.07  -0.07     0.03  -0.00   0.01
   9   6    -0.05  -0.01   0.12    -0.00   0.12  -0.07     0.27   0.16  -0.00
  10   6    -0.09  -0.01   0.03     0.03   0.13  -0.03     0.30   0.17   0.02
  11   6    -0.10  -0.03  -0.04     0.11   0.17   0.18     0.03   0.16  -0.31
  12   6    -0.03   0.02  -0.01    -0.02   0.10   0.10    -0.06   0.06  -0.22
  13   6    -0.06   0.12   0.04     0.03  -0.07  -0.02    -0.09  -0.14  -0.08
  14   6    -0.13   0.13   0.04     0.20  -0.18  -0.02    -0.15  -0.01  -0.09
  15  35     0.02   0.00  -0.03    -0.04  -0.02   0.05     0.11  -0.04   0.21
  16   6     0.05  -0.05   0.12    -0.06   0.05  -0.10     0.02  -0.06  -0.06
  17   6     0.04  -0.01   0.10    -0.05   0.02  -0.10     0.02  -0.06  -0.06
  18   6     0.02  -0.07   0.02    -0.03   0.01  -0.08    -0.03   0.01   0.01
  19  35    -0.06   0.17  -0.17    -0.06  -0.15   0.17    -0.05  -0.09   0.07
  20   6     0.03  -0.18  -0.06    -0.02   0.03  -0.08    -0.08   0.11   0.11
  21   6     0.04  -0.19  -0.01    -0.03   0.06  -0.08    -0.07   0.07   0.09
  22   6     0.05  -0.11   0.10    -0.06   0.06  -0.08    -0.01  -0.03  -0.00
  23   6     0.04  -0.07   0.13    -0.06   0.06  -0.07    -0.00  -0.05   0.02
  24   6     0.04   0.03   0.16    -0.09   0.04  -0.04     0.03  -0.12  -0.04
  25   6     0.02   0.06   0.14    -0.07   0.03  -0.03     0.02  -0.09  -0.01
  26   6     0.01  -0.01   0.08    -0.04   0.01  -0.04    -0.04   0.04   0.11
  27  35    -0.18   0.11  -0.23    -0.00  -0.04   0.05    -0.15  -0.04  -0.13
  28   6     0.01  -0.08   0.07    -0.02   0.03  -0.06    -0.08   0.11   0.18
  29   6     0.04  -0.09   0.11    -0.03   0.04  -0.07    -0.03   0.03   0.10
  30   1     0.03   0.06   0.01    -0.03   0.10   0.00     0.02   0.01   0.01
  31   1     0.07   0.05  -0.02     0.08   0.10  -0.05     0.02   0.01   0.00
  32   1     0.05   0.01  -0.08     0.03  -0.00  -0.09     0.02   0.01  -0.03
  33   1     0.09  -0.02  -0.04     0.06  -0.06  -0.02     0.03  -0.01  -0.01
  34   1     0.07   0.03  -0.02     0.06   0.08   0.04     0.01   0.02  -0.00
  35   1     0.05   0.01  -0.02     0.06   0.01   0.08     0.01   0.01   0.01
  36   1     0.06   0.02   0.01     0.07   0.01   0.12     0.02   0.00  -0.01
  37   1     0.02   0.03   0.01     0.04  -0.07   0.08     0.01   0.02  -0.01
  38   1     0.05   0.02   0.03     0.05  -0.03   0.01     0.01   0.00  -0.02
  39   1     0.04   0.02   0.06     0.04  -0.02   0.01     0.01   0.01   0.02
  40   1     0.04  -0.02   0.03     0.00   0.03   0.02    -0.05  -0.01  -0.02
  41   1     0.03   0.01   0.05    -0.00   0.04   0.03    -0.03  -0.05   0.02
  42   1    -0.02  -0.00   0.04    -0.00   0.04  -0.01     0.11   0.06   0.05
  43   1    -0.02   0.00   0.05     0.00   0.03  -0.03     0.09   0.07  -0.06
  44   1    -0.02  -0.01   0.01     0.02   0.06  -0.04     0.06   0.00   0.08
  45   1    -0.03   0.01   0.01    -0.02   0.00  -0.01     0.16   0.10   0.01
  46   1    -0.05  -0.02  -0.01     0.10   0.08   0.06    -0.07   0.01  -0.09
  47   1    -0.02  -0.01  -0.03     0.01   0.04   0.12     0.03   0.11  -0.16
  48   1     0.00  -0.00  -0.01    -0.03   0.04   0.04    -0.06   0.03  -0.08
  49   1     0.00   0.01  -0.00    -0.03   0.03   0.03     0.02   0.02  -0.07
  50   1     0.00   0.04   0.02    -0.03  -0.03  -0.04    -0.06  -0.07   0.01
  51   1    -0.03   0.04   0.01     0.02  -0.02  -0.00     0.02  -0.07  -0.03
  52   1    -0.08   0.02   0.01     0.13  -0.03   0.01    -0.08  -0.01  -0.05
  53   1    -0.04   0.08   0.02     0.06  -0.13  -0.03    -0.04   0.04  -0.03
  54   1     0.01   0.01   0.03    -0.02  -0.00  -0.03     0.01  -0.03  -0.03
  55   1     0.01  -0.07  -0.04    -0.00   0.01  -0.02    -0.04   0.06   0.06
  56   1     0.01  -0.08  -0.02    -0.01   0.02  -0.02    -0.03   0.04   0.05
  57   1     0.02   0.02   0.06    -0.03   0.01  -0.01     0.02  -0.06  -0.04
  58   1     0.00   0.04   0.05    -0.02   0.01  -0.00     0.02  -0.05  -0.03
  59   1    -0.00  -0.03   0.01     0.00   0.01  -0.02    -0.03   0.06   0.08
                     16                     17                     18
                        a                      a                      a 
 Frequencies --   141.9586               154.0914               163.1413
 Red. masses --    16.9292                21.7707                24.9224
 Frc consts  --     0.0000                 0.0000                 0.0000
 IR Inten    --     1.2459                 0.3469                 0.5685
 Raman Activ --     0.0000                 0.0000                 0.0000
 Depolar     --     0.0000                 0.0000                 0.0000
 Atom AN      X      Y      Z        X      Y      Z        X      Y      Z
   1  35     0.06   0.10   0.07     0.04   0.02   0.01     0.00   0.00   0.01
   2   6    -0.02  -0.11   0.05    -0.04  -0.03   0.00    -0.02   0.03  -0.01
   3   6    -0.05   0.03   0.01    -0.07  -0.02   0.05    -0.01  -0.02   0.00
   4   6    -0.05  -0.06  -0.19     0.04  -0.13  -0.08     0.01  -0.02   0.02
   5   6    -0.08   0.05  -0.16    -0.01  -0.08   0.01     0.01  -0.03   0.03
   6   6    -0.04   0.04   0.04     0.07  -0.01   0.01     0.02  -0.01  -0.02
   7   6     0.15   0.04   0.07     0.30   0.17  -0.01     0.06   0.05  -0.03
   8   6     0.06  -0.01   0.02     0.07   0.03  -0.01     0.04   0.04   0.01
   9   6     0.03   0.17  -0.01     0.03  -0.02  -0.00     0.25   0.01   0.04
  10   6     0.00   0.22  -0.16     0.06   0.00  -0.01     0.20  -0.11   0.27
  11   6     0.08   0.26   0.04     0.03  -0.02  -0.10    -0.06  -0.08   0.10
  12   6    -0.07   0.17   0.01     0.05  -0.02  -0.08    -0.07  -0.10   0.15
  13   6    -0.04  -0.03  -0.03     0.04  -0.07  -0.03    -0.06   0.08   0.08
  14   6     0.08  -0.11  -0.03     0.00  -0.03  -0.03    -0.12   0.17   0.06
  15  35    -0.00  -0.05   0.11     0.01   0.00   0.04     0.01   0.05  -0.20
  16   6     0.02  -0.02  -0.01    -0.05   0.11   0.03    -0.03   0.04  -0.02
  17   6     0.05  -0.07  -0.08    -0.17   0.33   0.21     0.01  -0.06  -0.16
  18   6     0.04  -0.09  -0.09    -0.19   0.27   0.14    -0.03  -0.08  -0.20
  19  35     0.02  -0.00   0.07    -0.23  -0.29   0.05    -0.26  -0.17   0.15
  20   6     0.02  -0.09  -0.07    -0.09   0.07  -0.05    -0.05  -0.05  -0.16
  21   6    -0.02  -0.02   0.02    -0.02  -0.10  -0.16    -0.10   0.05  -0.01
  22   6    -0.02   0.01   0.06     0.01  -0.05  -0.09    -0.08   0.11   0.07
  23   6    -0.02  -0.01   0.10     0.04  -0.08  -0.05    -0.06   0.10   0.12
  24   6    -0.04   0.03   0.14    -0.00   0.02   0.04    -0.01   0.05   0.04
  25   6     0.02  -0.08   0.05    -0.04   0.11   0.14     0.08  -0.11  -0.11
  26   6     0.10  -0.25  -0.11     0.02   0.06   0.08     0.14  -0.14  -0.14
  27  35    -0.25   0.06  -0.03     0.07   0.10  -0.10     0.13   0.19  -0.03
  28   6     0.14  -0.30  -0.16     0.05  -0.02   0.02     0.10  -0.11  -0.08
  29   6     0.06  -0.12  -0.01     0.07  -0.06  -0.03     0.02   0.04   0.06
  30   1     0.03  -0.06   0.00    -0.02  -0.01  -0.01    -0.02   0.02  -0.00
  31   1    -0.04  -0.06   0.03    -0.01  -0.01  -0.00     0.01   0.02  -0.01
  32   1    -0.01   0.00   0.04    -0.03  -0.02   0.06    -0.01  -0.01  -0.00
  33   1    -0.02   0.06  -0.00    -0.04   0.04   0.01    -0.00  -0.01   0.00
  34   1     0.00  -0.07  -0.05     0.04  -0.08  -0.02     0.01  -0.01   0.01
  35   1    -0.02  -0.01  -0.11     0.01  -0.02  -0.08     0.00  -0.01   0.00
  36   1    -0.02  -0.00  -0.08    -0.01  -0.01   0.02    -0.00  -0.00   0.02
  37   1    -0.04   0.06  -0.06    -0.02  -0.04   0.00     0.00  -0.03   0.01
  38   1    -0.03   0.01   0.05     0.00  -0.01   0.06     0.00  -0.01   0.01
  39   1    -0.03   0.01   0.00     0.00  -0.02  -0.04     0.00  -0.01  -0.02
  40   1     0.08   0.01   0.05     0.17   0.03   0.06     0.03   0.01   0.00
  41   1     0.06   0.04  -0.02     0.11   0.13  -0.07     0.02   0.03  -0.02
  42   1     0.00   0.07   0.03    -0.00  -0.01  -0.01     0.13  -0.01   0.02
  43   1     0.01   0.06  -0.00     0.01  -0.02   0.01     0.08   0.03  -0.04
  44   1     0.02   0.07  -0.10     0.01  -0.01   0.01     0.03  -0.07   0.15
  45   1    -0.06   0.05  -0.05     0.03   0.02  -0.00     0.14  -0.03   0.08
  46   1     0.08   0.11   0.02    -0.02  -0.02  -0.03    -0.07  -0.05   0.02
  47   1    -0.00   0.07   0.07     0.02   0.00  -0.05    -0.00   0.02  -0.02
  48   1    -0.05   0.06   0.01     0.00  -0.01  -0.03     0.00  -0.03   0.07
  49   1    -0.03   0.05   0.00     0.03   0.00  -0.02    -0.03  -0.06   0.04
  50   1    -0.05  -0.02  -0.03     0.00  -0.03   0.00     0.01   0.03   0.04
  51   1     0.01  -0.02  -0.00     0.03  -0.03  -0.01    -0.04   0.02  -0.00
  52   1     0.07  -0.02   0.01    -0.00  -0.01  -0.02    -0.08   0.03   0.01
  53   1     0.03  -0.07  -0.03     0.00  -0.01  -0.00    -0.04   0.10   0.03
  54   1     0.02  -0.03  -0.03    -0.06   0.14   0.09     0.02  -0.02  -0.07
  55   1     0.01  -0.03  -0.03    -0.02   0.00  -0.03    -0.01  -0.03  -0.06
  56   1    -0.01  -0.00   0.01     0.01  -0.08  -0.09    -0.04   0.02   0.01
  57   1    -0.03   0.04   0.07    -0.00   0.02   0.02    -0.00   0.03   0.03
  58   1    -0.00  -0.01   0.03    -0.03   0.06   0.07     0.03  -0.06  -0.04
  59   1     0.06  -0.12  -0.08     0.01  -0.01   0.00     0.03  -0.05  -0.04
                     19                     20                     21
                        a                      a                      a 
 Frequencies --   165.6229               167.8791               193.1835
 Red. masses --    23.2333                43.0784                11.9337
 Frc consts  --     0.0000                 0.0000                 0.0000
 IR Inten    --     0.9212                 0.0360                 0.0209
 Raman Activ --     0.0000                 0.0000                 0.0000
 Depolar     --     0.0000                 0.0000                 0.0000
 Atom AN      X      Y      Z        X      Y      Z        X      Y      Z
   1  35     0.04   0.04   0.04    -0.02  -0.04  -0.04     0.02   0.04   0.04
   2   6    -0.01  -0.01   0.01    -0.04   0.06  -0.03    -0.03   0.01  -0.00
   3   6    -0.00  -0.02   0.00    -0.04  -0.02   0.04    -0.01  -0.02  -0.02
   4   6     0.07  -0.12  -0.13    -0.02   0.01   0.14     0.04  -0.09  -0.11
   5   6     0.04  -0.10  -0.08    -0.01  -0.01   0.13    -0.03  -0.02   0.03
   6   6     0.03  -0.11  -0.05     0.05   0.08  -0.05     0.05   0.04   0.07
   7   6     0.11  -0.01  -0.06     0.09   0.17  -0.07     0.26   0.20   0.05
   8   6     0.07  -0.02  -0.07    -0.01   0.09  -0.02     0.02   0.06   0.03
   9   6     0.14   0.09  -0.08     0.04  -0.06   0.00    -0.15  -0.07   0.04
  10   6     0.02  -0.02  -0.01     0.09  -0.08   0.13    -0.18  -0.07  -0.04
  11   6    -0.06   0.08   0.23     0.00  -0.13  -0.09    -0.02  -0.14  -0.06
  12   6    -0.13  -0.00   0.32     0.06  -0.09  -0.09     0.09  -0.02  -0.15
  13   6    -0.09   0.19   0.12     0.04  -0.08  -0.02     0.07  -0.03  -0.05
  14   6    -0.01   0.13   0.11    -0.05   0.02  -0.02     0.01  -0.05  -0.04
  15  35    -0.02   0.02  -0.20     0.01   0.02  -0.01     0.00  -0.02   0.08
  16   6     0.04  -0.02  -0.11    -0.04   0.15   0.02    -0.03   0.08   0.01
  17   6     0.02   0.02  -0.07    -0.03   0.16   0.04     0.08  -0.14  -0.25
  18   6     0.02   0.08  -0.00     0.07   0.10   0.01     0.09  -0.20  -0.31
  19  35     0.19   0.01   0.05     0.42   0.15   0.02    -0.02   0.00   0.12
  20   6    -0.02   0.11   0.05     0.09   0.01  -0.06    -0.00  -0.04  -0.14
  21   6     0.01   0.03  -0.01     0.06   0.04  -0.04    -0.11   0.18   0.11
  22   6     0.03  -0.06  -0.11    -0.05   0.11   0.00    -0.08   0.14   0.09
  23   6     0.05  -0.11  -0.09    -0.06   0.09   0.03    -0.01   0.01   0.01
  24   6     0.01  -0.14  -0.04    -0.11  -0.00   0.07     0.03  -0.10  -0.07
  25   6    -0.04  -0.03   0.11    -0.04  -0.12   0.01     0.01  -0.03   0.02
  26   6    -0.09   0.08   0.22    -0.02  -0.19  -0.05    -0.06   0.14   0.18
  27  35    -0.28  -0.15  -0.09    -0.48  -0.21   0.04    -0.00  -0.01  -0.07
  28   6    -0.06   0.11   0.19     0.03  -0.11  -0.09    -0.06   0.16   0.19
  29   6     0.03  -0.03  -0.01    -0.03   0.04  -0.01     0.01   0.03   0.03
  30   1    -0.00  -0.00   0.00    -0.04   0.03  -0.01    -0.01   0.01  -0.00
  31   1    -0.00  -0.00   0.00     0.01   0.03  -0.02    -0.00   0.01  -0.00
  32   1    -0.01  -0.02   0.03    -0.01  -0.01  -0.00    -0.02  -0.02   0.01
  33   1    -0.00   0.03  -0.00    -0.02  -0.03   0.01    -0.00   0.02  -0.01
  34   1     0.04  -0.07  -0.03    -0.01   0.03   0.04     0.05  -0.07  -0.03
  35   1     0.02  -0.02  -0.08    -0.00  -0.00   0.06    -0.00  -0.02  -0.09
  36   1     0.02  -0.03  -0.03    -0.02   0.02   0.08    -0.01   0.01   0.03
  37   1     0.00  -0.03  -0.03     0.01  -0.05   0.05    -0.04  -0.02   0.01
  38   1     0.00  -0.05   0.01     0.01   0.03  -0.01    -0.01   0.00   0.07
  39   1    -0.01  -0.04  -0.04     0.03   0.01  -0.04    -0.01  -0.01  -0.02
  40   1     0.05   0.00   0.01     0.06   0.04  -0.00     0.16   0.04   0.07
  41   1     0.04   0.02  -0.04     0.03   0.08  -0.04     0.09   0.14  -0.04
  42   1     0.09   0.02   0.00     0.01  -0.03  -0.02    -0.07  -0.03  -0.03
  43   1     0.04   0.07  -0.05     0.02  -0.03  -0.00    -0.06  -0.03   0.06
  44   1     0.02  -0.01  -0.03     0.01  -0.04   0.09    -0.04  -0.01  -0.04
  45   1    -0.01  -0.05  -0.01     0.09  -0.00   0.04    -0.08  -0.01  -0.01
  46   1     0.01   0.07   0.07    -0.05  -0.07  -0.03     0.01  -0.05  -0.02
  47   1    -0.03   0.03   0.10     0.02  -0.02  -0.08    -0.00  -0.07  -0.01
  48   1    -0.01   0.01   0.16     0.02  -0.03  -0.05     0.03  -0.03  -0.09
  49   1    -0.08  -0.06   0.09     0.04  -0.01  -0.03     0.05   0.04  -0.04
  50   1    -0.00   0.08   0.01     0.02  -0.03   0.02     0.02  -0.01  -0.01
  51   1    -0.08   0.08   0.02     0.02  -0.03  -0.01     0.03  -0.01   0.00
  52   1    -0.01   0.03   0.06    -0.04  -0.00  -0.03     0.00  -0.01  -0.02
  53   1    -0.00   0.04   0.03    -0.02   0.03   0.01     0.00  -0.02  -0.01
  54   1     0.00   0.00  -0.02    -0.02   0.05   0.02     0.04  -0.06  -0.10
  55   1    -0.02   0.06   0.03     0.03  -0.02  -0.04    -0.00  -0.01  -0.05
  56   1     0.00   0.02   0.00     0.04   0.01  -0.03    -0.06   0.09   0.08
  57   1     0.00  -0.07  -0.04    -0.06   0.01   0.03     0.03  -0.07  -0.06
  58   1    -0.01  -0.01   0.04    -0.01  -0.04   0.00     0.01  -0.04  -0.01
  59   1    -0.02   0.06   0.08     0.04  -0.04  -0.04    -0.02   0.07   0.07
                     22                     23                     24
                        a                      a                      a 
 Frequencies --   220.9566               225.8256               238.9467
 Red. masses --    13.4679                 9.5165                10.3147
 Frc consts  --     0.0000                 0.0000                 0.0000
 IR Inten    --     0.2131                 1.2474                 0.4602
 Raman Activ --     0.0000                 0.0000                 0.0000
 Depolar     --     0.0000                 0.0000                 0.0000
 Atom AN      X      Y      Z        X      Y      Z        X      Y      Z
   1  35     0.07   0.07   0.12     0.08   0.03   0.07    -0.05  -0.02  -0.06
   2   6     0.02   0.01   0.01    -0.18   0.28  -0.09     0.09  -0.13   0.05
   3   6     0.08  -0.05  -0.11    -0.07  -0.30   0.02     0.02   0.15   0.04
   4   6     0.21  -0.25  -0.39    -0.00  -0.31   0.07     0.07   0.10  -0.03
   5   6     0.04  -0.18  -0.01    -0.02  -0.06  -0.06     0.09  -0.09   0.03
   6   6     0.04  -0.17   0.07     0.23   0.22  -0.21    -0.07  -0.20  -0.05
   7   6    -0.04  -0.04   0.05    -0.05  -0.03  -0.17    -0.05  -0.05  -0.08
   8   6    -0.09  -0.01   0.00     0.02  -0.02  -0.00     0.03  -0.01  -0.02
   9   6    -0.07  -0.03   0.03     0.01   0.00  -0.02     0.02  -0.01  -0.04
  10   6     0.10   0.07   0.20    -0.02   0.05  -0.17    -0.04   0.02  -0.32
  11   6     0.01   0.06   0.04     0.04   0.08  -0.01     0.14   0.04  -0.02
  12   6    -0.03   0.07  -0.05    -0.02   0.02   0.02     0.04  -0.10   0.09
  13   6    -0.04   0.02  -0.03    -0.01  -0.02   0.01     0.05  -0.24   0.09
  14   6    -0.03  -0.01  -0.03    -0.02   0.02   0.00    -0.09   0.10   0.04
  15  35     0.00   0.00   0.03    -0.00  -0.01  -0.01     0.02   0.01  -0.12
  16   6    -0.07   0.02   0.06    -0.00   0.02   0.08    -0.02   0.07   0.07
  17   6    -0.06   0.00   0.12     0.00   0.01   0.09    -0.05   0.13   0.11
  18   6     0.01  -0.04   0.11     0.00  -0.04   0.05    -0.02   0.06   0.04
  19  35     0.04   0.08  -0.07    -0.07  -0.00  -0.02    -0.01  -0.01   0.00
  20   6     0.08  -0.09   0.02     0.04  -0.10  -0.01     0.05  -0.10  -0.11
  21   6     0.05  -0.00   0.02     0.00  -0.02   0.04    -0.01   0.02   0.01
  22   6    -0.05   0.07   0.05    -0.02   0.05   0.11    -0.07   0.16   0.16
  23   6    -0.08   0.13   0.02    -0.02   0.05   0.11    -0.08   0.18   0.20
  24   6    -0.05   0.10  -0.06     0.02  -0.01   0.04    -0.01   0.03   0.06
  25   6    -0.05   0.04  -0.21     0.06  -0.07  -0.01     0.09  -0.16  -0.10
  26   6    -0.10   0.06  -0.18     0.02  -0.01   0.05     0.02  -0.01   0.05
  27  35     0.00  -0.10   0.12     0.02   0.03  -0.02    -0.01   0.02  -0.01
  28   6    -0.13   0.10  -0.12    -0.00   0.02   0.09    -0.03   0.11   0.14
  29   6    -0.10   0.08  -0.02    -0.01   0.03   0.07    -0.04   0.10   0.11
  30   1    -0.00   0.01   0.01    -0.21   0.17  -0.03     0.10  -0.08   0.01
  31   1     0.02   0.02   0.01     0.08   0.19  -0.09    -0.04  -0.09   0.04
  32   1    -0.01  -0.05   0.01    -0.07  -0.12  -0.04     0.02   0.05   0.06
  33   1     0.05   0.06  -0.04     0.00  -0.12   0.01    -0.02   0.08   0.00
  34   1     0.15  -0.17  -0.11    -0.01  -0.09   0.02     0.03   0.02  -0.01
  35   1     0.04  -0.05  -0.24    -0.02  -0.10   0.02     0.04   0.05  -0.02
  36   1     0.04  -0.04   0.04    -0.09   0.02  -0.02     0.06  -0.03   0.03
  37   1    -0.07  -0.07  -0.00     0.02  -0.03  -0.01     0.02  -0.05   0.01
  38   1     0.01  -0.06   0.03     0.07   0.16  -0.15    -0.01  -0.11   0.00
  39   1    -0.00  -0.05   0.01     0.17   0.06   0.00    -0.06  -0.06  -0.05
  40   1    -0.01  -0.00   0.03    -0.07  -0.03  -0.13    -0.02   0.00  -0.00
  41   1    -0.01  -0.00   0.01    -0.03  -0.07   0.01    -0.01  -0.02  -0.03
  42   1    -0.05  -0.00  -0.00    -0.01   0.01   0.00    -0.01   0.01  -0.00
  43   1    -0.01  -0.06   0.00    -0.00   0.00   0.01    -0.00   0.00   0.01
  44   1    -0.00   0.03   0.13     0.01   0.02  -0.10     0.03   0.03  -0.20
  45   1     0.11   0.03   0.06    -0.07   0.00  -0.06    -0.14  -0.01  -0.10
  46   1    -0.02  -0.02   0.01     0.04   0.06   0.00     0.08   0.08  -0.00
  47   1     0.01   0.05  -0.01     0.00   0.01   0.03     0.02  -0.02   0.05
  48   1    -0.01   0.02  -0.04    -0.02   0.02   0.02    -0.03  -0.00   0.06
  49   1    -0.01   0.05  -0.01    -0.01  -0.01   0.01     0.01  -0.07   0.03
  50   1    -0.02   0.01  -0.01    -0.01  -0.01   0.01    -0.03  -0.12   0.11
  51   1    -0.00   0.01  -0.00     0.00  -0.01  -0.00     0.06  -0.13  -0.03
  52   1    -0.01  -0.00  -0.00    -0.01   0.00  -0.00    -0.09   0.02  -0.04
  53   1    -0.01  -0.00  -0.01    -0.01   0.01   0.00    -0.03   0.09   0.05
  54   1    -0.03  -0.01   0.04     0.00  -0.00   0.02    -0.01   0.04   0.03
  55   1     0.04  -0.05  -0.01     0.02  -0.05  -0.03     0.04  -0.08  -0.08
  56   1     0.03  -0.00  -0.01     0.01  -0.02   0.00     0.01  -0.02  -0.02
  57   1    -0.00   0.03  -0.02     0.01  -0.01   0.00     0.00  -0.01   0.00
  58   1     0.00   0.00  -0.09     0.03  -0.05  -0.02     0.05  -0.11  -0.08
  59   1    -0.05   0.02  -0.04     0.00   0.01   0.03    -0.01   0.03   0.04
                     25                     26                     27
                        a                      a                      a 
 Frequencies --   241.0402               245.6442               253.8162
 Red. masses --    11.3179                11.1874                10.0797
 Frc consts  --     0.0000                 0.0000                 0.0000
 IR Inten    --     0.1796                 1.8809                 1.5605
 Raman Activ --     0.0000                 0.0000                 0.0000
 Depolar     --     0.0000                 0.0000                 0.0000
 Atom AN      X      Y      Z        X      Y      Z        X      Y      Z
   1  35     0.13   0.04   0.21    -0.00  -0.01  -0.01     0.04   0.04   0.09
   2   6    -0.02   0.16  -0.04    -0.02   0.03  -0.01    -0.03   0.03  -0.02
   3   6     0.20  -0.24  -0.32    -0.02  -0.03   0.02     0.03  -0.04  -0.12
   4   6    -0.13   0.06   0.01    -0.07   0.04   0.11     0.02  -0.07  -0.18
   5   6    -0.07   0.02  -0.17    -0.02   0.07  -0.03    -0.10   0.02   0.08
   6   6    -0.33  -0.24   0.01    -0.00   0.07   0.01     0.01   0.09   0.15
   7   6     0.03   0.02  -0.00     0.19   0.12   0.01    -0.19  -0.08   0.16
   8   6     0.01   0.01   0.00    -0.04  -0.03   0.00     0.01   0.05   0.04
   9   6    -0.01  -0.00   0.01    -0.07  -0.06   0.00    -0.01   0.04   0.05
  10   6    -0.03  -0.01  -0.02     0.17   0.12   0.05    -0.12  -0.07   0.04
  11   6    -0.01  -0.02  -0.01     0.22   0.13   0.15     0.12  -0.10   0.23
  12   6     0.01  -0.00  -0.01    -0.01  -0.01   0.07     0.09   0.02  -0.13
  13   6     0.01  -0.00  -0.01    -0.01  -0.29   0.10     0.06  -0.21   0.02
  14   6     0.01  -0.01  -0.00    -0.23   0.18   0.03    -0.20   0.12  -0.01
  15  35    -0.00  -0.00   0.01     0.04   0.02  -0.14     0.02   0.00  -0.04
  16   6    -0.00   0.03   0.01    -0.04  -0.02   0.05     0.05  -0.03  -0.10
  17   6    -0.02   0.06   0.02     0.01  -0.13   0.05     0.02   0.06  -0.17
  18   6    -0.03   0.07   0.02     0.06  -0.17   0.04    -0.05   0.17  -0.09
  19  35     0.02  -0.01   0.01    -0.05   0.05  -0.05     0.08  -0.04   0.06
  20   6    -0.01   0.01  -0.03     0.05  -0.08   0.10    -0.11   0.20  -0.03
  21   6     0.00  -0.02  -0.04     0.02   0.01   0.09    -0.01  -0.03  -0.14
  22   6    -0.01   0.03   0.01     0.01  -0.04   0.01     0.05  -0.08  -0.15
  23   6    -0.01   0.03   0.04     0.05  -0.12  -0.13     0.02  -0.02  -0.04
  24   6    -0.01   0.00   0.03     0.04  -0.03  -0.12    -0.03   0.01   0.05
  25   6     0.02  -0.04   0.00    -0.09   0.17  -0.01     0.01  -0.03   0.06
  26   6     0.02  -0.02   0.02    -0.10   0.12  -0.05     0.07  -0.09   0.00
  27  35    -0.00   0.02  -0.01     0.02  -0.07   0.05    -0.02   0.03  -0.03
  28   6     0.01   0.01   0.04    -0.06  -0.02  -0.13     0.06  -0.03   0.01
  29   6    -0.00   0.02   0.03     0.00  -0.10  -0.11     0.02   0.04   0.02
  30   1    -0.08   0.09   0.00    -0.02   0.02  -0.01    -0.02   0.02   0.00
  31   1     0.07   0.11  -0.02     0.01   0.02  -0.01     0.01   0.02  -0.00
  32   1     0.03  -0.05  -0.32    -0.00  -0.00  -0.03    -0.00  -0.02  -0.05
  33   1     0.21  -0.23  -0.05     0.00  -0.04   0.01     0.04  -0.00  -0.03
  34   1    -0.10   0.13  -0.01    -0.05   0.04   0.03     0.06  -0.05  -0.05
  35   1    -0.06  -0.04   0.14    -0.02  -0.00   0.07    -0.02  -0.02  -0.11
  36   1     0.02  -0.04  -0.12    -0.02   0.01  -0.04    -0.02   0.02   0.06
  37   1     0.01   0.08  -0.06     0.02   0.05  -0.01    -0.09  -0.02   0.03
  38   1    -0.10  -0.17   0.10    -0.01   0.01   0.04     0.01   0.08  -0.01
  39   1    -0.22  -0.07  -0.06    -0.02   0.02  -0.02     0.06   0.04   0.10
  40   1     0.08   0.02   0.09     0.14   0.01   0.05    -0.15  -0.00  -0.01
  41   1     0.04   0.07  -0.09     0.07   0.12  -0.05    -0.07  -0.11   0.11
  42   1    -0.00  -0.00  -0.00    -0.09  -0.00  -0.02     0.03  -0.00   0.00
  43   1    -0.01   0.00   0.01    -0.01  -0.09   0.01    -0.01   0.04   0.02
  44   1    -0.00  -0.00  -0.02     0.04   0.07   0.01    -0.00   0.00  -0.07
  45   1    -0.02  -0.00  -0.01     0.05   0.02   0.02    -0.11  -0.06   0.00
  46   1     0.00  -0.00  -0.00     0.09   0.05   0.05     0.13  -0.04   0.07
  47   1    -0.00  -0.01   0.00     0.04   0.06   0.09     0.00  -0.06   0.16
  48   1     0.01  -0.00  -0.01    -0.06   0.02   0.01     0.01  -0.02  -0.14
  49   1     0.01   0.00  -0.00    -0.01   0.01   0.02     0.04   0.12  -0.04
  50   1     0.00   0.00  -0.00    -0.07  -0.16   0.15    -0.02  -0.11   0.10
  51   1     0.00   0.00   0.00     0.08  -0.18  -0.04     0.09  -0.12  -0.03
  52   1     0.00  -0.00  -0.00    -0.17   0.03  -0.07    -0.14   0.02  -0.06
  53   1     0.00  -0.00  -0.00    -0.08   0.17   0.06    -0.07   0.13   0.05
  54   1    -0.00   0.02   0.00    -0.01  -0.05   0.02     0.02   0.02  -0.06
  55   1     0.00  -0.01  -0.02     0.02  -0.02   0.04    -0.06   0.09   0.02
  56   1     0.01  -0.02  -0.02     0.01   0.03   0.04    -0.01  -0.03  -0.04
  57   1    -0.01  -0.00   0.01     0.03  -0.01  -0.04    -0.03   0.01   0.03
  58   1     0.01  -0.02  -0.01    -0.04   0.09   0.02    -0.01  -0.01   0.03
  59   1     0.01   0.00   0.01    -0.03  -0.01  -0.04     0.03  -0.00   0.01
                     28                     29                     30
                        a                      a                      a 
 Frequencies --   260.8143               281.3678               284.0800
 Red. masses --    11.4870                15.8012                12.5041
 Frc consts  --     0.0000                 0.0000                 0.0000
 IR Inten    --     0.2019                 0.3696                 2.3321
 Raman Activ --     0.0000                 0.0000                 0.0000
 Depolar     --     0.0000                 0.0000                 0.0000
 Atom AN      X      Y      Z        X      Y      Z        X      Y      Z
   1  35     0.04   0.03   0.09     0.02   0.01   0.06    -0.04  -0.04  -0.15
   2   6    -0.04   0.02  -0.02    -0.00  -0.03  -0.00     0.03   0.08   0.01
   3   6     0.02  -0.03  -0.13     0.02   0.03  -0.10    -0.02  -0.10   0.27
   4   6    -0.03  -0.02  -0.13     0.01   0.04  -0.09     0.06  -0.18   0.16
   5   6    -0.14   0.07   0.12    -0.03  -0.08   0.08     0.18   0.12  -0.31
   6   6     0.01   0.16   0.20    -0.04  -0.05  -0.09     0.04  -0.10   0.21
   7   6    -0.02   0.04   0.20    -0.19  -0.09  -0.08    -0.03  -0.13   0.21
   8   6    -0.02   0.03   0.04    -0.04  -0.01  -0.02    -0.01  -0.03   0.03
   9   6     0.03   0.07   0.01    -0.25  -0.16  -0.01    -0.11  -0.03   0.04
  10   6    -0.01   0.03  -0.15     0.12   0.14   0.10    -0.00   0.05   0.06
  11   6    -0.08  -0.02  -0.34     0.03   0.13  -0.06    -0.01   0.01  -0.05
  12   6     0.03  -0.25   0.29    -0.06   0.01   0.09     0.00  -0.02   0.05
  13   6     0.07  -0.19   0.16    -0.04  -0.03   0.02     0.01  -0.08   0.04
  14   6     0.19  -0.05   0.11     0.01  -0.00   0.01     0.03  -0.01   0.03
  15  35     0.02   0.05  -0.17     0.01   0.01  -0.03     0.01   0.02  -0.04
  16   6     0.00  -0.01  -0.02    -0.07   0.08   0.06    -0.01  -0.00  -0.01
  17   6     0.01  -0.03  -0.03    -0.08   0.14  -0.00    -0.05   0.14  -0.09
  18   6     0.00  -0.01  -0.01    -0.01   0.01  -0.14    -0.05   0.13  -0.13
  19  35    -0.00   0.00  -0.00     0.18   0.04   0.05     0.18   0.02   0.06
  20   6    -0.01   0.03   0.03    -0.05  -0.05  -0.14    -0.09   0.05  -0.15
  21   6     0.01  -0.00  -0.01    -0.13   0.08   0.07    -0.10   0.01  -0.02
  22   6     0.02  -0.03  -0.04    -0.10   0.05   0.06    -0.05   0.01   0.02
  23   6     0.01  -0.01  -0.03    -0.01  -0.13  -0.08    -0.05   0.01   0.03
  24   6    -0.00   0.03  -0.02    -0.02  -0.18  -0.04    -0.03   0.02  -0.00
  25   6    -0.03   0.05  -0.04    -0.05  -0.04   0.23    -0.03  -0.00  -0.06
  26   6    -0.03   0.02  -0.07     0.06  -0.04   0.21    -0.03   0.03  -0.04
  27  35    -0.02  -0.04   0.03     0.14   0.16  -0.11     0.03   0.01   0.01
  28   6    -0.03   0.02  -0.06     0.13  -0.17   0.05    -0.05   0.03  -0.01
  29   6    -0.01   0.01  -0.01     0.03  -0.10  -0.06    -0.01  -0.02   0.01
  30   1    -0.02   0.01   0.00     0.02  -0.02   0.01    -0.06   0.05  -0.01
  31   1     0.00   0.02  -0.00    -0.01  -0.02   0.01     0.06   0.06  -0.03
  32   1     0.00  -0.01  -0.07     0.01   0.01  -0.04    -0.03  -0.05   0.14
  33   1     0.04  -0.02  -0.03     0.03   0.01  -0.02    -0.07   0.00   0.06
  34   1     0.04  -0.02  -0.04     0.03   0.02  -0.02    -0.05  -0.09   0.05
  35   1    -0.04  -0.02  -0.08     0.00   0.01  -0.03     0.02  -0.04   0.04
  36   1    -0.04   0.04   0.07     0.01   0.01   0.09     0.03  -0.08  -0.32
  37   1    -0.10  -0.00   0.04    -0.03  -0.10   0.03     0.13   0.28  -0.13
  38   1    -0.01   0.10   0.04     0.00  -0.00  -0.06     0.02  -0.05   0.07
  39   1     0.04   0.05   0.09     0.02  -0.02  -0.01    -0.05   0.01   0.09
  40   1    -0.03   0.01   0.04    -0.12  -0.01  -0.06    -0.04  -0.02   0.06
  41   1    -0.01   0.00   0.08    -0.06  -0.10   0.01    -0.02  -0.04   0.09
  42   1     0.03   0.02   0.02    -0.22  -0.03  -0.06    -0.07  -0.00  -0.01
  43   1     0.01   0.05  -0.01    -0.06  -0.19   0.07    -0.03  -0.05   0.03
  44   1    -0.00  -0.02  -0.03    -0.01   0.07   0.12    -0.02   0.02   0.05
  45   1     0.00   0.06  -0.04     0.12   0.07   0.04     0.04   0.03   0.02
  46   1    -0.16   0.03  -0.10    -0.05   0.03  -0.02    -0.04  -0.00  -0.02
  47   1     0.03  -0.02  -0.22     0.02   0.07  -0.07     0.01   0.01  -0.05
  48   1    -0.01  -0.01   0.23    -0.04   0.03   0.07    -0.01   0.00   0.03
  49   1     0.01  -0.25   0.09    -0.02  -0.05   0.03     0.01  -0.03   0.01
  50   1    -0.00  -0.07   0.07    -0.02  -0.02   0.01    -0.02  -0.04   0.03
  51   1     0.01  -0.08  -0.01    -0.01  -0.02  -0.01     0.02  -0.04  -0.00
  52   1     0.07  -0.00   0.02     0.00  -0.00   0.00     0.01   0.00  -0.00
  53   1     0.05  -0.04   0.03     0.00  -0.00  -0.00     0.01  -0.00   0.01
  54   1     0.00  -0.01  -0.01    -0.02   0.05   0.01    -0.00   0.06  -0.03
  55   1    -0.01   0.02   0.02    -0.02  -0.04  -0.07    -0.05   0.01  -0.06
  56   1     0.00   0.00  -0.00    -0.05   0.03   0.04    -0.05  -0.01  -0.00
  57   1     0.00   0.01  -0.00    -0.02  -0.08  -0.03     0.00   0.01   0.00
  58   1    -0.01   0.03  -0.01    -0.04  -0.00   0.11    -0.00  -0.01  -0.03
  59   1    -0.02   0.00  -0.02     0.06  -0.05   0.01    -0.03   0.01  -0.00
                     31                     32                     33
                        a                      a                      a 
 Frequencies --   296.1311               301.6666               320.3275
 Red. masses --    20.3861                22.5704                14.1844
 Frc consts  --     0.0000                 0.0000                 0.0000
 IR Inten    --     0.7181                 0.3369                 0.2968
 Raman Activ --     0.0000                 0.0000                 0.0000
 Depolar     --     0.0000                 0.0000                 0.0000
 Atom AN      X      Y      Z        X      Y      Z        X      Y      Z
   1  35    -0.01  -0.00  -0.01     0.01   0.00   0.02    -0.01  -0.01  -0.05
   2   6     0.00  -0.00   0.00    -0.01  -0.00  -0.00     0.05   0.04   0.02
   3   6    -0.01   0.01   0.02     0.00  -0.00  -0.03     0.03  -0.03   0.10
   4   6     0.01  -0.00   0.01    -0.02   0.01  -0.01     0.07  -0.09  -0.00
   5   6     0.01  -0.00   0.02    -0.03   0.01   0.03     0.05   0.04  -0.06
   6   6     0.03   0.04  -0.07     0.01   0.03   0.03    -0.05  -0.06   0.07
   7   6     0.14   0.13  -0.07     0.01  -0.01   0.03    -0.09   0.05   0.04
   8   6    -0.08  -0.01  -0.01    -0.05  -0.06   0.02    -0.07   0.11  -0.07
   9   6    -0.15  -0.06  -0.01     0.28   0.15  -0.00     0.03   0.15  -0.06
  10   6    -0.00   0.06   0.03    -0.03  -0.11  -0.09    -0.11  -0.04   0.08
  11   6     0.01   0.04  -0.02    -0.02  -0.07   0.04    -0.11  -0.06   0.00
  12   6    -0.02  -0.00   0.04     0.04   0.01  -0.07     0.04   0.05  -0.02
  13   6    -0.02  -0.03   0.02     0.03   0.03  -0.02     0.04  -0.12   0.10
  14   6     0.01  -0.00   0.01    -0.01   0.01  -0.01     0.06  -0.02   0.08
  15  35     0.00   0.01  -0.02    -0.00  -0.01   0.02     0.03   0.03  -0.06
  16   6    -0.07  -0.11  -0.12    -0.16   0.01   0.02    -0.11   0.07  -0.07
  17   6    -0.02  -0.21  -0.13    -0.17   0.08   0.08    -0.07  -0.12   0.14
  18   6    -0.04   0.00   0.12    -0.04  -0.04   0.01     0.09  -0.18   0.19
  19  35     0.21   0.08  -0.01     0.32   0.11   0.02    -0.15   0.02  -0.08
  20   6    -0.14   0.06   0.22    -0.11  -0.19  -0.02     0.20  -0.09   0.15
  21   6    -0.00  -0.23  -0.12    -0.19  -0.05   0.12     0.14   0.13  -0.01
  22   6    -0.08  -0.20  -0.15    -0.23  -0.04   0.09    -0.07   0.12  -0.12
  23   6    -0.20   0.02   0.10    -0.15  -0.17   0.00    -0.06   0.06  -0.16
  24   6    -0.23   0.07   0.14    -0.10  -0.12  -0.11    -0.15  -0.12  -0.06
  25   6    -0.05  -0.22  -0.08    -0.20   0.07  -0.04    -0.05  -0.14   0.21
  26   6     0.05  -0.14  -0.03    -0.12   0.09  -0.04     0.10  -0.12   0.20
  27  35     0.22   0.21  -0.07     0.24   0.13  -0.03     0.06   0.12  -0.10
  28   6    -0.09   0.04   0.20    -0.12  -0.13  -0.08     0.17  -0.06   0.05
  29   6    -0.12   0.02   0.11    -0.08  -0.15   0.03     0.00   0.09  -0.10
  30   1     0.00  -0.00  -0.00    -0.00  -0.00  -0.00    -0.01   0.02   0.00
  31   1    -0.00  -0.00   0.00    -0.00  -0.00   0.00     0.04   0.03  -0.01
  32   1    -0.00   0.00   0.02     0.00   0.00  -0.02    -0.00  -0.03   0.06
  33   1    -0.01   0.01   0.00     0.01  -0.01  -0.01    -0.01   0.02   0.02
  34   1     0.01  -0.01   0.00     0.00   0.01  -0.00     0.02  -0.07   0.00
  35   1     0.00   0.00  -0.00    -0.01   0.00  -0.00     0.01  -0.02  -0.04
  36   1    -0.01   0.01   0.03    -0.01   0.01   0.02     0.02  -0.02  -0.08
  37   1     0.00  -0.03   0.01    -0.02  -0.01   0.01     0.02   0.08  -0.03
  38   1     0.00   0.00   0.01    -0.00   0.02   0.00    -0.01  -0.05   0.03
  39   1     0.00  -0.00  -0.05     0.01   0.01   0.02    -0.05  -0.01   0.01
  40   1     0.13   0.01   0.02     0.02  -0.01   0.01    -0.05   0.03   0.03
  41   1     0.05   0.12  -0.07     0.00   0.01   0.00    -0.03   0.01   0.02
  42   1    -0.10  -0.01  -0.03     0.24   0.04   0.09     0.10   0.03   0.01
  43   1    -0.04  -0.08   0.03     0.08   0.19  -0.11     0.01   0.12  -0.06
  44   1    -0.02   0.04   0.04     0.03  -0.07  -0.10    -0.03  -0.04   0.04
  45   1     0.03   0.03   0.01    -0.08  -0.05  -0.03    -0.00  -0.02   0.03
  46   1    -0.01   0.01  -0.01     0.03  -0.01   0.01    -0.06  -0.04  -0.00
  47   1     0.01   0.02  -0.02    -0.01  -0.04   0.04    -0.02  -0.04  -0.03
  48   1    -0.02   0.01   0.03     0.03  -0.02  -0.05    -0.00  -0.00  -0.07
  49   1    -0.01  -0.02   0.01     0.02   0.04  -0.02     0.05   0.07  -0.01
  50   1    -0.01  -0.02   0.01     0.02   0.02  -0.01    -0.04  -0.07   0.07
  51   1    -0.00  -0.02  -0.00     0.01   0.02   0.01     0.07  -0.08   0.01
  52   1     0.01   0.00   0.00    -0.01   0.00  -0.00     0.02   0.00   0.01
  53   1     0.00  -0.00   0.00    -0.00   0.00   0.00     0.02  -0.01   0.02
  54   1    -0.02  -0.09  -0.04    -0.06   0.02   0.04    -0.06  -0.07   0.06
  55   1    -0.07   0.07   0.11    -0.04  -0.08  -0.05     0.11  -0.04   0.06
  56   1     0.03  -0.08  -0.06    -0.05   0.00   0.04     0.08   0.08  -0.01
  57   1    -0.09   0.05   0.07     0.01  -0.04  -0.04    -0.10  -0.06  -0.04
  58   1    -0.01  -0.12  -0.04    -0.07   0.03   0.01    -0.04  -0.06   0.10
  59   1    -0.04   0.03   0.08    -0.07  -0.06  -0.04     0.11  -0.01   0.02
                     34                     35                     36
                        a                      a                      a 
 Frequencies --   341.6735               351.3726               369.3914
 Red. masses --    11.2993                 9.5419                10.3845
 Frc consts  --     0.0000                 0.0000                 0.0000
 IR Inten    --     0.8623                 2.3866                 0.1311
 Raman Activ --     0.0000                 0.0000                 0.0000
 Depolar     --     0.0000                 0.0000                 0.0000
 Atom AN      X      Y      Z        X      Y      Z        X      Y      Z
   1  35    -0.01  -0.00  -0.01     0.01  -0.00   0.01    -0.04  -0.02  -0.11
   2   6     0.02  -0.00   0.00    -0.00   0.00  -0.00     0.23   0.13   0.07
   3   6     0.01   0.01   0.01     0.00  -0.01  -0.02     0.17  -0.05   0.23
   4   6     0.03  -0.00   0.01    -0.01   0.01  -0.00     0.11  -0.15  -0.02
   5   6     0.05  -0.09  -0.02    -0.01  -0.00  -0.00    -0.03   0.09   0.08
   6   6    -0.03  -0.06  -0.24    -0.00  -0.00   0.00    -0.28  -0.02  -0.14
   7   6    -0.01   0.02  -0.21    -0.00  -0.01   0.00    -0.16   0.15  -0.16
   8   6    -0.00   0.01   0.07    -0.00   0.00  -0.01    -0.07   0.14   0.14
   9   6    -0.04   0.11   0.09     0.01   0.01  -0.02     0.03   0.03   0.15
  10   6    -0.20   0.02   0.12     0.01  -0.01  -0.01    -0.02   0.04  -0.06
  11   6    -0.27   0.03  -0.02     0.01  -0.00   0.01     0.10  -0.01  -0.05
  12   6    -0.02   0.25  -0.04     0.00  -0.01   0.00     0.04  -0.13   0.05
  13   6    -0.03  -0.21   0.27     0.01   0.00  -0.01     0.06   0.04  -0.11
  14   6     0.16  -0.06   0.21    -0.01   0.00  -0.01    -0.05   0.02  -0.10
  15  35     0.07   0.08  -0.14    -0.00  -0.00   0.00    -0.03  -0.04   0.05
  16   6     0.05  -0.00   0.07     0.02  -0.04  -0.04    -0.04   0.10   0.12
  17   6     0.04   0.03  -0.04    -0.10   0.20   0.21     0.03  -0.02  -0.02
  18   6    -0.01   0.01  -0.10     0.09  -0.21  -0.18     0.04  -0.10  -0.11
  19  35     0.04  -0.01   0.03    -0.01   0.02   0.01     0.01   0.00   0.01
  20   6    -0.09   0.04  -0.02     0.04  -0.08  -0.06    -0.07   0.08   0.07
  21   6    -0.06  -0.06   0.03    -0.09   0.19   0.18    -0.01  -0.06  -0.02
  22   6     0.06  -0.09   0.04     0.08  -0.15  -0.15     0.05  -0.10  -0.05
  23   6     0.07  -0.08   0.04     0.11  -0.20  -0.21     0.05  -0.09  -0.04
  24   6     0.11   0.02   0.02    -0.11   0.19   0.19     0.07  -0.06  -0.05
  25   6     0.03   0.10  -0.03     0.03  -0.07  -0.05    -0.03   0.12   0.09
  26   6    -0.01   0.01  -0.10     0.13  -0.25  -0.23     0.04  -0.08  -0.10
  27  35    -0.03  -0.05   0.04    -0.01   0.02   0.01    -0.00  -0.01   0.01
  28   6    -0.05  -0.02  -0.03    -0.11   0.22   0.22     0.01  -0.07  -0.05
  29   6    -0.01  -0.03   0.08     0.04  -0.07  -0.08    -0.07   0.11   0.15
  30   1     0.01  -0.00   0.00    -0.00   0.00   0.00    -0.01   0.08   0.01
  31   1     0.00  -0.00   0.00     0.00   0.00  -0.00     0.13   0.09  -0.01
  32   1     0.00   0.00   0.01     0.00   0.00  -0.01     0.03  -0.04   0.13
  33   1    -0.00   0.01   0.00     0.01  -0.01  -0.00     0.00   0.05   0.05
  34   1     0.00   0.00   0.00    -0.00   0.01  -0.00     0.09  -0.14   0.00
  35   1     0.02   0.00   0.01    -0.00  -0.00   0.01    -0.03  -0.05  -0.12
  36   1     0.01  -0.00   0.04    -0.00  -0.00   0.00    -0.01   0.04   0.05
  37   1     0.03  -0.08   0.01    -0.00  -0.00  -0.00    -0.01  -0.01   0.03
  38   1     0.00  -0.05  -0.07    -0.00   0.00  -0.00    -0.06  -0.12  -0.01
  39   1    -0.01  -0.03  -0.10     0.00   0.00   0.00    -0.15  -0.02  -0.11
  40   1     0.01  -0.01  -0.06    -0.01  -0.00  -0.00    -0.03   0.04  -0.02
  41   1     0.01   0.00  -0.08    -0.00  -0.00   0.00    -0.02   0.03  -0.10
  42   1     0.04   0.03   0.05     0.01   0.00   0.00     0.01   0.01   0.05
  43   1    -0.02   0.09   0.01     0.00   0.01  -0.01     0.01   0.02   0.04
  44   1    -0.06  -0.04   0.06     0.00   0.00  -0.01     0.02   0.02  -0.08
  45   1    -0.03   0.02   0.04    -0.00  -0.01  -0.00    -0.08   0.04  -0.02
  46   1    -0.13  -0.03  -0.01     0.01  -0.00   0.00     0.03   0.02  -0.01
  47   1    -0.05  -0.01  -0.08     0.00  -0.00   0.01     0.02  -0.01   0.00
  48   1    -0.05   0.03  -0.17     0.00  -0.00   0.00     0.03  -0.01   0.11
  49   1     0.10   0.20  -0.02    -0.00  -0.00   0.00    -0.04  -0.12   0.02
  50   1    -0.13  -0.15   0.14     0.01   0.00  -0.00     0.06   0.04  -0.05
  51   1     0.12  -0.17   0.03    -0.00   0.00  -0.00    -0.03   0.05  -0.02
  52   1     0.10   0.01   0.06    -0.01  -0.00  -0.00    -0.05  -0.00  -0.04
  53   1     0.05  -0.07   0.03    -0.00   0.01   0.00    -0.02   0.04  -0.00
  54   1     0.03   0.03  -0.01    -0.07   0.14   0.14     0.01   0.01   0.00
  55   1    -0.05   0.03  -0.00     0.00  -0.00   0.00    -0.05   0.07   0.06
  56   1    -0.04  -0.03   0.03    -0.07   0.16   0.15    -0.02  -0.00   0.02
  57   1     0.05   0.02   0.02    -0.10   0.18   0.17     0.03  -0.01  -0.01
  58   1     0.01   0.06  -0.01    -0.01   0.02   0.02    -0.03   0.09   0.06
  59   1    -0.04  -0.01  -0.01    -0.08   0.17   0.17    -0.00  -0.02  -0.02
                     37                     38                     39
                        a                      a                      a 
 Frequencies --   406.8219               413.3328               447.3369
 Red. masses --     9.6801                10.4089                10.3418
 Frc consts  --     0.0000                 0.0000                 0.0000
 IR Inten    --     0.0834                 1.9951                 0.9950
 Raman Activ --     0.0000                 0.0000                 0.0000
 Depolar     --     0.0000                 0.0000                 0.0000
 Atom AN      X      Y      Z        X      Y      Z        X      Y      Z
   1  35     0.01  -0.00   0.01     0.02   0.02   0.10    -0.00  -0.00  -0.02
   2   6    -0.01  -0.00  -0.00    -0.25  -0.16  -0.09     0.04   0.03   0.02
   3   6    -0.00  -0.00  -0.02    -0.19   0.02  -0.22     0.03   0.01   0.03
   4   6    -0.01   0.01  -0.00     0.07   0.04   0.02    -0.03   0.00  -0.00
   5   6    -0.00  -0.00  -0.01     0.26  -0.17  -0.16    -0.04  -0.03  -0.01
   6   6     0.02   0.01   0.01     0.25  -0.13  -0.04    -0.02   0.01  -0.10
   7   6     0.03   0.01   0.01    -0.03   0.06  -0.04     0.02  -0.01  -0.06
   8   6     0.00  -0.00  -0.01    -0.05   0.13   0.13    -0.02  -0.04  -0.07
   9   6    -0.03  -0.01  -0.01    -0.01   0.11   0.18    -0.15   0.28  -0.08
  10   6    -0.01   0.00   0.00    -0.10   0.08   0.05    -0.22   0.13   0.22
  11   6     0.00  -0.00   0.01     0.03  -0.00  -0.03    -0.07   0.00   0.06
  12   6    -0.00   0.00  -0.00     0.07  -0.07   0.07     0.16   0.03   0.19
  13   6    -0.01  -0.00   0.01     0.11  -0.02  -0.11     0.30  -0.08  -0.23
  14   6     0.00   0.00   0.00    -0.03   0.02  -0.10    -0.03   0.06  -0.24
  15  35     0.00  -0.00  -0.00    -0.03  -0.03   0.04    -0.07  -0.08   0.09
  16   6     0.09  -0.16  -0.16    -0.09   0.15   0.13     0.09  -0.14  -0.12
  17   6    -0.10   0.21   0.21    -0.01  -0.01  -0.01     0.02  -0.01   0.00
  18   6     0.10  -0.23  -0.21     0.05  -0.11  -0.09    -0.05   0.11   0.08
  19  35    -0.01   0.01   0.01    -0.01   0.01   0.00     0.01  -0.00   0.00
  20   6    -0.01   0.03   0.04    -0.03   0.08   0.08     0.01  -0.08  -0.07
  21   6    -0.02   0.06   0.05     0.04  -0.04  -0.06    -0.05   0.02   0.07
  22   6     0.15  -0.29  -0.28     0.00  -0.02  -0.05     0.02  -0.01   0.05
  23   6    -0.13   0.25   0.24     0.01  -0.03  -0.05     0.02  -0.00   0.05
  24   6     0.00  -0.02  -0.02     0.01  -0.07  -0.07     0.04   0.07   0.07
  25   6     0.02  -0.05  -0.05    -0.07   0.09   0.08     0.10  -0.05  -0.06
  26   6    -0.10   0.19   0.19     0.05  -0.10  -0.10    -0.04   0.10   0.09
  27  35     0.00  -0.00  -0.01    -0.00   0.01   0.00    -0.00  -0.01   0.00
  28   6     0.08  -0.16  -0.15     0.01  -0.01  -0.03    -0.00  -0.04   0.01
  29   6    -0.07   0.14   0.13    -0.07   0.16   0.14     0.04  -0.15  -0.11
  30   1    -0.00  -0.00  -0.00     0.02  -0.09  -0.02    -0.00   0.02   0.00
  31   1    -0.00  -0.00  -0.00    -0.15  -0.11   0.01     0.02   0.02  -0.00
  32   1     0.00   0.00  -0.01    -0.06   0.00  -0.10     0.01   0.01   0.01
  33   1     0.00  -0.01  -0.00    -0.03  -0.03  -0.05     0.01   0.01   0.01
  34   1    -0.01   0.01  -0.00    -0.04   0.10  -0.00    -0.01  -0.00  -0.00
  35   1    -0.00   0.00   0.01     0.10   0.04   0.10    -0.01  -0.00   0.00
  36   1    -0.00  -0.00  -0.00     0.08  -0.09  -0.12    -0.01   0.01   0.03
  37   1    -0.00  -0.00  -0.00     0.11   0.03  -0.06    -0.01  -0.05   0.00
  38   1     0.00   0.01   0.00     0.08  -0.03  -0.04    -0.01   0.01  -0.03
  39   1     0.01   0.00   0.00     0.09  -0.05  -0.01     0.00  -0.00  -0.03
  40   1     0.03  -0.01   0.01    -0.04   0.02  -0.03     0.02  -0.02  -0.02
  41   1     0.01   0.03  -0.01    -0.03   0.01   0.04     0.01   0.01  -0.03
  42   1    -0.03  -0.01  -0.02     0.03   0.03   0.07     0.06   0.07   0.02
  43   1    -0.01  -0.02   0.02    -0.01   0.07   0.04    -0.05   0.18  -0.07
  44   1    -0.00   0.00   0.00    -0.01   0.02  -0.02    -0.10   0.05   0.15
  45   1     0.00  -0.00   0.00    -0.07   0.05   0.01     0.05   0.03   0.07
  46   1     0.01  -0.00   0.00    -0.02  -0.00  -0.01    -0.11  -0.02   0.01
  47   1    -0.00  -0.00   0.01     0.02  -0.02  -0.03     0.03  -0.06  -0.07
  48   1    -0.00  -0.00  -0.00     0.03   0.00   0.10     0.08   0.03   0.17
  49   1    -0.00   0.00  -0.00    -0.03  -0.09   0.02    -0.05  -0.09   0.06
  50   1    -0.00  -0.00   0.00     0.04   0.00  -0.03     0.05  -0.05  -0.05
  51   1    -0.00  -0.00  -0.00     0.01   0.01  -0.03     0.10  -0.04  -0.08
  52   1     0.00   0.00   0.00    -0.06  -0.01  -0.06    -0.13  -0.01  -0.15
  53   1     0.00  -0.00  -0.00    -0.02   0.05   0.01    -0.03   0.13   0.04
  54   1    -0.08   0.17   0.16    -0.00  -0.01  -0.01     0.01   0.01   0.00
  55   1    -0.04   0.09   0.09    -0.02   0.06   0.06     0.01  -0.05  -0.05
  56   1    -0.07   0.14   0.14     0.01  -0.00  -0.01    -0.02  -0.00   0.02
  57   1     0.05  -0.11  -0.10    -0.00  -0.02  -0.02     0.02   0.02   0.02
  58   1     0.04  -0.09  -0.08    -0.04   0.06   0.06     0.05  -0.04  -0.05
  59   1     0.07  -0.14  -0.14     0.01  -0.00  -0.01    -0.00  -0.01   0.00
                     40                     41                     42
                        a                      a                      a 
 Frequencies --   497.7532               499.5845               508.4822
 Red. masses --    11.5591                10.7517                13.2332
 Frc consts  --     0.0000                 0.0000                 0.0000
 IR Inten    --     0.5167                 0.0743                 0.4419
 Raman Activ --     0.0000                 0.0000                 0.0000
 Depolar     --     0.0000                 0.0000                 0.0000
 Atom AN      X      Y      Z        X      Y      Z        X      Y      Z
   1  35     0.00   0.01   0.07     0.00   0.01   0.06    -0.00   0.01   0.06
   2   6    -0.15  -0.11  -0.11    -0.12  -0.09  -0.10    -0.11  -0.09  -0.11
   3   6    -0.11  -0.06  -0.11    -0.09  -0.05  -0.09    -0.08  -0.06  -0.08
   4   6     0.20  -0.07   0.05     0.16  -0.05   0.05     0.17  -0.05   0.06
   5   6     0.16   0.25   0.12     0.13   0.20   0.10     0.13   0.23   0.12
   6   6    -0.10   0.06   0.02    -0.05   0.07  -0.01    -0.11   0.07  -0.07
   7   6    -0.13   0.11  -0.03    -0.04   0.09  -0.04    -0.04  -0.02  -0.06
   8   6    -0.06   0.08  -0.11    -0.04   0.03  -0.05     0.01  -0.05   0.08
   9   6    -0.01   0.04  -0.16    -0.05   0.02  -0.07     0.03  -0.03   0.11
  10   6     0.03  -0.02  -0.02    -0.01   0.01   0.00     0.00   0.00   0.01
  11   6     0.03  -0.02   0.01     0.03  -0.02  -0.00    -0.01   0.02  -0.01
  12   6    -0.01  -0.04  -0.03    -0.01  -0.05  -0.03    -0.00   0.02   0.01
  13   6    -0.03   0.00   0.02    -0.04   0.00   0.03     0.01   0.00  -0.01
  14   6    -0.01  -0.02   0.03    -0.01  -0.02   0.03     0.01   0.01  -0.01
  15  35     0.01   0.01  -0.01     0.01   0.01  -0.01    -0.01  -0.01   0.01
  16   6    -0.06   0.12   0.08     0.15  -0.25  -0.26     0.06   0.01   0.06
  17   6    -0.01  -0.05   0.10     0.05  -0.06  -0.04     0.06   0.11  -0.10
  18   6    -0.04  -0.18  -0.05    -0.10   0.24   0.23     0.14   0.12  -0.08
  19  35     0.08   0.02   0.02     0.01  -0.01  -0.00    -0.13  -0.04  -0.01
  20   6    -0.23  -0.06   0.12     0.06  -0.21  -0.17     0.25   0.19  -0.06
  21   6    -0.17  -0.14  -0.10    -0.11   0.14   0.17     0.27   0.05   0.09
  22   6    -0.03   0.00   0.03     0.04  -0.08  -0.04     0.06  -0.02   0.03
  23   6     0.04  -0.01  -0.03    -0.01   0.03   0.06     0.02  -0.10   0.01
  24   6     0.11   0.23   0.03     0.12  -0.11  -0.12    -0.19  -0.11   0.20
  25   6     0.28  -0.02  -0.07    -0.01   0.16   0.15    -0.21  -0.20  -0.11
  26   6     0.05   0.16   0.16     0.10  -0.18  -0.16    -0.25   0.06   0.07
  27  35    -0.06  -0.06   0.02    -0.00  -0.00   0.01     0.11   0.08  -0.03
  28   6     0.09  -0.06   0.03    -0.04   0.00   0.06    -0.13  -0.05  -0.10
  29   6     0.06  -0.11  -0.18    -0.13   0.17   0.18     0.02  -0.19  -0.05
  30   1     0.00  -0.06  -0.03     0.00  -0.05  -0.03     0.01  -0.05  -0.03
  31   1    -0.09  -0.06  -0.01    -0.07  -0.05  -0.01    -0.07  -0.05  -0.01
  32   1    -0.06  -0.05  -0.03    -0.05  -0.04  -0.02    -0.05  -0.04  -0.02
  33   1    -0.05  -0.03  -0.03    -0.04  -0.02  -0.03    -0.05  -0.03  -0.03
  34   1     0.14  -0.05   0.02     0.11  -0.04   0.01     0.13  -0.05   0.02
  35   1     0.02  -0.02  -0.07     0.01  -0.02  -0.05     0.01  -0.02  -0.06
  36   1     0.02   0.05  -0.02     0.01   0.05  -0.01     0.01   0.07   0.02
  37   1     0.08   0.12   0.03     0.06   0.08   0.02     0.07   0.06   0.04
  38   1     0.00  -0.11   0.03     0.00  -0.07   0.02    -0.01  -0.09   0.00
  39   1    -0.13   0.03  -0.03    -0.09   0.03  -0.04    -0.13   0.03  -0.05
  40   1    -0.06   0.05  -0.01     0.04   0.01   0.01    -0.01  -0.02  -0.03
  41   1    -0.03  -0.00  -0.00     0.00   0.07  -0.04     0.01  -0.03  -0.04
  42   1     0.03   0.00  -0.04    -0.04  -0.00  -0.05     0.01  -0.00   0.05
  43   1     0.01   0.02  -0.08    -0.02  -0.02   0.00     0.01   0.00   0.02
  44   1    -0.01   0.00   0.03    -0.01   0.02   0.02     0.01  -0.01  -0.02
  45   1     0.05  -0.02  -0.00     0.02  -0.00   0.00    -0.03   0.01  -0.00
  46   1     0.03  -0.00   0.00     0.03  -0.01   0.00    -0.01   0.00  -0.00
  47   1     0.00  -0.00   0.02    -0.00  -0.01   0.02     0.00   0.01  -0.01
  48   1    -0.00  -0.01  -0.02    -0.01  -0.01  -0.01     0.00   0.01   0.01
  49   1     0.01   0.00  -0.01     0.01  -0.01  -0.01    -0.00   0.00   0.00
  50   1     0.01   0.01   0.00     0.01   0.01   0.00    -0.01  -0.00   0.00
  51   1    -0.02   0.01   0.01    -0.02   0.01   0.01     0.01  -0.01  -0.01
  52   1     0.01  -0.00   0.02     0.01  -0.00   0.02    -0.00   0.00  -0.01
  53   1    -0.00  -0.01  -0.00     0.00  -0.01  -0.00     0.00   0.01   0.00
  54   1    -0.01  -0.03   0.02     0.00   0.00   0.01     0.04   0.05  -0.04
  55   1    -0.07   0.00   0.05     0.03  -0.11  -0.09     0.05   0.05  -0.03
  56   1    -0.04  -0.06  -0.04    -0.05   0.07   0.08     0.08   0.01   0.02
  57   1     0.02   0.09   0.03     0.05  -0.06  -0.06    -0.06  -0.02   0.07
  58   1     0.09  -0.04  -0.04    -0.02   0.08   0.07    -0.04  -0.06  -0.06
  59   1     0.04  -0.00   0.02    -0.00  -0.02   0.00    -0.07  -0.01  -0.02
                     43                     44                     45
                        a                      a                      a 
 Frequencies --   518.9882               527.6029               545.2409
 Red. masses --    11.1624                11.2854                11.5804
 Frc consts  --     0.0000                 0.0000                 0.0000
 IR Inten    --     0.2937                 3.1504                 1.3312
 Raman Activ --     0.0000                 0.0000                 0.0000
 Depolar     --     0.0000                 0.0000                 0.0000
 Atom AN      X      Y      Z        X      Y      Z        X      Y      Z
   1  35     0.00  -0.00  -0.00     0.00  -0.00  -0.02     0.00  -0.00  -0.02
   2   6     0.01   0.00   0.01     0.02   0.02   0.03     0.01   0.02   0.03
   3   6     0.01   0.00   0.00     0.02   0.02   0.02     0.01   0.01   0.01
   4   6    -0.01   0.00  -0.01    -0.03   0.01  -0.02    -0.03   0.00  -0.03
   5   6    -0.01  -0.02  -0.01    -0.00  -0.12  -0.07    -0.02  -0.04  -0.02
   6   6     0.02  -0.01   0.01     0.04  -0.04  -0.07     0.04  -0.02   0.09
   7   6    -0.03  -0.01   0.00    -0.03   0.06  -0.03    -0.05   0.10   0.03
   8   6    -0.15  -0.08  -0.00    -0.05   0.06   0.07    -0.11   0.04  -0.25
[...]
   6   6    -0.00   0.00  -0.00    -0.00   0.01  -0.01     0.01   0.04  -0.02
   7   6     0.00  -0.00   0.00    -0.00   0.00  -0.00     0.05   0.01   0.02
   8   6     0.00  -0.00   0.00    -0.00   0.00  -0.00     0.00  -0.00   0.00
   9   6     0.00   0.00  -0.00    -0.00   0.00  -0.00     0.00  -0.00   0.00
  10   6     0.01   0.00  -0.00     0.00   0.00  -0.00     0.00   0.00   0.00
  11   6     0.00   0.00  -0.01     0.00   0.00  -0.00     0.00   0.00   0.00
  12   6    -0.00  -0.00   0.00    -0.00  -0.00  -0.00     0.00   0.00   0.00
  13   6    -0.04   0.02   0.02     0.00  -0.00  -0.00     0.00   0.00  -0.00
  14   6    -0.25   0.04  -0.06     0.00  -0.00   0.00    -0.00   0.00   0.00
  15  35    -0.00  -0.00   0.00     0.00   0.00  -0.00     0.00   0.00  -0.00
  16   6     0.00  -0.00   0.00    -0.00  -0.00   0.00    -0.00  -0.00   0.00
  17   6     0.00  -0.00  -0.00     0.00  -0.00   0.00     0.00  -0.00   0.00
  18   6     0.00  -0.00   0.00    -0.00   0.00  -0.00     0.00   0.00  -0.00
  19  35     0.00   0.00   0.00     0.00   0.00   0.00    -0.00   0.00   0.00
  20   6    -0.00  -0.00  -0.00    -0.00   0.00  -0.00    -0.00  -0.00   0.00
  21   6    -0.00   0.00  -0.00     0.00   0.00  -0.00    -0.00   0.00  -0.00
  22   6    -0.00  -0.00  -0.00    -0.00  -0.00   0.00     0.00   0.00   0.00
  23   6    -0.00  -0.00  -0.00     0.00  -0.00   0.00    -0.00  -0.00   0.00
  24   6     0.00  -0.00   0.00     0.00   0.00  -0.00     0.00   0.00  -0.00
  25   6     0.00   0.00   0.00    -0.00   0.00  -0.00    -0.00  -0.00  -0.00
  26   6    -0.00  -0.00  -0.00     0.00   0.00   0.00     0.00  -0.00   0.00
  27  35     0.00   0.00  -0.00     0.00   0.00  -0.00    -0.00  -0.00   0.00
  28   6    -0.00  -0.00   0.00    -0.00  -0.00   0.00    -0.00  -0.00   0.00
  29   6    -0.00   0.00  -0.00     0.00   0.00   0.00     0.00  -0.00  -0.00
  30   1     0.00   0.00  -0.00     0.37   0.73  -0.38    -0.13  -0.23   0.12
  31   1    -0.00   0.00   0.00     0.17  -0.26   0.01     0.28  -0.33  -0.00
  32   1     0.00  -0.00  -0.00     0.11  -0.14  -0.02     0.45  -0.55  -0.10
  33   1    -0.00   0.00   0.00     0.00  -0.00  -0.05    -0.03   0.03   0.12
  34   1    -0.00   0.00   0.00     0.00  -0.00  -0.04    -0.01   0.01   0.12
  35   1    -0.00   0.00  -0.00     0.01  -0.02  -0.00     0.08  -0.11  -0.04
  36   1     0.00   0.00  -0.00    -0.00  -0.01   0.01    -0.03  -0.06   0.03
  37   1    -0.00   0.00   0.00     0.00  -0.00  -0.00     0.00   0.01   0.01
  38   1     0.00   0.00   0.00     0.03   0.01   0.01     0.02   0.01   0.00
  39   1    -0.00  -0.00   0.00    -0.02  -0.06   0.04    -0.06  -0.15   0.09
  40   1     0.00   0.00  -0.00    -0.01  -0.01   0.01     0.01   0.00   0.00
  41   1    -0.01  -0.00  -0.00     0.02   0.00   0.01    -0.20  -0.03  -0.09
  42   1    -0.00  -0.00   0.00    -0.00  -0.00   0.00     0.00   0.01  -0.00
  43   1     0.00   0.00   0.00     0.00   0.00   0.00    -0.02  -0.01  -0.01
  44   1    -0.03  -0.01  -0.01    -0.00  -0.00  -0.00    -0.01  -0.00  -0.00
  45   1    -0.00  -0.00   0.02    -0.00   0.00   0.00     0.00   0.00  -0.00
  46   1    -0.00  -0.00   0.05    -0.00  -0.00   0.00     0.00   0.00  -0.01
  47   1     0.00   0.00  -0.00    -0.00  -0.00  -0.00    -0.00  -0.00  -0.00
  48   1     0.01   0.02  -0.01     0.00   0.00  -0.00    -0.00  -0.00   0.00
  49   1    -0.00  -0.00  -0.01    -0.00  -0.00   0.00    -0.00   0.00  -0.00
  50   1     0.08  -0.15  -0.04    -0.00   0.00   0.00     0.00   0.00  -0.00
  51   1     0.04   0.09  -0.05    -0.00  -0.00   0.00    -0.00  -0.00   0.00
  52   1    -0.01  -0.06  -0.03     0.00  -0.00   0.00     0.00  -0.00  -0.00
  53   1     0.90  -0.06   0.24    -0.01   0.00  -0.00    -0.00   0.00  -0.00
  54   1     0.00  -0.00   0.00    -0.00   0.00  -0.00    -0.00   0.00  -0.00
  55   1     0.00   0.00  -0.00     0.00  -0.00   0.00     0.00   0.00  -0.00
  56   1     0.00  -0.00   0.00     0.00  -0.00  -0.00     0.00  -0.00   0.00
  57   1    -0.00   0.00  -0.00     0.00  -0.00   0.00     0.00  -0.00   0.00
  58   1    -0.00   0.00  -0.00     0.00  -0.00   0.00     0.00  -0.00   0.00
  59   1    -0.00   0.00  -0.00    -0.00   0.00  -0.00    -0.00   0.00  -0.00
                    163                    164                    165
                        a                      a                      a 
 Frequencies --  3008.4795              3009.9628              3014.1713
 Red. masses --     1.6966                 1.6362                 1.6563
 Frc consts  --     0.0000                 0.0000                 0.0000
 IR Inten    --    13.9364                50.7378                73.6141
 Raman Activ --     0.0000                 0.0000                 0.0000
 Depolar     --     0.0000                 0.0000                 0.0000
 Atom AN      X      Y      Z        X      Y      Z        X      Y      Z
   1  35    -0.00   0.00   0.00     0.00   0.00  -0.00    -0.00   0.00  -0.00
   2   6    -0.00   0.00  -0.00     0.00  -0.03   0.01     0.00  -0.00   0.00
   3   6    -0.00   0.00  -0.00     0.02  -0.02   0.01     0.00  -0.00   0.00
   4   6    -0.00   0.00  -0.00     0.01  -0.01   0.05     0.00  -0.00   0.00
   5   6     0.00   0.00  -0.00    -0.00  -0.01   0.02    -0.00  -0.00   0.00
   6   6     0.00  -0.00   0.00     0.03  -0.02   0.03     0.00  -0.00   0.00
   7   6    -0.00   0.00  -0.00     0.19  -0.00   0.12     0.00  -0.00   0.00
   8   6    -0.00  -0.00  -0.00     0.01  -0.00   0.00    -0.00  -0.00  -0.00
   9   6    -0.01  -0.00  -0.00     0.02  -0.01   0.02    -0.00  -0.01   0.00
  10   6    -0.01  -0.00   0.01     0.01   0.00   0.00    -0.01  -0.00   0.03
  11   6    -0.02  -0.01   0.05     0.00   0.00   0.00    -0.06  -0.02   0.22
  12   6    -0.01  -0.01   0.01     0.00   0.00   0.00    -0.01  -0.01   0.04
  13   6     0.02  -0.04  -0.01     0.00  -0.00  -0.00    -0.01   0.01   0.01
  14   6     0.07  -0.21  -0.08     0.00  -0.01  -0.00    -0.03   0.06   0.02
  15  35    -0.00  -0.00   0.00    -0.00  -0.00   0.00     0.00   0.00  -0.00
  16   6    -0.00   0.00  -0.00     0.00   0.00  -0.00    -0.00   0.00  -0.00
  17   6     0.00  -0.00   0.00    -0.00   0.00  -0.00     0.00  -0.00   0.00
  18   6    -0.00   0.00  -0.00    -0.00  -0.00   0.00     0.00   0.00  -0.00
  19  35     0.00   0.00   0.00    -0.00  -0.00  -0.00     0.00  -0.00   0.00
  20   6     0.00   0.00   0.00     0.00   0.00  -0.00     0.00  -0.00   0.00
  21   6    -0.00  -0.00   0.00    -0.00   0.00  -0.00     0.00  -0.00   0.00
  22   6     0.00   0.00   0.00     0.00   0.00   0.00     0.00  -0.00   0.00
  23   6     0.00   0.00   0.00     0.00   0.00  -0.00     0.00   0.00   0.00
  24   6    -0.00  -0.00  -0.00    -0.00   0.00  -0.00    -0.00  -0.00   0.00
  25   6     0.00  -0.00   0.00     0.00   0.00   0.00     0.00   0.00  -0.00
  26   6    -0.00   0.00  -0.00    -0.00  -0.00  -0.00    -0.00  -0.00   0.00
  27  35     0.00   0.00  -0.00    -0.00  -0.00   0.00     0.00   0.00  -0.00
  28   6     0.00   0.00  -0.00     0.00   0.00  -0.00     0.00   0.00  -0.00
  29   6     0.00  -0.00   0.00    -0.00  -0.00  -0.00    -0.00  -0.00   0.00
  30   1    -0.00  -0.00   0.00     0.03   0.05  -0.03     0.00   0.00  -0.00
  31   1     0.00  -0.00  -0.00    -0.03   0.04   0.00    -0.00   0.00   0.00
  32   1     0.00  -0.00  -0.00    -0.08   0.09   0.02    -0.00   0.00   0.00
  33   1    -0.00   0.00   0.00     0.01  -0.01  -0.05     0.00  -0.00  -0.00
  34   1    -0.00   0.00   0.00     0.01  -0.02  -0.22     0.00  -0.00  -0.00
  35   1     0.00  -0.00  -0.00    -0.03   0.05   0.02    -0.00   0.00   0.00
  36   1    -0.00  -0.00   0.00     0.01   0.04  -0.02     0.00   0.00  -0.00
  37   1     0.00  -0.00  -0.00     0.00  -0.01  -0.06     0.00  -0.00  -0.00
  38   1    -0.00  -0.00  -0.00    -0.12  -0.04  -0.04    -0.00  -0.00  -0.00
  39   1     0.00   0.00  -0.00     0.04   0.11  -0.06     0.00   0.00  -0.00
  40   1    -0.00  -0.00   0.00     0.11   0.13  -0.07     0.00   0.01  -0.00
  41   1     0.01   0.00   0.01    -0.80  -0.11  -0.35    -0.01  -0.00  -0.00
  42   1     0.00   0.01  -0.00     0.02   0.05  -0.03     0.01   0.03  -0.01
  43   1     0.02   0.00   0.01    -0.10  -0.03  -0.03     0.01   0.00   0.00
  44   1     0.05   0.01   0.03    -0.02  -0.00  -0.01     0.02   0.01   0.01
  45   1     0.00  -0.00  -0.05     0.00   0.00  -0.01     0.01   0.00  -0.11
  46   1     0.01   0.01  -0.23     0.00  -0.00   0.01     0.04   0.04  -0.89
  47   1     0.08   0.01   0.04    -0.01  -0.00  -0.01     0.17   0.03   0.11
  48   1     0.02   0.04  -0.02    -0.00  -0.00   0.00     0.01   0.03  -0.01
  49   1    -0.00  -0.00   0.00     0.00  -0.00  -0.00    -0.00  -0.00  -0.13
  50   1    -0.07   0.12   0.04    -0.00   0.00   0.00     0.03  -0.05  -0.01
  51   1     0.01   0.02  -0.01    -0.00  -0.00   0.00     0.01   0.02  -0.01
  52   1    -0.36   0.80   0.26    -0.01   0.02   0.01     0.10  -0.21  -0.07
  53   1     0.11  -0.03   0.02    -0.00  -0.00  -0.00     0.01   0.01   0.01
  54   1    -0.00   0.00  -0.00     0.01  -0.01   0.01    -0.01   0.00  -0.01
  55   1    -0.00  -0.00   0.00    -0.00  -0.00   0.00     0.00   0.00  -0.00
  56   1     0.00  -0.00   0.00     0.00  -0.00   0.00    -0.00   0.00  -0.00
  57   1    -0.00   0.00  -0.00     0.00  -0.00   0.00    -0.00   0.00  -0.00
  58   1    -0.00   0.00  -0.00    -0.00   0.00  -0.00     0.00  -0.00   0.00
  59   1     0.00  -0.00   0.00    -0.00  -0.00   0.00     0.00  -0.00   0.00
                    166                    167                    168
                        a                      a                      a 
 Frequencies --  3089.8089              3092.5524              3096.3786
 Red. masses --     1.7818                 1.8331                 1.7948
 Frc consts  --     0.0000                 0.0000                 0.0000
 IR Inten    --     6.3692                14.2073                 3.0841
 Raman Activ --     0.0000                 0.0000                 0.0000
 Depolar     --     0.0000                 0.0000                 0.0000
 Atom AN      X      Y      Z        X      Y      Z        X      Y      Z
   1  35     0.00  -0.00  -0.00     0.00  -0.00  -0.00    -0.00   0.00   0.00
   2   6    -0.00   0.00   0.00    -0.00   0.00  -0.00     0.00  -0.00  -0.00
   3   6    -0.00   0.00   0.00    -0.00   0.00  -0.00    -0.00   0.00  -0.00
   4   6    -0.00   0.00  -0.00    -0.00   0.00  -0.00     0.00  -0.00  -0.00
   5   6    -0.00   0.00   0.00     0.00   0.00  -0.00    -0.00  -0.00  -0.00
   6   6    -0.00  -0.00   0.00     0.00   0.00  -0.00    -0.00  -0.00   0.00
   7   6    -0.00  -0.00   0.00     0.00   0.00  -0.00    -0.00  -0.00  -0.00
   8   6    -0.00   0.00  -0.00     0.00   0.00  -0.00     0.00  -0.00   0.00
   9   6    -0.00  -0.00   0.00     0.00   0.00  -0.00    -0.00  -0.00  -0.00
  10   6    -0.00  -0.00  -0.00     0.00   0.00   0.00    -0.00  -0.00   0.00
  11   6    -0.00  -0.00   0.00     0.00   0.00  -0.00    -0.00  -0.00   0.00
  12   6    -0.00  -0.00  -0.00     0.00   0.00  -0.00     0.00   0.00   0.00
  13   6     0.00   0.00  -0.00    -0.00   0.00  -0.00    -0.00   0.00   0.00
  14   6     0.00   0.00   0.00    -0.00   0.00   0.00    -0.00  -0.00  -0.00
  15  35    -0.00  -0.00   0.00    -0.00  -0.00   0.00     0.00   0.00  -0.00
  16   6    -0.00  -0.00  -0.00    -0.00   0.00  -0.00     0.00   0.00  -0.00
  17   6     0.00  -0.00   0.00     0.00  -0.00   0.01    -0.04   0.02  -0.05
  18   6     0.00   0.00  -0.00     0.00   0.00  -0.00     0.00   0.00  -0.00
  19  35    -0.00  -0.00   0.00    -0.00  -0.00   0.00    -0.00  -0.00   0.00
  20   6     0.00   0.01  -0.01     0.00   0.01  -0.01     0.08   0.18  -0.14
  21   6     0.01  -0.01   0.01     0.00  -0.00   0.00     0.06  -0.04   0.07
  22   6     0.00  -0.00   0.00     0.00   0.00  -0.00     0.00  -0.00   0.00
  23   6    -0.00   0.00  -0.00     0.00  -0.00   0.00     0.00   0.00  -0.00
  24   6    -0.00   0.09  -0.09    -0.00   0.01  -0.02    -0.00   0.01  -0.01
  25   6     0.20  -0.01   0.12     0.03  -0.00   0.02    -0.02   0.00  -0.01
  26   6     0.01   0.00   0.00     0.01   0.01  -0.00    -0.00  -0.00   0.00
  27  35    -0.00  -0.00  -0.00    -0.00  -0.00   0.00     0.00   0.00  -0.00
  28   6    -0.00  -0.03   0.03    -0.00   0.19  -0.19     0.00  -0.00   0.00
  29   6     0.00  -0.00   0.00    -0.01  -0.00  -0.01     0.00  -0.00   0.00
  30   1     0.00   0.00  -0.00    -0.00  -0.00   0.00    -0.00  -0.00   0.00
  31   1     0.00  -0.00   0.00     0.00  -0.00   0.00    -0.00   0.00  -0.00
  32   1     0.00  -0.00  -0.00     0.00  -0.00  -0.00     0.00  -0.00  -0.00
  33   1     0.00  -0.00  -0.00    -0.00   0.00   0.00    -0.00   0.00   0.00
  34   1    -0.00   0.00   0.00     0.00   0.00   0.00     0.00  -0.00   0.00
  35   1     0.00  -0.00  -0.00     0.00  -0.00  -0.00    -0.00   0.00   0.00
  36   1     0.00   0.00   0.00    -0.00  -0.00   0.00     0.00   0.00  -0.00
  37   1     0.00  -0.00  -0.00    -0.00   0.00   0.00    -0.00   0.00   0.00
  38   1     0.00   0.00   0.00    -0.00   0.00  -0.00     0.00   0.00   0.00
  39   1     0.00   0.00  -0.00    -0.00  -0.00   0.00     0.00   0.00  -0.00
  40   1     0.00   0.00  -0.00    -0.01  -0.01   0.01     0.00   0.00  -0.00
  41   1     0.00   0.00   0.00    -0.00  -0.00  -0.00     0.00   0.00   0.00
  42   1     0.00   0.00  -0.00    -0.00  -0.01   0.01     0.00   0.00  -0.00
  43   1     0.00   0.00   0.00    -0.00  -0.00  -0.00     0.00   0.00   0.00
  44   1     0.00  -0.00   0.00    -0.00   0.00  -0.00     0.00   0.00   0.00
  45   1    -0.00  -0.00   0.00    -0.00  -0.00   0.00     0.00  -0.00  -0.00
  46   1     0.00   0.00  -0.00    -0.00  -0.00   0.00     0.00   0.00  -0.00
  47   1     0.00   0.00   0.00    -0.00  -0.00  -0.00     0.00   0.00   0.00
  48   1     0.00   0.00  -0.00    -0.00  -0.00   0.00     0.00  -0.00   0.00
  49   1    -0.00   0.00   0.00     0.00   0.00   0.00     0.00  -0.00  -0.00
  50   1    -0.00   0.00   0.00     0.00  -0.00  -0.00     0.00  -0.00  -0.00
  51   1    -0.00  -0.00   0.00    -0.00  -0.00   0.00    -0.00   0.00   0.00
  52   1     0.00  -0.00  -0.00     0.00  -0.00  -0.00    -0.00   0.00   0.00
  53   1    -0.00   0.00  -0.00     0.00   0.00   0.00     0.00  -0.00   0.00
  54   1    -0.00   0.00  -0.00    -0.02   0.01  -0.02     0.15  -0.08   0.17
  55   1    -0.02  -0.03   0.03    -0.01  -0.03   0.02    -0.29  -0.63   0.49
  56   1    -0.04   0.02  -0.04    -0.01   0.01  -0.01    -0.23   0.15  -0.26
  57   1     0.02  -0.33   0.35     0.00  -0.05   0.06     0.00  -0.02   0.03
  58   1    -0.70   0.05  -0.43    -0.10   0.01  -0.06     0.08  -0.01   0.05
  59   1    -0.00   0.10  -0.10     0.03  -0.65   0.69    -0.00   0.02  -0.02
                    169                    170                    171
                        a                      a                      a 
 Frequencies --  3097.4658              3103.0564              3112.2158
 Red. masses --     1.8361                 1.8819                 1.8723
 Frc consts  --     0.0000                 0.0000                 0.0000
 IR Inten    --     1.9317                 9.4835                15.6036
 Raman Activ --     0.0000                 0.0000                 0.0000
 Depolar     --     0.0000                 0.0000                 0.0000
 Atom AN      X      Y      Z        X      Y      Z        X      Y      Z
   1  35     0.00  -0.00  -0.00     0.00   0.00   0.00     0.00  -0.00  -0.00
   2   6    -0.00   0.00   0.00    -0.00   0.00   0.00    -0.00   0.00   0.00
   3   6     0.00  -0.00   0.00    -0.00   0.00   0.00     0.00  -0.00   0.00
   4   6    -0.00   0.00   0.00    -0.00   0.00   0.00    -0.00   0.00   0.00
   5   6     0.00   0.00   0.00    -0.00   0.00   0.00    -0.00   0.00   0.00
   6   6     0.00   0.00   0.00    -0.00   0.00  -0.00     0.00   0.00  -0.00
   7   6     0.00   0.00   0.00    -0.00  -0.00   0.00     0.00   0.00   0.00
   8   6     0.00   0.00   0.00    -0.00  -0.00   0.00     0.00  -0.00   0.00
   9   6     0.00   0.00   0.00    -0.00  -0.00   0.00     0.00   0.00   0.00
  10   6     0.00   0.00   0.00    -0.00  -0.00  -0.00     0.00   0.00  -0.00
  11   6     0.00   0.00  -0.00     0.00   0.00  -0.00     0.00   0.00  -0.00
  12   6    -0.00  -0.00   0.00    -0.00  -0.00   0.00    -0.00  -0.00   0.00
  13   6     0.00  -0.00  -0.00    -0.00  -0.00   0.00     0.00  -0.00  -0.00
  14   6     0.00  -0.00   0.00     0.00   0.00   0.00     0.00  -0.00   0.00
  15  35     0.00  -0.00  -0.00     0.00   0.00  -0.00     0.00  -0.00  -0.00
  16   6    -0.01  -0.01   0.01    -0.00  -0.00   0.00    -0.00   0.00  -0.00
  17   6     0.17  -0.09   0.18     0.00   0.00   0.00     0.00  -0.00   0.00
  18   6     0.01   0.00   0.00     0.00   0.00   0.00    -0.00   0.00  -0.00
  19  35    -0.00  -0.00  -0.00    -0.00  -0.00  -0.00     0.00   0.00   0.00
  20   6     0.02   0.05  -0.04     0.01   0.03  -0.02    -0.04  -0.09   0.07
  21   6     0.01  -0.01   0.02    -0.02   0.01  -0.02     0.16  -0.09   0.17
  22   6    -0.00   0.00  -0.00    -0.00  -0.00   0.00     0.01   0.00   0.00
  23   6     0.00   0.00   0.00    -0.00  -0.00   0.00    -0.00  -0.00   0.00
  24   6    -0.00   0.00  -0.00     0.01  -0.16   0.17     0.00  -0.03   0.03
  25   6    -0.01   0.00  -0.01     0.12  -0.01   0.07     0.01  -0.00   0.01
  26   6    -0.00  -0.00   0.00     0.00   0.00  -0.00     0.00   0.00  -0.00
  27  35     0.00   0.00  -0.00    -0.00  -0.00   0.00    -0.00  -0.00   0.00
  28   6     0.00  -0.01   0.01     0.00   0.00  -0.00    -0.00   0.00  -0.00
  29   6     0.00  -0.00   0.00     0.00   0.00  -0.00     0.00   0.00  -0.00
  30   1    -0.00   0.00   0.00     0.00   0.00  -0.00    -0.00  -0.00   0.00
  31   1     0.00  -0.00   0.00     0.00  -0.00  -0.00     0.00  -0.00   0.00
  32   1    -0.01   0.01   0.00     0.00  -0.00  -0.00    -0.00   0.00   0.00
  33   1     0.00  -0.00  -0.00     0.00  -0.00  -0.00     0.00  -0.00  -0.00
  34   1    -0.00  -0.00  -0.00    -0.00   0.00  -0.00    -0.00  -0.00  -0.00
  35   1     0.00  -0.00  -0.00     0.00  -0.00  -0.00     0.00  -0.00  -0.00
  36   1    -0.00  -0.00   0.00     0.00   0.00  -0.00    -0.00  -0.00   0.00
  37   1     0.00  -0.00  -0.00     0.00  -0.00  -0.00     0.00  -0.00  -0.00
  38   1    -0.00  -0.00  -0.00     0.00   0.00   0.00     0.00   0.00   0.00
  39   1     0.00  -0.00   0.00    -0.00  -0.00   0.00    -0.00  -0.00   0.00
  40   1    -0.00  -0.00   0.00     0.00   0.00  -0.00    -0.00  -0.00   0.00
  41   1    -0.02  -0.00  -0.01     0.00  -0.00   0.00    -0.00  -0.00  -0.00
  42   1    -0.00  -0.00   0.00     0.00   0.00  -0.00    -0.00  -0.00   0.00
  43   1    -0.01  -0.00  -0.00     0.00   0.00   0.00    -0.00  -0.00  -0.00
  44   1    -0.00  -0.00  -0.00     0.00   0.00   0.00     0.00  -0.00  -0.00
  45   1    -0.00   0.00   0.00     0.00   0.00   0.00     0.00   0.00   0.00
  46   1    -0.00  -0.00   0.01    -0.00  -0.00   0.00     0.00  -0.00   0.00
  47   1    -0.00  -0.00  -0.00    -0.00  -0.00  -0.00    -0.00  -0.00  -0.00
  48   1     0.00   0.00   0.00     0.00   0.00  -0.00     0.00   0.00  -0.00
  49   1    -0.00   0.00  -0.00    -0.00  -0.00  -0.00    -0.00   0.00  -0.00
  50   1    -0.00   0.00   0.00    -0.00  -0.00  -0.00    -0.00   0.00   0.00
  51   1    -0.00  -0.00  -0.00     0.00   0.00  -0.00     0.00   0.00  -0.00
  52   1    -0.00   0.00   0.00     0.00  -0.01  -0.00    -0.00   0.00   0.00
  53   1    -0.00  -0.00  -0.00    -0.00   0.00  -0.00    -0.00   0.00  -0.00
  54   1    -0.59   0.32  -0.65    -0.00   0.00  -0.00    -0.01   0.00  -0.01
  55   1    -0.07  -0.16   0.13    -0.05  -0.10   0.08     0.12   0.27  -0.22
  56   1    -0.05   0.03  -0.06     0.07  -0.04   0.08    -0.54   0.34  -0.60
  57   1     0.00  -0.00   0.00    -0.04   0.55  -0.60    -0.01   0.10  -0.11
  58   1     0.03  -0.00   0.02    -0.40   0.03  -0.25    -0.04   0.00  -0.03
  59   1    -0.00   0.02  -0.02     0.00  -0.00   0.00     0.00  -0.00   0.00
