$hessian                                                                        
        0.0277424473  -0.0034241924  -0.0158562804  -0.0238650186   0.0036994022
        0.0129495530   0.0024936772  -0.0046109742  -0.0153928931  -0.0001560101
       -0.0004578157  -0.0015848780   0.0000093630   0.0000621576  -0.0000925123
       -0.0000159378   0.0000501986   0.0000246588   0.0001965788  -0.0000516293
        0.0000557845   0.0000906417  -0.0000013137   0.0000039053   0.0001159199
        0.0000064028   0.0000182912  -0.0000094592  -0.0000139202  -0.0000308032
        0.0000090327  -0.0000056444  -0.0000003148   0.0000029413  -0.0000067348
       -0.0000101559  -0.0000040780   0.0000103655  -0.0000171876   0.0000261773
       -0.0000144625  -0.0000024480  -0.0000311094  -0.0000037981   0.0000295820
       -0.0000500751   0.0000780655  -0.0001301559  -0.0002009655   0.0004623312
        0.0002388278  -0.0005557792  -0.0002389079  -0.0000294540   0.0001002685
        0.0000720727  -0.0000157539   0.0001658246   0.0000546908  -0.0000338035
       -0.0000053941  -0.0000078480  -0.0000044578  -0.0001143076  -0.0001030507
        0.0000057091   0.0000548316   0.0000499892  -0.0000329158  -0.0000697797
       -0.0000135820  -0.0000200973  -0.0000017611   0.0000046468  -0.0000037589
        0.0000289205   0.0000285430  -0.0000229471  -0.0000243308  -0.0000053020
       -0.0000060925   0.0000191636   0.0000120706   0.0000037781   0.0000665039
       -0.0000288046   0.0000788507  -0.0004301039   0.0029982517   0.0110389108
       -0.0008930932   0.0036193939   0.0138959592   0.0005757986  -0.0004250100
       -0.0008235185  -0.0024155790  -0.0012424657  -0.0022821040  -0.0011568721
       -0.0012758274  -0.0011629068  -0.0000122281  -0.0001926501  -0.0001492539
        0.0000374359   0.0000210943   0.0000350943  -0.0000761772  -0.0000371580
       -0.0000376036   0.0000080722  -0.0000071849  -0.0000686160  -0.0000080410
       -0.0000300325   0.0000078004  -0.0000079286   0.0000303430  -0.0000161393
       -0.0003254677   0.0001240272   0.0000638108   0.0000136214   0.0000289484
       -0.0000405467   0.0000455127  -0.0000916489  -0.0001197673  -0.0000278467
        0.0000243993  -0.0000019626  -0.0000005919   0.0000068205  -0.0000040945
        0.0000186377  -0.0000175268   0.0000245068  -0.0000082958  -0.0000489972
       -0.0000281108  -0.0000062665   0.0000123514  -0.0000043790  -0.0000047832
        0.0000001657   0.0000062945  -0.0000145707   0.0000148861   0.0000003982
        0.0000132540  -0.0000044825  -0.0000088854   0.0000133602   0.0000116431
        0.0000042228  -0.0000040777   0.0000079408  -0.0000078263  -0.0013197451
        0.0007943000  -0.0003370165  -0.0000168071   0.0000395012  -0.0000540629
       -0.0000001783   0.0000205156  -0.0000192755  -0.0000093444   0.0000088109
       -0.0000191091  -0.0000195674   0.0000028478  -0.0000130520   0.0000135871
        0.0000037871  -0.0000007977
       -0.0034241924   0.0311100848   0.0340109432   0.0042203396  -0.0274479743
       -0.0143924261  -0.0016020699  -0.0019114610  -0.0078382234  -0.0004575557
       -0.0000410265  -0.0017774011   0.0000973520  -0.0000247907   0.0000632880
       -0.0000333051  -0.0000692130   0.0000409506   0.0000595692  -0.0000299173
       -0.0000008281  -0.0000005625  -0.0000345345   0.0000380990  -0.0000046003
        0.0000018514   0.0000375181  -0.0000283662  -0.0000070636  -0.0000015888
       -0.0000205053  -0.0000183287   0.0000333105  -0.0000068416   0.0000156467
        0.0000007084  -0.0000041977  -0.0000083815   0.0000118957  -0.0000238333
        0.0000224267   0.0000030129   0.0000293485  -0.0000207525  -0.0000062916
       -0.0001374071  -0.0001929077   0.0001829359   0.0003647731  -0.0001486069
       -0.0002257238  -0.0002344418   0.0000859001  -0.0001219039   0.0003248203
       -0.0001562002   0.0001847440   0.0000072168  -0.0000283368   0.0000925729
       -0.0000114570   0.0000129795  -0.0000029200   0.0000855066   0.0000528838
        0.0000181619   0.0000627477   0.0000035771   0.0000294892  -0.0000203276
        0.0000495593  -0.0000603285  -0.0000024128   0.0000594992  -0.0000773027
       -0.0000978275  -0.0000549941   0.0000046931   0.0000042511   0.0000107086
       -0.0000190882   0.0001064545  -0.0000315396   0.0000807462   0.0000421353
       -0.0000103855   0.0000341335  -0.0012562318   0.0050894626   0.0105301361
        0.0036665600  -0.0046156218  -0.0206520476   0.0000652973   0.0004899468
        0.0007794734  -0.0012622648   0.0000650326  -0.0006623909  -0.0015246896
       -0.0013173471  -0.0006849213   0.0001552197  -0.0002577581  -0.0002747060
        0.0000393419   0.0000141201   0.0000669296  -0.0000425150  -0.0000247877
       -0.0000441616   0.0000116848   0.0000142684  -0.0000610826  -0.0000161877
        0.0000448195  -0.0000883579   0.0000749695   0.0000654293   0.0000052185
       -0.0000564115  -0.0000644378   0.0002424440   0.0000654017   0.0000557980
       -0.0000311656  -0.0000290296  -0.0001110991   0.0000610851  -0.0000216137
        0.0000134315   0.0000042529   0.0000043431  -0.0000079377  -0.0000311780
       -0.0000229808   0.0000118943  -0.0000273738  -0.0000101015   0.0000076740
        0.0000432013  -0.0000197659   0.0000163243   0.0000092374  -0.0000085371
       -0.0000107692  -0.0000145495  -0.0000070616  -0.0000051162  -0.0000083505
       -0.0000078953   0.0000067749  -0.0000057855  -0.0000101016  -0.0000101555
       -0.0000008389   0.0000018885  -0.0000006609  -0.0000075316   0.0008269034
       -0.0006713488   0.0005138359   0.0000196046  -0.0000002870   0.0000173400
        0.0000286090   0.0000025971   0.0000051678   0.0000039924  -0.0000057896
       -0.0000007021   0.0000223764   0.0000004462  -0.0000089468   0.0000145841
        0.0000163942  -0.0000174088
       -0.0158562804   0.0340109432   0.1388297052   0.0152036583  -0.0148725120
       -0.0750689377  -0.0052141152  -0.0077485383  -0.0242193023   0.0009530750
        0.0016403431  -0.0004822397  -0.0000315511   0.0001235747   0.0002983742
       -0.0001005625  -0.0000478785   0.0001050666  -0.0000660329  -0.0000197620
       -0.0000047326   0.0000960914   0.0000405327   0.0001300353   0.0001998163
       -0.0000040078   0.0001548329  -0.0001124939  -0.0000036332  -0.0000341584
        0.0000663683   0.0000088253   0.0000813138  -0.0000422561  -0.0000096219
       -0.0000006364  -0.0000383960   0.0000246880   0.0000089775  -0.0000285288
        0.0000149014   0.0000171966   0.0000044496  -0.0000178572  -0.0000141375
       -0.0002691278   0.0000775653  -0.0001533901   0.0000007283  -0.0000255578
        0.0002209352  -0.0003750542   0.0000677153  -0.0000401668   0.0002592175
       -0.0001197808  -0.0000021683   0.0000544179   0.0000753311  -0.0000357718
        0.0000017645   0.0000000134   0.0000184817  -0.0000607816  -0.0000117135
        0.0000125498  -0.0000345257   0.0000295157  -0.0000606984  -0.0000106987
       -0.0000049329  -0.0000215136   0.0000172865   0.0000000759  -0.0000234034
        0.0000045089  -0.0000129312  -0.0000221968   0.0000523736   0.0000272192
       -0.0000579715  -0.0000250870  -0.0000166289  -0.0000265851   0.0000157684
       -0.0000580178  -0.0000185786   0.0053764387  -0.0050670956  -0.0253480854
        0.0045502309  -0.0066218994  -0.0151735408  -0.0001495926   0.0006830624
        0.0006214226  -0.0044224688  -0.0014303353  -0.0023007702  -0.0010008194
       -0.0006520183   0.0017549652   0.0004129473  -0.0005758997  -0.0004574506
        0.0001175012  -0.0000985214   0.0002011731   0.0002922169   0.0000244731
        0.0000030883   0.0001337784   0.0000195502  -0.0001249624  -0.0000641065
        0.0001161140  -0.0001488368   0.0000434764   0.0000064862   0.0000212866
       -0.0000011009   0.0002731787   0.0006971310  -0.0000479445   0.0000453613
       -0.0000463327   0.0000747889  -0.0000444632  -0.0000036491  -0.0001038478
        0.0000504073   0.0000041874   0.0000104132  -0.0000151537  -0.0000814690
       -0.0000366132   0.0000200224   0.0000245501  -0.0000572105  -0.0000715563
        0.0000275940  -0.0000337331  -0.0000019116   0.0000261370  -0.0000294640
       -0.0000110907  -0.0000299030  -0.0000514444  -0.0000063431  -0.0000259287
       -0.0000266726  -0.0000033908  -0.0000252777   0.0000045667   0.0000072587
        0.0000049553  -0.0000115702   0.0000008996  -0.0000426567   0.0001943855
        0.0000843704   0.0008852736   0.0000188444   0.0000508887  -0.0000076228
        0.0000544356   0.0000119095   0.0000142880   0.0000348627   0.0000102286
       -0.0000165619   0.0000420794   0.0000076181  -0.0000364301   0.0000115899
        0.0000199795  -0.0000074539
       -0.0238650186   0.0042203396   0.0152036583   0.4535042247  -0.0052098525
        0.0020961836  -0.1701736739  -0.0206794732  -0.0517429289  -0.0177744628
       -0.0092170618  -0.0042683878  -0.0008586585  -0.0026315190   0.0011546900
       -0.0000866220  -0.0001658141  -0.0000675518  -0.0000822456  -0.0000431664
       -0.0001376456   0.0000148166  -0.0000040617   0.0000119426   0.0000133612
       -0.0000028738   0.0000426895   0.0000077163   0.0000022592   0.0000049336
        0.0000184943  -0.0000018946   0.0000177729   0.0000019040  -0.0000037977
       -0.0000010671  -0.0000014153   0.0000017866   0.0000157234  -0.0000206341
        0.0000091223   0.0000141802   0.0000208819  -0.0000004688  -0.0000305870
       -0.0000621490  -0.0000151510  -0.0000100503  -0.0001464739  -0.0002310040
       -0.0003125970   0.0001433131   0.0001186048  -0.0000395138   0.0002620119
        0.0001463379   0.0000264764  -0.0001935161  -0.0000303238  -0.0000166361
        0.0000145586  -0.0000289244   0.0000260079   0.0000962804   0.0000561697
        0.0000275327  -0.0000451744  -0.0000324872   0.0000317239   0.0000641528
        0.0000148153   0.0000181130  -0.0000161623  -0.0000002915  -0.0000101152
       -0.0000247727  -0.0000059285   0.0000100764  -0.0000234036  -0.0000245020
        0.0000094216   0.0000180802  -0.0000217210   0.0000188579  -0.0000114592
        0.0000033709  -0.0000900542  -0.0884869962  -0.0817080165   0.0493709095
       -0.1279116269   0.1153907912   0.0017846268  -0.0242435873  -0.0004248945
       -0.0110495184  -0.0007490418  -0.0007657760  -0.0028608756   0.0003551841
        0.0004789319  -0.0001941779   0.0008911410   0.0007793611   0.0001640597
       -0.0007615688  -0.0001498958  -0.0002526542  -0.0000057512  -0.0000096571
        0.0001627521   0.0001284703  -0.0000284755   0.0001087998   0.0000588214
        0.0000376996  -0.0000385725   0.0001180702   0.0000420669   0.0000344357
       -0.0001981995   0.0000104520   0.0003093947  -0.0000046669   0.0000018838
        0.0000083357  -0.0000114364   0.0000300813   0.0000602386  -0.0000102121
       -0.0000047394   0.0000012775   0.0000101988  -0.0000106171  -0.0000221640
       -0.0000199477   0.0000175500  -0.0000143382  -0.0000136212   0.0000098913
        0.0000135961  -0.0000016187  -0.0000078248   0.0000055796  -0.0000004967
       -0.0000016448  -0.0000102219   0.0000003523  -0.0000084707  -0.0000017644
       -0.0000098064  -0.0000004974   0.0000029130  -0.0000104084  -0.0000085312
        0.0000010847  -0.0000052678  -0.0000052281   0.0000001811   0.0000867745
        0.0001279848   0.0003291442   0.0000034788  -0.0000116432   0.0000469910
       -0.0000035481  -0.0000069664   0.0000167891   0.0000022859  -0.0000036417
        0.0000150162   0.0000148008  -0.0000010101   0.0000117196  -0.0000157300
        0.0000083471  -0.0000064065
        0.0036994022  -0.0274479743  -0.0148725120  -0.0052098525   0.4947144783
       -0.0638544931  -0.0195897472  -0.0693004230  -0.0089774238  -0.0237878762
       -0.0084695991  -0.0080964187  -0.0019055613  -0.0039088096   0.0018318934
        0.0004385837   0.0000119457   0.0000962338   0.0000353300   0.0000188236
       -0.0000147811  -0.0000190584   0.0000006904  -0.0000044455  -0.0000083537
       -0.0000024573  -0.0000313711   0.0000214202  -0.0000010442  -0.0000031875
       -0.0000032575   0.0000023591  -0.0000198811   0.0000103523  -0.0000088256
       -0.0000036074   0.0000048167   0.0000018136  -0.0000068245   0.0000146324
       -0.0000045536  -0.0000085430  -0.0000197848   0.0000059034   0.0000059870
        0.0000201374   0.0000676182  -0.0000419343  -0.0000655598  -0.0000560401
        0.0001402435   0.0003694321   0.0000509341   0.0000263101  -0.0001189586
        0.0000010500  -0.0000147941  -0.0000856473   0.0000162053  -0.0000617835
       -0.0000372319  -0.0000172620  -0.0000177518  -0.0000323107   0.0000203045
       -0.0000370064  -0.0000667244  -0.0000382294   0.0000063234   0.0000527534
       -0.0000123275   0.0000309214  -0.0000106354  -0.0000349958   0.0000391761
        0.0000764861   0.0000535168  -0.0000096385  -0.0000522715  -0.0000397582
        0.0000221603  -0.0000500929   0.0000036895  -0.0000188743  -0.0000256280
        0.0000220570  -0.0000486033  -0.0832845160  -0.1904976860   0.0890908702
        0.1155733171  -0.1981361544   0.0012124792   0.0217465120   0.0031651597
        0.0095671107  -0.0052129609  -0.0008085322  -0.0043520401  -0.0002979774
        0.0007445326  -0.0006507958  -0.0008621080   0.0000600920  -0.0002908652
       -0.0013303748  -0.0004005732  -0.0003247509   0.0000527931  -0.0000653099
        0.0000593059   0.0000771128   0.0001219900  -0.0000238823  -0.0001340171
        0.0001009951  -0.0000934549   0.0000214325  -0.0000194618  -0.0000531411
       -0.0000265574   0.0000463416  -0.0000017284  -0.0000146204  -0.0000233787
        0.0000095746   0.0000000573   0.0000312109  -0.0000156678   0.0000053245
       -0.0000118826  -0.0000033976  -0.0000021852  -0.0000014278   0.0000161080
        0.0000056167   0.0000049268   0.0000116519   0.0000076653   0.0000081012
       -0.0000167646   0.0000091874  -0.0000047198  -0.0000026969   0.0000032303
        0.0000045732   0.0000092934  -0.0000003601   0.0000043745   0.0000067845
       -0.0000007529  -0.0000055097   0.0000063643  -0.0000052440   0.0000048994
        0.0000043140  -0.0000023707  -0.0000036880   0.0000070853   0.0000702921
        0.0000615861  -0.0002678027  -0.0000027008  -0.0000213553   0.0000221325
       -0.0000267900  -0.0000045147   0.0000037425  -0.0000059459   0.0000059767
        0.0000024731  -0.0000130338  -0.0000003544   0.0000063938  -0.0000048206
       -0.0000093011   0.0000059304
        0.0129495530  -0.0143924261  -0.0750689377   0.0020961836  -0.0638544931
        0.2877611173  -0.0446767471  -0.0079626383  -0.0783496082   0.0069519153
       -0.0005496948   0.0044895804   0.0013980666   0.0018084081  -0.0007967252
        0.0000610825   0.0001185352  -0.0000716648   0.0001847283  -0.0000377518
        0.0000688220  -0.0000280076  -0.0000200779  -0.0000936253  -0.0000618514
       -0.0000021232  -0.0000811859   0.0000805605  -0.0000065388   0.0000066179
       -0.0000317728   0.0000046990  -0.0000122943   0.0000320709  -0.0000099367
       -0.0000054440   0.0000225337  -0.0000052406  -0.0000011077   0.0000024154
       -0.0000077956   0.0000079179   0.0000035421   0.0000124738  -0.0000101064
        0.0000728616   0.0000085829   0.0000144813   0.0000009158  -0.0000094016
        0.0000671193   0.0001328242  -0.0000556997   0.0000602688  -0.0001067904
        0.0000382984  -0.0001936717  -0.0000302863  -0.0000030000  -0.0000171235
       -0.0000130406  -0.0000128391  -0.0000236143   0.0000022191  -0.0000072222
       -0.0000036233   0.0000058370  -0.0000119011   0.0000244627  -0.0000062216
       -0.0000038895   0.0000043913  -0.0000085228  -0.0000091448   0.0000272402
        0.0000043252   0.0000263920   0.0000004610  -0.0000574144  -0.0000347626
        0.0000346290   0.0000300682   0.0000122731   0.0000026601  -0.0000205052
        0.0000226373   0.0000042415   0.0466667052   0.0855729232  -0.0833067000
       -0.0021383611   0.0039356094  -0.0354014122  -0.0000252133   0.0005534752
       -0.0000388817  -0.0250151246  -0.0061734227  -0.0182489775   0.0012804075
        0.0006741116  -0.0006010847   0.0000205138   0.0001621330   0.0003580968
        0.0005646696   0.0003522908   0.0001061118  -0.0001481077  -0.0000163406
       -0.0000542200  -0.0000020535  -0.0000120002   0.0000504103  -0.0001164536
       -0.0000459977   0.0000169774  -0.0000072407   0.0000261067  -0.0000007932
       -0.0000312128  -0.0000544056  -0.0002749310   0.0000265059  -0.0000272562
        0.0000260348  -0.0000669883   0.0000142253  -0.0000370807   0.0000281802
       -0.0000223359  -0.0000050248   0.0000017503   0.0000066458   0.0000316619
        0.0000133717  -0.0000067990  -0.0000302812   0.0000141471   0.0000250918
       -0.0000166493   0.0000206060   0.0000103422  -0.0000092413   0.0000196022
        0.0000070685   0.0000114727   0.0000199916   0.0000048953   0.0000152474
        0.0000125003  -0.0000017928   0.0000136050  -0.0000028931  -0.0000031557
        0.0000006155   0.0000030460  -0.0000006035   0.0000168286  -0.0000196753
       -0.0000537048  -0.0005023291  -0.0000169631   0.0000057130  -0.0000106128
       -0.0000339016   0.0000065822   0.0000017714  -0.0000219699   0.0000050594
        0.0000091531  -0.0000234000   0.0000027421   0.0000237595  -0.0000129816
       -0.0000029234   0.0000111951
        0.0024936772  -0.0016020699  -0.0052141152  -0.1701736739  -0.0195897472
       -0.0446767471   0.4746481549  -0.0376882157  -0.0177435214  -0.0819000692
       -0.0384446466   0.0231711013  -0.0163562714  -0.0226825519   0.0090823873
        0.0004582104   0.0003875971  -0.0003542777   0.0001161523  -0.0000867733
       -0.0002376009   0.0000484630  -0.0000642571  -0.0000200560  -0.0000169101
        0.0000080170  -0.0000193830   0.0000141013  -0.0000026005   0.0000219375
       -0.0000011727  -0.0000055730   0.0000107310   0.0000055049   0.0000007548
       -0.0000064211   0.0000023219  -0.0000000354   0.0000008021  -0.0000086913
        0.0000056427   0.0000031779   0.0000108903   0.0000023348  -0.0000097763
        0.0000191649  -0.0001226321   0.0000190324  -0.0002139173   0.0001146407
       -0.0000262967  -0.0000485021  -0.0000428150   0.0000235117   0.0002406648
        0.0001283409   0.0000332520  -0.0001338204   0.0000265222  -0.0000770904
       -0.0000000877  -0.0000290230   0.0000047606  -0.0000697290   0.0000490421
       -0.0000581370   0.0000233767  -0.0000152541   0.0000097200   0.0000096016
        0.0000079422  -0.0000051025  -0.0000083794  -0.0000230740   0.0000204681
       -0.0000173437  -0.0000097247   0.0000008668   0.0000362393   0.0000291055
       -0.0000071710   0.0000101838   0.0000196813   0.0000135423  -0.0000131313
       -0.0000105237  -0.0000026124  -0.0149381780  -0.0053459406  -0.0060556205
       -0.0207418780  -0.0006913696  -0.0092409800  -0.1239811270   0.1116207119
        0.0197850725  -0.0472601603   0.0074273143   0.0338336779  -0.0015337108
       -0.0028685278   0.0035192941   0.0054391522   0.0120475292  -0.0057914635
       -0.0052758782  -0.0018483029  -0.0015475804   0.0008165941   0.0003092973
        0.0007829996   0.0000562836  -0.0003542359   0.0002218755  -0.0017636596
       -0.0007407687   0.0002200464   0.0000662673   0.0000450054   0.0000598084
       -0.0001210219   0.0000067007   0.0002143296   0.0000044422   0.0000057093
        0.0000021270  -0.0000068236   0.0000164383   0.0000131311   0.0000034218
       -0.0000004820   0.0000020259  -0.0000055575   0.0000094046   0.0000012235
       -0.0000061015   0.0000089974  -0.0000137085  -0.0000009814   0.0000112200
        0.0000015767   0.0000014362   0.0000021089  -0.0000019427   0.0000023373
        0.0000028728  -0.0000034075   0.0000032971  -0.0000015778  -0.0000000540
       -0.0000002885  -0.0000005118   0.0000010525  -0.0000024701  -0.0000082046
       -0.0000031582   0.0000006778  -0.0000018859   0.0000003357   0.0000689181
       -0.0000104126   0.0000084330  -0.0000071633  -0.0000063831   0.0000197105
        0.0000117701   0.0000017140   0.0000193549  -0.0000058568  -0.0000026476
        0.0000030678   0.0000005906   0.0000021033   0.0000022997   0.0000006602
        0.0000040198  -0.0000105095
       -0.0046109742  -0.0019114610  -0.0077485383  -0.0206794732  -0.0693004230
       -0.0079626383  -0.0376882157   0.4945464757   0.0147417396  -0.0361448014
       -0.1513987263   0.0425048277  -0.0086088051  -0.0054849567   0.0009423387
       -0.0000230130   0.0002404953  -0.0001824360   0.0001267081  -0.0002632656
        0.0000997413   0.0000614909  -0.0000670001  -0.0000266394  -0.0000154670
       -0.0000043810   0.0000123260  -0.0000112482   0.0000031668   0.0000032005
       -0.0000039503   0.0000028560  -0.0000270949  -0.0000071550   0.0000085384
        0.0000080532  -0.0000009964  -0.0000036603  -0.0000103321   0.0000144020
       -0.0000111027  -0.0000104185  -0.0000213895   0.0000018476   0.0000150803
        0.0000075068   0.0000111063  -0.0001304730   0.0002377849  -0.0001455434
        0.0000077765  -0.0000295493   0.0000040129   0.0000383019  -0.0002034168
       -0.0000619744  -0.0000278525   0.0000968260  -0.0000196518   0.0000088665
       -0.0000006921   0.0000197061   0.0000093045   0.0000731229  -0.0000736244
        0.0000740111  -0.0000084176   0.0000134270  -0.0000034713  -0.0000209270
       -0.0000223149   0.0000117116   0.0000127073  -0.0000100061   0.0000117455
        0.0000135055   0.0000041205   0.0000175466   0.0000426548   0.0000219849
       -0.0000055791  -0.0000353338  -0.0000002567  -0.0000349389  -0.0000126315
        0.0000040462   0.0000070557  -0.0219094086  -0.0059612712  -0.0082570174
        0.0206877750   0.0037887888   0.0091256590   0.1107975792  -0.1886475423
       -0.0238302552   0.0076278080  -0.0479004488  -0.0342870741  -0.0012805026
        0.0001635849   0.0032452165  -0.0090073692  -0.0285112582   0.0116403390
       -0.0007746491   0.0006043832  -0.0003272284   0.0004957386   0.0002754271
        0.0001979619   0.0002022787  -0.0001711081  -0.0000670303   0.0007716968
        0.0000749724   0.0004056421  -0.0001194531  -0.0000548350   0.0000604967
       -0.0000346915   0.0002169158  -0.0001441383  -0.0000255403  -0.0000070792
        0.0000242196   0.0000000991   0.0000165147  -0.0000170905   0.0000203276
       -0.0000056602   0.0000014492  -0.0000074919   0.0000082119   0.0000188340
        0.0000158300  -0.0000219085   0.0000177324   0.0000067087   0.0000009758
       -0.0000093015  -0.0000043721   0.0000001494  -0.0000005427  -0.0000047813
        0.0000077129   0.0000055549  -0.0000010459   0.0000095244  -0.0000008811
       -0.0000004183   0.0000059194  -0.0000009671   0.0000066397   0.0000099062
       -0.0000018358   0.0000014646   0.0000063515   0.0000021609  -0.0000199747
       -0.0000079300  -0.0001139470   0.0000201020  -0.0000022797  -0.0000181328
       -0.0000004843   0.0000122548  -0.0000238009  -0.0000027131   0.0000005217
       -0.0000000343  -0.0000180492   0.0000000968  -0.0000084461  -0.0000033546
       -0.0000143257   0.0000192423
       -0.0153928931  -0.0078382234  -0.0242193023  -0.0517429289  -0.0089774238
       -0.0783496082  -0.0177435214   0.0147417396   0.5064352951   0.0213691545
        0.0425360993  -0.0899441633  -0.0017238694  -0.0063039471   0.0037420817
       -0.0000577904   0.0001311842   0.0000831212  -0.0002108369  -0.0000890128
       -0.0001436450  -0.0000060509   0.0000134799  -0.0000034357  -0.0000768111
        0.0000156961  -0.0000470111   0.0000162550   0.0000040029   0.0000146281
       -0.0000168277  -0.0000012628  -0.0000355417   0.0000165179  -0.0000020893
       -0.0000007622   0.0000077683  -0.0000035590   0.0000002618   0.0000136031
       -0.0000192607  -0.0000116334   0.0000011456   0.0000130408   0.0000082202
       -0.0000237137  -0.0000719431  -0.0000303258  -0.0000171266   0.0000273754
       -0.0001820126   0.0001166811   0.0000090733  -0.0000696123  -0.0001625730
        0.0000520289  -0.0000049702   0.0000257059  -0.0000740591   0.0000663142
        0.0000261973  -0.0000196268   0.0000246185   0.0000627344  -0.0000091841
       -0.0000063011   0.0000489831   0.0000084532   0.0000216226   0.0000055947
       -0.0000001083   0.0000066624  -0.0000118090   0.0000197607  -0.0000167027
        0.0000400060   0.0000297206  -0.0000046976  -0.0000874856  -0.0000501012
        0.0000280766   0.0000197284   0.0000084481   0.0000434670   0.0000559547
        0.0000001662   0.0000230755   0.0092449880   0.0016227396   0.0044162930
       -0.0024984627   0.0013083745   0.0002931122   0.0179823023  -0.0232899233
       -0.0489636334   0.0332223576  -0.0340215560  -0.2585369198   0.0122819906
        0.0255690935  -0.0180620499  -0.0021747688  -0.0035420064   0.0025010522
       -0.0022673082  -0.0007842891   0.0002163880  -0.0006659382  -0.0005977862
        0.0007052046  -0.0001388806  -0.0000697525   0.0001116721   0.0000625735
       -0.0001776141   0.0002071951  -0.0000707731  -0.0000244905   0.0000346941
        0.0003518411   0.0000130555  -0.0002467641  -0.0000019472  -0.0000086128
        0.0000039105   0.0000093490   0.0000066708  -0.0000131281   0.0000322790
       -0.0000137761  -0.0000069853  -0.0000093758   0.0000065038   0.0000282015
        0.0000117434  -0.0000167888   0.0000031026   0.0000189020   0.0000123357
       -0.0000098815   0.0000079839  -0.0000013422  -0.0000076488   0.0000042137
        0.0000028766   0.0000132495   0.0000104641   0.0000028920   0.0000060153
        0.0000095163  -0.0000011197   0.0000026260  -0.0000012074  -0.0000020253
       -0.0000024122   0.0000059097  -0.0000013358   0.0000102141   0.0000571306
       -0.0001178980  -0.0001169542   0.0000065824  -0.0000094010   0.0000017495
       -0.0000232594  -0.0000002633  -0.0000097540  -0.0000065281  -0.0000020449
       -0.0000004930  -0.0000117326  -0.0000066042   0.0000074579  -0.0000017369
       -0.0000063794  -0.0000132334
       -0.0001560101  -0.0004575557   0.0009530750  -0.0177744628  -0.0237878762
        0.0069519153  -0.0819000692  -0.0361448014   0.0213691545   0.4665435523
       -0.0230653507  -0.0082585048  -0.1706326665  -0.0205498020  -0.0393540572
       -0.0234182714   0.0032273343  -0.0041643762   0.0002371299   0.0000249394
       -0.0000276536  -0.0000948080  -0.0001705603  -0.0002271373   0.0000394995
       -0.0000583652  -0.0000399207  -0.0000043098  -0.0000142490  -0.0000114139
       -0.0000045611  -0.0000068826  -0.0000101000  -0.0000013027  -0.0000018459
        0.0000021219   0.0000021392  -0.0000010175  -0.0000069973   0.0000066501
       -0.0000008326  -0.0000004695  -0.0000056362  -0.0000081683   0.0000094151
        0.0000308100   0.0000058509  -0.0000378962  -0.0000300104  -0.0000397214
        0.0000454413   0.0000010448   0.0000006512  -0.0000085999  -0.0000510516
       -0.0000498979  -0.0000024317   0.0000425339   0.0000074853  -0.0000023110
        0.0000095865   0.0000182656  -0.0000100241  -0.0000241888  -0.0000535834
        0.0000087345  -0.0000300500  -0.0000416541   0.0000335495   0.0000256335
        0.0000047722   0.0000238694   0.0000003746  -0.0000371732   0.0000400126
        0.0000162761   0.0000167639  -0.0000041464   0.0000631626   0.0000442511
       -0.0000228866   0.0000103830   0.0000315516  -0.0000328929  -0.0001205508
        0.0000785613  -0.0000069170  -0.0048695077  -0.0019472598  -0.0017831715
        0.0010591156  -0.0010007631   0.0004803716   0.0067433811   0.0122616094
       -0.0066389232  -0.0023012539  -0.0053462470   0.0043671887  -0.0412186877
        0.0018573790   0.0029069626  -0.1086184367   0.0995826165   0.0316255865
       -0.0161779964  -0.0061107198  -0.0041002010  -0.0046435515  -0.0009836792
       -0.0048630995  -0.0023071825   0.0029200348   0.0005518066   0.0006405180
       -0.0007079567   0.0001461155  -0.0001572943   0.0000089679  -0.0000709483
       -0.0009233409   0.0004537122   0.0002111101  -0.0000068381   0.0000114828
       -0.0000069792  -0.0000035175   0.0000025164   0.0000025084   0.0000114658
       -0.0000027949  -0.0000019394  -0.0000003036   0.0000011489   0.0000054325
        0.0000013212  -0.0000055825   0.0000075805   0.0000038390   0.0000012286
        0.0000015910   0.0000009580  -0.0000003901   0.0000011176  -0.0000005988
        0.0000009126   0.0000021988   0.0000030823   0.0000041613   0.0000016567
        0.0000016726   0.0000007060  -0.0000030095   0.0000042174   0.0000004478
       -0.0000046246   0.0000030836   0.0000045318  -0.0000014346  -0.0000256157
        0.0000089466  -0.0000288286   0.0000069575  -0.0000072358   0.0000038230
        0.0000116198   0.0000002380   0.0000008894  -0.0000040602  -0.0000000325
       -0.0000038935  -0.0000048691   0.0000061247  -0.0000077334  -0.0000090039
        0.0000148069  -0.0000097063
       -0.0004578157  -0.0000410265   0.0016403431  -0.0092170618  -0.0084695991
       -0.0005496948  -0.0384446466  -0.1513987263   0.0425360993  -0.0230653507
        0.4935922509   0.0205566103  -0.0162643239  -0.0683765698  -0.0069245976
        0.0193452841   0.0037916163   0.0063678099  -0.0001178200   0.0001257573
       -0.0001035502   0.0002145598   0.0000152401   0.0001605406  -0.0000310258
        0.0000315185   0.0000312338  -0.0000035410  -0.0000041075   0.0000083568
       -0.0000008027  -0.0000015386  -0.0000092689   0.0000032415  -0.0000012015
        0.0000040083   0.0000004778  -0.0000050056  -0.0000049648   0.0000051857
       -0.0000089010  -0.0000011250  -0.0000046715   0.0000056866   0.0000077160
        0.0000810279  -0.0000286669  -0.0000663886   0.0000090702   0.0001060047
        0.0000910131   0.0000196411  -0.0000496695   0.0000389728   0.0000138129
        0.0000726239   0.0000105485  -0.0000535469   0.0000261265  -0.0000543001
        0.0000050403  -0.0000067058   0.0000233691   0.0000222883   0.0000172174
       -0.0000427833  -0.0000237075  -0.0000017439  -0.0000206106   0.0000158883