$hessian                                                                        
        0.6111982625   0.0936615393  -0.1284536720  -0.1340141900  -0.0612935169
       -0.0126510259   0.0500292073  -0.0077680273  -0.0270078163   0.0006676477
        0.0038271322   0.0056255505   0.0005834702  -0.0013305229  -0.0003655049
        0.0006403684   0.0005229930  -0.0002674351  -0.0000179929  -0.0000754231
       -0.0000707740   0.0000472771  -0.0000510999   0.0000598608  -0.0000524944
       -0.0000267403  -0.0000192826   0.0000708842   0.0000773502   0.0000427709
       -0.0001867677   0.0004191678  -0.0000178041  -0.0006970474  -0.0001817475
       -0.0000596945  -0.0389563542  -0.0283043666  -0.0094781760  -0.0380503324
        0.0461270084   0.0551510875   0.0031045901   0.0014970178   0.0037669171
       -0.0003336188  -0.0003809828  -0.0006023173   0.0004690674   0.0000690611
        0.0001391962   0.0001107403  -0.0002343894  -0.0000740989   0.0000721268
        0.0006423375  -0.0002452806  -0.0000399427  -0.0000465901   0.0000239594
       -0.0000189094   0.0000040605   0.0000032081  -0.0000090796  -0.0000036840
       -0.0000001092  -0.0000079935  -0.0000128836   0.0000062263   0.0000142967
       -0.0000042887  -0.0000038191  -0.0000103693  -0.0000043114   0.0000002816
        0.0000095761   0.0000043784   0.0000008818  -0.0000049713   0.0000041630
        0.0000003794   0.0000002474   0.0000036221   0.0000008438  -0.0000016565
        0.0000017907   0.0000003570  -0.0000013919  -0.0000000395   0.0000003326
       -0.0000051738  -0.0000006485   0.0000012333   0.0000024642  -0.0000059413
        0.0000001641   0.0000053310   0.0000036220  -0.0000027060  -0.0000013183
        0.0000183123  -0.0000151199  -0.0014583351   0.0002426250   0.0005133202
        0.0000698238  -0.0001513096   0.0000938440   0.0000876243  -0.0000423447
       -0.0000678926   0.0000133231   0.0001239274   0.0000039177  -0.0000423029
       -0.0000291831   0.0001254893  -0.0000395953  -0.0001135572  -0.0000719710
       -0.0001544963   0.0000416952   0.0000374678   0.0000832552  -0.0000551138
        0.0000030312   0.0000053837  -0.0000141531   0.0000029101   0.0000072923
        0.0000038249  -0.0000006537   0.0000030596  -0.0000050221   0.0000019239
       -0.0000040906   0.0000199158  -0.0000048673  -0.0000076037  -0.0000022922
        0.0000087722   0.0000279421   0.0000644679  -0.0000397287   0.0000891690
       -0.0000678288   0.0000082601  -0.0001203788   0.0001163777  -0.0000315067
       -0.3134642248  -0.0887019997   0.0335336188  -0.1096927754   0.0693567868
        0.0905898257  -0.0155259856  -0.0225505607  -0.0125766027   0.0000015900
       -0.0000054800  -0.0000183478  -0.0000053585  -0.0000126027  -0.0000065635
       -0.0000016271  -0.0000127745  -0.0000164390  -0.0000151943   0.0000091788
       -0.0000024644   0.0000053639  -0.0000142187   0.0002985249  -0.0001277137
       -0.0002549072  -0.0002751108   0.0000014010   0.0000083843   0.0000021647
       -0.0000007929   0.0000029452  -0.0000002609   0.0000005231   0.0000001573
        0.0000002773   0.0000001795  -0.0000000155  -0.0000009127   0.0000006481
       -0.0000000201  -0.0000005623  -0.0000006285   0.0000022355  -0.0000003578
       -0.0000060285   0.0000016438  -0.0000004453  -0.0000055556  -0.0000147081
        0.0000007421  -0.0000038113  -0.0000278615   0.0000196338   0.0000089760
        0.0000329302  -0.0000345834  -0.0000138901   0.0000154217  -0.0000053626
        0.0000087574   0.0000070979   0.0000078562   0.0000025458  -0.0000074888
       -0.0000000212   0.0000031991  -0.0000046759   0.0000028378  -0.0000000887
       -0.0000061034   0.0000032050   0.0000126588   0.0000001512  -0.0000076479
       -0.0001840819   0.0001716045  -0.0000763465  -0.0001065756   0.0000110568
        0.0001211151  -0.0140675339  -0.0052965587   0.0023712972
        0.0936615393   0.4573197246   0.2497132888  -0.1184914275  -0.2202152504
       -0.0944400519   0.0338906851  -0.0365169053  -0.0459883387   0.0015530942
        0.0041227869  -0.0039608570   0.0004124633  -0.0009566312  -0.0006256857
        0.0001166835   0.0000487279   0.0004144274  -0.0000251600  -0.0001326721
        0.0001213712  -0.0000131078  -0.0000333758  -0.0000555666  -0.0000185893
       -0.0000629727  -0.0000256638   0.0000668110   0.0001157885   0.0001123128
       -0.0002786331  -0.0000131763   0.0000361679  -0.0007615579  -0.0003347750
        0.0002005473  -0.0290341400  -0.0213899230  -0.0013463773   0.0066544062
        0.0311953852   0.0219261779   0.0030376306   0.0017593410  -0.0055485727
       -0.0003461663  -0.0003319787   0.0002947209   0.0000572693  -0.0001000674
        0.0004285607  -0.0001871735  -0.0002899183  -0.0005478372   0.0007961706
        0.0002484038   0.0006097088  -0.0000624359   0.0001309399  -0.0000043123
        0.0000443272   0.0000273578  -0.0000116872  -0.0000082398   0.0000166676
       -0.0000008764   0.0000026636   0.0000235554  -0.0000073318  -0.0000044178
       -0.0000322877   0.0000085906  -0.0000093997  -0.0000112141   0.0000026917
        0.0000037634   0.0000020382  -0.0000066258   0.0000018705   0.0000114844
       -0.0000017269   0.0000071604  -0.0000158707   0.0000002783   0.0000154832
        0.0000056266  -0.0000019297  -0.0000088532   0.0000041832   0.0000007052
       -0.0000107338  -0.0000123509   0.0000017088   0.0000019596   0.0000135156
       -0.0000038889  -0.0000010767   0.0000054554   0.0000085378  -0.0000348480
       -0.0000490515  -0.0000017130  -0.0006789942   0.0003230890   0.0005371318
       -0.0000619322   0.0000359490   0.0000131922   0.0000838870  -0.0000550477
       -0.0000783162  -0.0000072077   0.0000509013   0.0000700910  -0.0000173941
        0.0000184933   0.0000695226  -0.0000066670  -0.0000774434  -0.0000736429
       -0.0000571415   0.0000222130  -0.0000048060   0.0000315162  -0.0000122990
        0.0000027296  -0.0000031215   0.0000011109  -0.0000059893  -0.0000035757
       -0.0000122987   0.0000092877   0.0000071898   0.0000085879  -0.0000035857
        0.0000036654   0.0000028724  -0.0000001375  -0.0000148457  -0.0000040219
        0.0000162593   0.0000242904   0.0000260937  -0.0000186340  -0.0000048155
        0.0000147000   0.0000390592  -0.0000988245   0.0000678187   0.0000319567
       -0.0318239337  -0.0881300748  -0.0226654946   0.0695714749  -0.1155415190
       -0.0977138174  -0.0060430756  -0.0058669169  -0.0045181890  -0.0000182190
        0.0000294265  -0.0000171050  -0.0000005549   0.0000109548  -0.0000244944
        0.0000034776  -0.0000064287  -0.0000001814  -0.0000069703  -0.0000068457
       -0.0000153319  -0.0001060458  -0.0001580916  -0.0001293821  -0.0002791825
       -0.0000512721   0.0004754690  -0.0000057172   0.0000011668  -0.0000068810
       -0.0000042475   0.0000004788   0.0000036762  -0.0000009556  -0.0000055063
       -0.0000008242  -0.0000008805   0.0000004931   0.0000007835  -0.0000012199
        0.0000037239   0.0000009308  -0.0000004145   0.0000059045   0.0000007716
        0.0000004450   0.0000034325  -0.0000008989  -0.0000131413  -0.0000035044
       -0.0000122072   0.0000039609  -0.0000029211  -0.0000013148  -0.0000017288
        0.0000080158   0.0000061711  -0.0000169431   0.0000178064  -0.0000047044
        0.0000041866  -0.0000008046   0.0000115498   0.0000020867  -0.0000003049
        0.0000023683   0.0000002251  -0.0000006539  -0.0000012376  -0.0000000492
        0.0000017198  -0.0000018934   0.0000089263  -0.0000045326  -0.0000057039
       -0.0000041741   0.0000617644  -0.0000671688  -0.0000273086  -0.0000070703
       -0.0000011448  -0.0214640710  -0.0053217196   0.0027813827
       -0.1284536720   0.2497132888   0.3801220057  -0.0610866546  -0.1198889274
       -0.1216556142   0.0059243620  -0.0282297177  -0.0251616487   0.0048619367
       -0.0034153747   0.0019540383  -0.0008222083  -0.0019644738  -0.0008657151
        0.0005313958   0.0000234754  -0.0001241278  -0.0001123612  -0.0002683412
       -0.0001429127   0.0001569086  -0.0000675064   0.0000304662  -0.0000927454
        0.0001131162   0.0000338205  -0.0000628473   0.0000002405  -0.0000670476
        0.0001267693   0.0003128985   0.0000151843   0.0001089969   0.0003546484
        0.0005218641  -0.0094992400  -0.0019711333  -0.0022487137   0.0221222654
        0.0064160167  -0.0028693946   0.0040202247  -0.0053193415   0.0009867283
       -0.0015868645  -0.0005367865   0.0001871193   0.0006553144  -0.0002056492
       -0.0000518793  -0.0004924634   0.0001292719   0.0000950949   0.0004786203
        0.0000939680  -0.0005302206   0.0000116051   0.0000503149   0.0000961053
        0.0000294673   0.0000255006   0.0000109264  -0.0000148188  -0.0000073690
       -0.0000128576   0.0000073877   0.0000259445  -0.0000090478   0.0000021545
       -0.0000279774  -0.0000118673   0.0000272420   0.0000051752  -0.0000027525
       -0.0000176821  -0.0000004072  -0.0000031815   0.0000050388   0.0000105241
       -0.0000017943   0.0000049514  -0.0000139703   0.0000005559   0.0000115532
        0.0000039757  -0.0000013220  -0.0000028421   0.0000013263   0.0000007247
       -0.0000064904  -0.0000077129   0.0000011741   0.0000058304   0.0000003941
       -0.0000030574  -0.0000226443  -0.0000016139   0.0000094383  -0.0000131298
       -0.0000323933  -0.0000008818   0.0009352196   0.0003087308  -0.0001824892
       -0.0000231802   0.0000258567   0.0001883275   0.0000656469   0.0000022344
       -0.0000400711  -0.0000451411   0.0000010221   0.0000459449   0.0000027439
        0.0000411753   0.0000090729  -0.0000044307  -0.0000337147  -0.0000279391
        0.0000389903  -0.0000216309  -0.0000232436  -0.0000203037   0.0000190719
        0.0000023816   0.0000029554   0.0000103601  -0.0000100463  -0.0000065376
       -0.0000192457   0.0000126824   0.0000091416   0.0000105583  -0.0000050263
        0.0000050238  -0.0000032304   0.0000016669  -0.0000173316  -0.0000093247
        0.0000153685   0.0000102657  -0.0000122648  -0.0000020823  -0.0000541198
        0.0000591938   0.0000371328  -0.0000375817  -0.0000164162   0.0000363044
        0.0816772726   0.0013934418  -0.0803352543   0.0905179927  -0.0977829017
       -0.1562440057   0.0025540501   0.0041956842   0.0031528804  -0.0000198683
        0.0000231740   0.0000017981  -0.0000118241  -0.0000012355   0.0000035639
        0.0000014679   0.0000012175   0.0000187412   0.0000025205  -0.0000095960
       -0.0000095030  -0.0001519147  -0.0000067459  -0.0001169541  -0.0002937965
        0.0002939090   0.0002504840   0.0000048068  -0.0000008767  -0.0000042286
       -0.0000081171  -0.0000006243   0.0000036750  -0.0000014632  -0.0000030784
        0.0000060920  -0.0000022721   0.0000009111   0.0000010077  -0.0000021361
        0.0000035581   0.0000011075  -0.0000005691   0.0000034837   0.0000008951
        0.0000031071   0.0000003563  -0.0000006009  -0.0000023008   0.0000027410
       -0.0000076643   0.0000077062   0.0000076181  -0.0000015339  -0.0000063663
       -0.0000090126   0.0000222928  -0.0000114302   0.0000135002   0.0000038413
        0.0000069952  -0.0000041075   0.0000135655  -0.0000003292   0.0000047808
        0.0000016053  -0.0000012178   0.0000028881  -0.0000028642  -0.0000002941
        0.0000040993  -0.0000029034   0.0000030929  -0.0000009207  -0.0000048692
        0.0000403696  -0.0000144276  -0.0000294318   0.0000504628  -0.0000191684
       -0.0000538252  -0.0120226656  -0.0037824280   0.0029728951
       -0.1340141900  -0.1184914275  -0.0610866546   0.6067342807   0.1182436061
       -0.1237798542  -0.1493443623   0.0755694196   0.1058792799   0.0101504447
        0.0015113376  -0.0039872455  -0.0003013177  -0.0036666781  -0.0014876695
        0.0004263147  -0.0004654584   0.0003825299  -0.0002421123   0.0000718792
        0.0001017309  -0.0002339387   0.0000322299  -0.0000848874   0.0001631704
       -0.0003342122  -0.0000756235   0.0003318491   0.0002303948   0.0002631097
       -0.0005840435  -0.0002982918  -0.0003505624  -0.0014735665  -0.0013399504
        0.0002756831  -0.0338617512   0.0082604351   0.0231571207   0.0051026178
        0.0037880266  -0.0011666921  -0.0018719834  -0.0007696640   0.0002695471
        0.0001309188   0.0005584935   0.0004351691  -0.0002635314   0.0001996572
        0.0000834223   0.0000385522   0.0000126820   0.0000593057  -0.0000529820
       -0.0001749572  -0.0001719531   0.0000221407  -0.0000281449  -0.0000061566
        0.0000069960   0.0000121984  -0.0000004837   0.0000067479   0.0000147768
       -0.0000000119  -0.0000051187  -0.0000090969   0.0000078658  -0.0000198511
       -0.0000038913   0.0000097398  -0.0000203745  -0.0000026397   0.0000022270
        0.0000114192   0.0000031369   0.0000027810  -0.0000075804   0.0000074358
        0.0000015625   0.0000048898  -0.0000018707   0.0000006533   0.0000035448
        0.0000065189  -0.0000000689  -0.0000074629   0.0000058524   0.0000010838
       -0.0000024211  -0.0000060000   0.0000015764   0.0000043935  -0.0000056991
        0.0000013682   0.0000024977   0.0000094785  -0.0000011458   0.0000021697
       -0.0000023244  -0.0000123484   0.0005485213  -0.0003174120  -0.0003880231
       -0.0000236821   0.0000727864   0.0000994986   0.0000647339   0.0000222996
       -0.0000791193   0.0000255573   0.0000760617  -0.0000506644  -0.0000217182
       -0.0000682835   0.0000445056  -0.0000274462  -0.0000494383  -0.0000040632
       -0.0002809124   0.0000247786   0.0000799722   0.0001344664  -0.0001183302
        0.0000242645   0.0000236125  -0.0000276680  -0.0000081720   0.0000003322
        0.0000104315   0.0000008037   0.0000149399  -0.0000041640  -0.0000019698
       -0.0000086743   0.0000309744  -0.0000043559   0.0000198667  -0.0000301925
        0.0000325517   0.0000488118   0.0001581065  -0.0001031938   0.0002454678
       -0.0001615042   0.0000718688  -0.0001049864   0.0000579641   0.0000051704
       -0.0303375975  -0.0267268271  -0.0096686130   0.0059502601   0.0107742278
        0.0069989581  -0.2678449746  -0.0611290213   0.0599857333   0.0000194701
        0.0000031336  -0.0000006031  -0.0000207247  -0.0000480332  -0.0000457146
       -0.0000463076  -0.0000209122  -0.0000314595  -0.0000864642   0.0000326123
       -0.0000437471  -0.0000263624  -0.0002681473  -0.0010408500  -0.0042810506
       -0.0029035936   0.0030523460   0.0000081784   0.0000025177  -0.0000084796
       -0.0000074950   0.0000000530  -0.0000011583  -0.0000069175   0.0000059878
        0.0000032040   0.0000003196  -0.0000000987  -0.0000002587   0.0000014391
        0.0000014314  -0.0000011265   0.0000008876   0.0000035032  -0.0000013500
       -0.0000065715   0.0000017790  -0.0000001886  -0.0000027507  -0.0000263145
        0.0000115138   0.0000009732  -0.0000210372   0.0000123592   0.0000031605
        0.0000160587  -0.0000394210  -0.0000062336   0.0000086087   0.0000088077
       -0.0000005182   0.0000242012   0.0000046207   0.0000046640  -0.0000155077
       -0.0000014137   0.0000013408  -0.0000112818  -0.0000002859  -0.0000049612
       -0.0000174715   0.0000035065   0.0000175477  -0.0000029695  -0.0000315452
       -0.0004310624   0.0003414432  -0.0002101429  -0.0000639740  -0.0000142001
        0.0000530063  -0.0043295254  -0.0026238044   0.0025488291
       -0.0612935169  -0.2202152504  -0.1198889274   0.1182436061   0.4556023684
        0.2325818513   0.0324834906  -0.1285125212  -0.0828298974   0.0064710468
       -0.0284329379  -0.0240786304  -0.0032987871   0.0021844772  -0.0010261110
       -0.0018028215  -0.0030101993  -0.0004897599  -0.0001581976   0.0004415324
        0.0002238433  -0.0003927248   0.0000041081  -0.0001537735   0.0002130801
       -0.0001253900  -0.0000138052   0.0001599105  -0.0001011497   0.0001467552
        0.0006106562  -0.0012979569  -0.0000102524   0.0037883596   0.0008571572
       -0.0002192275   0.0441654329   0.0306048794   0.0049046931   0.0046244592
       -0.0360733365  -0.0273138567  -0.0004186994  -0.0002415979  -0.0005367022
       -0.0002880295  -0.0005480007   0.0003447862   0.0001790264   0.0002076018
       -0.0001878564  -0.0002596310   0.0002332757   0.0000949304  -0.0001190467
       -0.0003197598   0.0000516266   0.0000584408  -0.0000296930   0.0000279103
       -0.0000209507   0.0000001193   0.0000089048   0.0000204699   0.0000057049
       -0.0000097648   0.0000039602  -0.0000060969   0.0000011347  -0.0000177931
        0.0000113665   0.0000052786  -0.0000049759   0.0000009766   0.0000039674
        0.0000031781  -0.0000012556   0.0000004712  -0.0000020362   0.0000019262
        0.0000020709   0.0000050918   0.0000022308  -0.0000000056   0.0000003604
        0.0000001929  -0.0000005029  -0.0000053320  -0.0000021270   0.0000003717
        0.0000002871  -0.0000014757  -0.0000009211   0.0000026062  -0.0000043645
        0.0000017625  -0.0000030505   0.0000024674  -0.0000073690   0.0000037558
       -0.0000024489  -0.0000000925   0.0004530734  -0.0000513415  -0.0001392669
       -0.0000922870   0.0000413998  -0.0000784187  -0.0001019320   0.0000870851
        0.0000544272   0.0000110844  -0.0000470056  -0.0000481872   0.0000203953
       -0.0000238079  -0.0000556036  -0.0000014489   0.0000569428   0.0000384634
        0.0000377572  -0.0000230467  -0.0000057949  -0.0000120267   0.0000193088
       -0.0000065139  -0.0000164809   0.0000073547   0.0000055108   0.0000098548
        0.0000005267  -0.0000006064   0.0000016272  -0.0000153108   0.0000036554
       -0.0000105506   0.0000106684   0.0000018356   0.0000078106   0.0000138228
        0.0000041859  -0.0000351858  -0.0000349572  -0.0000019177  -0.0000742613
        0.0001402718   0.0000128176   0.0000385748  -0.0000096078   0.0000133303
       -0.0701949708  -0.0066156279   0.0234071915  -0.0062505057  -0.0143172899
       -0.0102105399  -0.0610397082  -0.0562466243   0.0111282250  -0.0000213311
       -0.0000167628   0.0000217364  -0.0000204273   0.0000061866  -0.0000272261
        0.0000221060   0.0000138048  -0.0000358895  -0.0000230909  -0.0000082792
        0.0000094690   0.0000164311  -0.0001828462  -0.0002610835  -0.0030544794
        0.0028364665  -0.0024006425   0.0000154623   0.0000043881  -0.0000024973
       -0.0000010882  -0.0000028735   0.0000022004   0.0000004896   0.0000053825
        0.0000018061  -0.0000027829  -0.0000010007  -0.0000002399  -0.0000023103
        0.0000023146  -0.0000009691   0.0000011363   0.0000016745  -0.0000008071
       -0.0000026913  -0.0000017651   0.0000003316   0.0000091186  -0.0000056533
        0.0000103314   0.0000023905   0.0000058659   0.0000016960   0.0000032945
       -0.0000109669  -0.0000027516   0.0000171467  -0.0000092822   0.0000161224
       -0.0000075164   0.0000102367  -0.0000053113  -0.0000058434   0.0000003111
       -0.0000022819   0.0000009650   0.0000068985  -0.0000002329   0.0000082695
        0.0000024359  -0.0000004893   0.0000010124  -0.0000003028  -0.0000143503
        0.0001374730  -0.0002865566   0.0000276835   0.0000432777   0.0000209382
       -0.0000140471  -0.0028394571   0.0033818013  -0.0030782533
       -0.0126510259  -0.0944400519  -0.1216556142  -0.1237798542   0.2325818513
        0.3648805119   0.0673666954  -0.1052152885  -0.1660311483   0.0024792701
       -0.0184184051  -0.0148358113  -0.0015831705   0.0013500482   0.0008591465
       -0.0009108151  -0.0020436708  -0.0002390685   0.0000332685   0.0003149339
        0.0001049851  -0.0001908659  -0.0000318443  -0.0001061672   0.0001011428
       -0.0000310673  -0.0000028122   0.0000315978  -0.0000738903   0.0000330311
        0.0007054438  -0.0004284873   0.0002612137   0.0022413709   0.0006262956
       -0.0005903202   0.0554887791   0.0220804646  -0.0046219460  -0.0008419618
       -0.0278349968  -0.0290965074   0.0005448578   0.0001647919  -0.0008724168
       -0.0005766927  -0.0007487371   0.0001459329   0.0002702415   0.0001256033
       -0.0001720066  -0.0003023096   0.0001999797   0.0000714573   0.0000153981
       -0.0001723311   0.0001321796   0.0000249437  -0.0000025655   0.0000210949
       -0.0000115671   0.0000134071   0.0000092845   0.0000194353   0.0000065718
       -0.0000104074   0.0000121775   0.0000020968  -0.0000054008  -0.0000152469
        0.0000014360   0.0000061061   0.0000001515   0.0000011906   0.0000013949
        0.0000008253  -0.0000033612   0.0000005399   0.0000018210   0.0000036427
        0.0000001582   0.0000073770  -0.0000027538   0.0000007829   0.0000059028
       -0.0000001036  -0.0000008384  -0.0000083809  -0.0000032943   0.0000013752
       -0.0000012413  -0.0000042057   0.0000006618   0.0000018524   0.0000025088
       -0.0000017508  -0.0000079910  -0.0000002514   0.0000011767  -0.0000054964
       -0.0000154384   0.0000099961   0.0000172943   0.0000133350   0.0000770569
        0.0000317636  -0.0000420729  -0.0001323887  -0.0001015200   0.0001052261
        0.0001549640  -0.0000084047  -0.0001245784  -0.0000352526   0.0000363621
        0.0000251229  -0.0001039168   0.0000417485   0.0001174838   0.0001020485
        0.0000989607  -0.0000348393  -0.0000365388  -0.0000435131   0.0000434814
        0.0000005448  -0.0000105897  -0.0000014055   0.0000031161   0.0000073371
        0.0000029116   0.0000001242  -0.0000046207  -0.0000097900   0.0000057403
       -0.0000099618  -0.0000024356   0.0000083205   0.0000180335   0.0000163056
        0.0000036991  -0.0000358016  -0.0000658983   0.0000091353  -0.0000339571
        0.0001090408   0.0000597573   0.0002022443  -0.0001132763  -0.0000314894
       -0.0461372969   0.0051405014   0.0260968529  -0.0074985561  -0.0175568341
       -0.0108479340   0.0586222604   0.0100944690  -0.0519898081  -0.0000113795
       -0.0000357173   0.0000089706  -0.0000045112   0.0000115528  -0.0000057043
        0.0000281669   0.0000059405  -0.0000180551   0.0000415100  -0.0000001926
        0.0000268655   0.0004126377   0.0001579927   0.0003338679   0.0028026240
       -0.0028330320   0.0037990598   0.0000123272   0.0000018709  -0.0000030486
       -0.0000025879  -0.0000041899   0.0000038351   0.0000013027   0.0000024297
        0.0000011396  -0.0000035239  -0.0000007713  -0.0000004406  -0.0000034895
        0.0000031991  -0.0000007854   0.0000011699   0.0000018762  -0.0000007148
       -0.0000009458  -0.0000017490  -0.0000014478   0.0000050088   0.0000038710
       -0.0000012003   0.0000022873   0.0000126777  -0.0000076368   0.0000035007
       -0.0000163146   0.0000071677   0.0000104502  -0.0000086504   0.0000125438
       -0.0000112076   0.0000037035  -0.0000105074  -0.0000070086   0.0000049246
       -0.0000023887  -0.0000025679   0.0000105222  -0.0000006071   0.0000062668
        0.0000058888  -0.0000025819  -0.0000192171  -0.0000074663  -0.0000071447
        0.0000976068  -0.0002305471  -0.0000539856   0.0001313251  -0.0000021202
       -0.0000781458   0.0028525391  -0.0028065247   0.0043581002
        0.0500292073   0.0338906851   0.0059243620  -0.1493443623   0.0324834906
        0.0673666954   0.5909649756   0.0870099635  -0.1248425254  -0.0919104114
       -0.0552530345  -0.0265884156   0.0099738166   0.0045012740   0.0028305401
        0.0006269952   0.0056987718   0.0003693656   0.0007017707  -0.0001244393
        0.0000366966   0.0004086651   0.0001507256   0.0002839634  -0.0006151153
        0.0000500133  -0.0000569402  -0.0000133117  -0.0012109730  -0.0008682090
       -0.0059319143   0.0015453128  -0.0016376187  -0.0217667537  -0.0268798260
       -0.0139785486  -0.2786517699  -0.0317802646   0.0809437143  -0.0299223848
       -0.0650171099  -0.0415790351   0.0054402775  -0.0013601350  -0.0007266479
       -0.0021180901  -0.0026423779  -0.0001724513   0.0009050604   0.0000366700
       -0.0005782054  -0.0006952721   0.0003043437   0.0002119768   0.0003220342
        0.0000500181   0.0000272801   0.0000507740   0.0000258422   0.0000631278
       -0.0000026280   0.0000230619   0.0000109889  -0.0000027358  -0.0000268670
       -0.0000061078  -0.0000020478   0.0000394392  -0.0000091514   0.0000079387
       -0.0000104945  -0.0000107602   0.0000031322  -0.0000037384   0.0000028521
       -0.0000041759  -0.0000000646  -0.0000065196   0.0000054889   0.0000066371
       -0.0000012180   0.0000022991  -0.0000119701  -0.0000011196   0.0000096628
        0.0000040345  -0.0000014826  -0.0000024716   0.0000021756  -0.0000008311
       -0.0000088186  -0.0000103324  -0.0000010342   0.0000012020   0.0000147924
       -0.0000002800  -0.0000134267  -0.0000026772  -0.0000004118  -0.0000118173
       -0.0000347410   0.0000166055  -0.0004709833   0.0006256018   0.0005396522
       -0.0002380540  -0.0001370184  -0.0001531538  -0.0000798034   0.0000724412
       -0.0000146672  -0.0000193561  -0.0000761559  -0.0000185564   0.0000162242
        0.0000240776  -0.0000546474   0.0000476771  -0.0000262814  -0.0001275521
       -0.0000131613   0.0000279804   0.0000530408  -0.0000158695  -0.0000185495
       -0.0000138477   0.0000217850   0.0000001297   0.0000047800  -0.0000143769
       -0.0000079564  -0.0000008962  -0.0000023302   0.0000188141  -0.0000063156
        0.0000049020  -0.0000109920  -0.0000030145  -0.0000091569  -0.0000137458
       -0.0000173679   0.0000440379   0.0000425078   0.0000293508  -0.0000087067
       -0.0001591941  -0.0001070165  -0.0000261038   0.0001555959   0.0003746345
       -0.0439302090   0.0110154806   0.0261084261   0.0006663252  -0.0042029224
        0.0001480100  -0.0173217919   0.0127393996   0.0199170804   0.0000240617
        0.0000065010  -0.0000166345   0.0000851546   0.0000511883   0.0000478631
        0.0000033824  -0.0001333248   0.0000334240   0.0001484319  -0.0000123218
        0.0000249439   0.0002559077  -0.0007372408   0.0001787176  -0.0171351081
       -0.0015634197   0.0059284331   0.0000105355   0.0000078339  -0.0000107913
       -0.0000061920   0.0000054212   0.0000003352   0.0000016132  -0.0000028130
       -0.0000003279   0.0000001710   0.0000003632   0.0000006188  -0.0000000329
        0.0000012617   0.0000010662  -0.0000007507   0.0000023464   0.0000012290
        0.0000045295   0.0000057465   0.0000020802  -0.0000145997   0.0000103289
        0.0000003399  -0.0000211238   0.0000120818  -0.0000019380   0.0000013719
        0.0000120251  -0.0000158191   0.0000096596   0.0000064678  -0.0000122996
        0.0000033517  -0.0000231184  -0.0000263976   0.0000023252   0.0000042101
        0.0000047249  -0.0000019159   0.0000011748   0.0000008079  -0.0000034933
        0.0000043358   0.0000008764  -0.0000157060  -0.0000072933   0.0000298419
        0.0001205744   0.0002207032   0.0001355140  -0.0001865542   0.0001464061
       -0.0002083659  -0.0003724360   0.0004437170   0.0002231631
       -0.0077680273  -0.0365169053  -0.0282297177   0.0755694196  -0.1285125212
       -0.1052152885   0.0870099635   0.4631111826   0.2217379078  -0.0574786170
       -0.1680683968  -0.0628678508  -0.0064311778  -0.0390173124  -0.0190694708
        0.0069292298  -0.0009967503  -0.0018246859  -0.0009050828  -0.0016610177
       -0.0009177057   0.0006797756  -0.0004413002   0.0001738729  -0.0002642056
       -0.0000068510   0.0000265997   0.0003493344   0.0007956058  -0.0004370706
       -0.0001987476   0.0019929925  -0.0008318548  -0.0139677066  -0.0039817444
       -0.0012017768  -0.0751549981  -0.0861895242   0.0058855190  -0.0253799792
       -0.0075360326   0.0041292882  -0.0031651944   0.0001575094  -0.0057995916
       -0.0003887881   0.0001800410   0.0000268393  -0.0003817721  -0.0006401355
        0.0008693465   0.0002606599   0.0001744548  -0.0006511232   0.0000406210
       -0.0001658955   0.0006619447   0.0000462046   0.0000179193  -0.0000816967
        0.0000044599   0.0000022827  -0.0000037096   0.0000154464   0.0000008302
        0.0000046689   0.0000006654   0.0000106753  -0.0000027890  -0.0000132058
        0.0000143000   0.0000101621  -0.0000319187  -0.0000146138   0.0000011096
        0.0000234510  -0.0000069139   0.0000035395   0.0000052082  -0.0000041568
       -0.0000022378  -0.0000025507  -0.0000006780   0.0000003335   0.0000004317
        0.0000004272   0.0000002518   0.0000026752   0.0000025380   0.0000000491
       -0.0000012742  -0.0000086367   0.0000023139  -0.0000088753   0.0000260001
       -0.0000038418   0.0000127078  -0.0000031411   0.0000108346  -0.0000020242
       -0.0000128765   0.0000296627  -0.0001439122  -0.0004603022   0.0002458129
        0.0001939445   0.0000276301  -0.0002578736  -0.0001064382   0.0000753576
        0.0002659060  -0.0000032482  -0.0001834796   0.0000314542   0.0000643338
        0.0000683511  -0.0001795525  -0.0000000046   0.0002187090   0.0001427153
        0.0000413181   0.0000603400  -0.0000556456  -0.0000646971   0.0000100839
        0.0000283818  -0.0000075226  -0.0000174246   0.0000066963  -0.0000193492
        0.0000202751  -0.0000078244  -0.0000222002   0.0000104415   0.0000023586
        0.0000120002  -0.0000359588   0.0000090849   0.0000324224   0.0000047447
       -0.0000112790  -0.0000650356   0.0000465027  -0.0000132066  -0.0002521636
        0.0003144808  -0.0000230560   0.0003017305  -0.0002301506   0.0000736481
        0.0128195569  -0.0003457945  -0.0007693617  -0.0034436158  -0.0006289984
       -0.0054421202  -0.0026856560   0.0037475681   0.0038345013  -0.0000910610
        0.0001383852  -0.0000014811  -0.0000627975  -0.0000400676  -0.0000088608
       -0.0000328147  -0.0000205126   0.0001551241   0.0001019270   0.0000286286
        0.0000113666   0.0002653919   0.0000251534   0.0005044263   0.0130433944
        0.0045161674  -0.0051997974  -0.0000011426  -0.0000015635  -0.0000051784
        0.0000053145   0.0000014901  -0.0000037893   0.0000028613  -0.0000011596
       -0.0000042823   0.0000035476  -0.0000010433  -0.0000003093   0.0000022967
       -0.0000032503  -0.0000001218   0.0000002129  -0.0000031331   0.0000003194
        0.0000017627   0.0000074102  -0.0000008120  -0.0000214949   0.0000148777
       -0.0000123674  -0.0000232282   0.0000083027  -0.0000199703  -0.0000114782