$hessian                                                                        
        0.5388639899  -0.2199202881   0.0331742877  -0.2405924972   0.1106251974
        0.0916791156  -0.0489416975   0.0220632991  -0.0460346861  -0.0177481105
        0.0090969790   0.0295551578   0.0322825555  -0.0170431152  -0.0076561353
       -0.0897781052   0.0229274742  -0.0013931999  -0.0014849687   0.0041175966
       -0.0061069121  -0.0007295157   0.0004706151   0.0009302245  -0.0003660518
       -0.0001560995  -0.0005686189   0.0002491275  -0.0000900953   0.0003695398
       -0.0002739554  -0.0001583753  -0.0003763720   0.0015923404  -0.0007687156
        0.0003211636  -0.0016405714   0.0005220234  -0.0002910054  -0.0001413616
        0.0000885976  -0.0001253530  -0.0001723747  -0.0003347355  -0.0000442808
       -0.0001723733   0.0001789722   0.0000155279   0.0001095277   0.0000703241
       -0.0000201701  -0.0000750195  -0.0000600083   0.0000391717   0.0002058884
        0.0000177827  -0.0000560638   0.0001811048  -0.0001014235  -0.0000467673
       -0.0002003705  -0.0001045178   0.0000762537  -0.0001842767   0.0002138347
       -0.0000143588  -0.0003947730  -0.0006084130   0.0000091120   0.0001319531
        0.0006108629   0.0000307053  -0.0003298754  -0.0001519361  -0.0000301432
       -0.0001571769   0.0002388294  -0.0000699959   0.0000033882   0.0000004472
        0.0000099903   0.0000028356  -0.0000336671  -0.0000083987   0.0000238775
       -0.0000116300  -0.0000141126  -0.0000339972  -0.0000106383  -0.0000156848
        0.0000055800   0.0000314783   0.0000288529  -0.0000087141   0.0000353439
        0.0000101477   0.0000077175  -0.0000123295  -0.0000082892   0.0000017915
        0.0000095885  -0.0000014322   0.0000010761  -0.0000051618  -0.0000015379
        0.0000010078  -0.0000010692  -0.0000024569  -0.0000000959   0.0000013869
        0.0000004603  -0.0000006875  -0.0000003175   0.0000033498  -0.0000013879
       -0.0000020700   0.0000024858  -0.0000003551  -0.0000000423  -0.0000016688
       -0.0000004566   0.0000013182  -0.0000003054  -0.0000007878   0.0000003139
        0.0000017510  -0.0000003344  -0.0000039989   0.0000001726   0.0000011770
       -0.0000019090  -0.0000054469  -0.0000002976  -0.0000014960   0.0000137684
        0.0000029405   0.0000169045   0.0000167899  -0.0000056462   0.0000037405
        0.0000003259   0.0000031887   0.0000091697   0.0000093474   0.0000157429
       -0.0000152661  -0.0000124839  -0.0000069177  -0.0000118895  -0.0000087105
        0.0000247102  -0.0000052007   0.0000016387  -0.0000375508  -0.0001819183
       -0.0000088614   0.0002466766   0.0001328819   0.0000751473  -0.0000115778
        0.0000067083  -0.0000052077  -0.0000236058  -0.0000312813   0.0000006524
       -0.0000380526  -0.0000056041   0.0000116558   0.0000263538  -0.0000259594
        0.0000090435   0.0000000916   0.0000363654  -0.0000142129   0.0000267744
        0.0000069134   0.0000017251   0.0000006101   0.0000113985  -0.0000219128
        0.0000040501   0.0000058039  -0.0000439122   0.0000320977   0.0000316445
       -0.0000333903  -0.0001055010   0.0002491705   0.0002386613  -0.0001237449
       -0.0000321949  -0.0000840559  -0.0000358323   0.0000193562  -0.0000105418
       -0.0000417360  -0.0000600738  -0.0000342172   0.0000100811   0.0000123577
       -0.0000013395  -0.0000074276  -0.0000019395  -0.0000049326  -0.0000011616
        0.0000005979  -0.0000096438  -0.0000011556  -0.0000001539   0.0000007283
       -0.0000001785   0.0000004931  -0.0000025643  -0.0000053394  -0.0000081689
        0.0000050208   0.0000145730   0.0000044816  -0.0000003218  -0.0000002038
        0.0000048825  -0.0000042037  -0.0000000135   0.0000058138  -0.0000058915
       -0.0000202812  -0.0000046911   0.0000083699   0.0000016416  -0.0000157090
        0.0000028911  -0.0000200071   0.0000138457  -0.0000042507   0.0001972288
       -0.0002651698   0.0000172674   0.0004833795   0.0004490441  -0.0000714651
       -0.0000517928   0.0000961913  -0.0002097226  -0.1605196956   0.0549411365
       -0.1171558110  -0.0045193783   0.0030415081   0.0030644798  -0.0005547775
        0.0040887026  -0.0032818791  -0.0054375441   0.0054942061   0.0244332103
        0.0000135056   0.0000778577  -0.0001702403  -0.0000070760   0.0000079445
       -0.0000134984   0.0000450867   0.0000345974   0.0000109082   0.0000067313
        0.0000152717  -0.0000435159   0.0000126139   0.0000194466  -0.0000345230
       -0.0000091250   0.0000226971   0.0000152874   0.0000118629  -0.0000102717
       -0.0000096575   0.0000108174   0.0000229705  -0.0000111682  -0.0000115561
       -0.0000341617  -0.0000050340   0.0000045160  -0.0000057220  -0.0000153891
        0.0000154784  -0.0000110784   0.0000022633  -0.0000031731  -0.0000056005
       -0.0000064102   0.0000017887   0.0000012093   0.0000010714  -0.0000085004
       -0.0000064290  -0.0000010884  -0.0000019370  -0.0000001374  -0.0000054431
       -0.0000025728  -0.0000004915  -0.0000015701  -0.0000025489  -0.0000033317
        0.0000001173  -0.0000020934  -0.0000039497  -0.0000006142  -0.0000018670
       -0.0000031292  -0.0000001248  -0.0000010499  -0.0000020099  -0.0000014367
       -0.0000013393  -0.0000031272  -0.0000004089  -0.0000016215  -0.0000070313
        0.0000023083   0.0000012886  -0.0000054989  -0.0000031455  -0.0000000303
       -0.0000026459  -0.0000004577   0.0000018939  -0.0000012601   0.0000016611
       -0.0000039010  -0.0000043424   0.0000009332   0.0000053315   0.0000117424
        0.0000062319   0.0000072715   0.0000000538   0.0000041561   0.0000089112
        0.0000085859  -0.0000072640   0.0000079575   0.0000017302  -0.0000005233
        0.0000284849   0.0000291973   0.0000021873   0.0000033842   0.0001085270
       -0.0000481273   0.0000481876   0.0000159472   0.0001825821   0.0000233559
       -0.0000115395  -0.0000757734   0.0000046515   0.0000008586  -0.0000081467
        0.0000037295   0.0000017715   0.0000024816   0.0000055510   0.0000040908
        0.0000016467   0.0000075548   0.0000006745   0.0000013229   0.0000011503
       -0.0000015089   0.0000048237  -0.0000006649   0.0000070418   0.0000004056
        0.0000014534   0.0000067652  -0.0000026765   0.0000045595   0.0000051273
       -0.0000030402  -0.0000044439  -0.0000163103   0.0000030493   0.0000206148
       -0.0000228418  -0.0000194247
       -0.2199202881   0.2358505084   0.0357778010   0.1037509973  -0.1080675398
       -0.0551314882   0.0270795475  -0.0101836319   0.0292877160   0.0086524150
       -0.0122912913  -0.0181996693  -0.0219460766   0.0126305057  -0.0018946261
        0.0296615111  -0.0644891817  -0.0255962885   0.0044962692   0.0053829757
        0.0030544169   0.0004848980  -0.0003263940  -0.0006237934  -0.0000521527
       -0.0004956737   0.0004347417  -0.0001483115   0.0000967145  -0.0002012813
       -0.0001709887  -0.0004528772   0.0002578818  -0.0011630209   0.0005554673
       -0.0004291679   0.0009534037  -0.0004447340   0.0001372106   0.0000773003
       -0.0000320223   0.0001073767   0.0000584092   0.0001990687   0.0000344238
        0.0000821259  -0.0001233364  -0.0000104288  -0.0000520093  -0.0000636984
        0.0000071197   0.0000840906   0.0000176504  -0.0000284423  -0.0001052133
       -0.0000111863   0.0000240052  -0.0001187892   0.0000649476   0.0000348492
        0.0001423781   0.0000639514  -0.0000352379   0.0001020880  -0.0001161147
        0.0000108287   0.0002668622   0.0003698917  -0.0000012172  -0.0000688765
       -0.0003476125  -0.0000121948   0.0001786364   0.0000949835   0.0000162285
        0.0000771301  -0.0001289032   0.0000400929  -0.0000079420  -0.0000010741
       -0.0000103046  -0.0000002215   0.0000173521   0.0000027779  -0.0000151746
        0.0000052719   0.0000087240   0.0000215798   0.0000053420   0.0000097955
       -0.0000027112  -0.0000199935  -0.0000186122   0.0000046387  -0.0000171008
       -0.0000044609  -0.0000035877   0.0000068534   0.0000044426  -0.0000004251
       -0.0000063924   0.0000009500  -0.0000023253   0.0000026289  -0.0000003618
       -0.0000006367   0.0000001665   0.0000010968  -0.0000000141  -0.0000022754
       -0.0000009203   0.0000003396  -0.0000005387  -0.0000035462  -0.0000000871
        0.0000007701  -0.0000014283   0.0000005416  -0.0000004899   0.0000010734
       -0.0000005793  -0.0000020033  -0.0000007279  -0.0000001939  -0.0000008691
       -0.0000020106  -0.0000007773   0.0000018428  -0.0000003100  -0.0000008117
        0.0000000872   0.0000033987   0.0000001266   0.0000011716  -0.0000076236
       -0.0000025267  -0.0000104507  -0.0000112491   0.0000031972  -0.0000033236
       -0.0000000272  -0.0000026153  -0.0000062481  -0.0000067654  -0.0000092832
        0.0000079694   0.0000077991   0.0000047126   0.0000069833   0.0000044227
       -0.0000143801   0.0000018901  -0.0000014350   0.0000105647   0.0000723787
        0.0000020011  -0.0001216827  -0.0000686008  -0.0000410820   0.0000179889
       -0.0000044036   0.0000072439   0.0000096603   0.0000099374  -0.0000020061
        0.0000225471   0.0000019078  -0.0000078574  -0.0000158974   0.0000126868
       -0.0000042626   0.0000182298  -0.0000191460  -0.0000002022  -0.0000180133
       -0.0000020509  -0.0000015104  -0.0000141710  -0.0000232079   0.0000088814
        0.0000065160   0.0000204667   0.0000181927   0.0000132629   0.0000221011
        0.0000038573   0.0003579420  -0.0006991250  -0.0001880226   0.0000543359
       -0.0000126951   0.0000387797   0.0000117023   0.0000066459   0.0000397439
        0.0000086607   0.0000193221   0.0000193678  -0.0000001364  -0.0000004005
        0.0000107839  -0.0000040115  -0.0000078733   0.0000028073  -0.0000029970
       -0.0000046298   0.0000072475   0.0000040066   0.0000034989  -0.0000056404
        0.0000051572   0.0000063208   0.0000054780  -0.0000040781  -0.0000052833
       -0.0000155213  -0.0000135918   0.0000121880  -0.0000101685   0.0000014700
       -0.0000061482   0.0000031969  -0.0000000987   0.0000016514   0.0000020469
        0.0000090050   0.0000021613  -0.0000035199  -0.0000002401   0.0000088968
       -0.0000011851   0.0000110493  -0.0000067953   0.0000032916  -0.0000975842
        0.0001591729  -0.0000050074  -0.0002953617  -0.0002856284   0.0000340555
        0.0000187249  -0.0000596132   0.0000530536   0.0549244853  -0.0581842807
        0.0491026734   0.0051713345  -0.0023547520  -0.0029090662   0.0040637362
        0.0058701838   0.0007502086   0.0035210279  -0.0024850319  -0.0139734288
        0.0000988329   0.0001495270   0.0000719396  -0.0000022677  -0.0000179510
        0.0000116759   0.0000303039   0.0000836886  -0.0000144232   0.0000133625
        0.0000192611   0.0000176263   0.0000002528  -0.0000047789   0.0000029956
        0.0000083246  -0.0000068605  -0.0000118204  -0.0000072322   0.0000111075
        0.0000054524  -0.0000092499  -0.0000146138   0.0000092480   0.0000017964
        0.0000225759  -0.0000012592  -0.0000086763   0.0000021706   0.0000067005
       -0.0000068547   0.0000025794  -0.0000013828   0.0000019311   0.0000045299
        0.0000044007  -0.0000004147   0.0000005109  -0.0000004587   0.0000052828
        0.0000012053  -0.0000000534   0.0000009704  -0.0000005699   0.0000028481
        0.0000013242  -0.0000003990   0.0000002611   0.0000010624   0.0000012779
       -0.0000004092   0.0000006729   0.0000018022   0.0000001282   0.0000007348
        0.0000020865  -0.0000002054   0.0000004106   0.0000005111   0.0000001050
        0.0000011031   0.0000019185  -0.0000003972   0.0000010865   0.0000039349
       -0.0000010432  -0.0000004132   0.0000020451   0.0000012653   0.0000002959
        0.0000006721  -0.0000000214  -0.0000007422  -0.0000001051  -0.0000011106
        0.0000025531   0.0000016520  -0.0000001278  -0.0000020067  -0.0000017066
       -0.0000025131  -0.0000044588  -0.0000002096  -0.0000005057  -0.0000056090
       -0.0000034160   0.0000052857  -0.0000030698  -0.0000022825   0.0000040494
       -0.0000172603  -0.0000134866  -0.0000042549  -0.0000336933   0.0000396498
       -0.0000493253  -0.0000769116  -0.0000363872  -0.0000698768  -0.0000089697
        0.0000021448   0.0000134700  -0.0000008220  -0.0000000126   0.0000047184
       -0.0000014834  -0.0000018010  -0.0000061450  -0.0000035600  -0.0000043028
       -0.0000042839  -0.0000061271  -0.0000030342  -0.0000008499  -0.0000026527
        0.0000017491  -0.0000000752   0.0000013781  -0.0000045538   0.0000015802
       -0.0000004419  -0.0000046701   0.0000028839  -0.0000025555  -0.0000042145
        0.0000035813  -0.0000039232   0.0000066960  -0.0000004514  -0.0000090054
        0.0000221680   0.0000207934
        0.0331742877   0.0357778010   0.6529116891   0.0207152127  -0.0179200828
       -0.1166831949   0.0057260174   0.0020968815   0.0526400560   0.0261071427
       -0.0163738467  -0.0330376364  -0.0589169542   0.0250514066  -0.0595913195
        0.0684929813  -0.0622985373  -0.3153711654  -0.0020174056   0.0007837464
        0.0052539070   0.0010667593  -0.0006831818  -0.0013440593   0.0006861038
       -0.0002404914   0.0009129827  -0.0004060177   0.0001932617  -0.0002590352
       -0.0002902343   0.0001945644   0.0001976319  -0.0032468245   0.0014334928
       -0.0023827167   0.0016191516  -0.0005866472  -0.0002206787   0.0002133394
       -0.0000448316  -0.0000219235   0.0000740392   0.0002339709   0.0000551031
        0.0001707312  -0.0001242195  -0.0000074479  -0.0001129019  -0.0000705637
        0.0000128868   0.0001022161   0.0000598605   0.0000021041  -0.0001305773
       -0.0000330013   0.0000157298  -0.0001198429   0.0000683671  -0.0000106037
        0.0001730439   0.0000873255  -0.0000109646   0.0001234403  -0.0001788489
        0.0000188424   0.0003317567   0.0004757776  -0.0000108389  -0.0000963466
       -0.0004874523  -0.0000024885   0.0002838621   0.0001343286   0.0000343389
        0.0001345926  -0.0002082578   0.0000365703  -0.0000049561  -0.0000077600
        0.0000002883  -0.0000005886   0.0000235119   0.0000084173  -0.0000150206
        0.0000068052   0.0000054481   0.0000178511   0.0000045366   0.0000057839
       -0.0000044229  -0.0000159233  -0.0000108930   0.0000130770  -0.0000233422
       -0.0000109533  -0.0000065247   0.0000084049   0.0000070593  -0.0000015157
       -0.0000097695  -0.0000006577   0.0000007159   0.0000022121   0.0000003532
       -0.0000008183  -0.0000019963   0.0000005058  -0.0000003224  -0.0000020739
       -0.0000013233   0.0000004163  -0.0000011374  -0.0000033163  -0.0000003416
       -0.0000002898   0.0000000678  -0.0000020883   0.0000008970  -0.0000010526
        0.0000014445  -0.0000033412  -0.0000009044   0.0000003779   0.0000002143
       -0.0000011031   0.0000013504   0.0000005902  -0.0000012800  -0.0000012219
        0.0000002529   0.0000019341   0.0000003568  -0.0000011165  -0.0000112934
        0.0000003125  -0.0000101246  -0.0000070950  -0.0000001392  -0.0000030318
       -0.0000032004   0.0000043147  -0.0000037502  -0.0000022149  -0.0000046723
        0.0000051858   0.0000038924   0.0000041668   0.0000060276   0.0000068227
       -0.0000155072   0.0000011814  -0.0000016126   0.0000409097   0.0001825970
        0.0000125276  -0.0001970690  -0.0001270799  -0.0000450320   0.0000024210
       -0.0000151890  -0.0000109290   0.0000118993   0.0000310933  -0.0000023035
        0.0000248906   0.0000008293  -0.0000065785  -0.0000145214   0.0000151876
       -0.0000020160   0.0000018742  -0.0000293627   0.0000111216  -0.0000153203
       -0.0000095010   0.0000232984   0.0000018073  -0.0000059301   0.0000025516
       -0.0000195427  -0.0000275053  -0.0000468648  -0.0000291067  -0.0000183039
       -0.0000027330   0.0000763942  -0.0001496689   0.0000543403   0.0000618232
        0.0000920011  -0.0000526806  -0.0000326513   0.0000353725  -0.0000690648
       -0.0000142765  -0.0000365698  -0.0000398695  -0.0000132680  -0.0000179566
       -0.0000183577   0.0000059361   0.0000244050  -0.0000006272   0.0000078363
        0.0000108948   0.0000100193   0.0000054210   0.0000065903  -0.0000017529
       -0.0000038983  -0.0000051368   0.0000022848   0.0000026876  -0.0000012248
       -0.0000135128  -0.0000083884  -0.0000070624   0.0000120167   0.0000013625
        0.0000008393  -0.0000007084  -0.0000071687   0.0000109151  -0.0000046929
        0.0000069456   0.0000048921  -0.0000041462  -0.0000012003   0.0000144494
       -0.0000072699   0.0000168380  -0.0000053057  -0.0000000581  -0.0002137391
        0.0002178548  -0.0000238146  -0.0004135998  -0.0002690209   0.0000624601
        0.0000803639  -0.0002314342   0.0000045086  -0.1171056130   0.0490246291
       -0.1582880251   0.0244433396  -0.0141438899  -0.0123347193  -0.0037682939
        0.0010110911  -0.0017862128   0.0032982495  -0.0029239131  -0.0105761397
        0.0000375070  -0.0000395829  -0.0000541152  -0.0000215165   0.0000261913
        0.0000336866   0.0000074054  -0.0000025244   0.0000307278   0.0000285730
       -0.0000282142  -0.0000540472  -0.0000561051  -0.0000008149  -0.0000197240
       -0.0000096500  -0.0000261074  -0.0000012077   0.0000010738  -0.0000131853
        0.0000002648   0.0000242553  -0.0000292977   0.0000001377   0.0000352662
        0.0000091699  -0.0000138795   0.0000046049   0.0000039730  -0.0000040229
       -0.0000073565   0.0000120740   0.0000007744   0.0000005185   0.0000000948
        0.0000030311  -0.0000025754  -0.0000043905  -0.0000004640   0.0000014687
        0.0000083116   0.0000038365  -0.0000000980  -0.0000013878   0.0000015474
       -0.0000001052   0.0000002498  -0.0000002283  -0.0000008513   0.0000027481
       -0.0000006343  -0.0000014073   0.0000017580   0.0000021645  -0.0000014217
        0.0000021956   0.0000006849  -0.0000012093   0.0000005502   0.0000018852
       -0.0000008459   0.0000002939   0.0000009548  -0.0000003397   0.0000015204
       -0.0000008565  -0.0000022896   0.0000025734   0.0000021092  -0.0000014669
        0.0000001478   0.0000003774  -0.0000017170  -0.0000009197  -0.0000010272
        0.0000017948   0.0000003325  -0.0000005057  -0.0000025351  -0.0000115410
        0.0000011047  -0.0000059975   0.0000017530  -0.0000021201  -0.0000030998
       -0.0000037139   0.0000034018  -0.0000171447  -0.0000001914  -0.0000158581
        0.0000019671  -0.0000090924   0.0000036957   0.0000300420   0.0001006510
       -0.0000141989  -0.0000597305   0.0000300536   0.0001259511  -0.0000070737
       -0.0000240471   0.0000152330  -0.0000040422  -0.0000153518  -0.0000064374
       -0.0000023191  -0.0000039604  -0.0000022815  -0.0000038909  -0.0000051670
        0.0000001149  -0.0000023718  -0.0000037158   0.0000018487  -0.0000002452
       -0.0000044313   0.0000038692  -0.0000006223  -0.0000008732   0.0000028002
       -0.0000009098  -0.0000012147   0.0000030563  -0.0000025350  -0.0000014772
        0.0000031197  -0.0000000730  -0.0000016074  -0.0000079281  -0.0000300895
        0.0000515951  -0.0000253025
       -0.2405924972   0.1037509973   0.0207152127   0.5277702051  -0.2150006874
        0.0177162388  -0.1959887975   0.0715737431  -0.0691480319   0.0305966720
       -0.0218784948  -0.0631645694  -0.0489531564   0.0212701215  -0.0129941418
        0.0064050164   0.0050834410   0.0809463011   0.0000970023  -0.0000274623
        0.0016343371   0.0001792710  -0.0001403277  -0.0003907606   0.0002777689
       -0.0000985453   0.0003928255  -0.0002713347   0.0001379036  -0.0000828948
        0.0000021564  -0.0000331656   0.0000434379  -0.0018981482   0.0008234301
       -0.0012370005   0.0051985732   0.0016651197   0.0019357743  -0.0002517712
        0.0003340149  -0.0000583968   0.0001146149   0.0004762390   0.0002356621
        0.0003381364  -0.0003148178   0.0000204997  -0.0002640092  -0.0001478118
        0.0000222653   0.0001330956   0.0000511414  -0.0001313783  -0.0003011289
       -0.0000818811   0.0001351525  -0.0001050919   0.0003004833   0.0000764007
        0.0003480501   0.0001357022  -0.0002350925   0.0001795064  -0.0002126755
        0.0000208359   0.0006026645   0.0008291947   0.0000038989  -0.0001691984
       -0.0008369971  -0.0000989744   0.0004503125   0.0002350173   0.0000104462
        0.0002175635  -0.0003293361   0.0001080692  -0.0000320264  -0.0000167169
       -0.0000157153   0.0000054844   0.0000529557   0.0000178415  -0.0000400741
        0.0000149716   0.0000174621   0.0000553030   0.0000136030   0.0000223468
       -0.0000149206  -0.0000463251  -0.0000390542   0.0000276861  -0.0000343726
       -0.0000055996  -0.0000047312   0.0000042501   0.0000016404  -0.0000046280
       -0.0000036210   0.0000032704  -0.0000005215   0.0000048300   0.0000001590
       -0.0000018518   0.0000025361   0.0000057714  -0.0000004905  -0.0000041830
        0.0000007183  -0.0000004567  -0.0000000480  -0.0000040662   0.0000016472
        0.0000026271  -0.0000028888   0.0000013480  -0.0000003271   0.0000036661
        0.0000002535  -0.0000031506  -0.0000011922   0.0000009432   0.0000012094
       -0.0000048809  -0.0000014188   0.0000050723   0.0000028611  -0.0000005183
        0.0000018272   0.0000044793  -0.0000017128   0.0000010920  -0.0000080782
        0.0000039551  -0.0000203604  -0.0000172690   0.0000028203  -0.0000085078
       -0.0000017290  -0.0000017215  -0.0000108046  -0.0000080722  -0.0000205997
        0.0000180327   0.0000169597   0.0000127397   0.0000187839   0.0000151441
       -0.0000401180   0.0000010349  -0.0000065430   0.0000416233   0.0002355663
        0.0000069660  -0.0003327104  -0.0001813736  -0.0000946388   0.0000156304
       -0.0000287823   0.0000216506   0.0000346212   0.0000555406  -0.0000083160
        0.0000514260   0.0000049671  -0.0000175341  -0.0000416229   0.0000510263
       -0.0000197918  -0.0000370026  -0.0000524107   0.0000462153  -0.0000393989
       -0.0000225830   0.0000030796   0.0000316770   0.0000355308  -0.0000175071
       -0.0000146725  -0.0000193959  -0.0000095335   0.0000128547   0.0000144695
        0.0000004997   0.0000006794  -0.0000240446   0.0000033825  -0.0000157815
       -0.0000555680  -0.0000044125  -0.0000249799  -0.0000179765   0.0000145499
       -0.0000215465  -0.0000199211  -0.0000118073  -0.0000021427   0.0000012922
       -0.0000178502  -0.0000069456  -0.0000076523  -0.0000013680   0.0000015958
        0.0000004269  -0.0000050037   0.0000030921   0.0000029558   0.0000029151
       -0.0000000661  -0.0000009794  -0.0000113760  -0.0000017750  -0.0000013736
        0.0000332563  -0.0000007473  -0.0000431967   0.0000298955  -0.0000169076
       -0.0000014876   0.0000010500  -0.0000041361  -0.0000221783   0.0000137252
        0.0000326630   0.0000120119  -0.0000172428  -0.0000033972   0.0000292210
       -0.0000111504   0.0000408274  -0.0000167407   0.0000026533  -0.0002902976
        0.0003891065  -0.0000097982  -0.0005881396  -0.0004570708   0.0002193414
       -0.0000948194  -0.0004569469   0.0008308279  -0.0199209381   0.0112076514
        0.0045819675  -0.0463208862   0.0099716611   0.0331345158  -0.0196748284
        0.0091466502  -0.0154474879   0.0026436281   0.0028333211   0.0004169826
        0.0001759372  -0.0001069638  -0.0000927129   0.0000242130  -0.0000167774
        0.0000133888   0.0000262453  -0.0000148276   0.0000019106   0.0000372787
       -0.0000359663  -0.0000165051   0.0000214535  -0.0000058832  -0.0000358681
        0.0000139109  -0.0000157011  -0.0000695377   0.0000006655   0.0000150394
        0.0000180364   0.0000205989  -0.0000193582   0.0000405170   0.0000491718
        0.0000126071   0.0000252171   0.0000119614  -0.0000071059   0.0000498285
       -0.0000065878   0.0000014457   0.0000047431   0.0000051512   0.0000026742
        0.0000052991  -0.0000020476  -0.0000053691  -0.0000027004   0.0000083396
        0.0000013563  -0.0000022380   0.0000018031  -0.0000051383   0.0000037205
        0.0000020531  -0.0000009858  -0.0000007345   0.0000015379   0.0000027920
       -0.0000000487   0.0000012235   0.0000024309   0.0000010283   0.0000020574
        0.0000004098   0.0000007648   0.0000017262  -0.0000012644   0.0000034902
        0.0000024059  -0.0000001931   0.0000016667   0.0000025376   0.0000035631
       -0.0000028444  -0.0000029232   0.0000041171   0.0000042800  -0.0000008519
       -0.0000012830  -0.0000003775  -0.0000035349  -0.0000019472  -0.0000032097
        0.0000060741   0.0000013104  -0.0000030306   0.0000013287  -0.0000122743
       -0.0000100519   0.0000013867   0.0000003517  -0.0000062160  -0.0000016745
       -0.0000067305   0.0000062532  -0.0000029667   0.0000049688  -0.0000081167
        0.0000113665   0.0000139292  -0.0000130972  -0.0000028348   0.0000030801
       -0.0000242056   0.0000235008   0.0000368673   0.0000254640   0.0000208367
        0.0000022828  -0.0000268098   0.0000087879   0.0000038229  -0.0000090094
       -0.0000007855   0.0000020420   0.0000033726   0.0000006836   0.0000037071
        0.0000038727   0.0000028756   0.0000116928   0.0000050466   0.0000073827
        0.0000053943  -0.0000060609   0.0000014898  -0.0000022087  -0.0000017189
        0.0000032103   0.0000003521   0.0000012084   0.0000033886   0.0000013534
        0.0000008872   0.0000164983  -0.0000103028  -0.0000203630  -0.0000133182
        0.0000122179   0.0000034568
        0.1106251974  -0.1080675398  -0.0179200828  -0.2150006874   0.2327096190
        0.0456950303   0.0647103985  -0.0772021884   0.0220640259  -0.0167769337
        0.0121161152   0.0272850749   0.0214118038  -0.0166414391   0.0077574013
       -0.0000077042  -0.0031462997  -0.0437606561  -0.0002026048  -0.0002432137
       -0.0011152722  -0.0001499385   0.0000857212   0.0002930065  -0.0001624810
        0.0000954541  -0.0002381278   0.0001470231  -0.0000811162   0.0000309450
        0.0000328511  -0.0000125276  -0.0000588837   0.0009954758  -0.0003910566
        0.0004433272   0.0011709450   0.0061639323  -0.0021071927  -0.0005117559
       -0.0001559520  -0.0009067458  -0.0000849697  -0.0000201287  -0.0001044845
       -0.0000493910   0.0000999985   0.0000683946   0.0000557465   0.0000670026
       -0.0000257246  -0.0001261017   0.0000071236   0.0001069993   0.0000237971
        0.0002016346  -0.0000191128   0.0003163340  -0.0001031938  -0.0001039613
       -0.0001712638  -0.0001239100   0.0001007199  -0.0000731154   0.0000538633
        0.0000044179  -0.0004821202  -0.0004100429  -0.0000970376   0.0000893655
        0.0003956393   0.0000357469  -0.0002183410  -0.0001130655   0.0000097653
       -0.0000964838   0.0001469891  -0.0000568838   0.0000191392   0.0000065891
        0.0000118845  -0.0000007436  -0.0000272851  -0.0000069982   0.0000224738
       -0.0000094586  -0.0000085978  -0.0000300072  -0.0000083010  -0.0000118014
        0.0000068854   0.0000240216   0.0000219036  -0.0000110496   0.0000207435
        0.0000029745   0.0000019395  -0.0000040543  -0.0000016131   0.0000025661
        0.0000015920  -0.0000017528  -0.0000011582  -0.0000042919  -0.0000004969
        0.0000007496  -0.0000027715  -0.0000025655   0.0000002900  -0.0000008264
       -0.0000008442   0.0000000926  -0.0000010668   0.0000009039  -0.0000015812
       -0.0000024009   0.0000025012  -0.0000000456  -0.0000008411  -0.0000014724
       -0.0000008321  -0.0000000355   0.0000000833  -0.0000010506  -0.0000008820
        0.0000017016  -0.0000000249  -0.0000025837  -0.0000016271   0.0000005548
       -0.0000014642  -0.0000023854   0.0000007033  -0.0000006740   0.0000069551
       -0.0000000865   0.0000117347   0.0000103879  -0.0000024927   0.0000019839
        0.0000004714   0.0000030261   0.0000063484   0.0000058841   0.0000126637
       -0.0000116454  -0.0000077295  -0.0000060335  -0.0000095241  -0.0000065798
        0.0000209596  -0.0000029506   0.0000036006  -0.0000049593  -0.0000717584
       -0.0000012613   0.0001385903   0.0000736706   0.0000528219  -0.0000068659
        0.0000149092  -0.0000123318  -0.0000214437  -0.0000275598  -0.0000019654
       -0.0000263428  -0.0000025697   0.0000091437   0.0000211437  -0.0000248377
        0.0000096190   0.0000164327   0.0000275265  -0.0000198798   0.0000166847
        0.0000146532  -0.0000016064  -0.0000123407  -0.0000130665   0.0000066091
        0.0000084020   0.0000135610   0.0000074441  -0.0000078661  -0.0000087737
        0.0000013697  -0.0000070324   0.0000170669   0.0000165424  -0.0000168345
        0.0000244734  -0.0000018226   0.0000113542   0.0000130935  -0.0000161709
        0.0000079106   0.0000071177   0.0000073318   0.0000034048   0.0000023899
        0.0000078088   0.0000034788   0.0000022172  -0.0000003245  -0.0000003754
       -0.0000005601   0.0000027237  -0.0000019943  -0.0000022368   0.0000001180
       -0.0000001682  -0.0000003645   0.0000048966   0.0000011365   0.0000001698
       -0.0000103373   0.0000012982   0.0000211874  -0.0000130388   0.0000069236
        0.0000010731   0.0000005211   0.0000008291   0.0000131037  -0.0000059207
       -0.0000166860  -0.0000054036   0.0000099369   0.0000013592  -0.0000123807
        0.0000054994  -0.0000196762   0.0000089880  -0.0000015349   0.0001564480
       -0.0001780332  -0.0000015118   0.0005487216   0.0003417365  -0.0001235144
        0.0006654780  -0.0000699532   0.0006356822   0.0091165206  -0.0044341938
       -0.0020113055   0.0099596889  -0.0433061652  -0.0430614744   0.0111810194
       -0.0043428821   0.0085681560   0.0029608503   0.0063545363  -0.0015367044
       -0.0000987996   0.0000549613   0.0000516639  -0.0000120825   0.0000122956
       -0.0000052678  -0.0000134249  -0.0000008752  -0.0000033469  -0.0000177957
        0.0000124239   0.0000090218   0.0000139588   0.0000090091  -0.0000434147
       -0.0000068510   0.0000142287   0.0000285822   0.0000001133  -0.0000098655
       -0.0000227214  -0.0000073503   0.0000225776  -0.0000125378  -0.0000050408
       -0.0000060636  -0.0000225274   0.0000045766   0.0000070704  -0.0000214221
        0.0000017614   0.0000024367  -0.0000048692  -0.0000030117  -0.0000016484
       -0.0000026269   0.0000003011   0.0000016717   0.0000005318  -0.0000042186