$hessian                                                                        
        0.6181890986   0.0602003084   0.1430870770  -0.1219542946   0.0978742482
       -0.0679048785  -0.0276170181   0.0216806630  -0.0193953125   0.0110501743
       -0.0030832841   0.0073109849  -0.0084023920   0.0036266828  -0.0041131670
        0.0047643998  -0.0033826927   0.0029771114  -0.0023533548   0.0047516520
       -0.0024536784   0.0014694960  -0.0025828072   0.0015088721   0.0001694626
        0.0013382343  -0.0004199544   0.0004760692  -0.0005376094   0.0003416295
       -0.0002246653   0.0004289691  -0.0002149377   0.0002056993  -0.0006958377
        0.0003051788  -0.0011270173   0.0005589012  -0.0005677858  -0.0005885591
       -0.0039209249   0.0014172705  -0.0026035559   0.0016344758  -0.0015516693
        0.0000120581  -0.0000439492   0.0000814589   0.0000951047   0.0000407363
        0.0000438488  -0.0000094234   0.0000446881  -0.0000113352  -0.0000723522
       -0.0000706995  -0.0000167320   0.0000111806   0.0000256596  -0.0000003661
        0.0000689677  -0.0000884146  -0.0000106775  -0.0001482553   0.0000810380
        0.0000346025   0.0001115662  -0.0001452133  -0.0000221035  -0.0000612654
        0.0000457592   0.0000040412   0.0000396574  -0.0000586324   0.0000309990
       -0.0001773361   0.0000400898   0.0000104899   0.0000719888  -0.0001634411
       -0.0000387307  -0.0000539247   0.0000454399   0.0000162914   0.0000068672
       -0.0000006237   0.0000214646  -0.0000694383   0.0000010990  -0.0000282320
        0.0000776692  -0.0001083330   0.0000062996   0.0000809931   0.0000517321
       -0.0000186696  -0.0000013435  -0.0000434640   0.0000655141  -0.0001622388
       -0.0002425632  -0.0003540669   0.0002649022   0.0003904465  -0.0000735598
       -0.0001507875  -0.0000727967  -0.0000696921   0.0000904645   0.0001302620
       -0.0000920102  -0.0002199439  -0.0003179773  -0.0001261513   0.0003643272
       -0.0000766815   0.0002847786   0.0001505960   0.0001050789   0.0000306653
        0.0000180209   0.0001442310   0.0000312529   0.0022577835  -0.0008899421
        0.0011576633  -0.0464695468  -0.0215281227  -0.0065024041  -0.1547408065
       -0.1400397445   0.0251698814  -0.2755671718  -0.0089864142  -0.0773407110
        0.0057039302  -0.0133375223   0.0074883645  -0.0043893587  -0.0008223979
       -0.0038925605  -0.0000044925  -0.0000076146   0.0000137040  -0.0000030280
        0.0000597435  -0.0000426917  -0.0000180212   0.0000254807  -0.0000103807
       -0.0000533230   0.0000164403  -0.0000621261  -0.0000336438   0.0000206546
       -0.0000303435  -0.0000608933   0.0000493446   0.0000473298   0.0000083367
       -0.0000420115  -0.0000197020  -0.0000100056  -0.0000276053   0.0000023927
       -0.0000204945  -0.0000153720   0.0000103412  -0.0000232127  -0.0000350107
       -0.0000020067  -0.0000398082  -0.0000028002   0.0000088293  -0.0000224737
       -0.0000187010  -0.0000093276  -0.0000050822   0.0000072123  -0.0000006515
       -0.0000015484   0.0000176063   0.0000038749   0.0000079784  -0.0000145802
       -0.0000324468   0.0000730711  -0.0000367083  -0.0000375443  -0.0000075342
       -0.0000263549  -0.0000167156  -0.0000078526   0.0000907508   0.0000553750
       -0.0000252241  -0.0000574733   0.0000413946   0.0000001955  -0.0000028442
        0.0000033513  -0.0043267097  -0.0011354420  -0.0037692449   0.0059873383
        0.0091349792  -0.0023597652
        0.0602003084   0.5501527110  -0.1728001938   0.0267211357  -0.2224111120
        0.0855519530   0.0724029827   0.0181694002   0.0169252107  -0.0029140022
       -0.0430311961   0.0150694507  -0.0005941232   0.0009154500  -0.0007425807
        0.0020691958   0.0001235087   0.0005862124  -0.0010817799  -0.0002523567
       -0.0002426376   0.0002205535  -0.0002717252   0.0001730947  -0.0000403494
        0.0001087339  -0.0000498113   0.0000235000  -0.0000294146   0.0000209715
        0.0000008466   0.0000563758  -0.0000138018   0.0000422972  -0.0000832328
        0.0000467605  -0.0001467716   0.0000465368  -0.0000640005   0.0005794847
       -0.0005756723   0.0003828568  -0.0010132283   0.0003544784  -0.0005775166
       -0.0001490176  -0.0000153702  -0.0000463552  -0.0000420951  -0.0000121990
       -0.0000165250   0.0001097380   0.0000233522  -0.0000255298  -0.0000265078
       -0.0000149108   0.0000174679   0.0000487409  -0.0000117075  -0.0000151609
       -0.0000577307   0.0000371458   0.0000106764   0.0000886594  -0.0000566803
       -0.0000216033  -0.0001398881   0.0000437079   0.0000239222   0.0001191141
       -0.0000354010  -0.0000125580  -0.0000273239   0.0001088649   0.0000351526
        0.0000353759  -0.0000864078  -0.0000384701  -0.0000452958   0.0000709482
        0.0000336060   0.0000306232  -0.0000159680  -0.0000002343   0.0000002139
        0.0000148143   0.0000103710   0.0000093463  -0.0000157926  -0.0000055922
       -0.0000187266   0.0000074701   0.0000099867  -0.0000031314  -0.0000362266
       -0.0000113817  -0.0000367760  -0.0000421475  -0.0000200809   0.0000780806
       -0.0000460286   0.0001046484  -0.0000297525  -0.0000360137  -0.0000491936
        0.0000685760  -0.0000465105   0.0000816822  -0.0000703089   0.0000445401
       -0.0000524931   0.0000287200  -0.0000949504   0.0000404460  -0.0000568077
        0.0000750168   0.0000025960  -0.0000525229   0.0000780190   0.0000235869
        0.0001013135  -0.0000749018   0.0000071224   0.0005673574   0.0005255093
        0.0000732376  -0.0733032671   0.0120346256  -0.0293150936  -0.0685907491
       -0.2342693946   0.0597420285  -0.0089594387  -0.0420665834   0.0018792412
        0.0078592483  -0.0223431508   0.0127907004  -0.0014713756   0.0025176662
        0.0020640233   0.0000182416   0.0000743273  -0.0000136979   0.0000082632
        0.0000161812  -0.0000014730   0.0000064037   0.0000006096   0.0000043523
        0.0000020427   0.0000023623   0.0000016121   0.0000027102   0.0000106665
       -0.0000022114  -0.0000093867   0.0000761833   0.0000355300  -0.0000195418
        0.0000065074   0.0000021772  -0.0000091471  -0.0000001626  -0.0000103399
       -0.0000038566  -0.0000039294   0.0000015178  -0.0000017347   0.0000055104
        0.0000007188  -0.0000034235   0.0000022140   0.0000025269   0.0000012589
        0.0000007946   0.0000042566   0.0000023195   0.0000003027   0.0000040484
        0.0000002676  -0.0000000379   0.0000020581  -0.0000003720  -0.0000007246
        0.0000016840   0.0000023477   0.0000093850  -0.0000044640  -0.0000039076
        0.0000332787  -0.0000075493   0.0000148825   0.0000177849   0.0000168592
       -0.0000255408   0.0000211528  -0.0000494036   0.0000172207   0.0000266539
       -0.0000042533  -0.0004622778   0.0025403312   0.0023611823  -0.0120712117
       -0.0223732119   0.0060686766
        0.1430870770  -0.1728001938   0.2329883305  -0.0366531756   0.1092705956
       -0.1066505653  -0.0416275815  -0.0001232551  -0.0125177666   0.0072172014
        0.0150235135  -0.0105765101  -0.0025524655   0.0007962201  -0.0013654754
        0.0007812576  -0.0012602761   0.0007714565  -0.0004667069   0.0017672276
       -0.0007560112   0.0004169611  -0.0007921673   0.0004679302   0.0000768928
        0.0004374018  -0.0001231115   0.0001591131  -0.0001698681   0.0001139373
       -0.0000783564   0.0001343506  -0.0000671516   0.0000451092  -0.0002125648
        0.0000922214  -0.0003432045   0.0001772780  -0.0001726173  -0.0003274653
       -0.0011172443   0.0003813378  -0.0006087440   0.0005032183  -0.0003720902
        0.0000683392  -0.0000303419   0.0000368290   0.0000513852   0.0000229247
        0.0000242647  -0.0000548136  -0.0000016443   0.0000158231  -0.0000021670
       -0.0000175723  -0.0000188302  -0.0000163026   0.0000139154   0.0000085209
        0.0000395532  -0.0000431455  -0.0000204165  -0.0000896989   0.0000522446
        0.0000153750   0.0001008259  -0.0000769710  -0.0000174947  -0.0000670081
        0.0000279862   0.0000061810   0.0000191253  -0.0000525083   0.0000019723
       -0.0000739717   0.0000497504   0.0000160572   0.0000374694  -0.0000820805
       -0.0000254064  -0.0000237450   0.0000199494   0.0000077589   0.0000024377
       -0.0000012260   0.0000128105  -0.0000262231   0.0000075931  -0.0000035422
        0.0000330410  -0.0000456787   0.0000049327   0.0000348941   0.0000308634
        0.0000036353   0.0000195146  -0.0000025523   0.0000346059  -0.0000957114
       -0.0000766038  -0.0001680319   0.0001093702   0.0001527600   0.0000015154
       -0.0000765678   0.0000031659  -0.0000571850   0.0000452620   0.0000155552
       -0.0000207829  -0.0000838892  -0.0000757293  -0.0000614975   0.0001475611
       -0.0000559450   0.0001025645   0.0000697617   0.0000142934   0.0000065265
       -0.0000141954   0.0000910164   0.0000121403   0.0005864718  -0.0005915398
        0.0004505196   0.0162079553  -0.0118509545   0.0120467136  -0.0062050072
        0.0357871691  -0.0640530440  -0.0774221349   0.0018543268  -0.0577056305
       -0.0018268330   0.0057217865  -0.0022653686  -0.0035913046   0.0022496598
        0.0060888546  -0.0000079897  -0.0000351983   0.0000173981  -0.0000061354
        0.0000139612  -0.0000103881  -0.0000108182   0.0000099005   0.0000002888
       -0.0000172274   0.0000081501  -0.0000219469  -0.0000097317   0.0000043762
       -0.0000063046  -0.0000232680  -0.0000243664  -0.0000214626   0.0000109789
       -0.0000138010  -0.0000141375  -0.0000010688  -0.0000067179  -0.0000002603
       -0.0000067791  -0.0000035047  -0.0000023716  -0.0000070895  -0.0000114580
       -0.0000020780  -0.0000136240  -0.0000012390   0.0000043618  -0.0000060108
       -0.0000055591  -0.0000021992  -0.0000017589   0.0000019129   0.0000037965
        0.0000013193   0.0000049494   0.0000065953   0.0000054419  -0.0000043125
       -0.0000075885   0.0000302071  -0.0000165398  -0.0000053533   0.0000015356
       -0.0000250818  -0.0000031249  -0.0000120297   0.0000334767   0.0000153079
       -0.0000016294  -0.0000426203   0.0000311143  -0.0000019961  -0.0000111590
        0.0000032523  -0.0039465729   0.0021462205   0.0058970240   0.0069949403
        0.0132339070  -0.0025762089
       -0.1219542946   0.0267211357  -0.0366531756   0.6146112412   0.0766751377
        0.1340087690  -0.3195458366   0.0174713203  -0.1000093166  -0.0506515152
       -0.0589871638   0.0084684364   0.0129961862  -0.0064204596   0.0049302140
       -0.0058178635   0.0043361724  -0.0036240147   0.0040629530  -0.0060392499
        0.0033787689  -0.0021047471   0.0035682895  -0.0020900445  -0.0001345932
       -0.0018565609   0.0006298871  -0.0007587862   0.0007395397  -0.0005119342
        0.0003407130  -0.0006128698   0.0003174361  -0.0002676803   0.0010321404
       -0.0004471334   0.0015979224  -0.0007708528   0.0008017726  -0.0005041859
        0.0049755919  -0.0020341963   0.0037261413  -0.0020353045   0.0019446755
       -0.0004348521  -0.0000188018  -0.0002384741  -0.0001632581  -0.0000200475
       -0.0000135280   0.0001982785  -0.0000661304  -0.0000557755  -0.0000264434
        0.0000976552   0.0000428227   0.0000228478  -0.0000563902  -0.0000210821
       -0.0001407203   0.0001671234   0.0000370012   0.0002940544  -0.0001936811
       -0.0000647665  -0.0004259697   0.0001575328   0.0000434234   0.0003655937
       -0.0001348156  -0.0000277888  -0.0001218341   0.0003600455   0.0000732868
        0.0002157873  -0.0003084718  -0.0001275791  -0.0002344227   0.0003267939
        0.0001160773   0.0001639942  -0.0001533475  -0.0000599001  -0.0000089636
        0.0000939344   0.0000258601   0.0000859175  -0.0000226147   0.0000080720
       -0.0001091739   0.0001726473   0.0000405228  -0.0000172007  -0.0001527375
       -0.0000402999  -0.0000007988  -0.0000787440  -0.0001687708   0.0002149121
        0.0003114998   0.0005500199  -0.0003585228  -0.0005041086   0.0000977004
        0.0002713999   0.0000671769   0.0001245697  -0.0002501285  -0.0002637833
       -0.0000266290   0.0003709847   0.0004578081   0.0001673474  -0.0004930472
        0.0001178982  -0.0003649182  -0.0002683545   0.0001459745   0.0000911162
        0.0002260727  -0.0002963228  -0.0000932083  -0.0036154760   0.0003349048
       -0.0013147309  -0.0328891990   0.0151869147  -0.0161881429   0.0499462519
        0.0205314443   0.0073208039  -0.0141283716   0.0220571942  -0.0145541326
       -0.1205137204  -0.1149737985   0.0215894249  -0.0136088954   0.0016751883
       -0.0054787174  -0.0000204053  -0.0000328935  -0.0000093291  -0.0000299168
       -0.0001186292   0.0000431098   0.0000351198  -0.0000616524   0.0000321831
        0.0001033264  -0.0000084681   0.0000621495   0.0000796757   0.0000306618
        0.0000183711   0.0000194347   0.0000983276   0.0000580169  -0.0000183862
        0.0000292535   0.0000145507  -0.0000013875   0.0000179901  -0.0000062763
        0.0000216776   0.0000074523  -0.0000018769   0.0000164169   0.0000252979
        0.0000146007   0.0000255874   0.0000030479  -0.0000058469   0.0000140468
        0.0000124385   0.0000166296   0.0000023625  -0.0000064002  -0.0000000993
       -0.0000003355  -0.0000143468  -0.0000038277  -0.0000190193   0.0000019227
        0.0000263068  -0.0000510103   0.0000217768   0.0000460558   0.0000001742
        0.0000102233   0.0000259383  -0.0000308134  -0.0000356199   0.0000136672
       -0.0000242599   0.0000406605  -0.0000848618   0.0000305430   0.0000530183
        0.0000011309  -0.0000663883   0.0005300521  -0.0001696263  -0.0002488391
       -0.0044189203  -0.0006907152
        0.0978742482  -0.2224111120   0.1092705956   0.0766751377   0.5728973352
       -0.1751561766  -0.0479574358  -0.0843453854   0.0017665346  -0.0174637018
        0.0141951846  -0.0116331751  -0.0078205863  -0.0019215242   0.0008807410
        0.0014759461  -0.0009833498   0.0007306290  -0.0001537300   0.0022127156
       -0.0009004975   0.0005812469  -0.0007576345   0.0004461058  -0.0000900229
        0.0003458255  -0.0001794029   0.0002066466  -0.0001372217   0.0001185146
       -0.0000534314   0.0000727625  -0.0000470167   0.0000661878  -0.0001851415
        0.0000890824  -0.0002743212   0.0001802737  -0.0001404862  -0.0003452340
       -0.0010224312   0.0004365104  -0.0004497666  -0.0000546349  -0.0001044288
       -0.0000174829  -0.0000439759  -0.0000427500   0.0000740492  -0.0000499643
        0.0000789584   0.0000221145   0.0000145800   0.0000165401  -0.0000217114
       -0.0000180728  -0.0000385758   0.0000207729   0.0000070295   0.0000133209
        0.0000148170  -0.0000399452  -0.0000101461  -0.0000601841   0.0000393731
        0.0000381972   0.0000180036  -0.0001611027  -0.0000029928   0.0000467070
       -0.0000044906  -0.0000078534  -0.0000158910   0.0000373076   0.0000386168
       -0.0001270757   0.0000030102  -0.0000249418   0.0000019788  -0.0000737636
       -0.0000186215  -0.0000088921  -0.0000065590  -0.0000111485   0.0000010783
        0.0000174758   0.0000121243  -0.0000341476   0.0000158286  -0.0000104865
        0.0000386035  -0.0000358014   0.0000020386   0.0000169688   0.0000358960
        0.0000013181  -0.0000000291  -0.0000405076   0.0000435838  -0.0001241239
       -0.0000481105  -0.0002577927   0.0000972086   0.0001676017   0.0000113074
       -0.0001257916  -0.0000024249  -0.0001104841   0.0000560313  -0.0000538523
       -0.0000053192  -0.0000845994  -0.0000748529  -0.0000617970   0.0002237074
       -0.0001149487   0.0001137630   0.0000956635   0.0001105005   0.0000266957
        0.0001233122   0.0001233904   0.0000625524  -0.0008549792  -0.0015789962
        0.0003121029   0.0223072504  -0.0056609726   0.0078916585  -0.0287571997
       -0.0569662644   0.0155827037   0.0008232575  -0.0000396255   0.0005884184
       -0.1150523610  -0.2105576813   0.0388242959   0.0224291079  -0.0010217965
        0.0083504442  -0.0000907781   0.0000947964  -0.0000525523  -0.0000049207
        0.0000212062  -0.0000238211   0.0000128760  -0.0000096513  -0.0000021622
       -0.0000038710   0.0000099888  -0.0000284849   0.0000057731  -0.0000070771
       -0.0000069235  -0.0000620485  -0.0000406061   0.0000042072   0.0000010630
       -0.0000093572   0.0000017184  -0.0000065811  -0.0000163111   0.0000196525
       -0.0000091327  -0.0000063649   0.0000027438  -0.0000048543  -0.0000100682
       -0.0000036187  -0.0000178848  -0.0000024096   0.0000130840  -0.0000060809
       -0.0000090811  -0.0000045080  -0.0000029333   0.0000019171  -0.0000022944
        0.0000008374   0.0000070460  -0.0000028017  -0.0000002895  -0.0000028117
       -0.0000132638   0.0000314714  -0.0000123118  -0.0000207993  -0.0000076050
        0.0000015965  -0.0000028444  -0.0000014087   0.0000570140   0.0000332213
       -0.0000184084  -0.0000264968   0.0000245008   0.0000045915   0.0000094149
        0.0000075314   0.0005273855   0.0004617066  -0.0001498914  -0.0037445483
       -0.0025760864   0.0032240453
       -0.0679048785   0.0855519530  -0.1066505653   0.1340087690  -0.1751561766
        0.2350450779  -0.0714289347   0.0238379387  -0.0777933248  -0.0096376698
       -0.0257135592   0.0088677389   0.0057309272   0.0011144220   0.0070396825
       -0.0026022536   0.0020066617  -0.0016727496   0.0015384449  -0.0031878957
        0.0012268288  -0.0009296776   0.0015250899  -0.0010287876  -0.0000064429
       -0.0008003696   0.0002775763  -0.0003589166   0.0003185224  -0.0002164339
        0.0001468349  -0.0002505553   0.0001224058  -0.0001254525   0.0004380371
       -0.0001793997   0.0006673357  -0.0003452113   0.0003616150   0.0000024622
        0.0022035919  -0.0008197962   0.0014733469  -0.0007759075   0.0008100502
       -0.0001157667   0.0000953213  -0.0000716121  -0.0000739137   0.0000080487
       -0.0000302348   0.0000734474  -0.0000264405  -0.0000059765  -0.0000008480
        0.0000462218   0.0000243305  -0.0000051775  -0.0000280833   0.0000050536
       -0.0000470107   0.0000647435   0.0000143755   0.0001179331  -0.0000661651
       -0.0000275852  -0.0001177354   0.0001420237   0.0000151670   0.0000624240
       -0.0000309642   0.0000043745  -0.0000218046   0.0000746962  -0.0000004635
        0.0001356405  -0.0000752710  -0.0000282752  -0.0000641224   0.0001351354
        0.0000413392   0.0000513152  -0.0000284854  -0.0000138889  -0.0000036900
        0.0000132510  -0.0000048646   0.0000470706  -0.0000141371  -0.0000017754
       -0.0000585866   0.0000573374   0.0000037287  -0.0000289920  -0.0000567722
       -0.0000102469   0.0000148558   0.0000342846  -0.0000399440   0.0000823259
        0.0000867840   0.0002382866  -0.0001562984  -0.0002216178   0.0000083706
        0.0001434483   0.0000365467   0.0000771025  -0.0001225434  -0.0000489356
       -0.0000326857   0.0001405139   0.0001531444   0.0000712205  -0.0002336576
        0.0000890865  -0.0001470283  -0.0001219921  -0.0000453086   0.0000080111
       -0.0000336182  -0.0001589114  -0.0000225463  -0.0007998100   0.0007776493
       -0.0006515296  -0.0191982621   0.0054804096  -0.0137379328   0.0289994833
        0.0320819623  -0.0035369049  -0.0052302287   0.0076323429  -0.0045900515
        0.0216117226   0.0388177182  -0.0440276649  -0.0145834187   0.0013691076
       -0.0047156756   0.0000323083  -0.0000596474   0.0000045814  -0.0000080016
       -0.0000532256   0.0000156398   0.0000095859  -0.0000248864  -0.0000050636
        0.0000411169  -0.0000134442   0.0000194046   0.0000262884   0.0000095908
        0.0000030227   0.0000337105   0.0000315752   0.0000277936  -0.0000061813
        0.0000133926   0.0000138741   0.0000022519   0.0000067233   0.0000078046
        0.0000128931   0.0000018567   0.0000045347   0.0000084598   0.0000102554
        0.0000167346   0.0000157097   0.0000002920  -0.0000061060   0.0000089271
        0.0000074970   0.0000024266  -0.0000001654  -0.0000022027  -0.0000057366
       -0.0000029880  -0.0000038231  -0.0000082860  -0.0000078647   0.0000075150
        0.0000099653  -0.0000294677   0.0000142579   0.0000199297  -0.0000060354
        0.0000076668   0.0000013587  -0.0000171880  -0.0000318331  -0.0000005645
       -0.0000049823   0.0000244550  -0.0000315485   0.0000083657   0.0000202647
       -0.0000006188  -0.0001854330  -0.0001126430  -0.0001959602  -0.0009679080
        0.0029850989   0.0059024219
       -0.0276170181   0.0724029827  -0.0416275815  -0.3195458366  -0.0479574358
       -0.0714289347   0.6262651198   0.0386597006   0.1560464936  -0.1258429893
       -0.0734016886   0.0062469110  -0.0499869468  -0.0181233932  -0.0083089332
        0.0101994121  -0.0100818408   0.0072400014  -0.0065362527   0.0094285244
       -0.0051105447   0.0034869018  -0.0058582115   0.0034575018   0.0003572169
        0.0029535461  -0.0009690295   0.0012243039  -0.0012023406   0.0008314022
       -0.0005155799   0.0010135853  -0.0005054431   0.0004042666  -0.0016577577
        0.0007094618  -0.0025562402   0.0012040641  -0.0012920624   0.0004656374
       -0.0081230445   0.0034842434  -0.0072376980   0.0018285197  -0.0033843120
       -0.0002519393   0.0000212615   0.0000248069   0.0002747049   0.0000449472
        0.0001090591  -0.0001615226   0.0001872011   0.0000654295  -0.0000249615
       -0.0001881925  -0.0000793739   0.0000540800   0.0000665196   0.0000171334
        0.0001055900  -0.0002137826  -0.0000553560  -0.0003729571   0.0002199935
        0.0001070698   0.0003489213  -0.0004870841  -0.0000582523  -0.0002013435
        0.0000561918  -0.0000164009   0.0000492350  -0.0001990838   0.0000130635
       -0.0005143043   0.0002865555   0.0000735541   0.0002074260  -0.0004270997
       -0.0001432626  -0.0001740578   0.0000972267   0.0000228463   0.0000285084
       -0.0000185553   0.0000240482  -0.0001944781   0.0000449972  -0.0000154414
        0.0002294876  -0.0002498021  -0.0000427717   0.0000643168   0.0002158712
        0.0000276046   0.0000547230  -0.0001462613   0.0001451090  -0.0003652481
       -0.0004840046  -0.0008376959   0.0005616680   0.0008840140  -0.0001613542
       -0.0003991305  -0.0001178676  -0.0002317745   0.0002931344   0.0003442762
       -0.0000985133  -0.0005454617  -0.0007575169  -0.0002798811   0.0008684904
       -0.0002344179   0.0005861671   0.0004861141   0.0002083665   0.0000304447
        0.0000761586   0.0004017289   0.0002128639   0.0017782431   0.0002806205
       -0.0003078705   0.0396603153  -0.0163126607   0.0203201229  -0.0402584402
       -0.0243073094  -0.0010800857   0.0003688637   0.0014094343  -0.0028322759
       -0.0195867112  -0.0036216363  -0.0051465970  -0.0842074624   0.0801990668
       -0.0525790005  -0.0000663754   0.0000848755   0.0000182971   0.0000076604
        0.0001828687  -0.0000796292  -0.0000565530   0.0000905704  -0.0000417168
       -0.0001550401   0.0000306155  -0.0001176857  -0.0001130807  -0.0000178745
       -0.0000448318  -0.0001823234  -0.0001046457  -0.0000547102   0.0000168364
       -0.0000614085  -0.0000350635  -0.0000095925  -0.0000359064   0.0000059089
       -0.0000233551  -0.0000173683  -0.0000014331  -0.0000342691  -0.0000428000
       -0.0000361279  -0.0000543036  -0.0000166342   0.0000198902  -0.0000363688
       -0.0000231460  -0.0000226989  -0.0000163209   0.0000056179   0.0000015229
       -0.0000093309   0.0000190681   0.0000059112   0.0000168356  -0.0000119585
       -0.0000403794   0.0001124161  -0.0000539817  -0.0000780971  -0.0000196074
       -0.0000282639  -0.0000373288  -0.0000455577   0.0001132439   0.0002006640
       -0.0000061074  -0.0000675173   0.0001109173  -0.0000200311  -0.0000272948
        0.0000057559   0.0003292747   0.0020945653  -0.0030783857  -0.0004510657
       -0.0004008337   0.0000966306
        0.0216806630   0.0181694002  -0.0001232551   0.0174713203  -0.0843453854
        0.0238379387   0.0386597006   0.5473015125  -0.1783279495  -0.1058716072
       -0.2219187269   0.0403432520  -0.0304210276   0.0024602728  -0.0112750318
        0.0103064278  -0.0070160201   0.0067698339  -0.0038382914   0.0068100366
       -0.0039033888   0.0021211765  -0.0038149578   0.0022880150   0.0004071455
        0.0019571508  -0.0005016514   0.0006020314  -0.0007359245   0.0004379311
       -0.0003905574   0.0006062640  -0.0003280663   0.0002654809  -0.0009976138
        0.0004256833  -0.0017451778   0.0006609243  -0.0007825364  -0.0010731871
       -0.0068425507   0.0024930081  -0.0058497818   0.0031546441  -0.0030243758
        0.0002491320   0.0005340665   0.0001762817   0.0002443992  -0.0001389060
       -0.0000145099  -0.0000824524   0.0001272041   0.0000192355  -0.0000210278
       -0.0001425701  -0.0000453552   0.0000708595   0.0000396071  -0.0000017082
       -0.0000041578  -0.0001092446   0.0000067627  -0.0001377311   0.0000868036
        0.0000094413   0.0001170340  -0.0001705841  -0.0000590940  -0.0000032668
       -0.0000335384  -0.0000171083  -0.0000411379   0.0000366616   0.0001057844
       -0.0002805772  -0.0000688687  -0.0000204589   0.0000687678  -0.0001701530
       -0.0000325382  -0.0000668260  -0.0000505489  -0.0000269439  -0.0000351439
        0.0000752456   0.0000734831  -0.0001443434   0.0000499146  -0.0000248529
        0.0001640316  -0.0001177465   0.0000431101   0.0000509999   0.0001033049
       -0.0000493916   0.0001226565  -0.0001335673   0.0000827779  -0.0003010364
       -0.0003698295  -0.0005712824   0.0003412905   0.0005902256  -0.0001529249
       -0.0002868779  -0.0000047291  -0.0001694264   0.0002093750   0.0002250388
       -0.0001444514  -0.0003310010  -0.0005780437  -0.0002005622   0.0004987739
       -0.0002132976   0.0003598454   0.0002942671   0.0001751273   0.0000639554
       -0.0001039109   0.0002625886  -0.0000235664   0.0067999423   0.0017066589
        0.0026544505   0.0099232523  -0.0448778830   0.0234566646  -0.0175997765
       -0.0084628016  -0.0043923498   0.0017215026  -0.0022814500   0.0046670707
       -0.0245682793  -0.0027149904  -0.0067778679   0.0799578958  -0.1969541209
        0.0990077249   0.0001533043  -0.0001155043   0.0000416787   0.0000186660
        0.0000298989  -0.0000476918  -0.0000094392   0.0000194595  -0.0000025419
       -0.0000377101   0.0000191814  -0.0000902769   0.0000027730   0.0000945887
       -0.0000551045  -0.0000507868  -0.0001054496  -0.0000040278   0.0000115833
       -0.0000289290  -0.0000085741  -0.0000094923  -0.0000067920   0.0000143075
       -0.0000091108  -0.0000077417   0.0000260716  -0.0000254921  -0.0000371939
        0.0000177119  -0.0000397346  -0.0000006466   0.0000137504  -0.0000156266
       -0.0000063771  -0.0000047953   0.0000251273   0.0000070042  -0.0000009180
        0.0000098935   0.0000049984  -0.0000064397   0.0000036787  -0.0000222090
       -0.0000557730   0.0001502588  -0.0000641054  -0.0000414745   0.0000190709
       -0.0000662547  -0.0000118972   0.0000997752   0.0001903631   0.0000438006
        0.0000060908  -0.0000982265   0.0001180225   0.0000165661   0.0000044235
        0.0000273942   0.0010738214  -0.0022211276   0.0041884445  -0.0005441664
        0.0005420402  -0.0004932700
       -0.0193953125   0.0169252107  -0.0125177666  -0.1000093166   0.0017665346
       -0.0777933248   0.1560464936  -0.1783279495   0.2413289314   0.0208341136
        0.0510819806  -0.0638438872  -0.0039589693  -0.0073065567   0.0014182241
       -0.0008171829  -0.0000400631   0.0003799765  -0.0005855993   0.0000432304
       -0.0005133470   0.0002682075  -0.0003398224   0.0002997841  -0.0000996213
        0.0001906887  -0.0000498431   0.0001654877  -0.0000981340   0.0000789400
       -0.0000008173   0.0000816487  -0.0000334753   0.0000268986  -0.0001452604
        0.0000542027  -0.0001277386   0.0001255496  -0.0001091162   0.0006413354
        0.0001352852   0.0001149347  -0.0002092518  -0.0004961067   0.0007619539
       -0.0001576393  -0.0003102848  -0.0002514149  -0.0000167046   0.0000598565
        0.0000358580  -0.0000064592   0.0000057743   0.0000353477  -0.0000004132
       -0.0000114873  -0.0000057250   0.0000035875   0.0000002165   0.0000137341
        0.0000119651  -0.0000184831  -0.0000168610  -0.0000575057   0.0000197006
        0.0000314746   0.0000518925  -0.0001100491   0.0000110324  -0.0000416085
        0.0000201424   0.0000089960   0.0000212374  -0.0000584121  -0.0000260137
       -0.0000641278   0.0001276768   0.0000295068   0.0000430320  -0.0000650875
       -0.0000302624  -0.0000293372   0.0000587715   0.0000213399   0.0000245452
       -0.0000363274  -0.0000167665  -0.0000073097  -0.0000032224   0.0000063140
        0.0000066909  -0.0000468133  -0.0000336734  -0.0000205028   0.0000387680
        0.0000401595  -0.0000097299   0.0000156161   0.0000318596  -0.0000354094
       -0.0000326300  -0.0000772761   0.0000382390   0.0000750529  -0.0000145864
       -0.0000485601  -0.0000479528  -0.0000391053   0.0000467244   0.0000066363
       -0.0000217668  -0.0000655069  -0.0000806067   0.0000035339   0.0001090956
        0.0000101951   0.0000701354   0.0000540593   0.0000090639  -0.0000125378
        0.0001167537   0.0000475200   0.0000642701  -0.0032177602   0.0004920103
        0.0012447838   0.0084611166   0.0146824970  -0.0027748071  -0.0040065774
       -0.0066253860  -0.0032633501  -0.0029823445   0.0045618078   0.0040575390
        0.0040337807   0.0002146177   0.0017556144  -0.0525067916   0.0990867694
       -0.0939311284  -0.0000690694   0.0000499045  -0.0001459563  -0.0000064026
        0.0000449569  -0.0000180639  -0.0000156129   0.0000191902  -0.0000112269
       -0.0000350212  -0.0000003657  -0.0000044662  -0.0000383415  -0.0000489803
        0.0000011910  -0.0000417398   0.0000247917  -0.0000379504  -0.0000035761
       -0.0000060010  -0.0000053641  -0.0000027362  -0.0000104482   0.0000044551
       -0.0000047735  -0.0000045635  -0.0000054364  -0.0000001836   0.0000029554
       -0.0000102400  -0.0000019320  -0.0000038459   0.0000086191  -0.0000022764
       -0.0000028948  -0.0000015994  -0.0000136522   0.0000010824   0.0000050079
       -0.0000052413   0.0000076256   0.0000055718   0.0000051337   0.0000119949