$hessian                                                                        
        0.6552023902  -0.0305269876   0.0276597371  -0.2981491788  -0.0867005308
       -0.0720538755  -0.0616325009   0.0471239673   0.0223907065  -0.0237925559
       -0.0291858192  -0.0186510967   0.0431164833   0.0062577485   0.0072270234
       -0.1033782913  -0.0033000017  -0.0067715983  -0.0034764194   0.0053649592
        0.0022147158  -0.0006597061  -0.0005268735  -0.0003603372   0.0000930484
        0.0002353220   0.0001941467  -0.0001228255  -0.0004160364  -0.0002548356
       -0.0001677022   0.0006199901   0.0004114517   0.0013560257  -0.0005616705
       -0.0001959600  -0.0016835108   0.0004102789   0.0000787798  -0.0000222628
        0.0001985302  -0.0000780501  -0.0001224528   0.0000723598  -0.0000719889
        0.0000455773  -0.0000361249  -0.0000043099   0.0000144746   0.0000503706
       -0.0000404238   0.0000140328  -0.0000130413   0.0000043012  -0.0000427486
        0.0000150491   0.0000105513   0.0002048943   0.0000067941   0.0000390870
       -0.0000247220  -0.0000335391  -0.0000089142  -0.0000082504  -0.0000277651
        0.0000161384  -0.0000128594   0.0000074663   0.0000029161   0.0000028419
        0.0000008808   0.0000009306  -0.0000160291   0.0000063069   0.0000034337
       -0.0000062304   0.0000123188   0.0000019867  -0.0000044815   0.0000035488
        0.0000012222  -0.0000004382  -0.0000034174  -0.0000000641  -0.0000059468
        0.0000035318   0.0000008528  -0.0000086825  -0.0000015524   0.0000010058
        0.0000004532   0.0000006394  -0.0000002839  -0.0000065272   0.0000071380
       -0.0000005821  -0.0000016176  -0.0000039475  -0.0000005001  -0.0000034170
        0.0000023574   0.0000011260  -0.0000049779  -0.0000028178  -0.0000021280
       -0.0000020630  -0.0000005634  -0.0000002793   0.0000018465   0.0000013033
       -0.0000000177  -0.0000036183  -0.0000025593  -0.0000001671   0.0000061813
       -0.0000205806  -0.0000018750  -0.0000093459   0.0000089072  -0.0000005731
       -0.0000014829   0.0000004601  -0.0000090965   0.0000060809   0.0000119341
       -0.0000015404  -0.0000387829   0.0000027584  -0.0000127475   0.0000221190
        0.0000192687  -0.0000056529   0.0000044721  -0.0000280937   0.0000591562
        0.0000456646  -0.0000280429  -0.0000282355  -0.0001400080  -0.0000144188
        0.0000766690  -0.0000779012   0.0000696166   0.0001858904  -0.1890019533
        0.1146703159   0.0542343666  -0.0068356982  -0.0032355628  -0.0025318287
       -0.0027075432   0.0032277373   0.0009951752  -0.0079991082  -0.0240470680
       -0.0148563643  -0.0000732814   0.0001888294   0.0000897960  -0.0000047737
        0.0000003418  -0.0000108132   0.0000266019  -0.0000073286  -0.0000142197
        0.0000152843   0.0000080239   0.0000171768   0.0000081926  -0.0000003820
        0.0001075430   0.0000050246  -0.0000066475   0.0000117017   0.0000128969
        0.0000118147   0.0000178896  -0.0000049373  -0.0000275804   0.0000120337
        0.0000004517   0.0000007963  -0.0000033787  -0.0000071559   0.0000034891
       -0.0000009956  -0.0000025728   0.0000023240   0.0000004399  -0.0000036219
       -0.0000007412   0.0000008423  -0.0000020120   0.0000001676   0.0000003263
       -0.0000011425   0.0000019590  -0.0000005612  -0.0000034612   0.0000015587
       -0.0000007291  -0.0000010830   0.0000004845  -0.0000003997   0.0000177397
        0.0000130368   0.0000003194   0.0000044401  -0.0000017041  -0.0000280959
        0.0000152294  -0.0000015173  -0.0000103855   0.0000109487   0.0000201327
       -0.0000105861   0.0000224859   0.0000980971  -0.0000459481
       -0.0305269876   0.5197529743   0.2343984481  -0.0178620303  -0.0978343786
       -0.0307753177  -0.0031552153   0.0390753457   0.0221340016  -0.0266106344
       -0.0254484171  -0.0137507936   0.0560024859  -0.0449344758  -0.0223701610
       -0.0708770073  -0.2461433861  -0.1233869853   0.0022321098   0.0050186445
       -0.0012734544  -0.0006927565  -0.0006957178  -0.0004757037  -0.0002982993
        0.0002734502   0.0004705987   0.0000392188  -0.0002059646  -0.0001412105
        0.0003012574   0.0001970195   0.0004615157   0.0025271791  -0.0020400184
       -0.0009739110  -0.0013289821  -0.0000477934  -0.0000996637  -0.0001567577
        0.0001104369  -0.0000978197   0.0000770823   0.0001188479  -0.0000797446
       -0.0000256978  -0.0000327956   0.0000411759   0.0000634669  -0.0000465443
        0.0000425995  -0.0000576064   0.0000935253  -0.0001005412  -0.0000786059
       -0.0001171708   0.0001662323  -0.0000736512   0.0000643256  -0.0000253836
        0.0001006532  -0.0000228602  -0.0000198686  -0.0000205692  -0.0000008110
       -0.0000245049   0.0000094569   0.0000068543  -0.0000022257  -0.0000174751
        0.0000056853  -0.0000016188   0.0000233171   0.0000125466   0.0000006359
       -0.0000043382  -0.0000297107  -0.0000073065   0.0000051806  -0.0000006782
       -0.0000015434  -0.0000056729   0.0000012142  -0.0000005470   0.0000047695
       -0.0000043857  -0.0000024245   0.0000071571   0.0000003894  -0.0000016897
       -0.0000056216   0.0000016608   0.0000007684   0.0000050637  -0.0000088244
       -0.0000003865   0.0000056753   0.0000043266   0.0000000499  -0.0000097520
       -0.0000049061  -0.0000012939   0.0000074000   0.0000008520   0.0000009149
        0.0000008648   0.0000057833   0.0000013795  -0.0000013340  -0.0000012019
        0.0000003266  -0.0000023140  -0.0000028816   0.0000011163  -0.0000027346
        0.0000284142  -0.0000000896  -0.0000023398  -0.0000047441   0.0000030625
        0.0000262033  -0.0000093796   0.0000092782  -0.0000371841  -0.0000175065
        0.0000104828  -0.0000669417   0.0000909800  -0.0001218346  -0.0000730914
       -0.0000510510   0.0000972482   0.0000641263   0.0000267753  -0.0000318085
       -0.0000158460   0.0000202283  -0.0000388098  -0.0000074119  -0.0000304715
        0.0001644927  -0.0001529128  -0.0000612661   0.0000993183   0.1146217950
       -0.1315701738  -0.0475277666  -0.0241156429  -0.0086543260  -0.0075201329
        0.0036635241   0.0004888470  -0.0040253884  -0.0034987272  -0.0072836333
       -0.0049766488  -0.0001122494   0.0000172929  -0.0001094780   0.0000042842
        0.0000004716   0.0000338115  -0.0000231885   0.0000537985  -0.0000305202
       -0.0000322208  -0.0000329675  -0.0000503510   0.0001048222  -0.0000923184
       -0.0000359771  -0.0000063222  -0.0000045230   0.0000113715  -0.0000008111
       -0.0000043771   0.0000011306  -0.0000261692  -0.0000012659   0.0000145155
       -0.0000064462   0.0000081964  -0.0000007851  -0.0000032427   0.0000012581
        0.0000015830   0.0000006679  -0.0000032391  -0.0000011299   0.0000004685
        0.0000012081  -0.0000011338   0.0000002325   0.0000001982  -0.0000006284
       -0.0000013386   0.0000003890   0.0000006082   0.0000011011  -0.0000021310
        0.0000011376  -0.0000010141   0.0000014449   0.0000004586  -0.0000000589
        0.0000036883   0.0000006707  -0.0000196581   0.0000049257  -0.0000135478
        0.0000026434   0.0000147978   0.0000041927  -0.0000064073   0.0000025796
       -0.0000170704   0.0001210619  -0.0000630799  -0.0000559256
        0.0276597371   0.2343984481   0.2560445472  -0.0316265662  -0.0365991680
       -0.0721572977  -0.0071573178   0.0263681603   0.0158554398  -0.0171385291
       -0.0139509226  -0.0155469632   0.0364262580  -0.0265827682  -0.0112827877
       -0.0464428285  -0.1176598167  -0.1191931187   0.0003843479  -0.0010119683
        0.0069470642  -0.0004632310  -0.0004545828  -0.0003115515  -0.0001188581
        0.0005182677  -0.0002733443   0.0000105109  -0.0001733741  -0.0000734876
        0.0002098875   0.0004909768  -0.0002528636   0.0015953189  -0.0012516704
       -0.0005759925  -0.0009102232   0.0000779990  -0.0001722222  -0.0000533291
        0.0000241222  -0.0000775108  -0.0000316221   0.0000952821  -0.0000684771
       -0.0000092522  -0.0000250808   0.0000336663   0.0000337925  -0.0000166789
        0.0000144642  -0.0000278910   0.0000463129  -0.0000397260  -0.0000666299
       -0.0000275420   0.0000354506  -0.0000369331  -0.0000111732   0.0000769142
        0.0000589788  -0.0000154490  -0.0000079553  -0.0000114508  -0.0000027233
       -0.0000132831   0.0000073052   0.0000048267  -0.0000002278  -0.0000106767
        0.0000043091  -0.0000018247   0.0000116174   0.0000069118   0.0000030050
       -0.0000035866  -0.0000169831  -0.0000049193   0.0000028174  -0.0000013822
        0.0000007735  -0.0000029294   0.0000004098  -0.0000001703   0.0000019772
       -0.0000021510   0.0000003346   0.0000032200  -0.0000000924  -0.0000010243
       -0.0000017679   0.0000004000  -0.0000005073   0.0000017499  -0.0000057464
        0.0000007620   0.0000016170   0.0000035820  -0.0000015119  -0.0000046702
       -0.0000022410   0.0000011630   0.0000044163   0.0000007053   0.0000001592
       -0.0000000963   0.0000033979  -0.0000001398  -0.0000009509  -0.0000003420
        0.0000004477  -0.0000018333  -0.0000014808  -0.0000004731  -0.0000016536
        0.0000163307  -0.0000005295  -0.0000021937  -0.0000034632   0.0000022456
        0.0000153263  -0.0000061432   0.0000034228  -0.0000223288  -0.0000094562
        0.0000073363  -0.0000119549   0.0000834839  -0.0001402193  -0.0000487200
       -0.0000399893   0.0000723011   0.0000447127   0.0000163630  -0.0000224927
       -0.0000074707   0.0000012249  -0.0000156152   0.0000501167  -0.0000190582
        0.0000893147  -0.0001373893   0.0000138116   0.0001114303   0.0542007362
       -0.0475024571  -0.0574552470  -0.0148002305  -0.0057590643  -0.0039433615
        0.0012446476  -0.0040745406   0.0056107940  -0.0027869501  -0.0067120968
       -0.0034829703  -0.0000876399  -0.0000878326   0.0001368341   0.0000037518
        0.0000102302   0.0000027690  -0.0000195632  -0.0000298139   0.0000848403
       -0.0000206641  -0.0000354936   0.0000014544   0.0000763381  -0.0000434125
        0.0000100306  -0.0000039184  -0.0000055551   0.0000165662   0.0000046498
       -0.0000026850   0.0000016922  -0.0000116762  -0.0000040407   0.0000089278
       -0.0000043448   0.0000042393  -0.0000019086  -0.0000026717   0.0000005966
        0.0000004619   0.0000003049  -0.0000014487  -0.0000012118   0.0000000100
        0.0000008460  -0.0000008574  -0.0000002332   0.0000003791  -0.0000008825
       -0.0000011942  -0.0000001619   0.0000006943   0.0000003312  -0.0000016108
        0.0000005479  -0.0000004077   0.0000010006   0.0000001447   0.0000015837
        0.0000029960  -0.0000004212  -0.0000166228   0.0000033887  -0.0000102206
       -0.0000018066   0.0000093179   0.0000010862  -0.0000033904  -0.0000032676
       -0.0000053575   0.0000581376  -0.0000533916  -0.0000384108
       -0.2981491788  -0.0178620303  -0.0316265662   0.6410448049  -0.0146564745
        0.0358728959  -0.2303864319   0.0683102121   0.0244128338   0.0427121179
        0.0593233362   0.0384376427  -0.0610695284   0.0129321233   0.0029311670
        0.0047986301  -0.0792572534  -0.0462261395  -0.0000337162  -0.0007453914
       -0.0004185435  -0.0000382432  -0.0000444122  -0.0000412872  -0.0001379046
       -0.0000252662  -0.0000279290   0.0002073611   0.0001182072   0.0000825535
       -0.0000024545  -0.0002996787  -0.0001977137  -0.0014818002   0.0014556853
        0.0006926417   0.0036966952  -0.0023350593  -0.0016160002  -0.0002538725
       -0.0004391715   0.0002502671   0.0000090871  -0.0001829774   0.0000711927
        0.0000193664   0.0000352768  -0.0000042752  -0.0000732619   0.0000091498
       -0.0000263295   0.0000356600  -0.0000349666   0.0000984297   0.0001134928
        0.0001329911  -0.0002962657   0.0000621318  -0.0000245322  -0.0000183020
       -0.0000999852   0.0000174200   0.0000082791   0.0000288293  -0.0000075225
        0.0000066173  -0.0000177346   0.0000050444  -0.0000022183   0.0000193615
       -0.0000096599  -0.0000016439  -0.0000282473  -0.0000216165  -0.0000021618
        0.0000143264   0.0000346108  -0.0000022278  -0.0000034061  -0.0000010369
       -0.0000008487   0.0000027129   0.0000043205   0.0000003817   0.0000030721
        0.0000029783  -0.0000000146  -0.0000019241   0.0000029597  -0.0000007510
        0.0000106106  -0.0000052537  -0.0000001989  -0.0000027272   0.0000021005
        0.0000019873   0.0000008760  -0.0000070426  -0.0000022095   0.0000026152
        0.0000059484  -0.0000012502  -0.0000024167  -0.0000052308   0.0000001843
        0.0000039924   0.0000044604   0.0000000603  -0.0000008819  -0.0000016935
        0.0000000507   0.0000001570  -0.0000022475   0.0000025190   0.0000203710
       -0.0000162121  -0.0000004057  -0.0000029060   0.0000166785   0.0000061338
       -0.0000244739   0.0000132474  -0.0000013633   0.0000400611   0.0000006630
       -0.0000028270   0.0000320145  -0.0001973363   0.0002335616   0.0000380814
        0.0000287942  -0.0000915007  -0.0000831490   0.0000047076   0.0000186338
        0.0000186564   0.0000130719   0.0000565281   0.0000030459  -0.0000234853
       -0.0001916537  -0.0002656979   0.0000945018  -0.0004616160  -0.0252906781
       -0.0038761215  -0.0044609946  -0.0517521179  -0.0376361875  -0.0236344051
       -0.0251055257   0.0155639001   0.0069686483   0.0010831303  -0.0005652533
       -0.0009112676   0.0001993502   0.0000688405   0.0000589614   0.0000229952
       -0.0000062112   0.0000111800   0.0000094036   0.0000030684   0.0000075825
       -0.0000150218   0.0000472964   0.0000161522   0.0000193862   0.0000767029
       -0.0000611560  -0.0000072664   0.0000103603  -0.0000081657   0.0000052101
       -0.0000119660  -0.0000225194   0.0000210424   0.0000206407  -0.0000224375
       -0.0000064260   0.0000020941   0.0000037398   0.0000008233  -0.0000072060
       -0.0000036812  -0.0000003525  -0.0000028959  -0.0000000885   0.0000023602
       -0.0000028286  -0.0000006856   0.0000038687  -0.0000007925  -0.0000004395
        0.0000006314   0.0000040601   0.0000004431  -0.0000006069   0.0000007254
        0.0000006614  -0.0000007583  -0.0000001997  -0.0000007165   0.0000020436
       -0.0000069644  -0.0000094553   0.0000193947  -0.0000027275   0.0000302864
        0.0000042126  -0.0000038391   0.0000133618  -0.0000102175  -0.0000105315
        0.0000085939   0.0000169293  -0.0000269023   0.0000940831
       -0.0867005308  -0.0978343786  -0.0365991680  -0.0146564745   0.5267458128
        0.2400458392   0.1373258389  -0.1570962731  -0.0534053995   0.0085055584
       -0.0445596879  -0.0257236106   0.0113951952   0.0006682112   0.0049985238
       -0.0279119326  -0.0068948085  -0.0070724260   0.0001245276  -0.0022638890
       -0.0011795671   0.0003820365   0.0005896311   0.0003899261   0.0004325564
       -0.0002181295  -0.0001114660  -0.0001249853   0.0000689142   0.0000271678
       -0.0003487516  -0.0002834656  -0.0001883923  -0.0000056276  -0.0012196242
       -0.0007240098  -0.0021250493  -0.0005553193  -0.0047306689   0.0004394966
       -0.0002470275  -0.0001367555   0.0000865531   0.0001826227   0.0000011845
       -0.0000198441   0.0000363327  -0.0000290778   0.0000393327  -0.0000217166
        0.0000038532  -0.0000076261   0.0000509189   0.0000014623   0.0000927225
       -0.0000913990  -0.0000521106  -0.0001936841   0.0001198991   0.0001310448
        0.0001880876  -0.0000644079  -0.0000359893  -0.0000388496   0.0000250872
       -0.0000263305   0.0000182978   0.0000005016   0.0000008003  -0.0000380164
        0.0000241974   0.0000008120   0.0000435315   0.0000224934   0.0000010487
       -0.0000100091  -0.0000578645  -0.0000042896   0.0000106136  -0.0000024892
       -0.0000001961  -0.0000041654  -0.0000042386  -0.0000000358   0.0000030857
       -0.0000068636  -0.0000005079   0.0000118590   0.0000014292   0.0000002725
       -0.0000149853   0.0000023274   0.0000006484   0.0000131845  -0.0000076239
       -0.0000005706   0.0000084751   0.0000119050   0.0000034019  -0.0000076716
       -0.0000148274  -0.0000026071   0.0000091277   0.0000060474   0.0000023419
       -0.0000059949   0.0000055149   0.0000011958  -0.0000020322   0.0000022480
       -0.0000002274   0.0000000393   0.0000003365  -0.0000006532  -0.0000126709
        0.0000519072   0.0000008733  -0.0000103894  -0.0000216286  -0.0000016073
        0.0000555153  -0.0000127830   0.0000128895  -0.0000792137  -0.0000351872
        0.0000153884   0.0000733286   0.0001235540  -0.0002661716  -0.0000624086
       -0.0000549710   0.0000241979   0.0000164074   0.0000206224  -0.0000080100
       -0.0000105693  -0.0000452795   0.0000616088  -0.0000823053   0.0001232200
        0.0001188439  -0.0003808830   0.0005586728   0.0003096882   0.0169742390
        0.0035189866   0.0031846806  -0.0375306378  -0.2234455290  -0.1146080205
       -0.0047944964   0.0042693729   0.0017077613  -0.0010451611  -0.0020579449
       -0.0060222122   0.0000824511   0.0000421417   0.0000324274  -0.0000125030
        0.0000315946   0.0000296325  -0.0000195046  -0.0000197520  -0.0000103011
       -0.0000260653   0.0000336925   0.0000120628  -0.0000209324  -0.0001058925
       -0.0000907397  -0.0000033645  -0.0000066308   0.0000178477  -0.0000274039
       -0.0000122191   0.0000094085  -0.0000208569  -0.0000068769  -0.0000005738
       -0.0000013648   0.0000006625  -0.0000045300  -0.0000015944   0.0000050199
        0.0000043675   0.0000038569  -0.0000023563  -0.0000000976   0.0000002268
        0.0000040197   0.0000006307  -0.0000021536   0.0000007931   0.0000009519
       -0.0000009285  -0.0000042000   0.0000002375   0.0000034627  -0.0000044744
        0.0000004473   0.0000053164   0.0000052712   0.0000013841   0.0000281108
        0.0000180076  -0.0000006778  -0.0000316822   0.0000012347  -0.0000255270
       -0.0000202654   0.0000228631  -0.0000114380   0.0000029700   0.0000051623
       -0.0000283680   0.0000375808  -0.0001214708  -0.0000525186
       -0.0720538755  -0.0307753177  -0.0721572977   0.0358728959   0.2400458392
        0.2598689607   0.0650066675  -0.0592888093  -0.0755758226   0.0085838281
       -0.0214129097  -0.0113577462   0.0020280384   0.0051228455  -0.0030100470
       -0.0160730272  -0.0114212069  -0.0069472630   0.0000850092  -0.0012495070
       -0.0009688850   0.0002232270   0.0003430759   0.0002158057   0.0002417730
       -0.0001449796  -0.0000341296  -0.0000607570   0.0000495396   0.0000237877
       -0.0001997233  -0.0001932849  -0.0001406916  -0.0001411685  -0.0006113349
       -0.0003318053  -0.0015658709  -0.0047273059   0.0042599758  -0.0006614006
        0.0007636910   0.0004138684  -0.0001227386   0.0000871947   0.0000398395
        0.0000059730   0.0000140653  -0.0000604679  -0.0000066780  -0.0000049176
        0.0000301720  -0.0000653926  -0.0000218521  -0.0000671843  -0.0000456122
       -0.0001837861   0.0002272872  -0.0000801444   0.0001373781  -0.0000561049
        0.0001045706  -0.0000358321  -0.0000188192  -0.0000190534   0.0000091281
       -0.0000173707   0.0000110001   0.0000014688   0.0000010154  -0.0000191773
        0.0000149817   0.0000005459   0.0000206494   0.0000091855   0.0000018643
       -0.0000038031  -0.0000297763  -0.0000028411   0.0000049067  -0.0000028583
        0.0000012288  -0.0000018965  -0.0000012456   0.0000002043   0.0000018539
       -0.0000036756   0.0000013496   0.0000065289   0.0000007070  -0.0000000938
       -0.0000058126   0.0000003153  -0.0000004713   0.0000062174  -0.0000052193
        0.0000010698   0.0000024868   0.0000071960   0.0000000081  -0.0000018877
       -0.0000080966   0.0000006226   0.0000050598   0.0000040498   0.0000011162
       -0.0000031067   0.0000042003  -0.0000004163  -0.0000023839   0.0000008672
        0.0000001029   0.0000000865   0.0000005193  -0.0000017649  -0.0000062551
        0.0000293495   0.0000006634  -0.0000051503  -0.0000109387  -0.0000006042
        0.0000278491  -0.0000093658   0.0000071074  -0.0000385399  -0.0000187713
        0.0000119051   0.0000733022  -0.0001234705   0.0001628170   0.0000267374
        0.0000571622   0.0000305491   0.0000320251  -0.0000111664  -0.0000035851
       -0.0000193608   0.0000221809   0.0000180986   0.0001209899   0.0000152575
        0.0001143775   0.0006943950  -0.0006342999  -0.0003161997   0.0077855976
        0.0014133527   0.0020465287  -0.0235639597  -0.1146181065  -0.1030861165
       -0.0050081333   0.0034519028   0.0022506729  -0.0011987549  -0.0059794271
        0.0044312717   0.0000670025   0.0000342541   0.0000194263  -0.0000044618
        0.0000193128   0.0000165431  -0.0000089922  -0.0000069643  -0.0000097573
       -0.0000172735   0.0000266552   0.0000064197   0.0000566886  -0.0000549895
       -0.0000465882   0.0000009360  -0.0000166761   0.0000175207  -0.0000089567
       -0.0000027327   0.0000111625  -0.0000244671  -0.0000059389   0.0000203217
       -0.0000025041   0.0000006629  -0.0000014796  -0.0000016644   0.0000019976
        0.0000023267   0.0000023088  -0.0000015552  -0.0000006442   0.0000005546
        0.0000020772   0.0000000137  -0.0000009609   0.0000004730  -0.0000000566
       -0.0000006803  -0.0000026511   0.0000006234   0.0000017407  -0.0000032537
        0.0000000912   0.0000031775   0.0000037020   0.0000003823   0.0000149915
        0.0000123102  -0.0000025057  -0.0000061517  -0.0000136638   0.0000022165
       -0.0000180249   0.0000025622  -0.0000081716  -0.0000065821   0.0000041490
       -0.0000033051  -0.0000446846  -0.0000777232  -0.0000316283
       -0.0616325009  -0.0031552153  -0.0071573178  -0.2303864319   0.1373258389
        0.0650066675   0.6658008234  -0.0035812976   0.0449585878  -0.1026597064
       -0.0750003513  -0.0489302013   0.0053174456  -0.0266507968  -0.0152668259
       -0.0029150901   0.0186466737   0.0110200019  -0.0050486128  -0.0031180450
       -0.0027682817   0.0002538443  -0.0008002025  -0.0004647139  -0.0001202879
       -0.0003481055  -0.0001698510  -0.0000346169   0.0003639174   0.0002169651
        0.0004585821   0.0003260498   0.0001607556  -0.0022480332   0.0027380660
        0.0013670996   0.0032094100   0.0148394947   0.0090941530   0.0003437186
        0.0010876131  -0.0001108102   0.0000191807   0.0000195314   0.0001675062
       -0.0001071653  -0.0000055704  -0.0000419995   0.0000428577  -0.0001191587
        0.0000901765  -0.0000987175  -0.0000218418  -0.0002247997  -0.0000014397
       -0.0002428539   0.0006465952  -0.0004949603  -0.0000805131  -0.0001438476
        0.0003692730   0.0000767849   0.0000262041  -0.0000684801   0.0000676563
       -0.0000572302   0.0000635544  -0.0000066448  -0.0000072765  -0.0000579247
        0.0000149254   0.0000070794   0.0000994680   0.0000117288  -0.0000094100
       -0.0000388534  -0.0000928902   0.0000027021   0.0000203323  -0.0000167681
       -0.0000024335  -0.0000057506   0.0000041788   0.0000008795   0.0000094839
       -0.0000039199   0.0000009163   0.0000054895  -0.0000062456   0.0000005125
       -0.0000144335   0.0000013099  -0.0000015234   0.0000149698  -0.0000058200
        0.0000004088  -0.0000026959   0.0000237295   0.0000053826   0.0000061984
       -0.0000279059  -0.0000049594  -0.0000014178   0.0000135446   0.0000040563
        0.0000070391   0.0000065914  -0.0000003426  -0.0000341198   0.0000084281
       -0.0000011747   0.0000187920   0.0000058843  -0.0000051654  -0.0000618267
        0.0000819229   0.0000111517   0.0000384161  -0.0000775368  -0.0000340080
        0.0000572870  -0.0000175312   0.0000281658  -0.0001118763   0.0000416233
       -0.0000060297   0.0001065270   0.0004899169  -0.0003855309  -0.0001350452
       -0.0002073289   0.0000715705   0.0000693262   0.0000161593  -0.0001493391
       -0.0001096370  -0.0000325676  -0.0000473729   0.0000704938   0.0001064433
       -0.0000292697   0.0002501010   0.0004777938   0.0010344459  -0.0051105515
       -0.0011549735  -0.0017336032   0.0029265572  -0.0014249149  -0.0006580056
       -0.2685916979  -0.0608765552  -0.0558506106   0.0005641959   0.0003568672
        0.0002665202   0.0001206546   0.0000146615   0.0000079575   0.0000179471
       -0.0000552938  -0.0000287654   0.0000474758   0.0000417295   0.0000443029
        0.0000386338  -0.0000074763  -0.0000074101  -0.0000637084  -0.0000035751
       -0.0001575381   0.0000021988   0.0000079845   0.0000294120  -0.0000220723
        0.0000176354   0.0000241409  -0.0000264021   0.0000214222   0.0000515836
        0.0000092547  -0.0000401362   0.0000030796   0.0000048722  -0.0000061496
        0.0000136891   0.0000030387  -0.0000020090   0.0000007290   0.0000017869
        0.0000012427   0.0000004015  -0.0000011395  -0.0000000884   0.0000005963
        0.0000029329  -0.0000041689   0.0000002401  -0.0000003062  -0.0000098045
        0.0000008403   0.0000045414   0.0000017198   0.0000055936  -0.0000451279
       -0.0000246998   0.0000352587  -0.0000467214   0.0000508148  -0.0000088313
       -0.0000226739   0.0000363261  -0.0000018777   0.0000011209   0.0000300102
       -0.0000070131  -0.0000777993  -0.0001472643   0.0000670404
        0.0471239673   0.0390753457   0.0263681603   0.0683102121  -0.1570962731
       -0.0592888093  -0.0035812976   0.5156959177   0.2353779567  -0.0159994117
       -0.2555369151  -0.1248254161  -0.0704877940  -0.0086022944  -0.0115309122
        0.0160604716  -0.0431788086  -0.0217572265  -0.0009430778   0.0046915859
       -0.0008917351  -0.0010365019  -0.0013469901  -0.0010273424  -0.0006728676
        0.0002417296   0.0004117150   0.0003227878  -0.0003054832  -0.0001452001
       -0.0002741780  -0.0001138913  -0.0006219370   0.0012159014  -0.0013665242
       -0.0010492073   0.0040524161  -0.0180496042  -0.0092477444  -0.0008504432
       -0.0006857938   0.0007553300   0.0001540998  -0.0001589673   0.0004211801
       -0.0000384480   0.0001538743  -0.0000929837  -0.0001481671  -0.0000065892
        0.0000237325   0.0000562726  -0.0000665439   0.0001110719   0.0002970772
       -0.0000239758   0.0000827473  -0.0002903037  -0.0000186126  -0.0002514710
       -0.0001134765   0.0000941882   0.0000321582   0.0000122311  -0.0000005896
        0.0000162842  -0.0000050135  -0.0000044522  -0.0000028058   0.0000208238
       -0.0000130804   0.0000040363  -0.0000186105  -0.0000245686  -0.0000077854
        0.0000100174   0.0000402726   0.0000096722  -0.0000127663   0.0000010177
       -0.0000007430   0.0000045525   0.0000012193   0.0000005509  -0.0000047136
        0.0000063679   0.0000009090  -0.0000101927  -0.0000028930   0.0000020130
        0.0000076870  -0.0000020172  -0.0000009200  -0.0000063995   0.0000091344
        0.0000003307  -0.0000103298  -0.0000046823   0.0000016870   0.0000113100
        0.0000037874  -0.0000008990  -0.0000100631   0.0000026886   0.0000000585
        0.0000026552  -0.0000051573  -0.0000006272  -0.0000039906   0.0000024910
       -0.0000002917  -0.0000003484  -0.0000026004  -0.0000008447  -0.0000023396
       -0.0000266056   0.0000060848   0.0000105689  -0.0000104735  -0.0000170586
       -0.0000352191   0.0000252490  -0.0000070533   0.0000315732   0.0000200041
       -0.0000266896  -0.0000225171  -0.0000992127   0.0002512811   0.0000163247
        0.0000823223  -0.0001543675  -0.0001060544   0.0000059213  -0.0000787295
       -0.0000938805   0.0000312726  -0.0000293676   0.0004001660  -0.0000037720
       -0.0001466019  -0.0005415703   0.0004325724  -0.0011200836  -0.0015251858
        0.0022806611  -0.0031667939   0.0191539670  -0.0175181975  -0.0091985450
       -0.0603714215  -0.0582362057  -0.0192463634   0.0003095962  -0.0003672163
       -0.0000705111   0.0001940129   0.0000844470   0.0000034439   0.0000530791
        0.0000216622   0.0000194874  -0.0000238019  -0.0000486789   0.0000807314
       -0.0000828128   0.0001142984   0.0000639131  -0.0002180858   0.0001363221
       -0.0003630509   0.0000087237   0.0000346438  -0.0000437241  -0.0000466457
        0.0000061766   0.0000010688  -0.0000000381   0.0000322159  -0.0000148459
        0.0000032217   0.0000069327   0.0000058217   0.0000058828  -0.0000034297
        0.0000021053  -0.0000052874   0.0000033291   0.0000020177  -0.0000013893
       -0.0000037058   0.0000013396  -0.0000005889  -0.0000011262   0.0000011556
        0.0000013632   0.0000018111  -0.0000000525  -0.0000020517   0.0000016049
        0.0000003194  -0.0000018572  -0.0000057184   0.0000019052  -0.0000266256
       -0.0000322608   0.0000165919  -0.0000046178   0.0000207489   0.0000457776
       -0.0000315297  -0.0000115872  -0.0000139141   0.0000089816  -0.0000024996
        0.0000471998  -0.0001980283  -0.0003738177   0.0002728163
        0.0223907065   0.0221340016   0.0158554398   0.0244128338  -0.0534053995
       -0.0755758226   0.0449585878   0.2353779567   0.2565399546  -0.0142536163
       -0.1298640375  -0.1228255085  -0.0410228255  -0.0077794893  -0.0072160731
        0.0095170538  -0.0215651566  -0.0156302877  -0.0014825876  -0.0011090420
        0.0053019998  -0.0006104437  -0.0009944090  -0.0003494746  -0.0003659864
        0.0004224548  -0.0003409520   0.0001881245  -0.0001549979  -0.0000854690
       -0.0001891052  -0.0005445093   0.0005752570   0.0004723765  -0.0009150200
        0.0000549029   0.0027811082  -0.0084323266  -0.0061893753  -0.0003972298
       -0.0002674978   0.0005507108   0.0003186587  -0.0001193749  -0.0000657438
       -0.0001055134  -0.0000611957   0.0000469323  -0.0000423847  -0.0000097557
        0.0000363767  -0.0000198422  -0.0000962410   0.0000815730  -0.0001517340
        0.0001818802  -0.0001892164  -0.0002563436  -0.0002314524   0.0002172618
       -0.0000345469   0.0000520569   0.0000430110   0.0000062320   0.0000103840
        0.0000067068   0.0000115019  -0.0000056753  -0.0000000489   0.0000060937
       -0.0000081863  -0.0000015135   0.0000020300  -0.0000173801   0.0000002909
       -0.0000011205   0.0000109820   0.0000023730  -0.0000053352  -0.0000034328
        0.0000008270   0.0000043227   0.0000003630   0.0000004767  -0.0000018692
        0.0000043921   0.0000018616  -0.0000073373  -0.0000017768   0.0000006553