 Entering Gaussian System
 *********************************************
 Gaussian 98:
 frequency output generated by the xtb code
 *********************************************
                         Standard orientation:
 --------------------------------------------------------------------
  Center     Atomic     Atomic              Coordinates (Angstroms)
  Number     Number      Type              X           Y           Z
 --------------------------------------------------------------------
    1          6             0        1.061858    0.165661    4.956086
    2          6             0        0.358451    0.411217    3.659408
    3          6             0       -0.896879    1.013455    3.619327
    4          6             0       -1.530189    1.255868    2.421034
    5          6             0       -0.921548    0.906324    1.210288
    6          6             0        0.333720    0.281143    1.238883
    7          6             0        0.948319    0.047432    2.457953
    8          6             0        0.987560   -0.229476   -0.020187
    9          6             0        2.454345    0.145599   -0.020838
   10          6             0        2.772882    1.493600   -0.011836
   11          6             0        4.087409    1.923140   -0.011383
   12          6             0        5.129194    0.990729   -0.017439
   13          6             0        6.533061    1.429263   -0.019523
   14          6             0        7.482232    0.776356    0.763272
   15          6             0        8.800425    1.192413    0.763431
   16          6             0        9.193401    2.263576   -0.021506
   17          6             0        8.258510    2.917509   -0.806342
   18          6             0        6.938815    2.505919   -0.804475
   19          6             0        4.819552   -0.355992   -0.025388
   20          6             0        3.486550   -0.799187   -0.029678
   21          6             0        3.238622   -2.229599   -0.041899
   22          8             0        4.190481   -3.057982   -0.050234
   23          6             0        1.861570   -2.642079   -0.042601
   24          6             0        1.571993   -4.025088   -0.056479
   25          6             0        0.281405   -4.478340   -0.053657
   26          6             0       -0.797949   -3.583252   -0.031229
   27          6             0       -2.186278   -4.036109   -0.016107
   28          6             0       -3.163555   -3.323867    0.684939
   29          6             0       -4.479847   -3.740983    0.688346
   30          6             0       -4.854293   -4.880567   -0.005236
   31          6             0       -3.895443   -5.601289   -0.699045
   32          6             0       -2.578548   -5.185887   -0.705489
   33          6             0       -0.505748   -2.217268   -0.023640
   34          6             0        0.787494   -1.742808   -0.031522
   35          6             0        0.327746    0.317698   -1.259492
   36          6             0        0.939520    0.129392   -2.488863
   37          6             0        0.356032    0.557334   -3.670826
   38          6             0        1.025610    0.325699   -4.987876
   39          6             0       -0.885475    1.187982   -3.601939
   40          6             0       -1.515487    1.384375   -2.394675
   41          6             0       -0.920250    0.953101   -1.203133
   42          7             0       -1.548680    1.167335    0.007697
   43          6             0       -2.890395    1.644269    0.011118
   44          6             0       -3.164121    2.994537    0.182272
   45          6             0       -4.472737    3.434374    0.184988
   46          6             0       -5.540022    2.553109    0.018922
   47          6             0       -6.961094    3.091970    0.030503
   48          6             0       -7.117344    4.109339   -1.108706
   49          6             0       -7.224433    3.775289    1.379957
   50          6             0       -8.009841    1.993500   -0.162015
   51          6             0       -5.243938    1.205934   -0.152794
   52          6             0       -3.936715    0.751233   -0.158120
   53          1             0        1.826954    0.926634    5.113737
   54          1             0        0.366711    0.202768    5.791150
   55          1             0        1.555850   -0.803457    4.946679
   56          1             0       -1.385576    1.293495    4.540987
   57          1             0       -2.505225    1.718415    2.414938
   58          1             0        1.912037   -0.440695    2.464266
   59          1             0        1.969840    2.218976   -0.001077
   60          1             0        4.307075    2.979576    0.016888
   61          1             0        7.178133   -0.051872    1.386234
   62          1             0        9.525271    0.679657    1.379174
   63          1             0       10.224110    2.586767   -0.022630
   64          1             0        8.560286    3.750940   -1.424639
   65          1             0        6.216947    3.009426   -1.431443
   66          1             0        5.596213   -1.105237   -0.051904
   67          1             0        2.410251   -4.705755   -0.061159
   68          1             0        0.093329   -5.542039   -0.037978
   69          1             0       -2.879509   -2.451745    1.257739
   70          1             0       -5.219250   -3.178551    1.241756
   71          1             0       -5.884067   -5.206408   -0.001868
   72          1             0       -4.179457   -6.491388   -1.242322
   73          1             0       -1.844558   -5.743667   -1.268329
   74          1             0       -1.323666   -1.512399   -0.038838
   75          1             0        1.897390   -0.369453   -2.515935
   76          1             0        0.646417   -0.591539   -5.440057
   77          1             0        0.824782    1.144999   -5.674854
   78          1             0        2.100145    0.220082   -4.862517
   79          1             0       -1.360843    1.530328   -4.509406
   80          1             0       -2.473542    1.880504   -2.362707
   81          1             0       -2.349374    3.691777    0.311905
   82          1             0       -4.657206    4.489038    0.319114
   83          1             0       -6.440764    4.950703   -0.987608
   84          1             0       -8.135038    4.492397   -1.129013
   85          1             0       -6.907779    3.637295   -2.066385
   86          1             0       -7.090471    3.065668    2.193815
   87          1             0       -8.244706    4.150365    1.414656
   88          1             0       -6.550219    4.611668    1.541867
   89          1             0       -7.883409    1.493302   -1.119345
   90          1             0       -7.958001    1.257087    0.636511
   91          1             0       -9.003366    2.436281   -0.144643
   92          1             0       -6.030171    0.481921   -0.286020
   93          1             0       -3.729329   -0.300044   -0.296357
 --------------------------------------------------------------------
     1 basis functions        1 primitive gaussians
     1 alpha electrons        1 beta electrons
 
 Harmonic frequencies (cm**-1), IR intensities (km*mol⁻¹),
 Raman scattering activities (A**4/amu), Raman depolarization ratios,
 reduced masses (AMU), force constants (mDyne/A) and normal coordinates:
                      1                      2                      3
                        a                      a                      a 
 Frequencies --   -13.5936                 6.6128                10.4323
 Red. masses --     1.1288                10.6221                11.2351
 Frc consts  --     0.0000                 0.0000                 0.0000
 IR Inten    --    11.1505                 1.3635                 0.4617
 Raman Activ --     0.0000                 0.0000                 0.0000
 Depolar     --     0.0000                 0.0000                 0.0000
 Atom AN      X      Y      Z        X      Y      Z        X      Y      Z
   1   6    -0.03   0.06   0.03    -0.05  -0.12  -0.00    -0.07  -0.04   0.01
   2   6     0.00  -0.02  -0.00    -0.04  -0.09  -0.00    -0.05  -0.03   0.00
   3   6    -0.00  -0.01  -0.00    -0.03  -0.07  -0.00    -0.04  -0.02  -0.01
   4   6     0.00  -0.00   0.00    -0.02  -0.05  -0.00    -0.02  -0.01  -0.02
   5   6     0.00  -0.00  -0.00    -0.02  -0.05  -0.00    -0.01  -0.01  -0.01
   6   6    -0.00  -0.00  -0.00    -0.03  -0.06  -0.00    -0.02  -0.01   0.00
   7   6     0.00  -0.02   0.00    -0.04  -0.08  -0.00    -0.03  -0.03   0.01
   8   6    -0.00  -0.00  -0.00    -0.02  -0.05  -0.01     0.00   0.00   0.01
   9   6    -0.00  -0.00  -0.00    -0.03  -0.02  -0.00     0.00   0.00   0.03
  10   6    -0.00  -0.00  -0.01    -0.06  -0.01  -0.01     0.00  -0.00   0.15
  11   6    -0.00  -0.00  -0.01    -0.07   0.02  -0.01     0.00  -0.00   0.16
  12   6    -0.00   0.00  -0.00    -0.05   0.04   0.00     0.00  -0.00   0.04
  13   6    -0.00   0.00  -0.00    -0.06   0.07   0.01     0.00   0.00   0.05
  14   6    -0.00   0.00   0.00    -0.05   0.10   0.02     0.02  -0.08  -0.04
  15   6    -0.00   0.00  -0.00    -0.06   0.13   0.02     0.02  -0.08  -0.03
  16   6    -0.00   0.00  -0.00    -0.08   0.13   0.01     0.00   0.00   0.08
  17   6    -0.00  -0.00  -0.01    -0.09   0.11   0.00    -0.02   0.08   0.17
  18   6    -0.00  -0.00  -0.01    -0.08   0.08  -0.00    -0.02   0.08   0.15
  19   6    -0.00  -0.00   0.00    -0.02   0.03   0.01     0.00   0.00  -0.09
  20   6    -0.00  -0.00   0.00    -0.01   0.00   0.01     0.00   0.00  -0.09
  21   6     0.00  -0.00   0.01     0.02  -0.00   0.02    -0.00   0.00  -0.22
  22   8     0.00  -0.00   0.02     0.04   0.02   0.04    -0.00   0.00  -0.41
  23   6     0.00  -0.00   0.01     0.03  -0.03   0.01     0.00   0.00  -0.16
  24   6     0.00  -0.00   0.01     0.06  -0.04   0.01    -0.00   0.00  -0.21
  25   6     0.00  -0.00   0.00     0.07  -0.06   0.00    -0.00   0.00  -0.14
  26   6     0.00  -0.00  -0.00     0.05  -0.09  -0.01     0.00   0.00  -0.01
  27   6     0.00  -0.01  -0.01     0.06  -0.12  -0.02     0.00  -0.00   0.08
  28   6    -0.00  -0.01  -0.01     0.03  -0.14  -0.03     0.06  -0.03   0.19
  29   6     0.00  -0.01  -0.01     0.05  -0.18  -0.04     0.06  -0.03   0.28
  30   6     0.00  -0.01  -0.01     0.08  -0.19  -0.03     0.00  -0.00   0.26
  31   6     0.00  -0.01  -0.01     0.10  -0.17  -0.02    -0.05   0.03   0.15
  32   6     0.00  -0.00  -0.01     0.09  -0.14  -0.01    -0.05   0.03   0.06
  33   6    -0.00  -0.00  -0.00     0.02  -0.08  -0.02     0.00  -0.00   0.04
  34   6    -0.00  -0.00  -0.00     0.01  -0.05  -0.01     0.00   0.00  -0.03
  35   6    -0.00  -0.00  -0.00    -0.03  -0.06  -0.01     0.02   0.01   0.00
  36   6    -0.01  -0.01  -0.00    -0.04  -0.08  -0.01     0.03   0.03   0.01
  37   6    -0.01  -0.01  -0.00    -0.05  -0.09  -0.01     0.04   0.03   0.00
  38   6    -0.01  -0.01  -0.00    -0.06  -0.11  -0.01     0.06   0.05   0.01
  39   6    -0.01  -0.01  -0.00    -0.04  -0.08  -0.01     0.03   0.02  -0.01
  40   6    -0.00  -0.00   0.00    -0.03  -0.06  -0.01     0.02   0.00  -0.01
  41   6    -0.00  -0.00   0.00    -0.03  -0.05  -0.00     0.01   0.01  -0.01
  42   7     0.00   0.00   0.00    -0.02  -0.03  -0.00     0.00  -0.00  -0.02
  43   6     0.00   0.00   0.00     0.01   0.03   0.00    -0.00  -0.00  -0.02
  44   6     0.01   0.00   0.00     0.08   0.05  -0.05     0.00   0.01  -0.14
  45   6     0.01   0.01   0.00     0.10   0.12  -0.04     0.00   0.01  -0.14
  46   6     0.01   0.01   0.00     0.05   0.16   0.02     0.00  -0.00  -0.04
  47   6     0.01   0.01   0.01     0.08   0.24   0.02     0.00   0.00  -0.05
  48   6     0.01   0.01   0.00     0.11   0.19  -0.02    -0.03  -0.12  -0.16
  49   6     0.01   0.01   0.01     0.14   0.31  -0.01     0.04   0.14  -0.12
  50   6     0.01   0.01   0.01     0.02   0.28   0.09    -0.00  -0.02   0.09
  51   6     0.00   0.01   0.01    -0.02   0.14   0.07    -0.00  -0.02   0.08
  52   6     0.00   0.01   0.00    -0.04   0.08   0.06    -0.00  -0.02   0.09
  53   1    -0.41   0.37   0.27     0.01  -0.05  -0.01    -0.04  -0.00   0.02
  54   1    -0.11  -0.52  -0.05    -0.01  -0.01   0.00    -0.03  -0.04  -0.00
  55   1     0.47   0.27  -0.17    -0.04  -0.05   0.00    -0.00  -0.00  -0.00
  56   1     0.00  -0.01   0.00    -0.01  -0.02  -0.00    -0.01  -0.00  -0.00
  57   1     0.00  -0.00   0.00    -0.00  -0.01  -0.00    -0.01   0.00  -0.01
  58   1    -0.00  -0.01  -0.00    -0.01  -0.03  -0.00    -0.01  -0.01   0.00
  59   1    -0.00  -0.00  -0.00    -0.02  -0.01  -0.01     0.00  -0.00   0.07
  60   1    -0.00  -0.00  -0.00    -0.03   0.01  -0.01     0.00  -0.00   0.07
  61   1    -0.00   0.00   0.00    -0.01   0.03   0.01     0.01  -0.04  -0.03
  62   1    -0.00   0.00   0.00    -0.02   0.04   0.01     0.01  -0.04  -0.03
  63   1    -0.00   0.00  -0.00    -0.03   0.05   0.00    -0.00   0.00   0.03
  64   1    -0.00  -0.00  -0.00    -0.03   0.03  -0.00    -0.01   0.04   0.07
  65   1    -0.00  -0.00  -0.00    -0.03   0.02  -0.00    -0.01   0.04   0.06
  66   1    -0.00  -0.00   0.00    -0.00   0.01   0.01    -0.00   0.00  -0.05
  67   1     0.00  -0.00   0.00     0.02  -0.01   0.01    -0.00   0.00  -0.09
  68   1     0.00  -0.00   0.00     0.03  -0.02   0.00     0.00   0.00  -0.05
  69   1    -0.00  -0.00  -0.00     0.00  -0.04  -0.01     0.03  -0.02   0.06
  70   1    -0.00  -0.00  -0.00     0.01  -0.06  -0.01     0.03  -0.02   0.11
  71   1     0.00  -0.00  -0.00     0.03  -0.06  -0.01     0.00  -0.00   0.09
  72   1     0.00  -0.00  -0.00     0.04  -0.05  -0.00    -0.03   0.02   0.04
  73   1     0.00  -0.00  -0.00     0.03  -0.03  -0.00    -0.03   0.02  -0.01
  74   1    -0.00  -0.00  -0.00     0.00  -0.03  -0.01     0.00   0.00   0.04
  75   1    -0.00  -0.00  -0.00    -0.01  -0.03  -0.00     0.01   0.01   0.00
  76   1    -0.01   0.00  -0.01    -0.03  -0.03  -0.00     0.02   0.02  -0.00
  77   1     0.01   0.00   0.00    -0.01  -0.03  -0.00     0.02   0.02   0.01
  78   1    -0.00  -0.02  -0.00    -0.02  -0.04  -0.00     0.02   0.01   0.01
  79   1    -0.00  -0.00  -0.00    -0.01  -0.03  -0.00     0.01   0.00  -0.00
  80   1    -0.00   0.00   0.00    -0.01  -0.01  -0.00     0.00  -0.00  -0.01
  81   1     0.00   0.00   0.00     0.03   0.00  -0.03     0.00   0.01  -0.06
  82   1     0.00   0.00   0.00     0.04   0.04  -0.02     0.00   0.01  -0.07
  83   1     0.00   0.00   0.00     0.04   0.05  -0.02    -0.01  -0.03  -0.08
  84   1     0.00   0.00   0.00     0.04   0.07  -0.01    -0.01  -0.03  -0.05
  85   1     0.00   0.00   0.00     0.02   0.04  -0.00    -0.02  -0.06  -0.03
  86   1     0.00   0.00   0.00     0.03   0.10   0.01     0.02   0.07  -0.01
  87   1     0.00   0.00   0.00     0.05   0.11  -0.00     0.01   0.04  -0.04
  88   1     0.00   0.00   0.00     0.05   0.08  -0.02     0.01   0.05  -0.06
  89   1     0.00   0.00   0.00    -0.01   0.07   0.03    -0.01  -0.03   0.04
  90   1     0.00   0.00   0.00    -0.00   0.09   0.03     0.01   0.02   0.05
  91   1     0.00   0.00   0.00     0.01   0.10   0.02    -0.00  -0.00   0.02
  92   1     0.00   0.00   0.00    -0.02   0.05   0.03    -0.00  -0.01   0.05
  93   1     0.00   0.00   0.00    -0.03   0.02   0.03    -0.00  -0.01   0.05
                      4                      5                      6
                        a                      a                      a 
 Frequencies --    15.2723                17.6927                18.0612
 Red. masses --     9.7640                 3.1898                 8.4587
 Frc consts  --     0.0000                 0.0000                 0.0000
 IR Inten    --     0.1546                 1.2634                 0.3460
 Raman Activ --     0.0000                 0.0000                 0.0000
 Depolar     --     0.0000                 0.0000                 0.0000
 Atom AN      X      Y      Z        X      Y      Z        X      Y      Z
   1   6    -0.06  -0.10   0.05    -0.04  -0.02   0.05    -0.08  -0.04   0.10
   2   6    -0.05  -0.08   0.05    -0.03  -0.02   0.05    -0.06  -0.03   0.09
   3   6    -0.05  -0.09   0.04    -0.03  -0.02   0.04    -0.05  -0.03   0.07
   4   6    -0.04  -0.06   0.04    -0.02  -0.01   0.03    -0.03  -0.01   0.06
   5   6    -0.02  -0.03   0.04    -0.01  -0.01   0.04    -0.02  -0.01   0.07
   6   6    -0.02  -0.02   0.04    -0.01  -0.01   0.05    -0.02  -0.01   0.09
   7   6    -0.03  -0.05   0.05    -0.02  -0.01   0.05    -0.04  -0.02   0.09
   8   6    -0.01  -0.01   0.04     0.00   0.00   0.05     0.00   0.00   0.09
   9   6    -0.01  -0.00   0.05     0.00   0.00   0.06     0.00   0.00   0.10
  10   6    -0.01  -0.00   0.09     0.00   0.00   0.07     0.00   0.00   0.11
  11   6    -0.02   0.00   0.07     0.00  -0.00   0.04     0.00  -0.00   0.07
  12   6    -0.01   0.01  -0.00     0.00  -0.00   0.01     0.00  -0.00   0.02
  13   6    -0.01   0.02  -0.05     0.00  -0.00  -0.04     0.00  -0.00  -0.08
  14   6     0.03  -0.01  -0.12     0.03  -0.01  -0.09     0.06  -0.01  -0.15
  15   6     0.03  -0.00  -0.17     0.03  -0.01  -0.14     0.06  -0.01  -0.25
  16   6    -0.02   0.03  -0.15     0.00  -0.01  -0.15     0.01  -0.02  -0.28
  17   6    -0.06   0.05  -0.08    -0.03  -0.00  -0.11    -0.05  -0.02  -0.21
  18   6    -0.06   0.05  -0.03    -0.03   0.00  -0.05    -0.05  -0.01  -0.11
  19   6    -0.01   0.01  -0.04     0.00  -0.00   0.01     0.00  -0.00   0.03
  20   6    -0.00   0.00  -0.01    -0.00   0.00   0.03     0.00  -0.00   0.07
  21   6     0.00   0.00  -0.05    -0.00   0.00   0.03     0.00   0.00   0.07
  22   8     0.01   0.01  -0.12    -0.00   0.00   0.03    -0.00  -0.00   0.07
  23   6     0.00  -0.01  -0.02    -0.00   0.00   0.03     0.00   0.00   0.06
  24   6     0.01  -0.01  -0.03    -0.00   0.00   0.01    -0.00   0.00   0.04
  25   6     0.01  -0.01   0.00    -0.00   0.00  -0.01    -0.00   0.00   0.01
  26   6     0.01  -0.02   0.04    -0.00   0.00  -0.00    -0.00   0.00   0.00
  27   6     0.01  -0.02   0.07    -0.00   0.00  -0.03    -0.00   0.01  -0.04
  28   6     0.02  -0.02   0.08    -0.01  -0.01  -0.03    -0.02  -0.02  -0.05
  29   6     0.02  -0.04   0.11    -0.01  -0.00  -0.06    -0.02  -0.01  -0.10
  30   6     0.02  -0.05   0.13    -0.00   0.01  -0.09    -0.01   0.02  -0.15
  31   6     0.01  -0.05   0.12     0.00   0.02  -0.09     0.01   0.04  -0.15
  32   6     0.01  -0.04   0.09     0.01   0.02  -0.06     0.01   0.03  -0.10
  33   6     0.00  -0.02   0.05    -0.00   0.00   0.02     0.00   0.00   0.04
  34   6     0.00  -0.01   0.03    -0.00   0.00   0.03     0.00   0.00   0.07
  35   6     0.00  -0.00   0.04     0.01   0.01   0.04     0.02   0.02   0.09
  36   6     0.01   0.01   0.05     0.02   0.03   0.05     0.04   0.03   0.09
  37   6     0.04   0.04   0.05     0.03   0.03   0.04     0.06   0.04   0.09
  38   6     0.05   0.05   0.05     0.09  -0.01   0.08     0.06   0.09   0.08
  39   6     0.05   0.06   0.04     0.03   0.02   0.04     0.05   0.04   0.08
  40   6     0.04   0.05   0.04     0.01   0.01   0.04     0.03   0.02   0.07
  41   6     0.01   0.01   0.04     0.01   0.00   0.04     0.02   0.01   0.07
  42   7    -0.00  -0.00   0.04    -0.00  -0.01   0.04     0.00  -0.00   0.07
  43   6     0.00   0.01   0.02    -0.00  -0.01   0.03    -0.00  -0.01   0.05
  44   6     0.00  -0.01   0.18    -0.00   0.00  -0.02    -0.01   0.00  -0.05
  45   6     0.01   0.00   0.14    -0.00   0.00  -0.04    -0.01   0.00  -0.08
  46   6     0.01   0.04  -0.07    -0.00  -0.00  -0.01    -0.00  -0.01  -0.02
  47   6     0.02   0.05  -0.12    -0.00   0.00  -0.04    -0.00  -0.01  -0.08
  48   6     0.14   0.25   0.04     0.00  -0.06  -0.09    -0.00  -0.15  -0.20
  49   6    -0.11  -0.19  -0.03    -0.00   0.07  -0.07    -0.01   0.14  -0.16
  50   6     0.02   0.10  -0.42    -0.00  -0.01   0.02    -0.00  -0.04   0.05
  51   6     0.01   0.06  -0.23    -0.00  -0.01   0.04    -0.00  -0.03   0.09
  52   6     0.01   0.04  -0.19    -0.01  -0.01   0.06     0.00  -0.02   0.12
  53   1    -0.02  -0.03   0.02    -0.02  -0.00   0.02    -0.01  -0.02   0.03
  54   1    -0.02  -0.04   0.01    -0.02  -0.01   0.01    -0.02  -0.00   0.03
  55   1    -0.01  -0.03   0.01    -0.01  -0.00   0.01    -0.03  -0.02   0.03
  56   1    -0.02  -0.03   0.01    -0.01  -0.01   0.01    -0.02  -0.01   0.02
  57   1    -0.01  -0.02   0.01    -0.01  -0.00   0.01    -0.01  -0.00   0.01
  58   1    -0.01  -0.01   0.01    -0.01  -0.00   0.02    -0.01  -0.01   0.03
  59   1    -0.00  -0.00   0.04     0.00   0.00   0.03     0.00   0.00   0.04
  60   1    -0.01   0.00   0.03     0.00  -0.00   0.01     0.00  -0.00   0.02
  61   1     0.02  -0.01  -0.04     0.02  -0.00  -0.02     0.03  -0.00  -0.03
  62   1     0.02  -0.01  -0.07     0.02  -0.01  -0.05     0.03  -0.00  -0.09
  63   1    -0.01   0.01  -0.06     0.00  -0.00  -0.06     0.00  -0.01  -0.11
  64   1    -0.03   0.02  -0.02    -0.02   0.00  -0.03    -0.03  -0.01  -0.07
  65   1    -0.03   0.02   0.01    -0.02   0.00  -0.01    -0.03  -0.00  -0.02
  66   1    -0.00   0.00  -0.03    -0.00  -0.00  -0.00     0.00  -0.00  -0.00
  67   1     0.00  -0.00  -0.02    -0.00   0.00   0.00    -0.00   0.00   0.01
  68   1     0.00  -0.00  -0.00    -0.00   0.00  -0.01    -0.00   0.00  -0.00
  69   1     0.00  -0.00   0.02    -0.00  -0.01  -0.00    -0.01  -0.01  -0.00
  70   1     0.01  -0.01   0.03    -0.01  -0.00  -0.02    -0.01  -0.01  -0.03
  71   1     0.01  -0.02   0.04    -0.00   0.00  -0.03    -0.00   0.01  -0.06
  72   1     0.00  -0.02   0.04     0.00   0.01  -0.03     0.01   0.02  -0.06
  73   1    -0.00  -0.01   0.02     0.00   0.01  -0.02     0.01   0.01  -0.03
  74   1     0.00  -0.01   0.02    -0.00   0.00   0.01     0.00   0.00   0.01
  75   1     0.00  -0.00   0.01     0.01   0.01   0.01     0.01   0.01   0.03
  76   1     0.01   0.02   0.01     0.40  -0.28   0.27    -0.18   0.17  -0.11
  77   1     0.02   0.02   0.02    -0.37  -0.25  -0.16     0.23   0.16   0.12
  78   1     0.01   0.00   0.02     0.08   0.48  -0.01    -0.01  -0.23   0.05
  79   1     0.02   0.03   0.01     0.01   0.01   0.01     0.02   0.01   0.02
  80   1     0.01   0.02   0.01     0.00  -0.00   0.01     0.01   0.00   0.02
  81   1    -0.00  -0.01   0.10    -0.00   0.00  -0.01    -0.00   0.00  -0.03
  82   1     0.00  -0.00   0.08    -0.00   0.00  -0.02    -0.00   0.00  -0.05
  83   1     0.04   0.07   0.08     0.00  -0.02  -0.04     0.00  -0.04  -0.09
  84   1     0.04   0.07   0.00     0.00  -0.02  -0.03     0.00  -0.04  -0.07
  85   1     0.07   0.12  -0.01     0.00  -0.03  -0.02    -0.00  -0.08  -0.04
  86   1    -0.06  -0.10  -0.04    -0.00   0.03  -0.01    -0.00   0.07  -0.02
  87   1    -0.03  -0.05  -0.02    -0.00   0.02  -0.03    -0.00   0.04  -0.06
  88   1    -0.03  -0.07   0.05    -0.00   0.02  -0.03    -0.01   0.05  -0.07
  89   1     0.04   0.07  -0.14    -0.00  -0.02   0.01    -0.00  -0.04   0.03
  90   1    -0.02  -0.01  -0.16    -0.00   0.01   0.02     0.00   0.01   0.04
  91   1     0.01   0.03  -0.13    -0.00  -0.00   0.00    -0.00  -0.01   0.00
  92   1     0.00   0.02  -0.11    -0.00  -0.00   0.02     0.00  -0.01   0.04
  93   1     0.00   0.02  -0.09    -0.00  -0.00   0.03     0.00  -0.01   0.06
                      7                      8                      9
                        a                      a                      a 
 Frequencies --    26.4842                28.5397                36.7244
 Red. masses --    10.6552                10.2613                10.2443
 Frc consts  --     0.0000                 0.0000                 0.0000
 IR Inten    --     0.6498                 0.0177                 0.4524
 Raman Activ --     0.0000                 0.0000                 0.0000
 Depolar     --     0.0000                 0.0000                 0.0000
 Atom AN      X      Y      Z        X      Y      Z        X      Y      Z
   1   6     0.06   0.27   0.05     0.26   0.01  -0.01    -0.14  -0.40   0.03
   2   6     0.04   0.19   0.05     0.18  -0.00   0.02    -0.06  -0.21   0.02
   3   6     0.05   0.21   0.03     0.18  -0.01   0.09    -0.01  -0.10   0.02
   4   6     0.04   0.14   0.02     0.11  -0.02   0.12     0.05   0.04   0.01
   5   6     0.01   0.07   0.03     0.05  -0.02   0.09     0.06   0.07   0.01
   6   6     0.00   0.05   0.05     0.06  -0.01   0.03     0.02  -0.01   0.01
   7   6     0.01   0.11   0.06     0.12  -0.01  -0.01    -0.04  -0.15   0.01
   8   6    -0.00  -0.01   0.07    -0.00  -0.00  -0.01     0.02   0.01  -0.00
   9   6    -0.00  -0.00   0.06    -0.00  -0.00  -0.06     0.01   0.01  -0.00
  10   6    -0.00  -0.00   0.13     0.00  -0.00  -0.10     0.01   0.01  -0.01
  11   6    -0.00  -0.00   0.12     0.00  -0.00  -0.09     0.00   0.02  -0.02
  12   6    -0.00   0.00   0.03    -0.00  -0.00  -0.05     0.01   0.02  -0.01
  13   6    -0.00   0.00   0.02     0.00  -0.00  -0.00    -0.00   0.04  -0.01
  14   6     0.03  -0.06  -0.07    -0.04   0.02   0.06     0.01   0.08   0.01
  15   6     0.02  -0.06  -0.08    -0.04   0.02   0.12    -0.01   0.11   0.02
  16   6    -0.01   0.01   0.00    -0.00   0.01   0.12    -0.02   0.11   0.02
  17   6    -0.04   0.08   0.09     0.04  -0.02   0.05    -0.03   0.08  -0.01
  18   6    -0.03   0.08   0.10     0.04  -0.02  -0.01    -0.02   0.04  -0.02
  19   6    -0.00   0.00  -0.04    -0.00  -0.00  -0.04     0.01   0.02  -0.00
  20   6    -0.00  -0.00  -0.02    -0.00  -0.00  -0.04     0.01   0.01  -0.00
  21   6     0.00  -0.00  -0.10    -0.00  -0.00  -0.03     0.02   0.01   0.00
  22   8     0.00   0.00  -0.24    -0.00  -0.00  -0.03     0.02   0.01   0.01
  23   6     0.00  -0.00  -0.03    -0.00  -0.00  -0.03     0.01   0.00   0.00
  24   6     0.00  -0.00  -0.09    -0.00  -0.00  -0.04    -0.00   0.01  -0.00
  25   6     0.00  -0.00  -0.08    -0.00  -0.00  -0.04    -0.01   0.02   0.00
  26   6     0.00  -0.01   0.01    -0.00  -0.00  -0.02     0.00   0.03   0.01
  27   6     0.00  -0.01  -0.05    -0.00  -0.00  -0.01    -0.01   0.07   0.02
  28   6    -0.01  -0.07  -0.00     0.01  -0.02   0.01     0.02   0.10   0.02
  29   6    -0.02  -0.06  -0.08     0.01  -0.02   0.02    -0.00   0.16   0.01
  30   6    -0.00   0.01  -0.20    -0.00   0.00  -0.01    -0.05   0.19  -0.01
  31   6     0.01   0.07  -0.24    -0.01   0.01  -0.03    -0.08   0.15  -0.01
  32   6     0.01   0.06  -0.17    -0.01   0.01  -0.03    -0.06   0.09   0.00
  33   6     0.00  -0.01   0.11    -0.00  -0.00  -0.01     0.02   0.02   0.00
  34   6    -0.00  -0.01   0.08    -0.00  -0.00  -0.02     0.02   0.01   0.00
  35   6    -0.01  -0.06   0.05    -0.06   0.01   0.03     0.01  -0.01  -0.00
  36   6    -0.02  -0.13   0.06    -0.11   0.02  -0.00    -0.05  -0.14  -0.01
  37   6    -0.04  -0.22   0.04    -0.17   0.03   0.03    -0.07  -0.19  -0.02
  38   6    -0.07  -0.32   0.04    -0.23   0.04  -0.01    -0.16  -0.36  -0.03
  39   6    -0.04  -0.22   0.01    -0.17   0.03   0.09    -0.02  -0.07  -0.01
  40   6    -0.02  -0.13   0.01    -0.11   0.01   0.12     0.05   0.06   0.00
  41   6    -0.01  -0.06   0.03    -0.06   0.00   0.09     0.06   0.07   0.01
  42   7     0.01   0.01   0.03    -0.01  -0.02   0.13     0.10   0.17   0.01
  43   6     0.01   0.01   0.01    -0.01  -0.02   0.16     0.08   0.11   0.01
  44   6     0.00   0.01   0.03    -0.01  -0.02   0.16     0.02   0.10   0.01
  45   6     0.00   0.01   0.03    -0.01  -0.02   0.08     0.00   0.04   0.01
  46   6     0.01   0.01   0.01    -0.00  -0.01   0.00     0.04  -0.00  -0.00
  47   6     0.00   0.00   0.02     0.00   0.01  -0.18     0.01  -0.07  -0.01
  48   6     0.01   0.07   0.08     0.15  -0.08  -0.28    -0.03  -0.09  -0.03
  49   6    -0.01  -0.08   0.06    -0.14   0.12  -0.26    -0.03  -0.06  -0.02
  50   6     0.01   0.01  -0.06     0.01   0.01  -0.21     0.07  -0.12  -0.00
  51   6     0.01   0.01  -0.02    -0.00  -0.02   0.05     0.10   0.01  -0.00
  52   6     0.01   0.01  -0.01    -0.00  -0.02   0.12     0.12   0.07   0.00
  53   1     0.02   0.08  -0.01     0.07   0.01  -0.01    -0.04  -0.13   0.05
  54   1     0.02   0.10   0.02     0.09  -0.00   0.01    -0.06  -0.14  -0.00
  55   1     0.01   0.08   0.03     0.08   0.01  -0.01    -0.05  -0.12  -0.02
  56   1     0.02   0.08   0.00     0.06  -0.00   0.03    -0.01  -0.04   0.01
  57   1     0.01   0.05   0.00     0.03  -0.01   0.05     0.03   0.03   0.00
  58   1     0.00   0.03   0.02     0.04  -0.00  -0.02    -0.02  -0.06   0.00
  59   1    -0.00  -0.00   0.06     0.00  -0.00  -0.03     0.00   0.00  -0.00
  60   1    -0.00  -0.00   0.05     0.00  -0.00  -0.03    -0.00   0.00  -0.01
  61   1     0.01  -0.03  -0.04    -0.02   0.01   0.02     0.01   0.02   0.00
  62   1     0.01  -0.03  -0.04    -0.02   0.01   0.05    -0.00   0.04   0.01
  63   1    -0.00   0.01  -0.00    -0.00   0.00   0.05    -0.01   0.04   0.01
  64   1    -0.02   0.04   0.05     0.02  -0.01   0.01    -0.01   0.02  -0.00
  65   1    -0.02   0.04   0.05     0.02  -0.01  -0.02    -0.01   0.00  -0.01
  66   1    -0.00   0.00  -0.03     0.00  -0.00  -0.00     0.01   0.01   0.00
  67   1     0.00  -0.00  -0.05    -0.00  -0.00  -0.01    -0.00  -0.00  -0.00
  68   1     0.00  -0.00  -0.04    -0.00  -0.00  -0.01    -0.01   0.01   0.00
  69   1    -0.01  -0.04   0.02     0.00  -0.01   0.01     0.02   0.02   0.01
  70   1    -0.01  -0.03  -0.01     0.00  -0.01   0.01     0.01   0.05   0.00
  71   1    -0.00   0.01  -0.08    -0.00   0.00  -0.00    -0.02   0.07  -0.01
  72   1     0.01   0.04  -0.10    -0.00   0.01  -0.01    -0.03   0.05  -0.01
  73   1     0.01   0.03  -0.06    -0.00   0.01  -0.02    -0.02   0.02   0.00
  74   1    -0.00  -0.00   0.05    -0.00  -0.00   0.00     0.01   0.01   0.00
  75   1    -0.01  -0.04   0.02    -0.03   0.01  -0.01    -0.03  -0.06  -0.00
  76   1    -0.05  -0.08   0.02    -0.06   0.00   0.01    -0.07  -0.11   0.02
  77   1     0.00  -0.09   0.01    -0.09   0.00  -0.00    -0.04  -0.12  -0.03
  78   1    -0.02  -0.12   0.01    -0.06   0.03  -0.02    -0.05  -0.12  -0.02
  79   1    -0.02  -0.08  -0.00    -0.06   0.01   0.03    -0.01  -0.03  -0.00
  80   1    -0.01  -0.04  -0.00    -0.03   0.00   0.05     0.03   0.04   0.00
  81   1     0.00   0.00   0.01    -0.00  -0.01   0.06    -0.00   0.04   0.01
  82   1     0.00   0.00   0.01    -0.00  -0.00   0.02    -0.01   0.01   0.00
  83   1    -0.00   0.02   0.04     0.04  -0.02  -0.08    -0.02  -0.02  -0.01
  84   1     0.00   0.02   0.03     0.05  -0.02  -0.12    -0.01  -0.04  -0.01
  85   1     0.01   0.04   0.02     0.07  -0.05  -0.06    -0.00  -0.03  -0.01
  86   1    -0.01  -0.04   0.00    -0.07   0.05  -0.06     0.00  -0.01  -0.00
  87   1    -0.00  -0.02   0.02    -0.04   0.04  -0.12    -0.01  -0.03  -0.01
  88   1    -0.00  -0.03   0.03    -0.04   0.04  -0.07    -0.02  -0.01  -0.01
  89   1     0.01   0.02  -0.02     0.03  -0.01  -0.05     0.03  -0.04   0.00
  90   1    -0.00  -0.01  -0.03    -0.02   0.02  -0.05     0.03  -0.03   0.00
  91   1     0.00   0.00  -0.02     0.00   0.01  -0.10     0.01  -0.05  -0.00
  92   1     0.00   0.00  -0.01     0.00  -0.00   0.00     0.04  -0.01  -0.00
  93   1     0.00   0.00  -0.01    -0.00  -0.01   0.04     0.05   0.02  -0.00
                     10                     11                     12
                        a                      a                      a 
 Frequencies --    41.4584                43.4898                48.0235
 Red. masses --    10.8503                 9.8152                10.8810
 Frc consts  --     0.0000                 0.0000                 0.0000
 IR Inten    --     0.4835                 0.3446                 4.9189
 Raman Activ --     0.0000                 0.0000                 0.0000
 Depolar     --     0.0000                 0.0000                 0.0000
 Atom AN      X      Y      Z        X      Y      Z        X      Y      Z
   1   6     0.03   0.05  -0.01     0.04  -0.03  -0.03    -0.11  -0.11   0.01
   2   6     0.00  -0.03  -0.00     0.03  -0.02  -0.02    -0.09  -0.06   0.00
   3   6    -0.06  -0.17  -0.01     0.03  -0.03  -0.01    -0.13  -0.15   0.00
   4   6    -0.09  -0.23  -0.01     0.02  -0.02  -0.00    -0.11  -0.13  -0.00
   5   6    -0.04  -0.16  -0.01     0.01  -0.01  -0.01    -0.06  -0.03  -0.00
   6   6     0.02  -0.04  -0.00     0.01  -0.00  -0.02    -0.01   0.06  -0.01
   7   6     0.04   0.03  -0.00     0.02  -0.01  -0.03    -0.03   0.05  -0.00
   8   6     0.04  -0.02  -0.00     0.00  -0.00  -0.03     0.02   0.10  -0.01
   9   6     0.03  -0.02  -0.00     0.00  -0.00  -0.03     0.02   0.12  -0.00
  10   6     0.02  -0.02  -0.00     0.00  -0.00   0.01     0.04   0.12  -0.01
  11   6     0.02  -0.01  -0.01     0.00  -0.01   0.03     0.05   0.10   0.01
  12   6     0.02  -0.00  -0.02     0.01  -0.00  -0.04     0.04   0.10   0.03
  13   6     0.01   0.03  -0.02     0.01  -0.00  -0.02     0.07   0.01   0.04
  14   6     0.03   0.07  -0.01     0.06  -0.19  -0.23     0.02  -0.10  -0.00
  15   6     0.01   0.14   0.01     0.06  -0.19  -0.21     0.07  -0.26  -0.05
  16   6    -0.03   0.16   0.02     0.01   0.02   0.05     0.17  -0.30  -0.06
  17   6    -0.05   0.12   0.01    -0.04   0.22   0.27     0.21  -0.17   0.01
  18   6    -0.03   0.05  -0.01    -0.04   0.20   0.23     0.16  -0.01   0.06
  19   6     0.03  -0.01  -0.01     0.00  -0.00  -0.09     0.02   0.10   0.03
  20   6     0.03  -0.02  -0.00     0.00  -0.00  -0.06     0.02   0.12   0.01
  21   6     0.03  -0.02  -0.00     0.00  -0.00  -0.01     0.04   0.12   0.02
  22   8     0.04  -0.02  -0.00     0.00  -0.00  -0.00     0.06   0.15   0.05
  23   6     0.03  -0.02   0.01     0.00  -0.00   0.06     0.04   0.10   0.00
  24   6     0.01  -0.02   0.01    -0.00  -0.00   0.18     0.07   0.10   0.00
  25   6     0.01  -0.01   0.02    -0.00  -0.00   0.21     0.08   0.08  -0.00
  26   6     0.02   0.00   0.03    -0.01  -0.00   0.09     0.07   0.07  -0.01
  27   6    -0.01   0.07   0.04    -0.01   0.00   0.04     0.08   0.04  -0.01
  28   6     0.05   0.14   0.04    -0.08   0.12  -0.18     0.07   0.02   0.01
  29   6     0.01   0.27  -0.00    -0.08   0.14  -0.26     0.08  -0.02   0.02
  30   6    -0.08   0.32  -0.05    -0.02   0.02  -0.10     0.10  -0.02   0.02
  31   6    -0.13   0.25  -0.03     0.06  -0.11   0.14     0.11   0.01  -0.00
  32   6    -0.09   0.12   0.01     0.06  -0.12   0.20     0.10   0.04  -0.02
  33   6     0.04  -0.01   0.02    -0.00   0.00  -0.01     0.04   0.07  -0.02
  34   6     0.04  -0.02   0.01     0.00  -0.00  -0.01     0.04   0.09  -0.01
  35   6     0.02  -0.05  -0.00    -0.01   0.00  -0.02    -0.02   0.06  -0.01
  36   6     0.05   0.02   0.00    -0.02   0.00  -0.03    -0.04   0.05  -0.01
  37   6     0.02  -0.03  -0.00    -0.03   0.01  -0.02    -0.11  -0.07  -0.02
  38   6     0.06   0.06   0.00    -0.05   0.01  -0.03    -0.15  -0.11  -0.03
  39   6    -0.05  -0.16  -0.01    -0.03   0.02  -0.01    -0.16  -0.15  -0.02
  40   6    -0.07  -0.22  -0.01    -0.01   0.02  -0.00    -0.13  -0.13  -0.01
  41   6    -0.04  -0.16  -0.01    -0.01   0.01  -0.01    -0.07  -0.03  -0.00
  42   7    -0.07  -0.24  -0.01     0.00   0.00  -0.00    -0.07  -0.04  -0.00
  43   6    -0.05  -0.18  -0.01     0.00   0.00   0.00    -0.06  -0.03   0.01
  44   6     0.03  -0.16  -0.01    -0.00  -0.01   0.06    -0.04  -0.02  -0.02
  45   6     0.05  -0.09  -0.01    -0.00  -0.01   0.06    -0.04  -0.00  -0.02
  46   6     0.00  -0.03   0.00    -0.00  -0.00   0.02    -0.05   0.01   0.00
  47   6     0.04   0.05   0.00    -0.00  -0.01   0.00    -0.04   0.03  -0.01
  48   6     0.10   0.08   0.02     0.00  -0.07  -0.05    -0.02   0.06   0.01
  49   6     0.08   0.05   0.02    -0.00   0.07  -0.04    -0.04   0.01   0.01
  50   6    -0.03   0.12  -0.02    -0.00  -0.02   0.07    -0.06   0.06  -0.04
  51   6    -0.07  -0.05   0.01     0.00   0.00  -0.04    -0.07   0.00   0.04
  52   6    -0.09  -0.12   0.01     0.00   0.01  -0.05    -0.08  -0.02   0.04
  53   1     0.00   0.02  -0.02     0.01  -0.01  -0.01    -0.03  -0.04   0.01
  54   1     0.01   0.02   0.00     0.01  -0.02  -0.01    -0.04  -0.03  -0.00
  55   1     0.02   0.02   0.01     0.02  -0.01  -0.01    -0.04  -0.03  -0.00
  56   1    -0.03  -0.07  -0.00     0.01  -0.01  -0.00    -0.05  -0.07   0.00
  57   1    -0.04  -0.10  -0.00     0.00  -0.01   0.00    -0.04  -0.06  -0.00
  58   1     0.03   0.04   0.00     0.01  -0.00  -0.01     0.00   0.03   0.00
  59   1     0.00  -0.01   0.00     0.00  -0.00   0.01     0.01   0.04  -0.01
  60   1     0.00  -0.00  -0.00    -0.00  -0.00   0.03     0.02   0.03   0.00
  61   1     0.02   0.02  -0.01     0.03  -0.10  -0.12    -0.01  -0.02  -0.00
  62   1     0.01   0.05   0.01     0.03  -0.10  -0.11     0.01  -0.11  -0.03
  63   1    -0.01   0.06   0.01     0.00   0.01   0.02     0.06  -0.12  -0.03
  64   1    -0.02   0.04   0.00    -0.02   0.11   0.14     0.08  -0.05   0.00
  65   1    -0.01   0.01  -0.01    -0.02   0.10   0.11     0.06   0.03   0.03
  66   1     0.01   0.00  -0.00    -0.00  -0.00  -0.04     0.00   0.03   0.01
  67   1     0.00  -0.01   0.00    -0.00  -0.00   0.07     0.02   0.03   0.00
  68   1    -0.00  -0.00   0.01     0.00  -0.00   0.09     0.03   0.02  -0.00
  69   1     0.03   0.03   0.02    -0.04   0.06  -0.08     0.02   0.00   0.00
  70   1     0.01   0.09  -0.00    -0.04   0.07  -0.13     0.02  -0.01   0.01
  71   1    -0.03   0.12  -0.03    -0.01   0.01  -0.05     0.03  -0.01   0.01
  72   1    -0.06   0.08  -0.02     0.03  -0.06   0.08     0.04   0.00  -0.00
  73   1    -0.04   0.02   0.01     0.03  -0.06   0.11     0.03   0.02  -0.01
  74   1     0.01  -0.00   0.00     0.00   0.00  -0.03     0.01   0.02  -0.01
  75   1     0.03   0.03   0.00    -0.01  -0.00  -0.01    -0.00   0.03  -0.00
  76   1     0.02   0.03  -0.02    -0.02   0.00  -0.01    -0.05  -0.03  -0.00
  77   1     0.02   0.03   0.01    -0.02   0.00  -0.01    -0.04  -0.03  -0.01
  78   1     0.02   0.02   0.01    -0.01   0.00  -0.01    -0.04  -0.04  -0.02
  79   1    -0.02  -0.06  -0.00    -0.01   0.01  -0.00    -0.06  -0.07  -0.01
  80   1    -0.04  -0.09  -0.01    -0.00   0.01   0.00    -0.05  -0.06  -0.00
  81   1     0.02  -0.06  -0.01    -0.00  -0.00   0.03    -0.01  -0.01  -0.01
  82   1     0.03  -0.02  -0.00    -0.00  -0.00   0.03    -0.01   0.00  -0.01
  83   1     0.04   0.01   0.01     0.01  -0.02  -0.03    -0.00   0.02   0.01
  84   1     0.04   0.04   0.01     0.00  -0.01  -0.02    -0.00   0.02   0.00
  85   1     0.02   0.03   0.00    -0.01  -0.04  -0.01    -0.00   0.02   0.00
  86   1     0.01   0.01   0.00     0.01   0.04   0.00    -0.02  -0.00  -0.00
  87   1     0.03   0.03   0.01    -0.00   0.01  -0.01    -0.01   0.01  -0.00
  88   1     0.04  -0.00   0.01    -0.01   0.03  -0.03    -0.01  -0.00   0.01
  89   1    -0.01   0.04  -0.01    -0.01  -0.01   0.02    -0.01   0.02  -0.01
  90   1    -0.02   0.03  -0.01     0.01   0.00   0.03    -0.03   0.01  -0.01
  91   1    -0.00   0.05  -0.01    -0.00  -0.01   0.03    -0.01   0.02  -0.02
  92   1    -0.03  -0.00   0.01     0.00   0.00  -0.02    -0.02   0.00   0.02
  93   1    -0.04  -0.04   0.01     0.00   0.00  -0.03    -0.03  -0.01   0.02
                     13                     14                     15
                        a                      a                      a 
 Frequencies --    53.0384                57.0762                64.7947
 Red. masses --     9.7967                10.8929                10.8121
 Frc consts  --     0.0000                 0.0000                 0.0000
 IR Inten    --     0.7232                 2.0137                 0.7821
 Raman Activ --     0.0000                 0.0000                 0.0000
 Depolar     --     0.0000                 0.0000                 0.0000
 Atom AN      X      Y      Z        X      Y      Z        X      Y      Z
   1   6    -0.03   0.06   0.02    -0.03  -0.03   0.04    -0.07  -0.06   0.01
   2   6    -0.04   0.02   0.02    -0.01  -0.01   0.03    -0.04  -0.03   0.00
   3   6    -0.07  -0.04   0.01    -0.00   0.01   0.03    -0.06  -0.07  -0.00
   4   6    -0.06  -0.06  -0.00     0.01   0.02   0.02    -0.04  -0.05  -0.01
   5   6    -0.03  -0.01   0.00     0.00   0.01   0.03    -0.02  -0.00  -0.00
   6   6    -0.01   0.02   0.02    -0.00  -0.00   0.03     0.00   0.03   0.00
   7   6    -0.01   0.05   0.02    -0.01  -0.01   0.03    -0.01   0.02   0.00
   8   6     0.01   0.02   0.03     0.00   0.01   0.03    -0.01  -0.00   0.01
   9   6     0.00   0.02   0.03     0.00   0.01   0.03    -0.01   0.00  -0.06
  10   6     0.00   0.02   0.06     0.00   0.01   0.09    -0.00   0.00  -0.12
  11   6     0.01   0.02   0.04     0.00   0.01   0.07    -0.00   0.00  -0.19
  12   6     0.00   0.02   0.02    -0.00   0.01  -0.00    -0.00   0.00  -0.20
  13   6     0.01   0.01   0.01     0.00   0.00   0.00     0.00  -0.01  -0.13
  14   6    -0.03   0.08   0.11    -0.05   0.10   0.14    -0.07  -0.04  -0.06
  15   6    -0.02   0.06   0.11    -0.04   0.09   0.15    -0.07  -0.04   0.08
  16   6     0.02  -0.04  -0.01     0.00  -0.03   0.01     0.00  -0.02   0.15
  17   6     0.05  -0.12  -0.12     0.05  -0.13  -0.13     0.08  -0.00   0.07
  18   6     0.04  -0.09  -0.10     0.04  -0.11  -0.13     0.08   0.00  -0.07
  19   6     0.00   0.02  -0.02     0.00   0.01  -0.07    -0.01   0.00  -0.19
  20   6     0.00   0.02  -0.03     0.00   0.01  -0.08    -0.01   0.00  -0.12
  21   6     0.01   0.02  -0.10     0.01   0.01  -0.18    -0.00   0.01  -0.08
  22   8     0.01   0.03  -0.23     0.01   0.02  -0.41    -0.00   0.01  -0.20
  23   6     0.01   0.02  -0.04     0.01   0.01  -0.04    -0.00   0.00   0.09
  24   6     0.01   0.02  -0.05     0.01   0.01   0.01     0.01  -0.00   0.23
  25   6     0.01   0.02  -0.02     0.01   0.01   0.09     0.02  -0.01   0.30
  26   6     0.01   0.01   0.03     0.00   0.00   0.09     0.02  -0.01   0.25
  27   6     0.01   0.01   0.02     0.01  -0.00   0.05     0.02  -0.03   0.17
  28   6    -0.02   0.04  -0.05    -0.08   0.12  -0.18    -0.01  -0.14   0.24
  29   6    -0.02   0.04  -0.08    -0.08   0.14  -0.28    -0.01  -0.14   0.07
  30   6     0.01  -0.00  -0.03    -0.01   0.02  -0.12     0.02   0.00  -0.18
  31   6     0.04  -0.04   0.05     0.07  -0.12   0.14     0.06   0.12  -0.25
  32   6     0.03  -0.03   0.07     0.07  -0.13   0.22     0.06   0.10  -0.07
  33   6     0.01   0.01   0.05     0.01   0.00   0.06    -0.00  -0.01   0.20
  34   6     0.01   0.01   0.03     0.01   0.00   0.02    -0.00  -0.00   0.10
  35   6     0.01  -0.01   0.02     0.00   0.01   0.03    -0.02  -0.03   0.00
  36   6     0.02  -0.03   0.02     0.01   0.01   0.03    -0.01  -0.02   0.00
  37   6     0.02  -0.05   0.01     0.00   0.00   0.03     0.03   0.05   0.01
  38   6     0.02  -0.08   0.02     0.01   0.02   0.03     0.06   0.08   0.01
  39   6     0.03  -0.03  -0.00    -0.01  -0.02   0.03     0.06   0.10   0.01
  40   6     0.02  -0.01  -0.01    -0.01  -0.03   0.03     0.04   0.08   0.00
  41   6     0.00  -0.02   0.00    -0.00  -0.00   0.03     0.01   0.02  -0.00
  42   7    -0.02  -0.02  -0.01     0.00   0.00   0.03    -0.00   0.01  -0.01
  43   6    -0.01  -0.01  -0.02    -0.00  -0.00   0.03    -0.00   0.01  -0.01
  44   6    -0.02  -0.05   0.28     0.00   0.02  -0.14    -0.01   0.01  -0.02
  45   6    -0.01  -0.04   0.30     0.00   0.02  -0.16    -0.01   0.01  -0.02
  46   6    -0.01  -0.00   0.04    -0.00  -0.00  -0.01    -0.01   0.01  -0.01
  47   6    -0.00   0.01   0.04    -0.00  -0.00  -0.02    -0.01   0.00   0.00
  48   6    -0.00  -0.16  -0.11    -0.00   0.07   0.05    -0.02   0.01   0.01
  49   6     0.02   0.23  -0.06    -0.01  -0.10   0.03     0.01   0.00   0.01
  50   6    -0.02  -0.01   0.26     0.01   0.01  -0.12    -0.01   0.00   0.01
  51   6    -0.00   0.04  -0.29    -0.01  -0.03   0.18    -0.00   0.01  -0.02
  52   6    -0.01   0.04  -0.33    -0.01  -0.03   0.20    -0.00   0.01  -0.02
  53   1    -0.01   0.02   0.00    -0.01  -0.01   0.02    -0.02  -0.02   0.01
  54   1    -0.01   0.02   0.01    -0.01  -0.01   0.01    -0.02  -0.02  -0.00
  55   1    -0.01   0.02   0.01    -0.01  -0.01   0.01    -0.02  -0.02   0.00
  56   1    -0.03  -0.02   0.00    -0.00   0.01   0.01    -0.03  -0.03  -0.00
  57   1    -0.03  -0.03  -0.00     0.00   0.01   0.00    -0.02  -0.02  -0.00
  58   1     0.00   0.02   0.01    -0.00  -0.00   0.01     0.00   0.01   0.00
  59   1     0.00   0.01   0.02     0.00   0.00   0.05    -0.00   0.00  -0.03
  60   1     0.00   0.01   0.01     0.00   0.00   0.03     0.00   0.00  -0.06
  61   1    -0.02   0.04   0.06    -0.03   0.05   0.07    -0.04  -0.01  -0.03
  62   1    -0.01   0.04   0.05    -0.02   0.05   0.08    -0.04  -0.02   0.04
  63   1     0.01  -0.02  -0.01     0.00  -0.01   0.00     0.00  -0.00   0.08
  64   1     0.02  -0.06  -0.06     0.03  -0.07  -0.07     0.04   0.00   0.04
  65   1     0.02  -0.04  -0.05     0.02  -0.06  -0.07     0.04   0.01  -0.04
  66   1     0.00   0.01  -0.01     0.00   0.00  -0.04    -0.00  -0.00  -0.06
  67   1     0.00   0.01  -0.03     0.00   0.00  -0.00     0.01   0.00   0.07
  68   1     0.01   0.00  -0.01     0.01   0.00   0.04     0.00  -0.00   0.11
  69   1    -0.01   0.02  -0.03    -0.04   0.06  -0.08    -0.01  -0.07   0.11
  70   1    -0.01   0.02  -0.04    -0.04   0.07  -0.14    -0.01  -0.07   0.04
  71   1     0.00  -0.00  -0.01    -0.00   0.01  -0.06     0.00   0.01  -0.09
  72   1     0.02  -0.02   0.03     0.04  -0.06   0.08     0.02   0.07  -0.13
  73   1     0.01  -0.02   0.03     0.04  -0.07   0.11     0.03   0.06  -0.04
  74   1     0.00   0.00   0.03     0.00   0.00   0.02    -0.00  -0.01   0.06
  75   1     0.01  -0.01   0.01     0.00   0.01   0.01    -0.01  -0.02   0.00
  76   1     0.00  -0.02   0.01     0.01   0.00   0.01     0.03   0.02  -0.00
  77   1     0.01  -0.02   0.00     0.00   0.01   0.01     0.02   0.02   0.01
  78   1     0.01  -0.03   0.01     0.00   0.01   0.01     0.02   0.03   0.01
  79   1     0.01  -0.01  -0.00    -0.01  -0.01   0.01     0.03   0.05   0.00
  80   1     0.01   0.00  -0.01    -0.01  -0.01   0.01     0.02   0.03   0.00
  81   1    -0.01  -0.03   0.14     0.00   0.01  -0.08    -0.00   0.00  -0.00
  82   1    -0.00  -0.02   0.15     0.00   0.01  -0.08    -0.00   0.00  -0.01
  83   1     0.03  -0.06  -0.09    -0.02   0.03   0.04    -0.01   0.00  -0.00
  84   1     0.01  -0.02  -0.03    -0.01   0.01   0.01    -0.01   0.00   0.01
  85   1    -0.04  -0.10  -0.01     0.02   0.05   0.01    -0.01   0.00   0.00
  86   1     0.04   0.11   0.02    -0.02  -0.05  -0.01     0.01  -0.00   0.00
  87   1    -0.00   0.04  -0.02     0.00  -0.02   0.01     0.00  -0.00   0.01
  88   1    -0.02   0.09  -0.07     0.01  -0.04   0.03     0.00   0.00  -0.00
  89   1    -0.05  -0.02   0.08     0.02   0.01  -0.03    -0.00   0.00   0.00
  90   1     0.03   0.01   0.08    -0.02  -0.00  -0.04     0.00  -0.00   0.00
  91   1    -0.01  -0.01   0.11     0.00   0.00  -0.06    -0.00  -0.00   0.01
  92   1     0.00   0.02  -0.15    -0.00  -0.01   0.09    -0.00   0.00  -0.00
  93   1    -0.00   0.02  -0.17    -0.00  -0.01   0.10    -0.00   0.00  -0.00
                     16                     17                     18
                        a                      a                      a 
 Frequencies --    79.4542                83.5953                87.7825
 Red. masses --    10.6814                 9.8804                10.6594
 Frc consts  --     0.0000                 0.0000                 0.0000
 IR Inten    --     0.3882                 0.0737                 1.7133
 Raman Activ --     0.0000                 0.0000                 0.0000
 Depolar     --     0.0000                 0.0000                 0.0000
 Atom AN      X      Y      Z        X      Y      Z        X      Y      Z
   1   6    -0.09   0.09   0.10     0.14   0.29  -0.02    -0.11  -0.00   0.08
   2   6    -0.07   0.03   0.08     0.01   0.03  -0.00    -0.06   0.03   0.06
   3   6    -0.15  -0.14   0.05    -0.10  -0.21   0.01     0.01   0.16   0.03
   4   6    -0.12  -0.15   0.03    -0.14  -0.29   0.02     0.03   0.16   0.02
   5   6    -0.03  -0.03   0.05    -0.06  -0.13   0.01    -0.01   0.03   0.04
   6   6     0.03   0.07   0.07    -0.02  -0.05   0.00    -0.05  -0.05   0.06
   7   6     0.01   0.12   0.09     0.03   0.05  -0.00    -0.08  -0.06   0.08
   8   6     0.04   0.06   0.08    -0.02  -0.04  -0.00    -0.03  -0.06   0.07
   9   6     0.05   0.01   0.02    -0.03  -0.01  -0.01    -0.05  -0.00   0.01
  10   6     0.10  -0.00  -0.09    -0.05  -0.00  -0.01    -0.09   0.01  -0.14
  11   6     0.12  -0.05  -0.21    -0.06   0.02   0.02    -0.10   0.05  -0.25
  12   6     0.09  -0.08  -0.22    -0.05   0.04   0.04    -0.08   0.08  -0.19
  13   6     0.09  -0.07  -0.19    -0.05   0.03   0.04    -0.07   0.05  -0.13
  14   6     0.06  -0.04  -0.13    -0.05   0.00   0.02    -0.17  -0.05  -0.09
  15   6     0.02   0.08   0.06    -0.03  -0.06  -0.02    -0.14  -0.15   0.02
  16   6     0.02   0.17   0.19    -0.01  -0.08  -0.04    -0.02  -0.13   0.10
  17   6     0.06   0.12   0.09    -0.01  -0.04  -0.01     0.08  -0.03   0.08
  18   6     0.10  -0.01  -0.10    -0.03   0.02   0.03     0.05   0.07  -0.04
  19   6     0.04  -0.07  -0.13    -0.02   0.04   0.03    -0.04   0.07  -0.10
  20   6     0.02  -0.02  -0.02    -0.01   0.01   0.01    -0.02   0.03  -0.01
  21   6    -0.04  -0.01   0.03     0.02   0.00  -0.00     0.05   0.01   0.04
  22   8    -0.08  -0.06   0.07     0.05   0.03  -0.00     0.10   0.07   0.12
  23   6    -0.05   0.04  -0.00     0.03  -0.03  -0.01     0.07  -0.04  -0.03
  24   6    -0.09   0.05  -0.10     0.05  -0.03  -0.03     0.10  -0.05  -0.17
  25   6    -0.10   0.09  -0.16     0.06  -0.05  -0.03     0.11  -0.08  -0.20
  26   6    -0.08   0.11  -0.11     0.05  -0.06  -0.01     0.09  -0.11  -0.08
  27   6    -0.08   0.08  -0.11     0.04  -0.04   0.01     0.08  -0.08  -0.03
  28   6    -0.11   0.05  -0.13     0.07   0.01  -0.00     0.14   0.04  -0.06
  29   6    -0.07  -0.08  -0.02     0.05   0.08  -0.02     0.10   0.17  -0.05
  30   6    -0.00  -0.18   0.11    -0.00   0.10  -0.02    -0.00   0.17   0.00
  31   6     0.03  -0.13   0.09    -0.03   0.03   0.01    -0.05   0.03   0.08
  32   6    -0.02   0.00  -0.03    -0.00  -0.04   0.03    -0.01  -0.09   0.06
  33   6    -0.05   0.10  -0.01     0.03  -0.06  -0.01     0.06  -0.11   0.00
  34   6    -0.03   0.07   0.04     0.02  -0.04  -0.01     0.04  -0.07   0.03
  35   6     0.05   0.05   0.07    -0.02  -0.02   0.00    -0.03  -0.08   0.06
  36   6     0.05   0.01   0.08    -0.07  -0.12  -0.01     0.00  -0.07   0.08
  37   6     0.04  -0.05   0.06    -0.02  -0.01   0.01     0.07  -0.02   0.07
  38   6     0.02  -0.15   0.07    -0.15  -0.24  -0.02     0.15   0.05   0.11
  39   6     0.05  -0.03   0.04     0.14   0.31   0.04     0.07  -0.01   0.04
  40   6     0.05   0.01   0.03     0.17   0.36   0.05     0.02  -0.03   0.02
  41   6     0.04   0.03   0.05     0.06   0.13   0.02    -0.02  -0.05   0.04
  42   7     0.01  -0.00   0.04    -0.00  -0.00   0.01    -0.02  -0.00   0.03
  43   6     0.01  -0.01   0.02     0.00   0.01  -0.01    -0.01   0.01   0.02
  44   6     0.01  -0.00  -0.02     0.00   0.01  -0.07    -0.02   0.00   0.03
  45   6     0.01   0.00  -0.03     0.00   0.02  -0.09    -0.02   0.00   0.03
  46   6     0.01  -0.00   0.00     0.00   0.01  -0.04    -0.02   0.01   0.02
  47   6     0.01  -0.00  -0.00    -0.00  -0.00  -0.01    -0.02   0.01   0.01
  48   6     0.01   0.00   0.01    -0.04   0.01   0.01    -0.01   0.00  -0.00
  49   6     0.01  -0.01   0.00     0.04  -0.02   0.01    -0.03   0.01  -0.00
  50   6     0.01  -0.00  -0.01     0.00  -0.01   0.00    -0.02   0.01   0.00
  51   6     0.01  -0.01   0.04     0.00  -0.00   0.02    -0.02   0.01   0.00
  52   6     0.01  -0.01   0.04     0.00  -0.00   0.03    -0.02   0.01   0.01
  53   1    -0.02   0.02   0.02     0.03   0.10  -0.07    -0.03  -0.01   0.04
  54   1    -0.03   0.04   0.03     0.06   0.12   0.01    -0.04   0.00   0.02
  55   1    -0.03   0.02   0.05     0.05   0.09   0.03    -0.04  -0.00   0.03
  56   1    -0.06  -0.07   0.01    -0.04  -0.09   0.01     0.01   0.08   0.01
  57   1    -0.05  -0.07   0.00    -0.06  -0.12   0.01     0.02   0.07  -0.00
  58   1     0.02   0.06   0.03     0.03   0.05  -0.00    -0.03  -0.04   0.03
  59   1     0.04   0.01  -0.02    -0.02  -0.00  -0.01    -0.03  -0.00  -0.05
  60   1     0.04  -0.02  -0.08    -0.02   0.01   0.00    -0.04   0.02  -0.10
  61   1     0.02  -0.03  -0.06    -0.02   0.01   0.01    -0.08  -0.01  -0.04
  62   1    -0.00   0.03   0.03    -0.01  -0.02  -0.01    -0.06  -0.07   0.01
  63   1    -0.00   0.08   0.10     0.00  -0.04  -0.03     0.00  -0.06   0.05
  64   1     0.02   0.05   0.05     0.00  -0.02  -0.01     0.05  -0.00   0.04
  65   1     0.04  -0.01  -0.05    -0.01   0.01   0.02     0.04   0.04  -0.02
  66   1     0.00  -0.03  -0.04    -0.00   0.01   0.01    -0.01   0.03  -0.03
  67   1    -0.03   0.01  -0.04     0.02  -0.01  -0.01     0.03  -0.01  -0.07
  68   1    -0.03   0.03  -0.07     0.02  -0.01  -0.01     0.04  -0.03  -0.09
  69   1    -0.05   0.03  -0.06     0.03  -0.00   0.00     0.06   0.01  -0.03
  70   1    -0.03  -0.03  -0.01     0.02   0.04  -0.01     0.04   0.08  -0.03
  71   1     0.01  -0.09   0.06    -0.01   0.04  -0.01    -0.01   0.08  -0.00
  72   1     0.02  -0.06   0.05    -0.02   0.01   0.01    -0.04   0.00   0.04
  73   1    -0.00   0.01  -0.01    -0.01  -0.02   0.01    -0.02  -0.06   0.03
  74   1    -0.01   0.04   0.01     0.01  -0.02  -0.01     0.02  -0.03   0.01
  75   1     0.01   0.00   0.03    -0.05  -0.08  -0.01    -0.00  -0.03   0.03
  76   1    -0.01  -0.04   0.03    -0.08  -0.08   0.04     0.06   0.02   0.01
  77   1     0.02  -0.05   0.01    -0.03  -0.09  -0.03     0.06   0.02   0.04
  78   1     0.00  -0.06   0.02    -0.04  -0.10  -0.03     0.04   0.02   0.05
  79   1     0.01  -0.02   0.01     0.06   0.14   0.02     0.03   0.01   0.01
  80   1     0.01   0.00   0.00     0.08   0.16   0.02     0.01  -0.01   0.00
  81   1     0.00  -0.00  -0.01     0.00   0.01  -0.03    -0.01   0.00   0.01
  82   1     0.00   0.00  -0.02     0.00   0.01  -0.04    -0.01   0.00   0.01
  83   1    -0.00   0.00   0.00    -0.02   0.01   0.00    -0.00   0.00   0.00
  84   1     0.00  -0.00   0.00    -0.01   0.00   0.01    -0.00   0.00  -0.00
  85   1     0.00   0.00   0.00    -0.02   0.01  -0.00    -0.00  -0.00   0.00
  86   1     0.00  -0.01  -0.00     0.02  -0.01  -0.00    -0.01   0.00   0.00
  87   1     0.00  -0.00   0.00     0.01  -0.01   0.01    -0.01   0.00  -0.00
  88   1     0.01  -0.01   0.00     0.01  -0.01   0.00    -0.01   0.00   0.00
  89   1     0.01  -0.00  -0.00    -0.00  -0.00   0.00    -0.00   0.00   0.00
  90   1    -0.00   0.00  -0.00     0.00  -0.00   0.00    -0.01   0.00   0.00
  91   1     0.00  -0.00  -0.00    -0.00  -0.00   0.00    -0.01   0.00  -0.00
  92   1     0.00  -0.00   0.02     0.00  -0.00   0.02    -0.00   0.00  -0.00
  93   1     0.00  -0.00   0.02     0.00  -0.00   0.02    -0.00   0.00   0.00
                     19                     20                     21
                        a                      a                      a 
 Frequencies --   102.3819               114.2239               123.3584
 Red. masses --     9.7627                10.8836                10.1550
 Frc consts  --     0.0000                 0.0000                 0.0000
 IR Inten    --     0.0352                 0.9391                 1.2914
 Raman Activ --     0.0000                 0.0000                 0.0000
 Depolar     --     0.0000                 0.0000                 0.0000
 Atom AN      X      Y      Z        X      Y      Z        X      Y      Z
   1   6     0.12  -0.07   0.04     0.13  -0.03  -0.01     0.01   0.02   0.01
   2   6     0.08  -0.04   0.06     0.09  -0.05   0.01     0.00  -0.00   0.01
   3   6     0.09  -0.02   0.09     0.05  -0.12   0.03     0.05   0.10   0.01
   4   6     0.06  -0.01   0.11     0.02  -0.10   0.04     0.03   0.07   0.01
   5   6     0.02  -0.01   0.09     0.04  -0.03   0.03    -0.01  -0.03   0.01
   6   6     0.02  -0.01   0.06     0.04   0.00   0.02    -0.03  -0.07   0.02
   7   6     0.05  -0.03   0.04     0.09   0.00  -0.00    -0.04  -0.09   0.02
   8   6     0.00  -0.00   0.04    -0.01   0.02   0.01    -0.00  -0.00   0.01
   9   6     0.00  -0.00   0.02    -0.05   0.07  -0.01    -0.01   0.01   0.07
  10   6     0.01  -0.00   0.01    -0.14   0.09  -0.05    -0.02   0.01   0.29
  11   6     0.01  -0.01  -0.01    -0.16   0.14  -0.04    -0.02   0.02   0.23
  12   6     0.01  -0.01  -0.02    -0.14   0.17  -0.00    -0.03   0.02  -0.11
  13   6     0.01  -0.01  -0.02    -0.15   0.15   0.04    -0.03   0.01  -0.12
  14   6     0.00  -0.01  -0.01    -0.21   0.06   0.03    -0.10  -0.00  -0.04
  15   6     0.00   0.00   0.01    -0.16  -0.11  -0.02    -0.10  -0.01   0.07
  16   6     0.00   0.01   0.02    -0.06  -0.17  -0.06    -0.03  -0.02   0.08
  17   6     0.01   0.00   0.01    -0.01  -0.04  -0.00     0.04  -0.04  -0.01
  18   6     0.01  -0.00  -0.01    -0.06   0.13   0.05     0.03  -0.01  -0.11
  19   6     0.00  -0.01  -0.01    -0.08   0.15  -0.00    -0.01   0.02  -0.29
  20   6     0.00  -0.00   0.01    -0.05   0.08  -0.01    -0.01   0.01  -0.12
  21   6     0.00  -0.00   0.01    -0.06   0.08  -0.00     0.01   0.01  -0.01
  22   8     0.01  -0.00   0.02    -0.06   0.10  -0.01     0.02   0.02   0.02
  23   6     0.00  -0.00   0.00    -0.06   0.05   0.01     0.01  -0.01   0.10
  24   6     0.00  -0.00  -0.03    -0.09   0.06   0.01     0.01  -0.01   0.32
  25   6     0.01  -0.00  -0.03    -0.11   0.08   0.00     0.00  -0.00   0.18
  26   6     0.00  -0.00   0.00    -0.11   0.08   0.00     0.02   0.02  -0.17
  27   6     0.00  -0.00   0.00    -0.11   0.07  -0.02     0.01   0.04  -0.20
  28   6     0.00   0.00  -0.00    -0.15   0.02  -0.02     0.08   0.05  -0.11
  29   6     0.00   0.01  -0.01    -0.12  -0.07   0.01     0.09   0.01   0.08
  30   6     0.00   0.01  -0.00    -0.07  -0.10   0.04     0.04  -0.01   0.16
  31   6     0.00  -0.00   0.01    -0.04  -0.03   0.00    -0.04   0.02   0.01
  32   6     0.00  -0.01   0.01    -0.07   0.06  -0.03    -0.05   0.05  -0.17
  33   6     0.01  -0.00   0.03    -0.08   0.08   0.02     0.01   0.01  -0.29
  34   6     0.00  -0.00   0.03    -0.06   0.04   0.02     0.02   0.00  -0.09
  35   6    -0.02   0.01   0.06     0.03  -0.01  -0.01     0.03   0.05   0.02
  36   6    -0.05   0.04   0.04     0.07  -0.03   0.02     0.03   0.05   0.02
  37   6    -0.09   0.03   0.06     0.09  -0.05   0.00     0.01   0.01   0.01
  38   6    -0.12   0.10   0.04     0.15  -0.01   0.03    -0.05  -0.11   0.00
  39   6    -0.12  -0.02   0.09     0.05  -0.11  -0.02     0.02   0.03   0.02
  40   6    -0.09  -0.05   0.11     0.03  -0.09  -0.03     0.03   0.04   0.02
  41   6    -0.04  -0.03   0.09     0.04  -0.03  -0.01     0.02   0.02   0.01
  42   7    -0.01  -0.02   0.11     0.09  -0.02   0.01    -0.02  -0.06   0.01
  43   6    -0.01  -0.00   0.01     0.09  -0.03   0.01    -0.02  -0.07  -0.00
  44   6     0.00   0.02  -0.12     0.12  -0.03  -0.01    -0.01  -0.07   0.00
  45   6     0.01   0.04  -0.30     0.12  -0.04  -0.02     0.00  -0.05  -0.00
  46   6     0.01   0.05  -0.33     0.14  -0.05  -0.01    -0.01  -0.04  -0.01
  47   6    -0.00   0.01  -0.10     0.14  -0.05  -0.01     0.01   0.00  -0.00
  48   6    -0.31   0.08   0.01     0.15  -0.05  -0.01     0.03   0.01   0.00
  49   6     0.29  -0.09   0.02     0.17  -0.06   0.00     0.05   0.01   0.00
  50   6    -0.01  -0.02   0.09     0.15  -0.05  -0.00    -0.03   0.04   0.01
  51   6     0.01   0.05  -0.34     0.12  -0.05  -0.00    -0.03  -0.04  -0.03
  52   6     0.00   0.03  -0.17     0.11  -0.05   0.00    -0.03  -0.06  -0.02
  53   1     0.03  -0.02   0.01     0.04  -0.00  -0.01     0.00   0.01  -0.00
  54   1     0.04  -0.03   0.02     0.05  -0.01   0.00     0.00   0.01   0.00
  55   1     0.04  -0.02  -0.00     0.04  -0.01  -0.01     0.00   0.00   0.01
  56   1     0.03  -0.00   0.03     0.01  -0.05   0.01     0.03   0.06   0.00
  57   1     0.02   0.00   0.04     0.00  -0.04   0.02     0.02   0.04   0.00
  58   1     0.01  -0.01   0.00     0.03   0.01  -0.01    -0.02  -0.04   0.01
  59   1     0.00  -0.00   0.01    -0.05   0.01  -0.02    -0.01   0.00   0.14
  60   1     0.00  -0.00  -0.01    -0.05   0.04  -0.02    -0.00   0.01   0.12
  61   1     0.00  -0.00  -0.01    -0.08   0.03   0.01    -0.05   0.00  -0.02
  62   1    -0.00   0.00   0.00    -0.06  -0.06  -0.01    -0.04  -0.00   0.04
  63   1     0.00   0.01   0.01    -0.00  -0.09  -0.04    -0.01  -0.01   0.05
  64   1     0.00   0.00   0.00     0.02  -0.02  -0.00     0.03  -0.01  -0.00
  65   1     0.01  -0.00  -0.01    -0.01   0.06   0.02     0.02  -0.00  -0.04
  66   1     0.00  -0.00  -0.00    -0.01   0.06   0.00    -0.00   0.01  -0.14
  67   1     0.00  -0.00  -0.02    -0.03   0.01   0.00     0.00  -0.00   0.16
  68   1     0.00  -0.00  -0.02    -0.03   0.02  -0.00    -0.01   0.00   0.10
  69   1     0.00   0.00  -0.00    -0.06   0.01  -0.01     0.04   0.02  -0.05
  70   1     0.00   0.00  -0.00    -0.04  -0.03   0.01     0.04  -0.00   0.05
  71   1    -0.00   0.00  -0.00    -0.01  -0.05   0.02     0.02  -0.02   0.09
  72   1     0.00  -0.00   0.00     0.00  -0.01   0.00    -0.03   0.00   0.01
  73   1     0.00  -0.00   0.00    -0.01   0.03  -0.01    -0.03   0.02  -0.07
  74   1     0.00  -0.00   0.02    -0.02   0.03   0.01     0.00   0.00  -0.14
  75   1    -0.01   0.02   0.00     0.02  -0.00   0.01     0.01   0.02   0.01
  76   1    -0.03   0.03   0.01     0.05   0.00  -0.01    -0.03  -0.03   0.02
  77   1    -0.05   0.03   0.02     0.05   0.00   0.01    -0.01  -0.04  -0.01
  78   1    -0.03   0.04   0.00     0.04  -0.00   0.02    -0.01  -0.05  -0.01
  79   1    -0.05  -0.01   0.03     0.01  -0.04  -0.01     0.01   0.01   0.00
  80   1    -0.03  -0.02   0.04     0.00  -0.04  -0.02     0.01   0.01   0.00
  81   1    -0.00   0.00  -0.02     0.04  -0.01  -0.00     0.00  -0.02   0.00
  82   1     0.00   0.01  -0.11     0.03  -0.01  -0.01     0.00  -0.01  -0.00
  83   1    -0.06   0.01  -0.05     0.04  -0.02  -0.00     0.02  -0.01  -0.00
  84   1    -0.09   0.04   0.11     0.04  -0.02  -0.00     0.01   0.02   0.01
  85   1    -0.20   0.03  -0.02     0.04  -0.02  -0.00    -0.00   0.00  -0.00
  86   1     0.19  -0.03  -0.02     0.06  -0.02  -0.00     0.01   0.00  -0.00
  87   1     0.07  -0.08   0.10     0.05  -0.02   0.01     0.02   0.01   0.01
  88   1     0.06   0.00  -0.04     0.05  -0.02  -0.00     0.02  -0.00  -0.00
  89   1    -0.06   0.01   0.01     0.04  -0.02  -0.00    -0.02   0.01   0.00
  90   1     0.06  -0.01   0.02     0.04  -0.02   0.00    -0.01   0.01   0.00
  91   1    -0.01  -0.01   0.09     0.04  -0.02   0.00    -0.00   0.02   0.01
  92   1     0.00   0.02  -0.13     0.03  -0.01   0.00    -0.01  -0.01  -0.01
  93   1     0.00   0.01  -0.05     0.04  -0.01   0.00    -0.01  -0.02  -0.01
                     22                     23                     24
                        a                      a                      a 
 Frequencies --   125.0827               136.1301               139.6031
 Red. masses --    10.2545                10.1449                11.4152
 Frc consts  --     0.0000                 0.0000                 0.0000
 IR Inten    --     2.4416                 0.7588                 3.2564
 Raman Activ --     0.0000                 0.0000                 0.0000
 Depolar     --     0.0000                 0.0000                 0.0000
 Atom AN      X      Y      Z        X      Y      Z        X      Y      Z
   1   6     0.12   0.20  -0.03    -0.29   0.17   0.12    -0.12   0.07   0.09
   2   6    -0.01  -0.04  -0.01    -0.16   0.08   0.04    -0.06   0.03   0.05
   3   6    -0.10  -0.21   0.01    -0.16   0.07  -0.03    -0.05   0.05   0.02
   4   6    -0.09  -0.19   0.01    -0.09   0.04  -0.07    -0.02   0.03   0.00
   5   6    -0.02  -0.02  -0.00     0.01   0.00  -0.00     0.00  -0.01   0.03
   6   6    -0.03  -0.04  -0.01     0.00  -0.01   0.03    -0.00  -0.02   0.04
   7   6    -0.02  -0.03  -0.01    -0.08   0.03   0.08    -0.04  -0.01   0.07
   8   6    -0.01  -0.02  -0.01    -0.00  -0.01  -0.01     0.00  -0.02   0.02
   9   6    -0.01  -0.02   0.01    -0.01  -0.01   0.01     0.00  -0.02  -0.02
  10   6    -0.01  -0.02   0.08    -0.01  -0.01   0.06    -0.00  -0.02  -0.30
  11   6    -0.01  -0.02   0.07    -0.01  -0.01   0.06    -0.01  -0.02  -0.28
  12   6    -0.02  -0.02  -0.03    -0.01  -0.02  -0.02     0.01  -0.01   0.08
  13   6    -0.02  -0.02  -0.03    -0.01  -0.02  -0.03    -0.00   0.01   0.10
  14   6    -0.03  -0.02  -0.01    -0.02  -0.02  -0.01     0.05   0.01   0.05
  15   6    -0.04  -0.00   0.02    -0.03  -0.00   0.01     0.06  -0.01  -0.05
  16   6    -0.03  -0.00   0.03    -0.02   0.00   0.02     0.02  -0.01  -0.07
  17   6    -0.02  -0.02  -0.00    -0.01  -0.01  -0.00    -0.04   0.02   0.02
  18   6    -0.01  -0.03  -0.03    -0.01  -0.02  -0.03    -0.04   0.03   0.10
  19   6    -0.01  -0.02  -0.08    -0.01  -0.01  -0.06     0.01  -0.01   0.27
  20   6    -0.01  -0.02  -0.04    -0.01  -0.01  -0.02     0.01  -0.02   0.13
  21   6     0.01  -0.03  -0.00    -0.00  -0.01   0.01     0.02  -0.02  -0.04
  22   8     0.02  -0.02   0.02    -0.00  -0.01   0.09     0.02  -0.02  -0.47
  23   6     0.01  -0.03   0.02     0.00  -0.01  -0.02     0.02  -0.03   0.12
  24   6     0.03  -0.03   0.08     0.01  -0.01  -0.05     0.01  -0.03   0.26
  25   6     0.04  -0.05   0.05     0.02  -0.02  -0.03     0.00  -0.02   0.14
  26   6     0.03  -0.05  -0.05     0.02  -0.03   0.02     0.01  -0.01  -0.14
  27   6     0.03  -0.04  -0.04     0.02  -0.04   0.04    -0.00   0.03  -0.18
  28   6     0.07  -0.01  -0.01     0.02  -0.03   0.03     0.06   0.05  -0.12
  29   6     0.06   0.03   0.02     0.01   0.01  -0.01     0.07   0.02   0.05
  30   6     0.01   0.04   0.02    -0.00   0.03  -0.04     0.03  -0.02   0.14
  31   6    -0.02   0.01  -0.00     0.00   0.00  -0.00    -0.05   0.01   0.01
  32   6    -0.01  -0.03  -0.03     0.01  -0.03   0.04    -0.05   0.03  -0.15
  33   6     0.02  -0.04  -0.09     0.00  -0.03   0.02     0.02  -0.01  -0.19
  34   6     0.01  -0.03  -0.04    -0.00  -0.01  -0.01     0.02  -0.02   0.00
  35   6    -0.01  -0.01   0.00     0.01   0.00  -0.04    -0.01  -0.02   0.03
  36   6     0.01   0.01   0.01    -0.07   0.06  -0.10    -0.02  -0.02   0.02
  37   6    -0.00  -0.04  -0.00    -0.17   0.09  -0.05    -0.02   0.00   0.03
  38   6     0.12   0.15   0.03    -0.30   0.19  -0.14    -0.02   0.04   0.03
  39   6    -0.10  -0.23  -0.03    -0.18   0.05   0.01    -0.03  -0.00   0.04
  40   6    -0.09  -0.19  -0.04    -0.10   0.01   0.05    -0.02  -0.01   0.04
  41   6    -0.02  -0.00  -0.00     0.01  -0.00  -0.01    -0.01  -0.01   0.03
  42   7     0.07   0.21   0.00     0.08   0.00  -0.01     0.01  -0.00   0.03
  43   6     0.08   0.25   0.02     0.10  -0.01  -0.01     0.01   0.01   0.03
  44   6     0.02   0.24   0.03     0.13  -0.01   0.01     0.02   0.01   0.02
  45   6    -0.01   0.19   0.03     0.13  -0.03   0.02     0.02   0.01   0.00
  46   6     0.03   0.14   0.03     0.16  -0.06   0.01     0.02   0.00  -0.01
  47   6    -0.04  -0.01   0.00     0.18  -0.07   0.00     0.02  -0.01  -0.01
  48   6    -0.15  -0.04  -0.01     0.21  -0.08  -0.01     0.00  -0.01  -0.00
  49   6    -0.17  -0.04  -0.01     0.19  -0.08   0.01     0.03  -0.02  -0.00
  50   6     0.11  -0.15  -0.02     0.19  -0.07  -0.00     0.03  -0.02   0.00
  51   6     0.09   0.16   0.03     0.14  -0.05  -0.01     0.02   0.00  -0.01
  52   6     0.11   0.22   0.03     0.14  -0.04  -0.02     0.02   0.00   0.01
  53   1     0.03   0.08  -0.07    -0.08   0.04   0.03    -0.03   0.02   0.03
  54   1     0.06   0.09   0.01    -0.11   0.09   0.01    -0.05   0.03   0.02
  55   1     0.05   0.07   0.02    -0.10   0.04   0.08    -0.04   0.02   0.05
  56   1    -0.04  -0.09   0.01    -0.06   0.03  -0.02    -0.02   0.02   0.00
  57   1    -0.04  -0.08   0.01    -0.02   0.01  -0.04    -0.00   0.01  -0.01
  58   1     0.00   0.01  -0.01    -0.02   0.01   0.05    -0.01  -0.00   0.03
  59   1    -0.00  -0.01   0.04    -0.00  -0.00   0.03    -0.00  -0.01  -0.15
  60   1    -0.00  -0.01   0.04    -0.00  -0.00   0.03    -0.01  -0.00  -0.15
  61   1    -0.01  -0.01  -0.01    -0.01  -0.01  -0.01     0.03   0.00   0.02
  62   1    -0.01   0.00   0.01    -0.01   0.00   0.01     0.03  -0.01  -0.03
  63   1    -0.01   0.00   0.02    -0.01   0.00   0.01     0.01  -0.01  -0.04
  64   1    -0.00  -0.01  -0.00    -0.00  -0.00   0.00    -0.02   0.01   0.00
  65   1    -0.00  -0.01  -0.01    -0.00  -0.01  -0.01    -0.02   0.01   0.04
  66   1    -0.00  -0.00  -0.04    -0.00  -0.00  -0.03     0.00  -0.00   0.13
  67   1     0.01  -0.01   0.04     0.01  -0.00  -0.02     0.00  -0.01   0.12
  68   1     0.01  -0.01   0.03     0.01  -0.01  -0.01    -0.01  -0.01   0.07
  69   1     0.03  -0.01  -0.00     0.01  -0.01   0.01     0.03   0.02  -0.05
  70   1     0.03   0.01   0.01     0.00   0.01  -0.01     0.04   0.00   0.04
  71   1     0.00   0.02   0.01    -0.00   0.02  -0.02     0.01  -0.02   0.09
  72   1    -0.02   0.01   0.00    -0.00   0.00  -0.00    -0.03  -0.00   0.02
  73   1    -0.01  -0.01  -0.01     0.00  -0.01   0.02    -0.03   0.01  -0.06
  74   1     0.00  -0.02  -0.04    -0.00  -0.01   0.01     0.01  -0.00  -0.10
  75   1     0.01   0.02   0.01    -0.02   0.03  -0.06    -0.01  -0.01   0.00
  76   1     0.07   0.05  -0.03    -0.08   0.05  -0.04     0.00   0.01   0.00
  77   1     0.03   0.06   0.03    -0.14   0.06  -0.02    -0.01   0.01   0.01
  78   1     0.03   0.07   0.03    -0.08   0.09  -0.08    -0.00   0.02   0.01
  79   1    -0.05  -0.11  -0.02    -0.07   0.01   0.01    -0.01  -0.00   0.01
  80   1    -0.04  -0.08  -0.02    -0.03  -0.00   0.04    -0.01  -0.00   0.01
  81   1    -0.00   0.08   0.01     0.04  -0.01   0.00     0.00   0.00   0.01
  82   1    -0.02   0.05   0.01     0.03  -0.01   0.01     0.00   0.00  -0.00
  83   1    -0.08   0.01   0.00     0.06  -0.02   0.00     0.00  -0.00  -0.01
  84   1    -0.06  -0.05  -0.01     0.06  -0.03  -0.02     0.00   0.00   0.01
  85   1    -0.01  -0.01  -0.00     0.08  -0.03   0.00    -0.01  -0.00  -0.00
  86   1    -0.03  -0.00  -0.00     0.06  -0.02   0.00     0.02  -0.00  -0.00
  87   1    -0.06  -0.05  -0.02     0.05  -0.03   0.01     0.01  -0.02   0.01
  88   1    -0.08   0.01  -0.00     0.05  -0.02   0.00     0.00   0.00  -0.01
  89   1     0.05  -0.04  -0.00     0.06  -0.02  -0.00     0.01  -0.00  -0.00
  90   1     0.05  -0.04  -0.00     0.06  -0.02  -0.00     0.01  -0.01   0.00
  91   1     0.01  -0.08  -0.01     0.05  -0.03   0.00     0.01  -0.01   0.00
  92   1     0.04   0.03   0.01     0.04  -0.01  -0.01     0.01   0.00  -0.01
  93   1     0.04   0.07   0.01     0.05  -0.01  -0.01     0.01   0.00   0.00
                     25                     26                     27
                        a                      a                      a 
 Frequencies --   174.1039               178.0454               181.4062
 Red. masses --     2.4448                10.2793                11.0269
 Frc consts  --     0.0000                 0.0000                 0.0000
 IR Inten    --     0.3444                 0.9033                 1.5119
 Raman Activ --     0.0000                 0.0000                 0.0000
 Depolar     --     0.0000                 0.0000                 0.0000
 Atom AN      X      Y      Z        X      Y      Z        X      Y      Z
   1   6     0.04  -0.03   0.00     0.09   0.12  -0.01     0.02  -0.07  -0.02
   2   6     0.02  -0.01   0.02    -0.04  -0.10   0.02     0.03   0.04  -0.00
   3   6     0.02  -0.01   0.03     0.03   0.04   0.02    -0.00  -0.04   0.01
   4   6     0.01  -0.00   0.03    -0.00   0.01   0.02    -0.00  -0.00   0.02
   5   6    -0.00  -0.00   0.02    -0.04  -0.05   0.02     0.01   0.05   0.01
   6   6     0.00   0.00   0.02    -0.09  -0.15   0.02     0.02   0.10  -0.00
   7   6     0.01   0.01   0.01    -0.14  -0.28   0.02     0.06   0.14  -0.02
   8   6     0.00  -0.01   0.02    -0.03   0.03  -0.01    -0.01   0.07   0.00
   9   6     0.00  -0.00   0.02    -0.02   0.05   0.09    -0.02  -0.00   0.02
  10   6    -0.00  -0.00   0.01     0.01   0.04  -0.02    -0.04  -0.01  -0.03
  11   6    -0.00   0.00  -0.00     0.02   0.02  -0.11    -0.04  -0.05  -0.03
  12   6    -0.00   0.00  -0.00     0.02   0.01  -0.01    -0.11  -0.12   0.03
  13   6    -0.00   0.00  -0.01     0.03  -0.02  -0.06    -0.14  -0.19  -0.03
  14   6    -0.00   0.00  -0.01     0.03  -0.02  -0.06    -0.14  -0.21  -0.06
  15   6    -0.00  -0.00   0.00     0.03   0.00  -0.01    -0.19  -0.09  -0.01
  16   6     0.00  -0.00   0.00     0.03   0.04   0.05    -0.29   0.00   0.07
  17   6     0.01   0.00   0.00     0.05   0.02   0.01    -0.29  -0.07   0.01
  18   6     0.00   0.00  -0.01     0.05  -0.02  -0.05    -0.24  -0.19  -0.06
  19   6     0.00   0.00   0.01    -0.02   0.02   0.16    -0.08  -0.11   0.10
  20   6     0.00  -0.00   0.02    -0.03   0.05   0.12    -0.07  -0.05   0.07
  21   6     0.01  -0.00   0.01    -0.06   0.06  -0.01    -0.02  -0.03   0.01
  22   8     0.01   0.00  -0.02    -0.08   0.05  -0.05    -0.04  -0.05  -0.04
  23   6     0.01  -0.01   0.03    -0.06   0.05  -0.12    -0.01   0.03  -0.01
  24   6     0.00  -0.01   0.01    -0.01   0.04  -0.05     0.04   0.03  -0.04
  25   6    -0.00   0.00  -0.01     0.01  -0.01   0.07     0.05   0.04  -0.01
  26   6     0.00   0.00  -0.00    -0.02  -0.04   0.01     0.10   0.08   0.01
  27   6    -0.00   0.01  -0.02     0.00  -0.12   0.14     0.13   0.10   0.02
  28   6    -0.00   0.02  -0.02     0.01  -0.14   0.16     0.13   0.11   0.00
  29   6     0.00   0.00   0.00    -0.03  -0.04   0.01     0.15   0.07  -0.01
  30   6     0.00  -0.01   0.02    -0.07   0.07  -0.15     0.21   0.04   0.00
  31   6    -0.00   0.00   0.00    -0.05  -0.01  -0.03     0.22   0.05   0.01
  32   6    -0.01   0.01  -0.02    -0.01  -0.12   0.13     0.20   0.09   0.01
  33   6     0.01   0.00   0.03    -0.07  -0.02  -0.20     0.04   0.08   0.00
  34   6     0.01  -0.01   0.04    -0.08   0.03  -0.19     0.03   0.07  -0.00
  35   6    -0.01  -0.02   0.02     0.08   0.22   0.03     0.03   0.11   0.01
  36   6    -0.02  -0.02   0.01     0.18   0.34   0.06     0.08   0.15   0.02
  37   6    -0.03  -0.00   0.02     0.08   0.10   0.03     0.04   0.04   0.00
  38   6    -0.04   0.04   0.00    -0.02  -0.19   0.03     0.01  -0.08   0.01
  39   6    -0.02   0.01   0.03    -0.01  -0.07  -0.01    -0.01  -0.04  -0.02
  40   6    -0.01  -0.00   0.03    -0.01  -0.01  -0.02    -0.00  -0.00  -0.02
  41   6    -0.00  -0.02   0.02     0.02   0.10   0.01     0.01   0.06  -0.00
  42   7    -0.00  -0.01   0.02    -0.00   0.01   0.01     0.00   0.03  -0.00
  43   6    -0.00   0.00  -0.05     0.00  -0.00   0.00    -0.00  -0.01  -0.00
  44   6     0.00   0.01  -0.13     0.01  -0.01  -0.00    -0.00  -0.01  -0.00
  45   6     0.00   0.01  -0.12     0.01  -0.01  -0.00    -0.00  -0.02  -0.01
  46   6    -0.00   0.00  -0.01     0.02  -0.02  -0.01     0.01  -0.03  -0.00
  47   6    -0.01  -0.01   0.06     0.02  -0.01   0.00     0.02  -0.01  -0.00
  48   6     0.05  -0.05   0.01     0.05  -0.01  -0.00     0.05  -0.01  -0.00
  49   6    -0.06   0.05   0.02     0.04  -0.01   0.01     0.04  -0.01   0.00
  50   6    -0.01  -0.02   0.13     0.01   0.00   0.01    -0.01   0.02   0.00
  51   6     0.00   0.02  -0.13     0.01  -0.02  -0.03     0.01  -0.03  -0.00
  52   6     0.00   0.02  -0.15     0.01  -0.01  -0.02     0.01  -0.02  -0.00
  53   1     0.01  -0.01   0.00     0.02   0.06  -0.06     0.01  -0.03   0.02
  54   1     0.02  -0.01   0.00     0.05   0.06   0.02     0.01  -0.04  -0.01
  55   1     0.01  -0.01  -0.01     0.05   0.04   0.03     0.00  -0.02  -0.03
  56   1     0.01  -0.00   0.01     0.03   0.05   0.00    -0.01  -0.04   0.01
  57   1     0.00  -0.00   0.01     0.01   0.03   0.01    -0.01  -0.01   0.01
  58   1     0.00   0.00  -0.00    -0.06  -0.11   0.00     0.03   0.05  -0.01
  59   1    -0.00  -0.00   0.00     0.01   0.02  -0.02    -0.01  -0.00  -0.02
  60   1    -0.00   0.00  -0.00     0.01   0.01  -0.07     0.01  -0.02  -0.02
  61   1    -0.00   0.00  -0.00     0.01  -0.01  -0.02    -0.03  -0.07  -0.03
  62   1    -0.00  -0.00   0.00     0.00  -0.00   0.00    -0.04  -0.01  -0.00
  63   1     0.00  -0.00   0.00     0.00   0.02   0.03    -0.09   0.04   0.05
  64   1     0.00   0.00   0.00     0.01   0.01   0.01    -0.09  -0.01   0.01
  65   1     0.00   0.00  -0.00     0.02  -0.01  -0.02    -0.08  -0.08  -0.02
  66   1     0.00   0.00   0.00    -0.01  -0.00   0.06    -0.03  -0.03   0.04
  67   1    -0.00  -0.00   0.00     0.01   0.02  -0.00     0.02   0.02  -0.02
  68   1    -0.00   0.00  -0.01     0.01  -0.00   0.06     0.00   0.01  -0.00
  69   1    -0.00   0.01  -0.01     0.01  -0.05   0.06     0.04   0.03  -0.00
  70   1     0.00   0.00   0.00    -0.01  -0.00  -0.00     0.03   0.01  -0.01
  71   1     0.00  -0.01   0.01    -0.03   0.06  -0.09     0.06   0.00   0.00
  72   1    -0.00  -0.00   0.00    -0.02   0.01  -0.03     0.07   0.01   0.01
  73   1    -0.00   0.01  -0.01     0.00  -0.05   0.06     0.07   0.04   0.00
  74   1     0.00   0.00   0.01    -0.03  -0.02  -0.08     0.01   0.02   0.00
  75   1    -0.01  -0.01  -0.00     0.07   0.14   0.03     0.03   0.06   0.01
  76   1    -0.01   0.01  -0.00    -0.05  -0.06   0.06    -0.02  -0.02   0.02
  77   1    -0.02   0.01   0.01     0.02  -0.08  -0.03     0.01  -0.03  -0.01
  78   1    -0.01   0.02  -0.01    -0.01  -0.09  -0.00     0.00  -0.04  -0.00
  79   1    -0.01   0.01   0.01    -0.03  -0.08  -0.01    -0.01  -0.04  -0.01
  80   1    -0.00   0.00   0.01    -0.02  -0.04  -0.02    -0.01  -0.01  -0.01
  81   1     0.00   0.01  -0.05     0.00  -0.00   0.00    -0.00  -0.00  -0.00
  82   1     0.00   0.01  -0.06    -0.00  -0.00   0.00    -0.00  -0.01  -0.00
  83   1    -0.23   0.16   0.20    -0.00   0.01   0.02     0.02  -0.01   0.00
  84   1    -0.08  -0.27  -0.24     0.01  -0.02  -0.02     0.02   0.00  -0.00
  85   1     0.37   0.07   0.04     0.04   0.00   0.00     0.01  -0.00   0.00
  86   1    -0.38  -0.07  -0.01    -0.02  -0.01  -0.00     0.01  -0.00  -0.00
  87   1     0.09   0.33  -0.15     0.02   0.03  -0.01     0.02   0.01   0.00
  88   1     0.22  -0.21   0.17     0.03  -0.02   0.01     0.02  -0.01   0.00
  89   1    -0.08   0.07  -0.01    -0.01   0.01  -0.00    -0.01   0.00   0.00
  90   1     0.08  -0.06  -0.02     0.01  -0.01  -0.00    -0.01   0.00   0.00
  91   1    -0.01  -0.02   0.16     0.00   0.00   0.02     0.00   0.01   0.00
  92   1     0.00   0.01  -0.06     0.00  -0.00  -0.01     0.00  -0.01  -0.00
  93   1     0.00   0.01  -0.06     0.01  -0.00  -0.01     0.01  -0.00  -0.00
                     28                     29                     30
                        a                      a                      a 
 Frequencies --   193.9737               197.9805               209.1142
 Red. masses --    10.5307                10.6016                 9.7488
 Frc consts  --     0.0000                 0.0000                 0.0000
 IR Inten    --     0.0576                 1.1237                 0.1292
 Raman Activ --     0.0000                 0.0000                 0.0000
 Depolar     --     0.0000                 0.0000                 0.0000
 Atom AN      X      Y      Z        X      Y      Z        X      Y      Z
   1   6     0.02  -0.18  -0.04     0.17   0.04  -0.13    -0.01   0.09   0.04
   2   6     0.07   0.12  -0.02    -0.04  -0.11  -0.04    -0.04  -0.06   0.04
   3   6    -0.02  -0.06   0.02     0.01  -0.00  -0.01    -0.04  -0.05   0.04
   4   6    -0.02   0.00   0.03    -0.03   0.01   0.01    -0.01   0.01   0.04
   5   6    -0.00   0.11   0.01    -0.07   0.01  -0.01     0.02   0.07   0.03
   6   6     0.04   0.21  -0.01    -0.12  -0.07  -0.02    -0.02  -0.01   0.02
   7   6     0.15   0.36  -0.05    -0.15  -0.23  -0.04    -0.06  -0.10   0.03
   8   6    -0.05   0.06   0.01    -0.05   0.01   0.01    -0.04   0.03  -0.02
[...]
  41   6    -0.00   0.00   0.00     0.00  -0.00  -0.00     0.00   0.00  -0.00
  42   7     0.00   0.00   0.00    -0.00   0.00   0.00    -0.00  -0.00   0.00
  43   6    -0.00   0.00  -0.00     0.00  -0.00  -0.00     0.00  -0.00  -0.00
  44   6    -0.00  -0.00  -0.00     0.00   0.00   0.00     0.00   0.00   0.00
  45   6     0.00  -0.00  -0.00     0.00  -0.00  -0.00    -0.00   0.00   0.00
  46   6    -0.00  -0.00  -0.00     0.00  -0.00   0.00    -0.00  -0.00  -0.00
  47   6    -0.00  -0.00  -0.00     0.00  -0.00   0.00     0.00  -0.00  -0.00
  48   6    -0.00  -0.00  -0.00     0.00  -0.00   0.00     0.00  -0.00   0.00
  49   6    -0.00  -0.00   0.00     0.00  -0.00  -0.00     0.00  -0.00  -0.00
  50   6    -0.00  -0.00   0.00     0.00  -0.00   0.00     0.00  -0.00  -0.00
  51   6    -0.00  -0.00  -0.00     0.00   0.00   0.00    -0.00  -0.00  -0.00
  52   6    -0.00   0.01   0.00     0.00  -0.01  -0.00     0.00  -0.00  -0.00
  53   1     0.00   0.00   0.00     0.00   0.01   0.00     0.00   0.00   0.00
  54   1     0.01  -0.00  -0.01     0.01  -0.00  -0.01     0.00   0.00  -0.00
  55   1     0.01  -0.02   0.00     0.01  -0.02   0.00     0.00  -0.00   0.00
  56   1    -0.02   0.01   0.03    -0.03   0.01   0.05    -0.00   0.00   0.00
  57   1     0.01  -0.00   0.00     0.02  -0.01   0.00     0.01  -0.00   0.00
  58   1     0.57  -0.29   0.00     0.59  -0.30   0.00     0.04  -0.02   0.00
  59   1     0.01  -0.01  -0.00    -0.06   0.05   0.00    -0.01   0.01   0.00
  60   1    -0.02  -0.07  -0.00     0.07   0.36   0.01     0.01   0.04   0.00
  61   1    -0.01  -0.03   0.02     0.03   0.08  -0.06    -0.14  -0.38   0.29
  62   1     0.01  -0.00   0.01    -0.04   0.03  -0.03     0.30  -0.22   0.26
  63   1    -0.01  -0.00  -0.00    -0.02  -0.01   0.00     0.46   0.14  -0.00
  64   1    -0.01  -0.01   0.01     0.01   0.02  -0.02     0.07   0.20  -0.15
  65   1     0.01  -0.01   0.01    -0.05   0.04  -0.05    -0.12   0.08  -0.10
  66   1     0.01  -0.01  -0.00     0.02  -0.02  -0.00    -0.08   0.07   0.00
  67   1     0.15  -0.12  -0.00    -0.11   0.09   0.00    -0.25   0.20   0.00
  68   1    -0.00  -0.00   0.00    -0.00  -0.01  -0.00     0.02   0.12  -0.00
  69   1    -0.02  -0.07  -0.05     0.01   0.04   0.03     0.00   0.00   0.00
  70   1     0.10  -0.08  -0.08    -0.07   0.06   0.06     0.00  -0.00  -0.00
  71   1     0.39   0.12  -0.00    -0.31  -0.10   0.00     0.01   0.00  -0.00
  72   1     0.09   0.27   0.17    -0.07  -0.22  -0.13     0.00   0.01   0.01
  73   1    -0.26   0.20   0.20     0.22  -0.17  -0.17    -0.03   0.02   0.02
  74   1     0.10  -0.09   0.00     0.03  -0.03   0.00    -0.01   0.01  -0.00
  75   1    -0.02   0.01   0.00     0.03  -0.01  -0.00     0.02  -0.01  -0.00
  76   1     0.00   0.00   0.00    -0.00  -0.00  -0.00    -0.00  -0.00  -0.00
  77   1     0.00  -0.00   0.00    -0.00   0.00  -0.00    -0.00   0.00  -0.00
  78   1    -0.00   0.00  -0.00     0.00  -0.00   0.00     0.00  -0.00   0.00
  79   1     0.00  -0.00   0.01    -0.01   0.00  -0.01    -0.00   0.00  -0.00
  80   1    -0.01   0.01   0.00     0.01  -0.00  -0.00     0.01  -0.00  -0.00
  81   1     0.00   0.00   0.00    -0.01  -0.01  -0.00    -0.00  -0.00  -0.00
  82   1    -0.00   0.00   0.00    -0.00   0.00   0.00     0.00  -0.00  -0.00
  83   1     0.00   0.00   0.00     0.00   0.00   0.00    -0.00  -0.00  -0.00
  84   1     0.00  -0.00  -0.00    -0.00   0.00  -0.00    -0.00   0.00  -0.00
  85   1    -0.00   0.00   0.00     0.00  -0.00  -0.00     0.00   0.00   0.00
  86   1    -0.00   0.00  -0.00     0.00  -0.00   0.00     0.00  -0.00   0.00
  87   1     0.00  -0.00  -0.00    -0.00   0.00   0.00    -0.00   0.00   0.00
  88   1     0.00   0.00   0.00     0.00   0.00   0.00    -0.00  -0.00  -0.00
  89   1    -0.00   0.00   0.00     0.00  -0.00  -0.00     0.00  -0.00   0.00
  90   1    -0.00   0.00  -0.00     0.00  -0.00   0.00     0.00  -0.00   0.00
  91   1     0.00  -0.00  -0.00    -0.00   0.00   0.00    -0.00   0.00   0.00
  92   1     0.00   0.00   0.00    -0.00  -0.00  -0.00     0.00   0.00   0.00
  93   1     0.00  -0.02  -0.00    -0.01   0.03   0.00    -0.00   0.00   0.00
                    268                    269                    270
                        a                      a                      a 
 Frequencies --  3091.8339              3097.0547              3097.1949
 Red. masses --     1.8729                 1.8280                 1.8637
 Frc consts  --     0.0000                 0.0000                 0.0000
 IR Inten    --    21.8293                 6.2263                19.0392
 Raman Activ --     0.0000                 0.0000                 0.0000
 Depolar     --     0.0000                 0.0000                 0.0000
 Atom AN      X      Y      Z        X      Y      Z        X      Y      Z
   1   6     0.00  -0.00   0.00     0.00   0.00   0.00     0.00  -0.00  -0.00
   2   6     0.00  -0.00   0.00     0.00  -0.00   0.00     0.00  -0.00   0.00
   3   6    -0.00   0.00   0.00    -0.00   0.00   0.00    -0.00   0.00   0.00
   4   6     0.00  -0.00   0.00    -0.00   0.00   0.00    -0.00   0.00   0.00
   5   6     0.00  -0.00   0.00    -0.00   0.00  -0.00    -0.00  -0.00  -0.00
   6   6    -0.00  -0.00  -0.00     0.00  -0.00  -0.00     0.00  -0.00   0.00
   7   6     0.00  -0.00   0.00     0.01  -0.00   0.00     0.00  -0.00  -0.00
   8   6     0.00   0.00   0.00     0.00   0.00   0.00     0.00   0.00   0.00
   9   6    -0.00  -0.00   0.00     0.00  -0.00  -0.00     0.00  -0.00  -0.00
  10   6    -0.00   0.00   0.00     0.00  -0.00  -0.00     0.00  -0.00  -0.00
  11   6     0.00   0.01   0.00     0.00  -0.01  -0.00    -0.00  -0.01  -0.00
  12   6    -0.00  -0.00  -0.00    -0.01  -0.00  -0.00    -0.00  -0.00  -0.00
  13   6    -0.00  -0.00  -0.00     0.00   0.00  -0.00     0.00   0.00  -0.00
  14   6    -0.01  -0.04   0.03     0.01   0.03  -0.03     0.00   0.01  -0.01
  15   6     0.03  -0.02   0.03    -0.01   0.01  -0.01    -0.00   0.00  -0.00
  16   6     0.05   0.02  -0.00    -0.00  -0.00   0.00    -0.00  -0.00   0.00
  17   6     0.01   0.02  -0.02    -0.00   0.00  -0.00    -0.00  -0.00   0.00
  18   6    -0.01   0.01  -0.01    -0.00   0.00  -0.00     0.00  -0.00   0.00
  19   6    -0.02   0.02   0.00    -0.18   0.18   0.01    -0.04   0.04   0.00
  20   6     0.00   0.00   0.00    -0.00   0.01   0.00    -0.00   0.00   0.00
  21   6    -0.00  -0.00  -0.00    -0.00   0.00  -0.00     0.00  -0.00   0.00
  22   8    -0.00   0.00   0.00     0.00  -0.00   0.00     0.00   0.00   0.00
  23   6     0.01   0.00  -0.00    -0.00   0.00   0.00    -0.00  -0.00   0.00
  24   6     0.18  -0.14  -0.00    -0.01   0.01   0.00    -0.00   0.00   0.00
  25   6    -0.02  -0.10   0.00     0.00   0.00  -0.00     0.00   0.00  -0.00
  26   6    -0.00   0.00   0.00     0.00  -0.00  -0.00     0.00   0.00  -0.00
  27   6     0.00   0.00  -0.00    -0.00  -0.00   0.00    -0.00  -0.00  -0.00
  28   6     0.00   0.00   0.00    -0.00  -0.00  -0.00     0.00   0.00   0.00
  29   6    -0.01   0.01   0.01     0.00  -0.00  -0.00    -0.00   0.00   0.00
  30   6    -0.03  -0.01   0.00     0.00   0.00  -0.00     0.00   0.00  -0.00
  31   6    -0.01  -0.03  -0.02     0.00   0.00   0.00     0.00   0.00   0.00
  32   6     0.03  -0.03  -0.03    -0.00   0.00   0.00    -0.00   0.00   0.00
  33   6    -0.00   0.00  -0.00     0.00  -0.00  -0.00    -0.00   0.00  -0.00
  34   6    -0.00   0.00   0.00     0.00  -0.00   0.00     0.00  -0.00   0.00
  35   6    -0.00   0.00   0.00     0.00  -0.00  -0.00     0.00  -0.00  -0.00
  36   6     0.00  -0.00  -0.00     0.01  -0.00   0.00     0.00  -0.00   0.00
  37   6     0.00  -0.00  -0.00     0.00  -0.00  -0.00     0.00  -0.00  -0.00
  38   6     0.00  -0.00  -0.00    -0.00   0.00  -0.00    -0.00   0.00  -0.00
  39   6     0.00  -0.00   0.00    -0.01   0.01  -0.02    -0.01   0.00  -0.01
  40   6     0.01  -0.00  -0.00    -0.05   0.03   0.00    -0.03   0.02   0.00
  41   6     0.00  -0.00  -0.00    -0.00   0.00   0.00    -0.00   0.00   0.00
  42   7     0.00  -0.00   0.00    -0.00   0.00   0.00     0.00  -0.00  -0.00
  43   6    -0.00   0.00   0.00     0.00  -0.00   0.00    -0.00   0.00   0.00
  44   6    -0.00  -0.00  -0.00     0.02   0.02   0.00    -0.10  -0.09  -0.02
  45   6     0.00  -0.00  -0.00    -0.01   0.05   0.01     0.04  -0.23  -0.03
  46   6     0.00  -0.00  -0.00    -0.00   0.00   0.00     0.01  -0.00  -0.00
  47   6    -0.00  -0.00  -0.00     0.00   0.00   0.00    -0.00  -0.00  -0.00
  48   6    -0.00   0.00  -0.00     0.00   0.00   0.00    -0.01  -0.01  -0.00
  49   6    -0.00   0.00   0.00     0.00   0.00   0.00    -0.01  -0.01  -0.00
  50   6    -0.00   0.00   0.00    -0.00   0.00  -0.00     0.00  -0.00  -0.00
  51   6    -0.00  -0.00  -0.00     0.00   0.00   0.00    -0.00  -0.00  -0.00
  52   6    -0.00   0.00   0.00     0.00  -0.00  -0.00     0.00  -0.00   0.00
  53   1    -0.00  -0.00  -0.00    -0.00  -0.00  -0.00     0.00   0.00   0.00
  54   1     0.00  -0.00  -0.00     0.00   0.00  -0.00    -0.00  -0.00   0.00
  55   1    -0.00   0.00   0.00    -0.00   0.00  -0.00    -0.00   0.00  -0.00
  56   1     0.00  -0.00  -0.00     0.00  -0.00  -0.00     0.00  -0.00  -0.00
  57   1    -0.02   0.01  -0.00     0.00  -0.00  -0.00     0.02  -0.01   0.00
  58   1    -0.00   0.00   0.00    -0.02   0.01  -0.00    -0.01   0.00  -0.00
  59   1     0.01  -0.00  -0.00     0.00  -0.00   0.00    -0.00   0.00   0.00
  60   1    -0.01  -0.03  -0.00     0.00   0.02   0.00     0.00   0.02   0.00
  61   1     0.05   0.13  -0.10    -0.04  -0.12   0.09    -0.01  -0.03   0.02
  62   1    -0.11   0.08  -0.10     0.03  -0.02   0.03     0.01  -0.01   0.01
  63   1    -0.18  -0.06   0.00     0.02   0.00  -0.00     0.01   0.00  -0.00
  64   1    -0.03  -0.08   0.06    -0.00  -0.00   0.00     0.00   0.00  -0.00
  65   1     0.05  -0.03   0.04     0.01  -0.01   0.01    -0.00   0.00  -0.00
  66   1     0.06  -0.06  -0.00     0.65  -0.61  -0.02     0.14  -0.13  -0.00
  67   1    -0.62   0.51   0.00     0.02  -0.02  -0.00     0.01  -0.01  -0.00
  68   1     0.06   0.32  -0.00    -0.00  -0.01   0.00    -0.00  -0.01   0.00
  69   1    -0.00  -0.01  -0.01     0.00   0.00   0.00    -0.00  -0.00  -0.00
  70   1     0.03  -0.02  -0.02    -0.00   0.00   0.00     0.00  -0.00  -0.00
  71   1     0.11   0.03  -0.00    -0.00  -0.00   0.00    -0.00  -0.00   0.00
  72   1     0.03   0.09   0.06    -0.00  -0.00  -0.00    -0.00  -0.00  -0.00
  73   1    -0.12   0.09   0.09     0.00  -0.00  -0.00     0.00  -0.00  -0.00
  74   1     0.00  -0.00  -0.00    -0.00   0.00  -0.00     0.00  -0.00   0.00
  75   1    -0.00   0.00  -0.00    -0.02   0.01   0.00    -0.01   0.00   0.00
  76   1     0.00   0.00   0.00    -0.00   0.00  -0.00    -0.00  -0.00  -0.00
  77   1     0.00  -0.00   0.00     0.00  -0.00   0.00    -0.00  -0.00   0.00
  78   1    -0.00   0.00  -0.00     0.00   0.00   0.00     0.00  -0.00   0.00
  79   1    -0.00   0.00  -0.00     0.04  -0.03   0.08     0.02  -0.02   0.04
  80   1    -0.03   0.01   0.00     0.19  -0.10  -0.01     0.11  -0.06  -0.00
  81   1     0.01   0.01   0.00    -0.08  -0.07  -0.01     0.32   0.28   0.05
  82   1    -0.00   0.01   0.00     0.03  -0.19  -0.02    -0.15   0.80   0.10
  83   1     0.00   0.00   0.00    -0.01  -0.01  -0.00     0.04   0.05   0.01
  84   1     0.00  -0.00   0.00     0.00   0.00   0.00    -0.00  -0.00  -0.00
  85   1    -0.00   0.00   0.00     0.00   0.00   0.00    -0.00  -0.00  -0.00
  86   1    -0.00   0.00  -0.00     0.00   0.00  -0.00    -0.00  -0.01   0.00
  87   1     0.00  -0.00  -0.00     0.00   0.00  -0.00    -0.00  -0.00   0.00
  88   1     0.00   0.00   0.00    -0.01  -0.01  -0.00     0.04   0.05   0.01
  89   1    -0.00   0.00   0.00     0.00  -0.00  -0.00    -0.00   0.00   0.01
  90   1    -0.00   0.00  -0.00     0.00  -0.00   0.00     0.00   0.00  -0.00
  91   1     0.00  -0.00  -0.00     0.00  -0.00  -0.00    -0.00   0.00   0.00
  92   1     0.00   0.00   0.00    -0.00  -0.00  -0.00     0.01   0.01   0.00
  93   1     0.00  -0.01  -0.00    -0.00   0.01   0.00    -0.00   0.00   0.00
                    271                    272                    273
                        a                      a                      a 
 Frequencies --  3097.3738              3099.1163              3122.9447
 Red. masses --     1.8585                 1.8555                 1.8377
 Frc consts  --     0.0000                 0.0000                 0.0000
 IR Inten    --    60.7808                46.0485                 8.4814
 Raman Activ --     0.0000                 0.0000                 0.0000
 Depolar     --     0.0000                 0.0000                 0.0000
 Atom AN      X      Y      Z        X      Y      Z        X      Y      Z
   1   6    -0.00   0.00   0.00    -0.00   0.00   0.00    -0.00  -0.00   0.00
   2   6     0.00  -0.00   0.00     0.00  -0.00   0.00    -0.00  -0.00   0.00
   3   6    -0.01   0.00   0.01    -0.05   0.03   0.09     0.00   0.00   0.00
   4   6    -0.04   0.02  -0.00    -0.23   0.11  -0.00     0.00  -0.00  -0.00
   5   6    -0.00   0.00  -0.00    -0.00   0.00  -0.01     0.00  -0.00   0.00
   6   6     0.00  -0.00  -0.00     0.00  -0.00   0.00    -0.00   0.00  -0.00
   7   6     0.00  -0.00   0.00    -0.00   0.00  -0.00     0.00   0.00   0.00
   8   6     0.00  -0.00  -0.00    -0.00   0.00  -0.00    -0.00  -0.00   0.00
   9   6    -0.00  -0.00   0.00     0.00   0.00   0.00    -0.00  -0.00   0.00
  10   6     0.00  -0.00   0.00     0.00  -0.00  -0.00    -0.00   0.00  -0.00
  11   6    -0.00  -0.01  -0.00     0.00   0.00   0.00     0.00   0.00   0.00
  12   6    -0.00  -0.00  -0.00     0.00   0.00   0.00     0.00   0.00   0.00
  13   6     0.00   0.00  -0.00    -0.00  -0.00   0.00     0.00  -0.00  -0.00
  14   6     0.00   0.01  -0.01    -0.00  -0.00   0.00    -0.00  -0.00   0.00
  15   6    -0.00   0.00  -0.00     0.00  -0.00   0.00     0.00  -0.00   0.00
  16   6    -0.00  -0.00   0.00     0.00   0.00  -0.00     0.00   0.00   0.00
  17   6    -0.00  -0.00   0.00     0.00   0.00  -0.00     0.00   0.00  -0.00
  18   6     0.00  -0.00   0.00    -0.00   0.00  -0.00    -0.00   0.00  -0.00
  19   6    -0.05   0.05   0.00     0.01  -0.01  -0.00     0.00  -0.00  -0.00
  20   6    -0.00   0.00   0.00     0.00  -0.00  -0.00    -0.00  -0.00  -0.00
  21   6     0.00  -0.00  -0.00    -0.00   0.00   0.00    -0.00   0.00   0.00
  22   8    -0.00   0.00   0.00     0.00  -0.00   0.00     0.00  -0.00  -0.00
  23   6    -0.00  -0.00  -0.00     0.00   0.00   0.00    -0.00   0.00   0.00
  24   6    -0.01   0.00   0.00     0.00  -0.00  -0.00     0.00  -0.00  -0.00
  25   6     0.00   0.00  -0.00    -0.00  -0.00   0.00    -0.00  -0.00   0.00
  26   6    -0.00  -0.00  -0.00     0.00   0.00  -0.00     0.00   0.00  -0.00
  27   6     0.00   0.00   0.00    -0.00  -0.00  -0.00    -0.00  -0.00  -0.00
  28   6     0.00   0.00   0.00    -0.00  -0.00  -0.00     0.00   0.00   0.00
  29   6     0.00  -0.00  -0.00    -0.00   0.00   0.00    -0.00   0.00   0.00
  30   6     0.00   0.00  -0.00    -0.00  -0.00   0.00    -0.00  -0.00   0.00
  31   6     0.00   0.00   0.00    -0.00  -0.00  -0.00    -0.00   0.00   0.00
  32   6    -0.00   0.00   0.00     0.00   0.00   0.00    -0.00   0.00   0.00
  33   6    -0.00   0.00  -0.00     0.01  -0.00   0.00     0.00  -0.00  -0.00
  34   6     0.00   0.00  -0.00    -0.00  -0.00  -0.00     0.00  -0.00  -0.00
  35   6    -0.00   0.00   0.00     0.00  -0.00  -0.00    -0.00   0.00   0.00
  36   6     0.00  -0.00  -0.00    -0.00   0.00   0.00    -0.00   0.00  -0.00
  37   6    -0.00   0.00   0.00     0.00  -0.00  -0.00    -0.00  -0.00  -0.00
  38   6     0.00  -0.00   0.00    -0.00   0.00  -0.00    -0.00  -0.00  -0.00
  39   6     0.05  -0.04   0.10    -0.01   0.01  -0.02    -0.00   0.00  -0.00
  40   6     0.21  -0.11  -0.01    -0.04   0.02   0.00     0.00  -0.00   0.00
  41   6     0.00  -0.00  -0.01    -0.00   0.00   0.00     0.00  -0.00  -0.00
  42   7     0.00  -0.00  -0.00    -0.00   0.00  -0.00    -0.00   0.00  -0.00
  43   6    -0.00   0.00  -0.00     0.00  -0.00  -0.00     0.00   0.00   0.00
  44   6    -0.01  -0.01  -0.00     0.01   0.01   0.00     0.00   0.00   0.00
  45   6     0.00  -0.02  -0.00    -0.00   0.00   0.00     0.00   0.01   0.00
  46   6     0.00  -0.00   0.00    -0.00  -0.00  -0.00    -0.01   0.00  -0.00
  47   6    -0.00  -0.00   0.00    -0.00   0.00   0.00    -0.00  -0.00  -0.00
  48   6    -0.00  -0.00   0.00     0.00  -0.00   0.00    -0.00  -0.00  -0.00
  49   6    -0.00  -0.00  -0.00     0.00  -0.00   0.00    -0.00  -0.00   0.00
  50   6     0.00  -0.00   0.00     0.00   0.00   0.00     0.00  -0.00  -0.00
  51   6    -0.00  -0.00  -0.00    -0.00  -0.00  -0.00    -0.20  -0.18  -0.03
  52   6    -0.00   0.01   0.00     0.00  -0.01  -0.00     0.01  -0.04  -0.01
  53   1     0.00   0.00   0.00    -0.00   0.00   0.00    -0.00  -0.00   0.00
  54   1    -0.00   0.00  -0.00     0.01  -0.00  -0.01     0.00  -0.00  -0.00
  55   1     0.00  -0.00  -0.00     0.00  -0.00   0.00    -0.00   0.00   0.00
  56   1     0.03  -0.01  -0.05     0.15  -0.09  -0.28     0.00  -0.00  -0.00
  57   1     0.14  -0.07   0.00     0.80  -0.38   0.01    -0.00   0.00   0.00
  58   1    -0.02   0.01  -0.00     0.01  -0.00   0.00    -0.00   0.00   0.00
  59   1     0.00  -0.00  -0.00    -0.00   0.00  -0.00     0.00  -0.00  -0.00
  60   1     0.00   0.02   0.00    -0.00  -0.01  -0.00    -0.00  -0.00  -0.00
  61   1    -0.01  -0.03   0.03     0.00   0.01  -0.00     0.00   0.00  -0.00
  62   1     0.01  -0.01   0.01    -0.01   0.00  -0.01    -0.00   0.00  -0.00
  63   1     0.02   0.01  -0.00    -0.01  -0.00   0.00    -0.00  -0.00  -0.00
  64   1     0.00   0.01  -0.01    -0.00  -0.01   0.01    -0.00  -0.00   0.00
  65   1    -0.00   0.00  -0.00     0.00  -0.00   0.00     0.00  -0.00   0.00
  66   1     0.18  -0.17  -0.01    -0.03   0.03   0.00    -0.00   0.00   0.00
  67   1     0.02  -0.02  -0.00    -0.01   0.01   0.00    -0.00   0.00  -0.00
  68   1    -0.00  -0.01   0.00     0.00   0.01  -0.00     0.00   0.00  -0.00
  69   1    -0.00  -0.00  -0.00     0.00   0.00   0.00    -0.00  -0.00   0.00
  70   1    -0.00   0.00   0.00     0.01  -0.00  -0.00     0.00  -0.00  -0.00
  71   1    -0.01  -0.00   0.00     0.01   0.00  -0.00     0.00   0.00  -0.00
  72   1    -0.00  -0.01  -0.00     0.00   0.00   0.00    -0.00  -0.00  -0.00
  73   1     0.00  -0.00  -0.00     0.00  -0.00  -0.00     0.00  -0.00  -0.00
  74   1     0.02  -0.02   0.00    -0.02   0.02  -0.00    -0.00   0.00   0.00
  75   1    -0.01   0.01   0.00     0.01  -0.01  -0.00     0.00  -0.00  -0.00
  76   1    -0.00  -0.00  -0.00     0.00   0.00   0.00     0.00   0.00   0.00
  77   1    -0.00   0.01  -0.01     0.00  -0.00   0.00     0.00  -0.00   0.00
  78   1    -0.01   0.00  -0.00     0.00  -0.00   0.00     0.00  -0.00  -0.00
  79   1    -0.16   0.12  -0.31     0.03  -0.02   0.05     0.00  -0.00   0.00
  80   1    -0.73   0.38   0.02     0.12  -0.06  -0.00    -0.00   0.00  -0.00
  81   1     0.04   0.03   0.01    -0.03  -0.03  -0.01    -0.00  -0.00  -0.00
  82   1    -0.01   0.06   0.01     0.00  -0.01  -0.00     0.00  -0.02  -0.00
  83   1     0.00   0.00   0.00     0.00   0.00   0.00     0.00   0.00   0.00
  84   1     0.00  -0.00   0.00    -0.00   0.00   0.00     0.00  -0.00  -0.00
  85   1     0.00  -0.00  -0.00     0.00  -0.00  -0.00    -0.00   0.00   0.00
  86   1    -0.00   0.00  -0.00    -0.00   0.00  -0.00    -0.00   0.00  -0.00
  87   1     0.00  -0.00   0.00    -0.00   0.00   0.00     0.00  -0.00   0.00
  88   1     0.00   0.00   0.00    -0.00  -0.00  -0.00     0.00   0.00   0.00
  89   1     0.00  -0.00  -0.00     0.00  -0.00  -0.00    -0.00   0.01   0.01
  90   1    -0.00   0.00  -0.00    -0.00   0.00  -0.00    -0.00   0.01  -0.01
  91   1    -0.00  -0.00   0.00    -0.00   0.00   0.00    -0.00   0.00   0.00
  92   1     0.00   0.00   0.00    -0.00  -0.00   0.00     0.70   0.63   0.12
  93   1     0.01  -0.03  -0.00    -0.00   0.02   0.00    -0.02   0.13   0.02
