89
 energy: -126.927424633716 gnorm: 0.000063686503 xtb: 6.7.1 (edcfbbe)
C           -5.73833802062677       -2.89821472925201       -0.01068130722140
C           -4.40754482517429       -3.44732284238297        0.51097309615984
C           -4.63582960258495       -3.99164231741338        1.92824602546260
C           -3.96182464986144       -4.58461447378324       -0.41911163017387
C           -3.31728045912638       -2.39079437119299        0.55794073265385
C           -2.02508396969229       -2.76015693635075        1.01230403684331
C           -1.01445502524259       -1.85643357297003        1.09249761285291
C           -1.19781878655838       -0.50357813296420        0.70652921222749
C           -0.17086478310804        0.44181536188929        0.79621767996899
C            1.16523112542676        0.03438691598645        1.28204426483950
C            1.59442242268077        0.39585652643052        2.55550375878752
C            2.84591907049320        0.01107516632950        3.00237115456510
C            3.68070430512859       -0.73595881793793        2.19159766126488
C            3.26428563145826       -1.09261815681279        0.91171229666323
N            4.10632760007067       -1.84273618348003        0.08035597537535
C            5.43439927975254       -1.56837575799793       -0.18037672009561
C            6.21347742632206       -0.49658040826994        0.23155405670741
C            7.52490933479311       -0.44810231853146       -0.20047598038531
C            8.05452001291439       -1.43377022822286       -1.03033994980208
C            7.27710346492707       -2.48856107549414       -1.46461861524166
C            5.95552890532934       -2.55873320711855       -1.04417376821540
C            4.88166484511068       -3.47442241394907       -1.30954558222207
C            4.78426696357575       -4.63803123804113       -2.06098529573943
C            3.57719399663072       -5.30693598013452       -2.09123568962349
C            2.48004287023278       -4.83586768761806       -1.37372689959559
C            2.55252040338329       -3.68128613303926       -0.61831521922756
C            3.75700662776903       -2.99251720224667       -0.60077902858273
C            2.00764508836791       -0.70347721227784        0.46143240382856
C           -0.40132781974243        1.77463821191570        0.42733977208934
C            0.62825879912381        2.74429544860585        0.48239247176919
C            0.43819352598536        4.04798507553543        0.11451449412330
C            1.59490346146753        5.03143321964993        0.20453856964218
C            2.08462993141650        5.09386601226024        1.65848926231666
C            2.73257833264161        4.54568217370076       -0.70497418724046
C            1.20637999864654        6.44710610467953       -0.22954842628740
C           -0.84408261975554        4.41959218310031       -0.35292733365594
C           -1.86075505058457        3.51714380109656       -0.43336189599824
C           -1.69135293707834        2.16639180175226       -0.04041459795265
C           -2.72099818753267        1.21806352169250       -0.12844642693055
C           -4.05396997483024        1.62727394812277       -0.61275751684793
C           -4.53796042139529        1.15505583206465       -1.83206174190951
C           -5.78418238733568        1.53084604415936       -2.28865282594952
C           -6.57227172565661        2.39069541975693       -1.52178458320074
C           -7.85067738112339        2.77738374566374       -1.98234692837048
N           -8.88848710078847        3.09123882319109       -2.35585349765144
C           -6.09636378049124        2.86850577301574       -0.29975399416737
C           -4.84683077852300        2.48801702098514        0.14442369089422
C           -2.48978209625356       -0.11521771118325        0.24050900797781
C           -3.52044972381035       -1.09043995843069        0.19619491727508
H           -6.47658512908531       -3.69719282155582       -0.03116986323035
H           -6.11747945528245       -2.10860636460014        0.63420033789919
H           -5.63386103806270       -2.51161617250196       -1.02200654243106
H           -3.73672999738068       -4.45269259805124        2.32775579530784
H           -5.42582766614806       -4.73949553153258        1.91843813939663
H           -4.93184497086866       -3.18574204374628        2.59685414523735
H           -3.77717369150659       -4.20086455161635       -1.42049430171973
H           -3.05149521062279       -5.05839085076063       -0.06242830912339
H           -4.73846572420910       -5.34404988358329       -0.47866353555488
H           -1.83980299204302       -3.77945136516031        1.31549488088604
H           -0.04727673050248       -2.15707599747227        1.46880790616698
H            0.94006847635875        0.97407349659670        3.19102464887916
H            3.17126702360174        0.28739156334863        3.99452928775117
H            4.64755261109359       -1.05812887232049        2.54734249394699
H            5.80834085346866        0.28239064461864        0.85995304108563
H            8.15239204893405        0.37465721981744        0.10940710447769
H            9.08546578113511       -1.36167586479791       -1.34343017085616
H            7.68220376704676       -3.24337266551994       -2.12162643839074
H            5.63927995537137       -5.00955050429112       -2.60544622011030
H            3.47926084727063       -6.21238122087256       -2.67149488901659
H            1.55145438644531       -5.38667789750281       -1.40630294238719
H            1.69785442731950       -3.33608926565674       -0.05669926569639
H            1.69100333150240       -0.96082164377880       -0.53860974140889
H            1.59586641591296        2.41178497677498        0.82592079232642
H            1.27749541320276        5.41424474518170        2.31425551405988
H            2.90370501223012        5.80433719433343        1.74750014534368
H            2.43673715240023        4.12404425106961        1.99942623389552
H            3.56651914450907        5.24329983309679       -0.66711854687462
H            2.38779442902238        4.47574013091433       -1.73466364754798
H            3.09280774170021        3.56684031921625       -0.39999574131578
H            2.06892855492148        7.10367979599742       -0.13434485862529
H            0.41161252157706        6.84569743940482        0.39703238608358
H            0.88627894815166        6.46533495970343       -1.26886819503952
H           -1.03059124292277        5.43405804566780       -0.66484471999564
H           -2.82222056154917        3.83032253996757       -0.81371631985570
H           -3.92178090043753        0.49342502390529       -2.42346334447855
H           -6.15710658028513        1.16666391580340       -3.23482888037458
H           -6.71160601162499        3.53253143739910        0.28970834034841
H           -4.47596195671198        2.85084529637990        1.09201092402564
H           -4.49166530076798       -0.75944477851938       -0.13187815505893
