$hessian                                                                        
        0.5154011553   0.0156701067  -0.0242158835  -0.0725326214   0.0146495935
       -0.0321038357   0.0026205293  -0.0023945888   0.0059041191   0.0051065551
       -0.0023241802   0.0056813065  -0.0012928245  -0.0007308213   0.0000560316
        0.0004910967   0.0004585095  -0.0001452086  -0.0002621594  -0.0001551711
        0.0001362558   0.0004497132   0.0002382827  -0.0004125456  -0.0022629700
       -0.0011890219   0.0000083578   0.0021716146   0.0014835394   0.0000199241
       -0.0033311421  -0.0033964769  -0.0013175294  -0.0211984880   0.0141856896
       -0.0222941719  -0.0002193405   0.0005482834  -0.0011387723  -0.0001358530
        0.0006687863   0.0007007074   0.0007383516  -0.0000321140   0.0000561818
       -0.0005394736   0.0005239189   0.0011914500  -0.0001847566  -0.0001098348
       -0.0000471921   0.0000196938  -0.0000021586  -0.0000003809   0.0000392112
       -0.0000015558   0.0000004948  -0.0000175177   0.0002100367  -0.0000235115
        0.0000385303  -0.0000909080   0.0000490619  -0.0000392217   0.0000101956
       -0.0000019598   0.0000446835  -0.0000318241   0.0000092192  -0.0001141853
        0.0000675865   0.0000076198   0.0003031623  -0.0004438320  -0.0000330950
       -0.0009666532   0.0002501068  -0.0000995087  -0.2837696650  -0.0007049607
       -0.0021910192  -0.0714870277   0.0382979389   0.0656449364  -0.0686209112
       -0.0750512119   0.0021390988   0.0006366056  -0.0003742264   0.0007238001
        0.0001258851  -0.0000309047  -0.0000823781   0.0000808261   0.0006796090
        0.0020242479  -0.0002687207  -0.0010305648   0.0006851154  -0.0000117045
       -0.0000298218  -0.0000772277   0.0000319444  -0.0000793303   0.0000653520
        0.0000373242  -0.0001317634  -0.0000084088  -0.0000028031  -0.0000147003
        0.0000248399  -0.0009344213   0.0002857835  -0.0009449222  -0.0000028152
        0.0000218867   0.0000749176  -0.0000002207  -0.0000336980   0.0000195769
       -0.0000047143   0.0000147509  -0.0000061945  -0.0000103156   0.0000244478
        0.0000024811  -0.0000078643  -0.0000000802  -0.0000219024  -0.0000248994
        0.0000281592   0.0000118626  -0.0000200119  -0.0000042366  -0.0000198138
       -0.0000012854   0.0000236148  -0.0000034935  -0.0000304694   0.0000207083
       -0.0000172114  -0.0000371989   0.0000016406  -0.0000051882  -0.0000099351
       -0.0000177184  -0.0000029822   0.0000053087   0.0000425296  -0.0000226215
        0.0156701067   0.5062072521   0.0325577652   0.0149398033  -0.0826823906
        0.0457449026  -0.0025090476   0.0045775907  -0.0089406839   0.0048395999
       -0.0250804859   0.0224663424   0.0008753665  -0.0002747791   0.0010991728
        0.0004109543  -0.0002414316  -0.0008709097  -0.0001719397  -0.0000527971
       -0.0000812987   0.0005009222  -0.0004556131  -0.0012923837  -0.0038680346
       -0.0023665460   0.0010596572   0.0015861021   0.0009800570  -0.0000477654
       -0.0003517711  -0.0006658428   0.0003998225   0.0066715582   0.0008279855
        0.0022654567  -0.0009985717  -0.0012584618   0.0003008391   0.0004677812
        0.0001737847  -0.0001732022   0.0001492117   0.0000019311  -0.0001634836
        0.0001952686   0.0000527551  -0.0000361132  -0.0000053365  -0.0000660138
        0.0000509152   0.0000070004   0.0000063491   0.0000135111  -0.0000386092
        0.0000184439  -0.0000354208  -0.0000139941   0.0000431170  -0.0000006247
        0.0000223677  -0.0000258554  -0.0000027314  -0.0000137097   0.0000171780
        0.0000019468   0.0000148048  -0.0000321283   0.0000008429  -0.0000590204
        0.0000193220  -0.0000055142   0.0001254939  -0.0001712872   0.0000195124
       -0.0003488685   0.0001104668  -0.0000096614  -0.0006369376  -0.0426044533
       -0.0010369886   0.0383005346  -0.0986609477  -0.0930334549  -0.0750747766
       -0.2582904761   0.0029729729  -0.0002289410   0.0002821304  -0.0001751412
       -0.0002555016   0.0008361116  -0.0007387737   0.0006844565  -0.0004744060
       -0.0029883081   0.0000839634  -0.0005094983   0.0007392174   0.0000050145
        0.0000016389  -0.0000336965   0.0000057869  -0.0000394034   0.0002336034
       -0.0000341786  -0.0002736328   0.0001578015  -0.0000572528   0.0000206162
       -0.0000783565  -0.0009454520  -0.0000021471  -0.0004510868  -0.0000210996
       -0.0000021160   0.0000612453   0.0000036860  -0.0000059012  -0.0000296728
        0.0000105872  -0.0000008368   0.0000033943   0.0000006453   0.0000237027
        0.0000080495   0.0000312998   0.0000021268   0.0000003007   0.0000021455
        0.0000101048   0.0000084532   0.0000209827  -0.0000136482   0.0000490504
       -0.0000008599   0.0000115965   0.0000061863   0.0000053821   0.0000014818
        0.0000047701   0.0000032900   0.0000042439   0.0000014709   0.0000010276
        0.0000049250  -0.0000014981  -0.0000012412   0.0000161881  -0.0000004326
       -0.0242158835   0.0325577652   0.4566644793  -0.0282359342   0.0397779697
       -0.1346295111  -0.0061992235   0.0088129491  -0.0304607206   0.0009415658
        0.0093070616  -0.0026617335  -0.0005766793  -0.0005103409   0.0001531985
       -0.0000100340   0.0001643423   0.0001398045  -0.0001837789   0.0000913874
        0.0000514370   0.0002425103   0.0003947010   0.0001122828   0.0002674952
       -0.0008987588  -0.0006237483   0.0000319330   0.0000383522  -0.0001996604
        0.0007145571  -0.0006056882  -0.0005984625  -0.0087562224   0.0019513739
       -0.0020428984   0.0005726008   0.0003355329   0.0001551945  -0.0000441609
        0.0000484998   0.0001069907  -0.0003396144   0.0000753155   0.0000754186
       -0.0002778355  -0.0000189321   0.0000906444   0.0000163343   0.0000691776
        0.0000028570   0.0000557475  -0.0000095109  -0.0000283672  -0.0000024839
        0.0000112488  -0.0000094129  -0.0000191986  -0.0000821776   0.0000019919
       -0.0000270443   0.0000527702   0.0000106914   0.0000206689  -0.0000171800
        0.0000043140  -0.0000138626   0.0000216364  -0.0000009127   0.0000517678
       -0.0000188915   0.0000011080  -0.0001237925   0.0001700471  -0.0000085980
        0.0003248523  -0.0000565161  -0.0000183994  -0.0016502541  -0.0011861586
       -0.0423225384   0.0655291923  -0.0927298771  -0.1979386852   0.0021211730
        0.0023247063  -0.0421856766  -0.0008324039   0.0006112669   0.0008239086
       -0.0003094811   0.0010318088   0.0009043077   0.0013922005  -0.0020100085
       -0.0053283388  -0.0001233338   0.0002301160  -0.0001806671  -0.0000607825
       -0.0000205470  -0.0000329258  -0.0000299530  -0.0000478178  -0.0000146837
        0.0000548531  -0.0000589697   0.0000549470  -0.0000544401   0.0000520780
        0.0000878911  -0.0002382226   0.0001923600  -0.0002123522   0.0000310118
        0.0000488715  -0.0000478578  -0.0000263578  -0.0000114745   0.0000231521
        0.0000079310   0.0000002938   0.0000265653  -0.0000144039  -0.0000204571
        0.0000152222   0.0000088391   0.0000031130   0.0000089095  -0.0000053793
       -0.0000190731   0.0000048815  -0.0000072320  -0.0000221102   0.0000247860
       -0.0000003352  -0.0000145117   0.0000062662   0.0000025887  -0.0000007756
        0.0000058274   0.0000011269   0.0000013012   0.0000023933   0.0000033481
        0.0000079434  -0.0000021686  -0.0000139699  -0.0000242126  -0.0000111511
       -0.0725326214   0.0149398033  -0.0282359342   0.4776063150   0.0201665949
       -0.0005899807  -0.0721314976   0.0145967156   0.0276413822  -0.0814046490
       -0.0433560392   0.0003638630  -0.0145108797  -0.0273912037   0.0001753281
       -0.0050465764   0.0008260186   0.0001498275   0.0005828431  -0.0000242264
       -0.0000069817  -0.0026811473   0.0022010233   0.0000999571   0.0100763168
        0.0124864954  -0.0001522815  -0.0013043336  -0.0034400569  -0.0000220320
       -0.0203795416   0.0091139769   0.0001914346  -0.1804084657  -0.0016596893
        0.0005812090  -0.0222257350  -0.0108989570   0.0000678192   0.0010136564
       -0.0023505037   0.0000021592  -0.0019814013  -0.0004097854   0.0000336353
        0.0011342197   0.0022076219   0.0000459370  -0.0004810483   0.0000798319
       -0.0000000259   0.0000560489  -0.0000548196  -0.0000080234   0.0000274569
       -0.0000810917   0.0000407111  -0.0000409175  -0.0000294448   0.0000066806
       -0.0000940803   0.0001232798  -0.0000028245   0.0000613527  -0.0000216446
       -0.0000010939  -0.0000420970   0.0000080902  -0.0000096179   0.0001132357
       -0.0000723570   0.0000102208  -0.0003095414   0.0004694591  -0.0000068591
        0.0014819754  -0.0000598436  -0.0000264943  -0.0139602232   0.0138014389
       -0.0245433177   0.0028322274  -0.0039658613   0.0067429676   0.0027924353
       -0.0038279090   0.0072572562  -0.0136871902   0.0139079538   0.0245696083
        0.0027547455  -0.0039233553  -0.0073594073   0.0028216795  -0.0040671203
       -0.0069343493   0.0007290733  -0.0003725868  -0.0000400274  -0.0007771186
       -0.0012757943   0.0000226665   0.0000357889   0.0000333870  -0.0000163288
        0.0000306396   0.0010607464  -0.0000151064  -0.0000485189  -0.0001450981
       -0.0000256003   0.0002726350   0.0014162404  -0.0000065783  -0.0003742391
        0.0001676569   0.0000088949  -0.0000575388   0.0000309386   0.0000238832
        0.0000415159  -0.0000110630   0.0000387595  -0.0000086362  -0.0000681559
       -0.0000040555  -0.0000073694   0.0000306783  -0.0000384627   0.0000245134
       -0.0000781087  -0.0000213243  -0.0000523435   0.0000162521  -0.0000277799
       -0.0000005949  -0.0000409381  -0.0000003456   0.0000067721  -0.0000099192
        0.0000025746   0.0000118970   0.0000050390   0.0000017242   0.0000112355
        0.0000325633   0.0000004568   0.0000297274  -0.0000862329   0.0000158764
        0.0146495935  -0.0826823906   0.0397779697   0.0201665949   0.4719208189
        0.0000740326   0.0143984355  -0.0831661209  -0.0402355592  -0.0403268647
       -0.1704940837   0.0004952150  -0.0125648291  -0.0074865215   0.0001376296
        0.0000956225   0.0012104798  -0.0000210548  -0.0009102848  -0.0007945511
        0.0000050617   0.0037092344  -0.0010256929  -0.0000491728  -0.0019824825
       -0.0303751073   0.0000203256  -0.0032551778   0.0015763737   0.0000436289
        0.0224858698   0.0022345942  -0.0000492278  -0.0029462676  -0.0648405827
       -0.0000998777  -0.0260606808  -0.0019290754   0.0001388312  -0.0014258275
       -0.0045278531  -0.0000513023   0.0005574404   0.0004930801  -0.0000062374
        0.0009460839  -0.0040909590  -0.0000750149   0.0009950998   0.0000177227
        0.0000168299  -0.0000927332   0.0000134958  -0.0000554459  -0.0000496795
        0.0000114362   0.0000234114   0.0001068633  -0.0002013844  -0.0000199830
        0.0000935733  -0.0000133891   0.0000014223  -0.0000103875  -0.0000025699
        0.0000041830  -0.0000025629   0.0000023736   0.0000012493  -0.0000271739
        0.0000132173  -0.0000001494   0.0000838309  -0.0001244626   0.0000058167
       -0.0002321017   0.0000297886  -0.0000081093   0.0020701388  -0.0008337325
        0.0009305832  -0.0039847404   0.0056271565  -0.0095297708   0.0080323759
       -0.0173525892   0.0234694456   0.0021046089  -0.0008656098  -0.0009916765
        0.0077908559  -0.0174540379  -0.0234303643  -0.0038783811   0.0056352885
        0.0094481378   0.0012379519  -0.0000431204  -0.0000169505   0.0003264259
        0.0000482322   0.0000022420   0.0001401934   0.0002776998   0.0000034124
       -0.0004530514  -0.0007788023  -0.0000005057  -0.0001124956   0.0001852216
        0.0000389986  -0.0003185463   0.0001819217   0.0000070412  -0.0014971169
       -0.0004411719   0.0000097867   0.0000519544   0.0000367802   0.0000070455
       -0.0000322478   0.0000045843  -0.0000119296   0.0000018580   0.0000077206
       -0.0000209678  -0.0000058766  -0.0000099554   0.0000243286   0.0000001455
        0.0000180280   0.0000019261   0.0000450973  -0.0000055015  -0.0000126164
       -0.0000002098   0.0000148989  -0.0000010525   0.0000109121  -0.0000025030
       -0.0000001015   0.0000033364   0.0000004651  -0.0000003760   0.0000044711
       -0.0000082138   0.0000001578   0.0000611519  -0.0000113965  -0.0000012662
       -0.0321038357   0.0457449026  -0.1346295111  -0.0005899807   0.0000740326
        0.4237016100   0.0314246109  -0.0460848291  -0.1347526726   0.0003442462
        0.0004074155  -0.0541894927   0.0001194293   0.0002961555  -0.0008854466
        0.0001488700   0.0000555623   0.0066945505   0.0000657443   0.0000025963
       -0.0000054139   0.0000680293  -0.0000638742   0.0064915006  -0.0000407909
       -0.0001067142   0.0020996142   0.0000023531   0.0000698113  -0.0036868627
        0.0002374187  -0.0002001590   0.0004087666   0.0005602625  -0.0001143477
       -0.0531175865   0.0000756641   0.0001325380  -0.0010604443  -0.0000328135
       -0.0000198109   0.0058018880   0.0000214088  -0.0000375236   0.0004198296
        0.0000391945  -0.0000173193   0.0055830508   0.0000208601  -0.0000588553
       -0.0001704668   0.0000267821  -0.0000107020  -0.0000676994  -0.0000122999
        0.0000322106  -0.0000491745  -0.0000425660   0.0000058374  -0.0001190120
        0.0000167876  -0.0000069318   0.0002156574  -0.0000270216  -0.0000197653
        0.0000066795  -0.0000141153   0.0000366230   0.0000426311   0.0000317147
       -0.0000052920   0.0000377118  -0.0000485172   0.0000344886  -0.0002036214
        0.0000319128  -0.0000278855  -0.0009891574  -0.0033749086   0.0017813571
       -0.0025342186  -0.0074749852   0.0103978936  -0.0250376820  -0.0005830405
        0.0039130997  -0.0027470489   0.0034524805  -0.0018929531  -0.0027312633
        0.0004906906  -0.0038129984  -0.0025498426   0.0072485797  -0.0105035165
       -0.0250413095  -0.0000408566  -0.0000041797  -0.0028268997   0.0000120425
        0.0000177382   0.0002038835  -0.0000190558  -0.0000054195  -0.0015464011
       -0.0000065966  -0.0000164349  -0.0005706185  -0.0000008356   0.0000107136
        0.0001051337  -0.0000163975   0.0000045737  -0.0025854673  -0.0000037085
       -0.0000045451   0.0004187811  -0.0000074003   0.0000389601  -0.0000198062
        0.0000011960   0.0000142810  -0.0000005684  -0.0000025212  -0.0000094976
        0.0000092725   0.0000312073  -0.0000015451  -0.0000096094  -0.0000140922
        0.0000107172  -0.0000029579  -0.0000103839  -0.0000493133   0.0000093864
       -0.0000001449   0.0000005112   0.0000084314   0.0000009976   0.0000000564
       -0.0000528401  -0.0000003830   0.0000011208  -0.0000055068   0.0000002801
        0.0000001002   0.0000021382  -0.0000055126  -0.0000088833  -0.0000719143
        0.0026205293  -0.0025090476  -0.0061992235  -0.0721314976   0.0143984355
        0.0314246109   0.5160859529   0.0154065770   0.0234405501   0.0050169846
       -0.0024480301  -0.0057650671  -0.0013162836  -0.0006952325  -0.0000324477
        0.0005016383   0.0004475296   0.0001280151  -0.0002643133  -0.0001542587
       -0.0001199941   0.0004564515   0.0002279615   0.0003925974  -0.0022547811
       -0.0011899243   0.0000468330   0.0021245496   0.0014188115  -0.0000254609
       -0.0033709020  -0.0032787096   0.0012930774  -0.0207088853   0.0142780982
        0.0223995330  -0.0002769872   0.0004472547   0.0011524622  -0.0001053789
        0.0006888620  -0.0006713795   0.0007077885  -0.0000222351  -0.0000770600
       -0.0005643776   0.0005350850  -0.0011530532  -0.0001928044  -0.0000848285
        0.0000409952   0.0000339979  -0.0000142298   0.0000046715   0.0000180292
        0.0000140373  -0.0000188347  -0.0000010393   0.0002023589   0.0000272744
        0.0000345877  -0.0000856744  -0.0000412123  -0.0000276180   0.0000204420
       -0.0000056887   0.0000492467  -0.0000477040  -0.0000019635  -0.0001276829
        0.0000718137  -0.0000171592   0.0003215722  -0.0004624298   0.0000485502
       -0.0009687830   0.0002681715   0.0001305858   0.0006346622  -0.0003857464
       -0.0007199008   0.0000450301   0.0006883789  -0.0020688644   0.0001345541
       -0.0000413029   0.0000928311  -0.2839061854   0.0000678803   0.0042089869
       -0.0688749935  -0.0754703047  -0.0016926841  -0.0722964214   0.0386697737
       -0.0664859539  -0.0003029725  -0.0011108254  -0.0007142660  -0.0000079258
       -0.0000285370   0.0000757864   0.0000312163  -0.0000808012  -0.0000638088
        0.0000373024  -0.0001333731   0.0000086403  -0.0000049802  -0.0000115178
       -0.0000398279  -0.0009977666   0.0002957771   0.0009936255  -0.0000026301
        0.0000228883  -0.0000717230  -0.0000314758  -0.0000230407   0.0000302713
       -0.0000147316   0.0000115133  -0.0000043484  -0.0000036875   0.0000264507
        0.0000128827   0.0000056541  -0.0000024926  -0.0000157390  -0.0000278952
        0.0000260065   0.0000178296  -0.0000035480  -0.0000292822   0.0000008292
       -0.0000012917   0.0000246414   0.0000029105  -0.0000306665   0.0000215172
        0.0000142234  -0.0000374895   0.0000021432   0.0000034636  -0.0000100930
       -0.0000175195   0.0000012667   0.0000063409   0.0000446390   0.0000123571
       -0.0023945888   0.0045775907   0.0088129491   0.0145967156  -0.0831661209
       -0.0460848291   0.0154065770   0.5061885196  -0.0327534337   0.0046710728
       -0.0251776006  -0.0223901828   0.0007857315  -0.0003156902  -0.0011459414
        0.0004496665  -0.0002037006   0.0008345044  -0.0001326104  -0.0000661080
        0.0000881489   0.0005168898  -0.0004856223   0.0012757434  -0.0038561657
       -0.0023927829  -0.0009632245   0.0015522659   0.0009766811  -0.0000484120
       -0.0003535546  -0.0006738792  -0.0004119894   0.0066655334   0.0007719503
       -0.0023265608  -0.0009591744  -0.0012965671  -0.0003190424   0.0004555988
        0.0001783279   0.0001716867   0.0001554776  -0.0000077317   0.0001515380
        0.0002040415   0.0000403843   0.0000542620  -0.0000088316  -0.0000655595
       -0.0000578308  -0.0000145564   0.0000196633   0.0000259828  -0.0000092884
        0.0000036282  -0.0000180786  -0.0000213016   0.0000446664  -0.0000028925
        0.0000260854  -0.0000310400   0.0000020780  -0.0000138923   0.0000172422
       -0.0000025286   0.0000171319  -0.0000331252   0.0000034102  -0.0000608860
        0.0000217511   0.0000024090   0.0001244599  -0.0001697707  -0.0000042763
       -0.0003499334   0.0001120054   0.0000010743  -0.0002237256   0.0002762437
        0.0001821235   0.0007069942  -0.0004510885   0.0029563362  -0.0002484192
        0.0008398083   0.0007426288   0.0001421967  -0.0425158533   0.0010373916
       -0.0755168412  -0.2581500015  -0.0016401831   0.0386601707  -0.0980819960
        0.0924447146   0.0000678596  -0.0005557459  -0.0007606360   0.0000074587
        0.0000031938   0.0000288360   0.0000010363  -0.0000431204  -0.0002281690
       -0.0000361484  -0.0002790174  -0.0001544205  -0.0000535372   0.0000198990
        0.0000937863  -0.0010142032   0.0000022375   0.0004904129  -0.0000217099
       -0.0000005156  -0.0000606964   0.0000236147  -0.0000171876  -0.0000355076
        0.0000189702  -0.0000034600  -0.0000029212   0.0000021155   0.0000276179
       -0.0000036015   0.0000057798   0.0000008658   0.0000044529   0.0000058990
        0.0000068365  -0.0000025917   0.0000105956   0.0000164480   0.0000290342
       -0.0000002468   0.0000109478  -0.0000054522   0.0000054443   0.0000003719
       -0.0000047154   0.0000029129   0.0000044036  -0.0000003076   0.0000012912
        0.0000055512   0.0000018075   0.0000000279   0.0000164496  -0.0000068862
        0.0059041191  -0.0089406839  -0.0304607206   0.0276413822  -0.0402355592
       -0.1347526726   0.0234405501  -0.0327534337   0.4564851529  -0.0010119916
       -0.0091049196  -0.0024556804   0.0005811162   0.0005148664   0.0001639329
        0.0000116831  -0.0001738403   0.0001310998   0.0001828474  -0.0000915840
        0.0000434414  -0.0002356622  -0.0003863825   0.0001131059  -0.0002405501
        0.0009056203  -0.0006164095  -0.0000701166  -0.0000495660  -0.0001888100
       -0.0006707744   0.0006387535  -0.0005982281   0.0088054836  -0.0020929650
       -0.0023025616  -0.0005413872  -0.0003255761   0.0001453439   0.0000484123
       -0.0000660297   0.0001145147   0.0003334256  -0.0000803728   0.0000627516
        0.0002720272   0.0000263862   0.0000988717  -0.0000051782  -0.0000614499
       -0.0000034818  -0.0000072045  -0.0000177583  -0.0000100913  -0.0000422461
        0.0000005848  -0.0000347229   0.0000196183   0.0000714326   0.0000074906
        0.0000262719  -0.0000449206   0.0000129184  -0.0000200774   0.0000199540
        0.0000042166   0.0000091416  -0.0000194025   0.0000047986  -0.0000453550
        0.0000157608  -0.0000041625   0.0001213841  -0.0001648285   0.0000034437
       -0.0003149765   0.0000500019  -0.0000274544   0.0008330558  -0.0005990887
        0.0008189372  -0.0014520480   0.0019855270  -0.0053107368   0.0003184235
       -0.0010377216   0.0009069792   0.0036513041   0.0011810096  -0.0423481812
       -0.0016692567  -0.0009766562  -0.0421556505  -0.0663345917   0.0921121518
       -0.1975701550   0.0001110227  -0.0002311605  -0.0001941253   0.0000591101
        0.0000206401  -0.0000357041   0.0000282937   0.0000488765  -0.0000123643
       -0.0000554025   0.0000614364   0.0000516376   0.0000480753  -0.0000466931
        0.0001042912   0.0002647026  -0.0001968078  -0.0002383380  -0.0000319035
       -0.0000477597  -0.0000465980  -0.0000071947   0.0000135352   0.0000236247
       -0.0000092134  -0.0000017394   0.0000049246   0.0000088631   0.0000226848
        0.0000078996  -0.0000059351  -0.0000174702   0.0000272309   0.0000106066
        0.0000209093   0.0000233127   0.0000340419   0.0000188787   0.0000092556
       -0.0000009547   0.0000161957   0.0000072746  -0.0000016843   0.0000025435
        0.0000045593  -0.0000003646  -0.0000003535   0.0000020157  -0.0000030810
       -0.0000077687  -0.0000014680   0.0000121881   0.0000247429  -0.0000147084
        0.0051065551   0.0048395999   0.0009415658  -0.0814046490  -0.0403268647
        0.0003442462   0.0050169846   0.0046710728  -0.0010119916   0.6578919248
       -0.0178809051  -0.0067740261  -0.3154906222  -0.0001454259   0.0033459483
       -0.0205830971  -0.0889348456   0.0003674584  -0.0523494604   0.0249602496
        0.0005739680   0.0481696174   0.0376528563  -0.0006383123  -0.1514619995
        0.0674039139   0.0013094708  -0.0507452852   0.0309743385   0.0009970452
        0.0052193288   0.0043284025  -0.0001114241  -0.0149335575  -0.0237896872
        0.0001095390  -0.0058062746   0.0003093424   0.0000415922  -0.0005335154
       -0.0012810994  -0.0000183350   0.0015211537   0.0006753932  -0.0000079886
       -0.0001354259  -0.0010266499  -0.0000662858   0.0003594108  -0.0001430946
        0.0000207854  -0.0004557867   0.0001039133  -0.0002810736  -0.0001415890
        0.0000882194   0.0001598810   0.0001920204   0.0002709046   0.0000023170
        0.0000622509  -0.0001714781   0.0000062001  -0.0000853710  -0.0000293632
       -0.0000030037   0.0000490893   0.0000179625   0.0000044594  -0.0001149254
        0.0000741624  -0.0000047705   0.0003478005  -0.0004812012   0.0000061512
       -0.0010347627   0.0001654148   0.0000197729  -0.0000687309   0.0006876751
        0.0002596925   0.0001334776  -0.0001052457   0.0000624572  -0.0004602446
        0.0013465808  -0.0018077726  -0.0001012952   0.0006544304  -0.0002635837
       -0.0004474797   0.0013147503   0.0017717317   0.0001380786  -0.0001122070
       -0.0000528938  -0.0216540761   0.0014144418   0.0003433884   0.0001408399
       -0.0020298900   0.0000898842  -0.0005472281   0.0004450759  -0.0000061697
        0.0000468618  -0.0030472592   0.0000908985  -0.0049631551  -0.0024555760
        0.0002432382   0.0001528547   0.0000166663   0.0000028419  -0.0005143400
       -0.0002093672   0.0000063916  -0.0000419231   0.0000102093   0.0002531955
       -0.0001693246  -0.0000356564  -0.0000453560  -0.0000493396  -0.0001165582
       -0.0000387610  -0.0000576304  -0.0000605919  -0.0000124776  -0.0000433850
        0.0000733262   0.0000075960  -0.0001622552  -0.0001809723  -0.0002248940
        0.0000301888   0.0000176134  -0.0000000212  -0.0000372338   0.0000271293
       -0.0000021562  -0.0000413668  -0.0000056541  -0.0000017828  -0.0000087364
       -0.0000444624  -0.0000009465   0.0000656287   0.0000704100  -0.0000076906
       -0.0023241802  -0.0250804859   0.0093070616  -0.0433560392  -0.1704940837
        0.0004074155  -0.0024480301  -0.0251776006  -0.0091049196  -0.0178809051
        0.6060332426   0.0001054971  -0.0714179910  -0.0975629788   0.0009652827
       -0.0315031560   0.0093180843   0.0003888082   0.0216273130  -0.0043857865
       -0.0002732391  -0.0088737726  -0.0551576904   0.0001803329   0.1350754115
       -0.2284209216  -0.0015675511   0.0110361739   0.0012935182  -0.0004268949
        0.0006296155   0.0006175608   0.0000163095  -0.0092599614  -0.0032271483
        0.0000706915   0.0014418954   0.0005745389   0.0000094805  -0.0005648651
       -0.0002583366   0.0000027573  -0.0013436847  -0.0006579544   0.0000133618
       -0.0002060341   0.0004539740   0.0000279525   0.0000585928   0.0001177295
       -0.0000261574  -0.0000337730  -0.0000550643  -0.0000121562  -0.0000326666
       -0.0000920370   0.0000700881  -0.0000678719  -0.0002658235  -0.0000023721
       -0.0000748952   0.0001517717  -0.0000070546   0.0000720691  -0.0000183582
        0.0000038117  -0.0000558321   0.0000040351  -0.0000081369   0.0001536900
       -0.0000896688   0.0000093396  -0.0004091580   0.0005785836  -0.0000085750
        0.0013784189  -0.0002235002  -0.0000153361  -0.0001662717   0.0003315252
       -0.0006275998  -0.0002857501   0.0007222007  -0.0006530527   0.0004801342
       -0.0022248282   0.0028902603  -0.0001601222   0.0003559685   0.0006402026
        0.0004621313  -0.0022546326  -0.0028944303  -0.0002773333   0.0007186892
        0.0006614556   0.0234922428   0.0018688148  -0.0002964377  -0.0025397794
       -0.0048315154   0.0000397546   0.0004334178   0.0007258567  -0.0000083054
       -0.0018747522  -0.0046421666   0.0000665614  -0.0014941501   0.0011076956
        0.0001010688  -0.0000737341  -0.0000045731  -0.0000037319   0.0001909713
        0.0001796915   0.0000012769   0.0000488258   0.0000850331  -0.0000621873
       -0.0000167698  -0.0000043124   0.0000062397   0.0000369189  -0.0000609168
       -0.0000163288  -0.0000325807   0.0000166050   0.0000180446   0.0000197263
       -0.0000673029  -0.0000232985   0.0000927569   0.0000785207   0.0000170886
        0.0000016191  -0.0000312076  -0.0000003314   0.0000307503  -0.0000222282
        0.0000026472   0.0000344043   0.0000044569   0.0000025367   0.0000071847
        0.0000366430   0.0000021345  -0.0000302038  -0.0000636167   0.0000106350
        0.0056813065   0.0224663424  -0.0026617335   0.0003638630   0.0004952150
       -0.0541894927  -0.0057650671  -0.0223901828  -0.0024556804  -0.0067740261
        0.0001054971   0.1437765849   0.0035653695   0.0000911537  -0.0455885054
        0.0002958896   0.0010437357   0.0003840213   0.0005409839  -0.0002737524
       -0.0042762706  -0.0005749411  -0.0004362315  -0.0008886631   0.0013189101
       -0.0008820214  -0.0485884068   0.0007565993  -0.0004557791   0.0025767954
       -0.0000151290  -0.0000476865  -0.0005135529   0.0000796635   0.0001373799
       -0.0001008489   0.0000234032  -0.0000050894   0.0009986584   0.0000124732
        0.0000022714   0.0001515911  -0.0000110191  -0.0000013964  -0.0000217527
        0.0000053702   0.0000043475  -0.0000293868  -0.0000041273   0.0000087804
       -0.0000014940   0.0000465922  -0.0000102874   0.0000390926   0.0000255792
        0.0000105061   0.0000340582  -0.0000054089  -0.0000047169  -0.0000099179
        0.0000030774   0.0000011705  -0.0000021739   0.0000003902   0.0000011790
       -0.0000051955  -0.0000002494   0.0000002804   0.0000016043   0.0000016020
        0.0000000530   0.0000037850  -0.0000025803   0.0000040916  -0.0000036952
        0.0000051023  -0.0000029873   0.0000189092   0.0002544218  -0.0000894155
        0.0006853365   0.0003305346   0.0007200251   0.0003498150  -0.0012475972
        0.0034968646  -0.0037529209  -0.0002272803   0.0001005251   0.0006843311
        0.0012246583  -0.0035096873  -0.0037475742  -0.0003242397  -0.0007261353
        0.0003636155   0.0002633171  -0.0000251426   0.0006303638   0.0000875199
        0.0000364717   0.0071615635   0.0000090915  -0.0000076704   0.0000529338
        0.0000902738   0.0000725206   0.0069476033   0.0000071552   0.0000692293
        0.0021939112   0.0000015660  -0.0000009558  -0.0000897795  -0.0000003610
        0.0000017371  -0.0000958220   0.0000398447  -0.0000201411  -0.0000018829
        0.0000111107  -0.0000039291  -0.0000173031   0.0000022820   0.0000035688
        0.0000019172  -0.0000145279   0.0000060674  -0.0000096563  -0.0000062404
       -0.0000013964  -0.0000125826  -0.0000744917   0.0000148987   0.0000175277
       -0.0000003565   0.0000002882  -0.0000087213   0.0000004229  -0.0000002272
       -0.0000064922  -0.0000000937   0.0000002865   0.0000019549   0.0000001633
        0.0000003666   0.0000061468  -0.0000008002  -0.0000000218  -0.0000026158
       -0.0012928245   0.0008753665  -0.0005766793  -0.0145108797  -0.0125648291
        0.0001194293  -0.0013162836   0.0007857315   0.0005811162  -0.3154906222
       -0.0714179910   0.0035653695   0.6534191294  -0.0023964270  -0.0066480426
       -0.1258211876  -0.0426295258   0.0010948041   0.0542720070  -0.0120040233
       -0.0006495545  -0.0358599369  -0.0271336122   0.0004252434  -0.0541153916
        0.0658154773   0.0006567243   0.0059876586   0.0022655253  -0.0002979626
       -0.0007279868  -0.0018327968   0.0000217329   0.0006193187  -0.0017249566
        0.0000150894  -0.0011847728  -0.0008881954   0.0000008848   0.0008270415
       -0.0003967703  -0.0000120485  -0.0011107749   0.0001746665   0.0000073981