$hessian                                                                        
        0.4805440376   0.0035333337  -0.0301353448  -0.1545570250   0.0070128243
       -0.0645773585  -0.0193036056   0.0074742294  -0.0095309071  -0.0015449660
        0.0026656733   0.0008423898   0.0001650064   0.0001461944   0.0000253293
        0.0000603605  -0.0000005916  -0.0000500993  -0.0000095706   0.0000023768
        0.0000252871   0.0000411003   0.0000821295  -0.0000072399  -0.0001119114
       -0.0000579594   0.0000555053  -0.0000112228   0.0000805711   0.0000062748
        0.0000161890  -0.0000107156  -0.0000060478  -0.0000051780  -0.0000111546
       -0.0000046000   0.0000034289  -0.0000146836  -0.0000081882  -0.0000050791
        0.0000144686   0.0000237684  -0.0000229535   0.0000073984  -0.0000009214
        0.0000102879   0.0000053187   0.0000229946   0.0000143309   0.0000451429
        0.0000433460  -0.0000366213   0.0000014556   0.0000311995  -0.0001971162
        0.0000359800  -0.0001327157  -0.0000016890  -0.0000249212  -0.0000856756
        0.0000179293  -0.0000143162  -0.0000234862   0.0000335877   0.0000537923
        0.0000102429  -0.0000110573   0.0000175037   0.0000111933   0.0000233419
        0.0000141435   0.0000155208   0.0000120078   0.0000024449  -0.0000172196
        0.0000487971   0.0000216162   0.0000455982  -0.0000990284  -0.0000487356
        0.0000090736   0.0000002399  -0.0000647313   0.0000002602   0.0000155421
        0.0000007940   0.0000022009  -0.0000005286  -0.0000014837  -0.0000002775
        0.0000090628   0.0000011151  -0.0000002496   0.0000003153   0.0000006601
        0.0000003297   0.0000075307   0.0000023262  -0.0000004683  -0.0000069385
        0.0000018869   0.0000005646   0.0001016681   0.0000070749  -0.0000337893
       -0.0000117695   0.0000208220   0.0000015252   0.0000141825  -0.0000092880
       -0.0000204143   0.0000015846  -0.0000085641  -0.0000041584   0.0000042992
       -0.0000071257  -0.0000038129   0.0000042273   0.0000001388  -0.0000042334
        0.0000075537  -0.0000045423  -0.0000067578   0.0000475693   0.0000633210
       -0.0000597270   0.0001116715   0.0000223251  -0.0000248938  -0.1207876048
       -0.1105941248   0.0132356493  -0.0621686480  -0.0081550696   0.0654503245
       -0.1073719946   0.1001216613   0.0370635766  -0.0195881690  -0.0011836769
       -0.0126180606   0.0040687490   0.0000263293   0.0012080385   0.0010388605
       -0.0008433632  -0.0000623611   0.0003713597  -0.0004799790  -0.0006187841
       -0.0007808614   0.0002017401  -0.0005731367  -0.0000793378   0.0000166826
        0.0002402381  -0.0000234051  -0.0000196670  -0.0000307677  -0.0000256567
       -0.0000196705   0.0000062802   0.0000081031  -0.0000040177   0.0000020595
        0.0000000026  -0.0000002926   0.0000020376   0.0000144669  -0.0000006135
        0.0000052005   0.0000147565  -0.0000065408   0.0000019401   0.0000254235
       -0.0000152658   0.0000092859   0.0001167480  -0.0000691478   0.0000673346
       -0.0000275136  -0.0000098122   0.0000366883  -0.0000053511  -0.0000195010
       -0.0000110277   0.0000211762  -0.0000144094  -0.0000085822  -0.0000007659
       -0.0000014104   0.0000017179  -0.0000057963  -0.0000005536  -0.0000003990
       -0.0000059553  -0.0000034057   0.0000022261  -0.0000046064  -0.0000073813
        0.0000038660   0.0000009015  -0.0000031414   0.0000017752  -0.0000063639
        0.0000067046   0.0000133850   0.0000017004  -0.0000012812   0.0000025357
       -0.0000064312   0.0000069000   0.0000025790  -0.0000081232   0.0000020181
        0.0000076660  -0.0000056459  -0.0000031030   0.0000085163  -0.0000341180
       -0.0000044789   0.0000093128  -0.0001254912   0.0000196227   0.0001068675
        0.0035333337   0.5237335745   0.0030936030   0.0076701434  -0.0662392534
        0.0077759152   0.0205727015  -0.0055990240   0.0118840589   0.0031276708
       -0.0033711011  -0.0009117948  -0.0003317138  -0.0004498694   0.0000660258
        0.0001368677   0.0001219860  -0.0001435081  -0.0000682268  -0.0000592114
       -0.0000170037  -0.0000437145  -0.0000226200   0.0000424184   0.0000952544
        0.0000657432  -0.0000307029   0.0000159117  -0.0001019760  -0.0000184693
        0.0000452187   0.0000121328   0.0000254255   0.0000002655   0.0000031518
       -0.0000006587   0.0000104643   0.0000099332   0.0000057364  -0.0000063023
        0.0000059182   0.0000044378   0.0000021083  -0.0000084852  -0.0000095864
       -0.0000147269   0.0000424844   0.0000395271  -0.0000464861  -0.0000075106
       -0.0000169061   0.0000305697   0.0000645789   0.0000455959  -0.0000191272
       -0.0001330718   0.0000847833  -0.0000733159  -0.0001587459   0.0001178935
        0.0001040194  -0.0000102147   0.0000881311   0.0000508011  -0.0000554521
       -0.0000492193   0.0000316359   0.0000168797   0.0000166421  -0.0000102459
        0.0000017807  -0.0000081152   0.0000296836   0.0000102921   0.0000217609
       -0.0000297670   0.0000267747  -0.0000067936   0.0000588619   0.0000385976
        0.0000112617  -0.0000260595   0.0000481240  -0.0000034201   0.0000022575
        0.0000066157  -0.0000061328  -0.0000024908  -0.0000033638   0.0000024991
        0.0000012329   0.0000020760  -0.0000002967  -0.0000016032  -0.0000010622
        0.0000002149   0.0000039498   0.0000002981  -0.0000006922   0.0000018306
       -0.0000003075   0.0000003697  -0.0000842533  -0.0000085341   0.0000317790
        0.0000037870  -0.0000150266   0.0000047366   0.0000063651   0.0000064170
       -0.0000025508   0.0000043667  -0.0000024542   0.0000026535  -0.0000017972
        0.0000050006   0.0000007157  -0.0000019739  -0.0000038018   0.0000009321
       -0.0000022695   0.0000032724   0.0000015947   0.0000052885   0.0000511299
       -0.0000177800   0.0000523404   0.0000581855  -0.0000416373  -0.1107787515
       -0.2016921190   0.0165827116  -0.0082099159  -0.0480805757   0.0254876759
        0.0998835846  -0.2002825103  -0.0550101937  -0.0207790602   0.0008430775
       -0.0139389040   0.0031488601   0.0003621747   0.0031183424   0.0011476800
        0.0008745713   0.0006208352  -0.0001167360   0.0004604314   0.0005579388
        0.0011629946  -0.0003278512   0.0006337197  -0.0000500250  -0.0000279446
       -0.0001151737  -0.0000357651   0.0000024624   0.0000518685   0.0000071168
        0.0000101825  -0.0000039109  -0.0000118582  -0.0000075199  -0.0000111623
       -0.0000120068  -0.0000134585  -0.0000131663  -0.0000120554  -0.0000173537
       -0.0000211173   0.0000030670  -0.0000266154  -0.0000236641  -0.0000012396
       -0.0000498179  -0.0000126776  -0.0000680259  -0.0000430787   0.0000026692
        0.0000101192  -0.0001000392  -0.0000875642  -0.0000075544  -0.0000056812
        0.0000003087  -0.0000374294  -0.0000044607  -0.0000011131  -0.0000026228
       -0.0000003400  -0.0000010192  -0.0000039647   0.0000009191  -0.0000000312
       -0.0000039341  -0.0000003198  -0.0000010066  -0.0000014922   0.0000010504
       -0.0000001274  -0.0000024674   0.0000018969  -0.0000021413   0.0000001102
       -0.0000024856   0.0000019282  -0.0000047277   0.0000021656  -0.0000008036
       -0.0000020998   0.0000024561   0.0000009457  -0.0000018389   0.0000032493
        0.0000004765  -0.0000010400   0.0000030431  -0.0000030177   0.0000025520
        0.0000276920   0.0000217136  -0.0000543305   0.0000029380   0.0000822162
       -0.0301353448   0.0030936030   0.5011803408  -0.0638882262   0.0071905378
       -0.1143580559   0.0023482951   0.0011254526   0.0030277088   0.0011694566
       -0.0007743945   0.0000353374  -0.0000818744  -0.0002580902   0.0000919461
        0.0000677496   0.0000671307  -0.0000812924  -0.0000610912  -0.0000704229
        0.0000132534  -0.0000105913   0.0000313583   0.0000488093  -0.0000570193
        0.0000047446   0.0000331767   0.0000040338   0.0000329826   0.0000049173
       -0.0000136874   0.0000022467   0.0000010131   0.0000134933  -0.0000257619
       -0.0000158125  -0.0000078922  -0.0000007913   0.0000005000   0.0000263391
       -0.0000080449   0.0000049933  -0.0000231985   0.0000060454   0.0000090387
        0.0000506062  -0.0000380173  -0.0000483974  -0.0000445676  -0.0000315333
       -0.0000483965   0.0000422274  -0.0000117326  -0.0001709432  -0.0000581826
        0.0000432193  -0.0001242330  -0.0000160498   0.0000903409   0.0001046173
       -0.0000369447   0.0000620216  -0.0000125452  -0.0000522089  -0.0000268796
        0.0000455984  -0.0000115825  -0.0000166084  -0.0000597168   0.0000267874
       -0.0000040639  -0.0000127257  -0.0000560015  -0.0000003221  -0.0000270632
        0.0000271254   0.0000150758  -0.0000185135  -0.0000357063  -0.0000145158
        0.0000028377   0.0000035976  -0.0000330373   0.0000121924  -0.0000068582
       -0.0000042146  -0.0000048294   0.0000017402   0.0000027864  -0.0000013352
        0.0000043134   0.0000015786  -0.0000002942  -0.0000006260   0.0000008887
       -0.0000003145  -0.0000001753  -0.0000023730  -0.0000007129   0.0000042104
        0.0000017366  -0.0000004480   0.0000558096   0.0000057145  -0.0000060614
       -0.0000104627   0.0000225408  -0.0000067760   0.0000148660  -0.0000082440
       -0.0000151139   0.0000042369  -0.0000043578  -0.0000052183   0.0000040197
       -0.0000006619  -0.0000091979   0.0000019448   0.0000060781   0.0000000191
        0.0000083722  -0.0000127109  -0.0000083166   0.0000258963   0.0000426681
       -0.0000177923   0.0000683522  -0.0000168046  -0.0001984695   0.0130127371
        0.0166809320  -0.0462754325   0.0652807175   0.0259500850  -0.2602761957
        0.0370950214  -0.0552116104  -0.0631975766  -0.0013684785  -0.0006651897
        0.0006170020  -0.0249317571   0.0034449714  -0.0225947536   0.0003762068
       -0.0001022230   0.0002384084   0.0008330041  -0.0005263790   0.0010427407
        0.0002384161  -0.0001773620   0.0002897592  -0.0000028642  -0.0000857286
        0.0003021795  -0.0000352675  -0.0000014227   0.0000353771  -0.0000100499
       -0.0000018033   0.0000125256   0.0000027607   0.0000014071   0.0000116540
        0.0000015568   0.0000043184   0.0000093395   0.0000124495   0.0000117890
        0.0000220875  -0.0000082771   0.0000109247   0.0000207686   0.0000094726
        0.0000117004   0.0000210829   0.0000572774   0.0000450499   0.0001127487
        0.0000131727   0.0000460938   0.0000195667   0.0000634780   0.0000159044
        0.0000089177   0.0000354932   0.0000056462   0.0000214581   0.0000003545
       -0.0000038448   0.0000020265  -0.0000011451  -0.0000015879   0.0000012072
       -0.0000006569  -0.0000023091   0.0000018905  -0.0000004220  -0.0000024330
        0.0000028663  -0.0000000326  -0.0000031675   0.0000033736  -0.0000097991
       -0.0000026034   0.0000121770  -0.0000027949  -0.0000041228   0.0000048889
       -0.0000040826   0.0000008613   0.0000042607  -0.0000043469  -0.0000011975
        0.0000036535  -0.0000029427  -0.0000004827   0.0000069010  -0.0000163739
        0.0000104716   0.0000176839   0.0000019907   0.0000681439   0.0001336887
       -0.1545570250   0.0076701434  -0.0638882262   0.4807772480   0.0334519473
       -0.0178475132  -0.0981315093   0.0519922190   0.0232790450  -0.0179081554
        0.0193700016   0.0019703289  -0.0001905252   0.0010069422   0.0002252108
        0.0000241149   0.0000203517   0.0000222268   0.0000071261   0.0000127769
        0.0000308851   0.0000479717   0.0000996521  -0.0000204150  -0.0001548682
       -0.0001546548   0.0000746269  -0.0000159483   0.0001712003   0.0000194268
       -0.0000235720  -0.0000026346  -0.0000029368  -0.0000052809  -0.0000002472
        0.0000092138  -0.0000006487  -0.0000092351  -0.0000043481   0.0000100175
       -0.0000101734   0.0000031523  -0.0000351706   0.0000043783  -0.0000086099
        0.0000295048  -0.0000195960  -0.0000133901   0.0000128144  -0.0000263942
       -0.0000247803   0.0000018203   0.0000016657  -0.0000073408  -0.0000652867
       -0.0000253439   0.0000232651   0.0000156416  -0.0000000229   0.0000662243
        0.0000341552  -0.0000078110   0.0000328301  -0.0000587750   0.0001058575
        0.0000559740  -0.0000714752   0.0000304828  -0.0000258396  -0.0000293289
        0.0000015753  -0.0000238956  -0.0000414475  -0.0000241522  -0.0000708729
        0.0000446741  -0.0000163031  -0.0000439135  -0.0001191102  -0.0000819217
       -0.0000010798   0.0000145296  -0.0000972592   0.0000038812   0.0000210305
        0.0000027525   0.0000031350   0.0000025538  -0.0000040941  -0.0000001111
        0.0000094188   0.0000030651  -0.0000028950   0.0000018117   0.0000022730
       -0.0000019741   0.0000098557   0.0000023944  -0.0000029801  -0.0000112412
        0.0000088078  -0.0000035714   0.0001352039   0.0000067965  -0.0000485680
       -0.0000169497   0.0000242831  -0.0000004183   0.0000118983  -0.0000053819
       -0.0000134494   0.0000031094  -0.0000027509  -0.0000077684   0.0000083927
       -0.0000102567  -0.0000081603   0.0000072790  -0.0000011314  -0.0000067264
        0.0000069158  -0.0000013950  -0.0000057214   0.0000751624   0.0001835580
       -0.0000599011  -0.0002064979   0.0001423690  -0.0002204512  -0.0196057545
       -0.0019569745  -0.0121972268   0.0051372459  -0.0000790413   0.0007781578
       -0.0170194626   0.0042925830  -0.0104495383  -0.1130928848  -0.1060550202
        0.0134958211  -0.0624553433  -0.0095725717   0.0642749794   0.0073874139
       -0.0115371463  -0.0043548847  -0.0071957432   0.0102017243   0.0062443657
       -0.0037839544   0.0013106041  -0.0024708438   0.0009356978  -0.0003085178
        0.0010804460  -0.0000087771  -0.0000035567   0.0000006125  -0.0000244635
       -0.0000175826   0.0000022233   0.0000087893  -0.0000038507   0.0000043130
        0.0000075671   0.0000011518   0.0000056046   0.0000163362   0.0000046495
        0.0000155186   0.0000037695   0.0000031704   0.0000113779   0.0000167965
       -0.0000045262   0.0000026810   0.0000314645  -0.0000040296   0.0000439675
        0.0000396733   0.0000003608  -0.0000054996   0.0000289239  -0.0000292332
       -0.0000065054   0.0000330277  -0.0000253151   0.0000008547  -0.0000043465
        0.0000001629  -0.0000000285  -0.0000033018  -0.0000009513  -0.0000011141
       -0.0000032394  -0.0000018263  -0.0000001535  -0.0000047989  -0.0000062136
        0.0000013455  -0.0000007401  -0.0000069325   0.0000021963  -0.0000140504
        0.0000135272   0.0000095190   0.0000032603  -0.0000030529   0.0000048427
       -0.0000031813   0.0000028727   0.0000016882  -0.0000066106  -0.0000004246
        0.0000058613  -0.0000069755  -0.0000049285   0.0000090678  -0.0000386415
       -0.0000233037  -0.0000139653  -0.0000471308  -0.0000005420   0.0000507478
        0.0070128243  -0.0662392534   0.0071905378   0.0334519473   0.4976756963
       -0.0108201528   0.0508612500  -0.1510739256  -0.0302533503   0.0077481848
       -0.0049081239   0.0016314887  -0.0004292122   0.0003387152   0.0000249126
       -0.0001562144  -0.0000388392  -0.0000794905   0.0000210585  -0.0001029732
        0.0000146852  -0.0000413137  -0.0000051671  -0.0000027123  -0.0000674227
       -0.0000298896  -0.0000031293   0.0000082679   0.0000647063   0.0000091689
       -0.0000173257   0.0000011617   0.0000097120  -0.0000208522   0.0000113309
        0.0000107268   0.0000340967   0.0000016455   0.0000023163  -0.0000068195
       -0.0000138287  -0.0000035140   0.0000035062  -0.0000016512  -0.0000156955
        0.0000217526   0.0000051977   0.0000127270   0.0000153745  -0.0000120359
       -0.0000179885   0.0000231042  -0.0000076335  -0.0000177893   0.0000540166
        0.0000146824   0.0000375283   0.0000329194   0.0000391130   0.0000678523
        0.0000693651  -0.0000461837   0.0000037424  -0.0000058366   0.0000849003
        0.0000597269  -0.0000914610   0.0000298312  -0.0000153947  -0.0000516688
       -0.0000175102  -0.0000621393   0.0000076643  -0.0000131657  -0.0000467590
        0.0000278641  -0.0000085637  -0.0000963529  -0.0000306739  -0.0000198369
        0.0000046320  -0.0000120939  -0.0000265713   0.0000082530   0.0000136715
        0.0000114393  -0.0000023506  -0.0000012366  -0.0000115171   0.0000045211
        0.0000042926   0.0000017892  -0.0000000035   0.0000007539  -0.0000032138
        0.0000009669   0.0000089315  -0.0000000593  -0.0000014439  -0.0000048535
        0.0000002554   0.0000001598   0.0000494093   0.0000164076  -0.0000145017
        0.0000109879  -0.0000345284   0.0000037188  -0.0000057791  -0.0000001340
        0.0000143162   0.0000071507  -0.0000191416   0.0000003298  -0.0000017199
        0.0000022434   0.0000008500   0.0000020833  -0.0000182301   0.0000050740
        0.0000034858   0.0000103322  -0.0000102555   0.0000820225  -0.0000294030
        0.0000305989  -0.0002340676  -0.0001642157  -0.0000949127  -0.0209143354
        0.0006851229  -0.0142964476   0.0032606598  -0.0000392706   0.0029398479
        0.0212324824  -0.0038062878   0.0137009595  -0.1061787953  -0.1979275196
        0.0173794130  -0.0093828794  -0.0480305778   0.0230775406   0.0122032880
       -0.0279584344  -0.0081705774   0.0013186990   0.0003516687  -0.0020952030
        0.0006128293   0.0007467570   0.0003244095  -0.0004885419   0.0003566644
       -0.0004642044   0.0000072189   0.0000450193  -0.0000125796  -0.0000019919
        0.0000221122   0.0000075968  -0.0000108416  -0.0000028584  -0.0000018023
       -0.0000115899  -0.0000055951  -0.0000023201  -0.0000064619  -0.0000046191
       -0.0000016626  -0.0000116172  -0.0000007705   0.0000000198  -0.0000236215
        0.0000098014   0.0000198661  -0.0000425677  -0.0000097095  -0.0000233300
        0.0000168508  -0.0000046206  -0.0000038522  -0.0000155132  -0.0000029172
        0.0000127586  -0.0000101470  -0.0000193673   0.0000173645  -0.0000041547
        0.0000062723  -0.0000028484  -0.0000031770   0.0000023272  -0.0000001978
       -0.0000015024   0.0000014096  -0.0000012802  -0.0000021410   0.0000018466
       -0.0000010709  -0.0000053200  -0.0000000298  -0.0000012405  -0.0000048809
        0.0000102828  -0.0000057314  -0.0000020376   0.0000119474  -0.0000045882
       -0.0000000716   0.0000037702   0.0000002079  -0.0000002216   0.0000062467
       -0.0000007129  -0.0000027725   0.0000050085   0.0000015767  -0.0000304169
        0.0000542554  -0.0000233558   0.0001061378   0.0000282133   0.0000408351
       -0.0645773585   0.0077759152  -0.1143580559  -0.0178475132  -0.0108201528
        0.5142284510   0.0229794721  -0.0300696123  -0.0775869592  -0.0091177235
        0.0118714273   0.0028215682   0.0002912975   0.0007649131   0.0003491893
        0.0000263273  -0.0002143883  -0.0001858244   0.0000184486  -0.0000239803
       -0.0000196788   0.0001583572   0.0001582397  -0.0000248408  -0.0002083642
       -0.0002234561   0.0000642275   0.0000379033   0.0002907442   0.0000331928
       -0.0000243242   0.0000012546   0.0000019745   0.0000108010   0.0000120430
        0.0000199555   0.0000208996   0.0000146902   0.0000171540  -0.0000010290
       -0.0000024849  -0.0000006606  -0.0000127779   0.0000135348   0.0000120939
       -0.0000061739  -0.0000072960  -0.0000120762   0.0000216945   0.0000333332
        0.0000291918  -0.0000428103  -0.0000220433  -0.0000253235  -0.0000598730
       -0.0000466549  -0.0000350137   0.0000665578  -0.0000635369   0.0000009917
        0.0000155601  -0.0000168833  -0.0000056320  -0.0000370099  -0.0000219542
        0.0000346904  -0.0000303266  -0.0000499467  -0.0000531748  -0.0000005799
       -0.0000112337  -0.0000179786  -0.0000156635   0.0000167661  -0.0000055865
        0.0000198360  -0.0000155926  -0.0000248848  -0.0001296969  -0.0001206026
       -0.0000023813  -0.0000226625  -0.0000606802   0.0000344837   0.0000483855
        0.0000178430  -0.0000074695  -0.0000144408  -0.0000146676   0.0000030011
        0.0000074566  -0.0000005027   0.0000028356  -0.0000047685   0.0000001307
       -0.0000005583   0.0000061519   0.0000030515  -0.0000052344  -0.0000232592
       -0.0000047721   0.0000038762   0.0001830029   0.0000134260  -0.0000596755
        0.0000112866  -0.0000322234  -0.0000056456  -0.0000152955  -0.0000002692
       -0.0000042467   0.0000043572  -0.0000208571   0.0000004587   0.0000022371
       -0.0000020224  -0.0000045087   0.0000043369  -0.0000026136  -0.0000028633
        0.0000064841   0.0000142876  -0.0000238339   0.0000986947   0.0002683001
       -0.0000347888  -0.0000915676   0.0000043943  -0.0002535835  -0.0008635519
       -0.0017633865   0.0007562095  -0.0244521447   0.0032422295  -0.0231937940
        0.0046588080  -0.0001935901   0.0040341649   0.0135176296   0.0170247408
       -0.0482569284   0.0646586196   0.0233104802  -0.2470222204  -0.0009725911
        0.0003089732   0.0011154517   0.0168570834  -0.0235470658  -0.0122561037
       -0.0036495926   0.0012889422  -0.0014603991  -0.0010799428   0.0009451985
        0.0009638185  -0.0000908580   0.0000420619   0.0000905375  -0.0000388684
       -0.0000152987   0.0000622846  -0.0000161196  -0.0000014438  -0.0000011273
       -0.0000037391  -0.0000101184  -0.0000079863   0.0000048791  -0.0000071289
       -0.0000025673   0.0000102352   0.0000012952   0.0000104936   0.0000197771
        0.0000179953   0.0000128650   0.0000486532  -0.0000001519   0.0000336486
       -0.0000443461   0.0000264137   0.0000310186   0.0000171278   0.0000317699
        0.0000096499   0.0000033193   0.0000185243   0.0000145051   0.0000040837
        0.0000051785   0.0000006946  -0.0000050066   0.0000020331  -0.0000000850
       -0.0000029458  -0.0000015833   0.0000013914  -0.0000022115  -0.0000039521
        0.0000028545   0.0000024594   0.0000020585  -0.0000011436  -0.0000021539
       -0.0000020757   0.0000171914   0.0000003050   0.0000075963   0.0000020540
       -0.0000039166   0.0000060540   0.0000056192  -0.0000056417   0.0000031297
        0.0000070485  -0.0000005024  -0.0000039545   0.0000097920  -0.0000269332
       -0.0000292995   0.0000086123  -0.0002982441  -0.0001114924   0.0001155933
       -0.0193036056   0.0205727015   0.0023482951  -0.0981315093   0.0508612500
        0.0229794721   0.4706257967   0.0330103916  -0.0272187949  -0.1324861904
        0.0179095255  -0.0572210163  -0.0256573177  -0.0094421657  -0.0105546582
        0.0005624459  -0.0002876218  -0.0012054504   0.0005125338  -0.0006577160
        0.0005866945   0.0003171608   0.0000718057  -0.0002010776  -0.0001902287
        0.0000425081  -0.0000797619  -0.0000088420   0.0000343865  -0.0000092990
        0.0000050103  -0.0000007113  -0.0000070713   0.0000050002  -0.0000094942
       -0.0000066364  -0.0000138170  -0.0000050859  -0.0000031072   0.0000079143
        0.0000077776   0.0000093384  -0.0000158979   0.0000066228   0.0000095308
       -0.0000069408   0.0000013907  -0.0000001701  -0.0000257964   0.0000016997
        0.0000016321  -0.0000221155   0.0000038489  -0.0000018582  -0.0000316525
       -0.0000013651  -0.0000068702  -0.0000284512  -0.0000264230  -0.0000437260
       -0.0000166559   0.0000048347  -0.0000039528   0.0000067638  -0.0000144783
       -0.0000286828   0.0000044277   0.0000086550   0.0000054272   0.0000327964
       -0.0000042611   0.0000174758   0.0000070439   0.0000043349   0.0000081359
        0.0000042296   0.0000126659   0.0000250979  -0.0000303813  -0.0000035030
        0.0000112820   0.0000121353  -0.0000246360  -0.0000031995  -0.0000058306
       -0.0000098726   0.0000065337   0.0000063532   0.0000070559  -0.0000025558
        0.0000043597   0.0000031961  -0.0000026721   0.0000001657   0.0000040381
       -0.0000016175   0.0000005825  -0.0000001884   0.0000006634  -0.0000002575
        0.0000100356  -0.0000037645   0.0000096868  -0.0000222931  -0.0000277247
       -0.0000185957   0.0000460620  -0.0000054691   0.0000344251  -0.0000089850
       -0.0000355891   0.0000006085   0.0000212582  -0.0000059012   0.0000097903
       -0.0000048152  -0.0000110579   0.0000030419   0.0000116525  -0.0000034428
        0.0000030864  -0.0000121056   0.0000114762  -0.0000179184  -0.0011861760
        0.0006529236  -0.0009391945   0.0015426569   0.0007831924   0.0005887460
        0.0009839917   0.0004775032   0.0008844998  -0.0002113394   0.0008243593
       -0.0041968368   0.0013141926  -0.0027255024   0.0079775842  -0.0113223391
       -0.0040097998  -0.0072949459   0.0098948102   0.0061645745  -0.1168022297
       -0.1081811669   0.0104893109  -0.0648674166  -0.0107324033   0.0681317606
       -0.0155328064   0.0059815833  -0.0106645049   0.0043887770  -0.0002936896
        0.0008190954  -0.0002638335   0.0000808925  -0.0002290037  -0.0000152170
       -0.0000014384  -0.0000499075   0.0000111821   0.0000001077   0.0000054231
        0.0000072970   0.0000030395   0.0000022614   0.0000091798   0.0000018158
        0.0000025502   0.0000114357  -0.0000035645  -0.0000017215   0.0000207270
       -0.0000058783  -0.0000056174   0.0000310968   0.0000029263   0.0000210997
        0.0000117114   0.0000042135   0.0000233871   0.0000109362  -0.0000045633
        0.0000072745   0.0000158933  -0.0000014898  -0.0000150274  -0.0000021880
       -0.0000061684   0.0000026244  -0.0000013883  -0.0000029902   0.0000004297
       -0.0000022113  -0.0000025143   0.0000014277  -0.0000032217  -0.0000053394
        0.0000016758   0.0000021904  -0.0000064936   0.0000032338  -0.0000095671
        0.0000045117   0.0000233682  -0.0000021818  -0.0000191792   0.0000138182
       -0.0000066128  -0.0000001548   0.0000049830  -0.0000076538  -0.0000051136
        0.0000084671  -0.0000072418  -0.0000056794   0.0000070869  -0.0000015501
       -0.0000548252   0.0000470486  -0.0001783141   0.0001157891  -0.0001437223
        0.0074742294  -0.0055990240   0.0011254526   0.0519922190  -0.1510739256
       -0.0300696123   0.0330103916   0.4925395043  -0.0118197098   0.0079690058
       -0.0622001451   0.0075509562  -0.0179946314   0.0017963704  -0.0119871433
       -0.0006386816  -0.0004844393  -0.0002523766   0.0006236028  -0.0003853923
        0.0005742620   0.0002092701  -0.0000330392  -0.0001815905  -0.0002580464
        0.0000412772  -0.0001261228   0.0000121726   0.0000870947   0.0000097703
        0.0000125186  -0.0000016746   0.0000029070   0.0000007137  -0.0000079650
       -0.0000067176   0.0000228964   0.0000017709   0.0000065209  -0.0000083290
        0.0000028124   0.0000116279   0.0000133436  -0.0000000119  -0.0000001039
        0.0000104146   0.0000161550   0.0000281284  -0.0000165032   0.0000106335
        0.0000047202   0.0000027593  -0.0000006953  -0.0000118772   0.0000050725
        0.0000176381  -0.0000010000  -0.0000082052   0.0000262197  -0.0000464791
        0.0000128812  -0.0000007176  -0.0000358130   0.0000606928   0.0000114831
       -0.0000290376  -0.0000108724   0.0000197340   0.0000288831   0.0000146995
       -0.0000203109  -0.0000160201   0.0000332577   0.0000063449   0.0000096329
        0.0000088613   0.0000225945  -0.0000105405  -0.0000813494   0.0000043898
        0.0000104617   0.0000027930  -0.0000526780   0.0000142425   0.0000175164
        0.0000061879   0.0000038013  -0.0000025788  -0.0000143933   0.0000064088
        0.0000003335  -0.0000027459   0.0000013267   0.0000025829  -0.0000013938
        0.0000006953   0.0000046016   0.0000029275  -0.0000022126  -0.0000093197
        0.0000025994  -0.0000001709   0.0000038762  -0.0000149011  -0.0000395231
        0.0000113822  -0.0000264376   0.0000080301  -0.0000090028   0.0000051359
       -0.0000071145  -0.0000037409  -0.0000093588   0.0000174536   0.0000018799
       -0.0000043891   0.0000033654   0.0000066128  -0.0000115464  -0.0000036426
       -0.0000054080   0.0000241813  -0.0000001366   0.0006468938  -0.0011458567
        0.0007001285  -0.0006199462  -0.0013162068   0.0005993806  -0.0011768243
        0.0010799405  -0.0003254902  -0.0004403191   0.0002675661  -0.0003977730
        0.0002877897   0.0007084533   0.0003818373   0.0129586231  -0.0277520543
       -0.0079157822   0.0014715340   0.0000784085  -0.0020446492  -0.1079429766
       -0.1938498434   0.0119725373  -0.0104873820  -0.0479132815   0.0261941628
        0.0218214677  -0.0059193858   0.0147895109   0.0017168142   0.0006805829
        0.0017992457  -0.0002104452   0.0002569319  -0.0002272207  -0.0000129095
        0.0000111654  -0.0000167818  -0.0000133350   0.0000003023  -0.0000014706
       -0.0000141966  -0.0000067241  -0.0000049919  -0.0000093781  -0.0000095464
       -0.0000047597  -0.0000109859  -0.0000108114  -0.0000042200  -0.0000157520
       -0.0000050694   0.0000161056  -0.0000050121  -0.0000170245   0.0000013342
        0.0000021547  -0.0000135980   0.0000295401  -0.0000303198   0.0000057323
        0.0000216045  -0.0000289009  -0.0000021981  -0.0000057366   0.0000000220
        0.0000088070  -0.0000047349  -0.0000043531   0.0000038414  -0.0000015044
       -0.0000044287   0.0000016553  -0.0000009088  -0.0000030989   0.0000005006
        0.0000005659  -0.0000004694   0.0000015798  -0.0000010427   0.0000122615
        0.0000034424   0.0000014371  -0.0000012706   0.0000038368  -0.0000080771
       -0.0000009037   0.0000057046  -0.0000013991  -0.0000019088   0.0000060323
       -0.0000009864  -0.0000006733   0.0000034516  -0.0000030213  -0.0000753372
       -0.0000189922  -0.0000163180  -0.0003003461   0.0001527880  -0.0002922243
       -0.0095309071   0.0118840589   0.0030277088   0.0232790450  -0.0302533503
       -0.0775869592  -0.0272187949  -0.0118197098   0.5056291200  -0.0527167226
        0.0133091274  -0.1086002075  -0.0052323256  -0.0070755619   0.0025899966
        0.0015348723   0.0014048736  -0.0013470909  -0.0004578397  -0.0004927714
       -0.0001508453  -0.0001185084  -0.0000385011   0.0001855704   0.0002685235
        0.0004069242  -0.0001033355  -0.0000456944  -0.0004652412  -0.0000328217
        0.0000118510  -0.0000010196  -0.0000152520  -0.0000160126  -0.0000375729
       -0.0000537011  -0.0000026643  -0.0000064985  -0.0000227934   0.0000055982
       -0.0000087589   0.0000002321   0.0000084891  -0.0000095226  -0.0000105275