$hessian                                                                        
        0.0612757147  -0.0290759536   0.0719850313  -0.0687954477   0.0219554988
       -0.0537820429  -0.0000321803   0.0136077083  -0.0344506821   0.0053426353
        0.0004184980  -0.0004541617  -0.0000117132   0.0002966164   0.0003883713
        0.0006073017  -0.0001303350   0.0002039363  -0.0004119323  -0.0000010363
       -0.0000516095   0.0006913373   0.0002864032   0.0002484637  -0.0039877557
       -0.0020307109  -0.0022808191   0.0017741849   0.0020156776   0.0021740262
        0.0006607394  -0.0001866699  -0.0002279225  -0.0000259876   0.0001853354
        0.0002019755   0.0000536199  -0.0000824990   0.0000804860  -0.0000173612
       -0.0000363333   0.0000223519   0.0000090531   0.0000743562  -0.0000126009
        0.0000474507   0.0001373392   0.0000867895   0.0010414515  -0.0005205420
       -0.0014272273  -0.0001691088   0.0003177953   0.0008376551  -0.0006028534
       -0.0000516974   0.0003218641   0.0003840646   0.0006441401  -0.0011524642
        0.0003294070  -0.0005853377   0.0000490054  -0.0009970658  -0.0001968109
       -0.0014177997  -0.0012293293  -0.0000103907   0.0009398969   0.0045479515
       -0.0049881236   0.0176184212  -0.0005521145  -0.0015248111  -0.0005486509
        0.0003439297   0.0003144724   0.0002822711   0.0000480277   0.0000577329
        0.0000085065   0.0001045796   0.0000223345  -0.0000276511   0.0001117648
       -0.0001630918  -0.0001002434  -0.0001339050  -0.0003313102  -0.0000775563
       -0.0000389599   0.0000240738  -0.0000545208  -0.0000542943   0.0000076649
       -0.0000504946  -0.0000311776  -0.0000032796  -0.0000207186   0.0000960281
       -0.0000250838   0.0002672621  -0.0001760234  -0.0001184613  -0.0001126613
       -0.0002020313  -0.0003031690   0.0005335126
       -0.0290759536   0.0867533658  -0.1453431898   0.0242018468  -0.0918119833
        0.1238572810   0.0078255479   0.0015404555   0.0220086543   0.0001721392
        0.0083880432  -0.0172950840   0.0004808196  -0.0004825006  -0.0008647083
        0.0004534576  -0.0013452910   0.0010302050  -0.0008011719   0.0000206025
       -0.0002613952   0.0003204874   0.0003589557   0.0016126116  -0.0029090007
       -0.0024965998  -0.0010954339   0.0016195547   0.0052048347  -0.0002809309
        0.0002260650  -0.0002758280   0.0003695307  -0.0005312773  -0.0003145352
       -0.0001814777  -0.0000679347   0.0001299313  -0.0000689563   0.0000802352
        0.0001319360  -0.0000736836   0.0003421489  -0.0000411773   0.0000570251
       -0.0003238231   0.0004440898  -0.0001029522   0.0015813541  -0.0028291723
        0.0000248819  -0.0003166692   0.0009459607   0.0003093544  -0.0005776688
        0.0006492627  -0.0001197767  -0.0003308326   0.0019366312  -0.0010231274
        0.0004437635  -0.0008948052   0.0000524516  -0.0013307955   0.0002930159
       -0.0014523330  -0.0011059704   0.0004256358   0.0007356031  -0.0006690097
        0.0002035728   0.0172974698   0.0000457610  -0.0079501596   0.0006839456
        0.0000624937  -0.0000475177  -0.0003843767  -0.0000167772  -0.0001853216
        0.0000449518   0.0000453182   0.0001278115  -0.0002138819   0.0000335949
       -0.0001086370  -0.0000587085   0.0000745920   0.0005495836   0.0000108195
       -0.0000118368   0.0000653963  -0.0000149477   0.0000752574   0.0000409575
       -0.0000232616   0.0000526129  -0.0000141237   0.0000149594   0.0000708683
        0.0000627982   0.0003412005  -0.0001859730  -0.0000316660  -0.0000650044
        0.0000467762   0.0005564777   0.0004722847
        0.0719850313  -0.1453431898   0.5062943886  -0.0619901864   0.1273982023
       -0.4697167123  -0.0092381938   0.0084934600  -0.0039656727  -0.0025897421
        0.0043315190  -0.0182791296   0.0029581602  -0.0014213086  -0.0017626238
       -0.0001277951  -0.0020349968   0.0009663874  -0.0007910305   0.0004115341
        0.0001400398   0.0004792879  -0.0002480766   0.0014741790  -0.0051669819
       -0.0022029621  -0.0028667503   0.0017054622   0.0002673013   0.0021977232
       -0.0020936148   0.0014654894  -0.0012152915   0.0005557535  -0.0002639923
        0.0005357292  -0.0002599777   0.0000867021  -0.0000361461   0.0001869244
       -0.0000229383   0.0000623853  -0.0002680288   0.0000158368   0.0000380801
        0.0007589800  -0.0000172755   0.0002795648  -0.0030018138   0.0009447978
       -0.0012825369   0.0008345538  -0.0003125939   0.0002194967   0.0013637947
        0.0001596353   0.0006150341   0.0010605126  -0.0005967440   0.0008491868
       -0.0004036857   0.0002110862   0.0000822256   0.0009689110   0.0008089765
        0.0010830893   0.0025228052  -0.0012419764  -0.0012374493   0.0000409368
        0.0068065579  -0.0102290766  -0.0002970540   0.0028615191  -0.0012390414
        0.0005836761   0.0006955022  -0.0006549251  -0.0000040933  -0.0004258299
       -0.0001790461   0.0000877625   0.0001526309  -0.0004097707   0.0001286871
       -0.0002101086  -0.0001950715  -0.0001185732  -0.0003013556  -0.0003312791
        0.0000403900  -0.0001322046   0.0000107898  -0.0000021041  -0.0000817154
       -0.0000172506  -0.0000080672  -0.0000286647  -0.0000479252  -0.0000930117
        0.0000105191  -0.0003057372   0.0003122029   0.0001891001  -0.0000519860
       -0.0001198781  -0.0004244366  -0.0008248778
       -0.0687954477   0.0242018468  -0.0619901864   0.6442297271  -0.1812015341
        0.1000115654  -0.3963457658   0.1988867710  -0.0713605488  -0.0464127904
        0.0073921891   0.0028977107   0.0056186413  -0.0106732571  -0.0068610341
       -0.0042382982  -0.0018961004  -0.0023259911   0.0007486881   0.0002918752
        0.0004597036  -0.0049735951   0.0002980723  -0.0003954540   0.0042308916
        0.0195020481   0.0150190642  -0.0008916702  -0.0118898000  -0.0029662504
       -0.0037363817   0.0017947880  -0.0009255957   0.0007406519  -0.0009174518
        0.0002134320  -0.0004735344   0.0001735082  -0.0002693258   0.0003001592
        0.0001606481  -0.0000734206  -0.0003260565  -0.0000996750   0.0000536586
        0.0007887430  -0.0008002105   0.0000652083  -0.0059251511   0.0031263709
        0.0035177384   0.0010447610  -0.0015873844  -0.0030048238   0.0028706142
        0.0002351337  -0.0003032458  -0.0023308932  -0.0008191219   0.0015037108
       -0.0015401752   0.0018311413   0.0001643358   0.0042698511   0.0010370705
        0.0012161528   0.0005311199  -0.0117498604  -0.0000095375  -0.1081985057
       -0.0453559634   0.0202722117  -0.0206406696   0.0061860089   0.0068262631
       -0.0014621711  -0.0019090137  -0.0011912998  -0.0002134936  -0.0009892046
       -0.0007015596  -0.0004491839  -0.0000769664   0.0000613260  -0.0006005673
        0.0010859682   0.0006313396   0.0002289858   0.0004529139  -0.0000017071
        0.0001228553  -0.0001384612   0.0001422057   0.0001490094  -0.0001097253
        0.0001319109   0.0000862564  -0.0000172966   0.0000366251  -0.0003117831
        0.0001734305  -0.0002241366   0.0006098142   0.0007005087   0.0000399706
        0.0012953643   0.0027007334  -0.0006600163
        0.0219554988  -0.0918119833   0.1273982023  -0.1812015341   0.4832203714
       -0.1199975296   0.2008515525  -0.1757464406   0.0428991531   0.0048677151
       -0.1133180054  -0.0517707466  -0.0072549150  -0.0124511974  -0.0089967862
       -0.0040493430   0.0040054660  -0.0022145736   0.0029006295  -0.0008415463
        0.0002119486  -0.0003648115  -0.0011362082  -0.0036796426   0.0239895666
       -0.0012320871  -0.0011955324  -0.0099900776  -0.0177982329  -0.0021142496
        0.0012015376  -0.0015318511   0.0002226281   0.0007149145   0.0008593251
       -0.0000404568   0.0004263140  -0.0003992134   0.0002511721  -0.0003850443
       -0.0003502203   0.0002198652  -0.0007659061  -0.0000111903  -0.0000820493
        0.0002417584  -0.0011943893   0.0000053122  -0.0030955358   0.0082573837
        0.0000695951   0.0005150387  -0.0028238804  -0.0009353097   0.0014240499
       -0.0018953181   0.0002713544   0.0019259491  -0.0057535032  -0.0008007745
       -0.0010386345   0.0021335719  -0.0002405208   0.0030157797  -0.0055906918
        0.0000889083  -0.0154876255  -0.0130152709   0.0044564172  -0.0423428931
       -0.0777619964   0.0148698346   0.0025235309   0.0276837732  -0.0017005830
        0.0007055470   0.0008792389   0.0015250782   0.0002838964   0.0003266578
       -0.0000668416  -0.0001215648  -0.0001226844   0.0006317499  -0.0002646747
        0.0002821340   0.0002246672  -0.0001570728  -0.0008870987   0.0004037435
        0.0000094480  -0.0000917380   0.0000278118  -0.0001719338  -0.0000584582
        0.0000698121  -0.0001555482   0.0000793826  -0.0000499115   0.0001219681
       -0.0001927098  -0.0001351260  -0.0005188343  -0.0005285407   0.0002492777
       -0.0003087458  -0.0011828482  -0.0000758977
       -0.0537820429   0.1238572810  -0.4697167123   0.1000115654  -0.1199975296
        0.6706297428  -0.0773401067   0.0457655367  -0.0786219620   0.0042895088
       -0.0509949885  -0.0771291573  -0.0053730786  -0.0089592087  -0.0078119378
       -0.0030676623  -0.0012372081   0.0044909009   0.0015219510  -0.0005267859
       -0.0004968884  -0.0008004339  -0.0030481574   0.0034736990   0.0144120442
        0.0002129557   0.0016065796  -0.0068523985  -0.0003157950  -0.0083562491
        0.0031899489  -0.0027494385   0.0022769530  -0.0010476034   0.0004580311
       -0.0009990952   0.0005389001  -0.0000905335   0.0000453243  -0.0003514562
       -0.0000128802  -0.0000776363   0.0003253576  -0.0000798302  -0.0001152268
       -0.0013768409  -0.0000025992  -0.0005725822   0.0035265983  -0.0000883641
        0.0034252028  -0.0014209008  -0.0000153157  -0.0012747037  -0.0016706891
       -0.0004437273  -0.0011798006   0.0004914077  -0.0004958367   0.0043955613
        0.0001437470   0.0001526747  -0.0003791010   0.0003985342  -0.0009436627
        0.0057668143  -0.0007770241   0.0040771907  -0.0008898894   0.0215825966
        0.0134320131  -0.0467827392   0.0042693819  -0.0005695039   0.0004101188
        0.0000271922   0.0010314035  -0.0006440112   0.0001374914   0.0000044797
        0.0002750224   0.0000214769   0.0008153622  -0.0007214354  -0.0002690254
        0.0002729526   0.0003308634   0.0002206343   0.0006397953   0.0005270787
       -0.0000599143   0.0001782927  -0.0000105608   0.0000247420   0.0001324461
        0.0000583533   0.0000026491   0.0000685490   0.0000614845  -0.0002472822
       -0.0001006559  -0.0011883951  -0.0001757122  -0.0002637230   0.0003783256
       -0.0005235563  -0.0001632201  -0.0011839411
       -0.0000321803   0.0078255479  -0.0092381938  -0.3963457658   0.2008515525
       -0.0773401067   0.4217402847  -0.2249014267   0.0881042942  -0.0048310748
        0.0011008541  -0.0021178529  -0.0019838182  -0.0007969164  -0.0006355522
        0.0005074771  -0.0000503735   0.0003389755  -0.0001170326  -0.0003949005
       -0.0002909546  -0.0007280816   0.0000512348   0.0003996984   0.0002985053
        0.0021448651   0.0003607773   0.0015083268   0.0015446194   0.0000781518
        0.0017363103  -0.0010088704   0.0004201850  -0.0002208446   0.0004282173
       -0.0001657841   0.0001900868  -0.0001302764   0.0001471804  -0.0001561087
       -0.0001149617   0.0000517960   0.0001422992   0.0000802786  -0.0000675824
       -0.0003496617   0.0002413113   0.0000588526   0.0028712603  -0.0014385143
       -0.0016645876  -0.0006051791   0.0005807708   0.0013642292  -0.0019737918
       -0.0001966958   0.0001493934  -0.0015814013   0.0021710911   0.0012810559
        0.0003883723  -0.0001651970  -0.0000535997  -0.0000266442   0.0005043232
        0.0004045834  -0.0003159708   0.0024187485  -0.0000612560  -0.0152930161
        0.0160942722  -0.0024515279  -0.0058384961  -0.0076881652   0.0007460975
        0.0011233540   0.0009896263   0.0004245489   0.0001822991   0.0001973155
        0.0001614231   0.0001973499   0.0000820154  -0.0000360435   0.0000744610
        0.0002663556   0.0000996739  -0.0000755118  -0.0002830108   0.0000765561
       -0.0000387002   0.0000707687  -0.0000529277  -0.0001012873   0.0000727510
       -0.0000573515  -0.0000385752  -0.0000078295  -0.0000021237   0.0000021425
       -0.0000501452  -0.0001610732  -0.0000875095  -0.0001889486   0.0000279524
       -0.0002218776  -0.0003002871  -0.0002989075
        0.0136077083   0.0015404555   0.0084934600   0.1988867710  -0.1757464406
        0.0457655367  -0.2249014267   0.1742684228  -0.0551422437   0.0204252160
       -0.0032578561   0.0045148040   0.0012125417   0.0005675431   0.0005764536
        0.0008492730   0.0004723567   0.0001270184  -0.0005912932   0.0002676829
        0.0000331306   0.0024639444   0.0006923968  -0.0000490339  -0.0035950674
       -0.0079414329  -0.0049348968   0.0013325466   0.0035237906   0.0008671748
       -0.0009974123   0.0007419129  -0.0002525480  -0.0000904621  -0.0003578022
        0.0001410746  -0.0001863789   0.0001547505  -0.0001178299   0.0001691275
        0.0001568348  -0.0000940859   0.0001407392  -0.0000349996   0.0000483195
        0.0000626079   0.0002614469   0.0000188609  -0.0002474171  -0.0018906199
        0.0004467431   0.0000548991   0.0006471111  -0.0001631007   0.0002035981
        0.0006343757  -0.0000627027  -0.0001348704   0.0011687442   0.0002015700
       -0.0000642209  -0.0004633356   0.0001286414  -0.0000369779   0.0011964601
        0.0000824803   0.0001773923  -0.0013179004  -0.0003007962  -0.0074441393
        0.0076323677  -0.0013872365  -0.0021284385  -0.0043518631   0.0009428673
        0.0003266879   0.0000939616   0.0004693571  -0.0000846316  -0.0000874327
       -0.0000523662   0.0000275359  -0.0001628932   0.0000243559   0.0001503288
       -0.0006471931  -0.0003507994   0.0000414582   0.0003042969  -0.0001727653
        0.0000054993   0.0000044037   0.0000022929   0.0000774031  -0.0000079758
       -0.0000006199   0.0000572087  -0.0000143273   0.0000105499  -0.0001297867
        0.0000842391   0.0000290484   0.0000619153   0.0001877096  -0.0000379361
        0.0002981207   0.0016808096   0.0001952219
       -0.0344506821   0.0220086543  -0.0039656727  -0.0713605488   0.0428991531
       -0.0786219620   0.0881042942  -0.0551422437   0.0755877713   0.0097691337
       -0.0058209241   0.0052978405  -0.0002743597  -0.0001535436   0.0004672573
        0.0005967320   0.0005182955  -0.0001124602  -0.0001783229  -0.0000248067
       -0.0000285443   0.0008482280   0.0002207064  -0.0004543076  -0.0006865249
       -0.0039461218  -0.0021182543   0.0009488984   0.0003904522   0.0009844526
       -0.0003653052   0.0003327146  -0.0003514972   0.0001358830  -0.0000523500
        0.0001652151  -0.0000372796  -0.0000018491   0.0000190874   0.0000483569
       -0.0000240040   0.0000281924  -0.0000055346  -0.0000005602   0.0000396880
        0.0001879177   0.0000497298   0.0001247029  -0.0003091240  -0.0002657891
       -0.0011736072   0.0003204554   0.0001167455   0.0006101151   0.0001551955
        0.0000628488   0.0002385281   0.0000941369   0.0002289491  -0.0002524855
        0.0000679344  -0.0000599620   0.0000008855  -0.0001311791  -0.0001652062
       -0.0003820390  -0.0000982884   0.0001252905   0.0004525308   0.0042947056
       -0.0013874287   0.0045115485   0.0014102953   0.0001615699  -0.0000909279
        0.0006562415   0.0004434496  -0.0001977401   0.0000323918   0.0000599806
        0.0000151415   0.0000595573  -0.0000961279   0.0000441057   0.0000918685
       -0.0001772063  -0.0001842811  -0.0000178823  -0.0000951332  -0.0001318819
        0.0000166188  -0.0000300117   0.0000022418  -0.0000104617  -0.0000173409
       -0.0000150287  -0.0000057452  -0.0000154269  -0.0000059553   0.0000425924
        0.0000146089   0.0000566254  -0.0000246341  -0.0000314357  -0.0000353886
        0.0000744349  -0.0001256771  -0.0005238963
        0.0053426353   0.0001721392  -0.0025897421  -0.0464127904   0.0048677151
        0.0042895088  -0.0048310748   0.0204252160   0.0097691337   0.6586138290
        0.0072041493   0.0580219418  -0.2481205444  -0.0623482200  -0.0634094205
        0.0369291326  -0.0626801991  -0.0399588032  -0.0613697944  -0.0044959571
       -0.0073502682   0.0066859437   0.0680080147   0.0465578178  -0.2745698536
        0.0530351937   0.0143203764  -0.0446942988   0.0000617837  -0.0054880492
       -0.0019643889  -0.0033725839   0.0006174582   0.0006207819  -0.0006364376
        0.0011043870  -0.0004504487   0.0002177281   0.0002008095   0.0004698596
        0.0001438064  -0.0001240938  -0.0000217256  -0.0002718156   0.0001746432
       -0.0015169099   0.0008217902  -0.0005931407   0.0007929722  -0.0002456321
       -0.0013722361   0.0000453439   0.0003233581   0.0007576614  -0.0003502405
       -0.0000609397   0.0001866284   0.0004270011  -0.0003474206   0.0007622505
       -0.0000676090   0.0002885904  -0.0001896668   0.0006282583  -0.0007910552
        0.0006425499  -0.0039514936  -0.0027526952   0.0010953415   0.0030659415
       -0.0105679803  -0.0077284902   0.0007851726   0.0028174870   0.0008778102
       -0.0265112134  -0.0116876428  -0.0099076395   0.0010148227   0.0006958208
       -0.0001401886  -0.0006566861  -0.0000929201  -0.0000986681   0.0006205700
        0.0009305245   0.0001800938   0.0001313064   0.0004014590  -0.0002244171
       -0.0000069813   0.0000597228  -0.0000179244   0.0000388341  -0.0000128154
       -0.0000604514  -0.0000645098   0.0000611866  -0.0000353160  -0.0000071176
       -0.0000190218  -0.0001600497  -0.0002683033  -0.0001674308   0.0000628034
       -0.0003764209   0.0000150817  -0.0001726505
        0.0004184980   0.0083880432   0.0043315190   0.0073921891  -0.1133180054
       -0.0509949885   0.0011008541  -0.0032578561  -0.0058209241   0.0072041493
        0.3713042055   0.1878373256  -0.1104617829  -0.1193345026  -0.0628898644
       -0.0126805329  -0.0335400381  -0.0265413973  -0.0076216288   0.0001356557
        0.0026774863   0.0249900220  -0.0153068458  -0.0114403494   0.0919619361
       -0.1000665730  -0.0278155980  -0.0090393162   0.0112112281   0.0040229594
       -0.0018801896  -0.0012129325   0.0006231566   0.0001892234  -0.0000165930
        0.0000674849  -0.0001217119   0.0000577250  -0.0000340159   0.0000224552
        0.0000966458  -0.0000623431  -0.0001417624  -0.0001282274   0.0000939291
       -0.0008168017   0.0004850418  -0.0003972079   0.0007944412  -0.0011989191
        0.0000066928  -0.0001350810   0.0004445046   0.0000165958  -0.0002388869
        0.0002632597  -0.0000506402   0.0002897195   0.0009888513  -0.0002387196
       -0.0000509512  -0.0000234048   0.0001146946   0.0004703041  -0.0004623911
        0.0005178636  -0.0031282591  -0.0015729066  -0.0001486481   0.0034195698
       -0.0028727770  -0.0056913903   0.0004916675  -0.0030801323  -0.0012555329
        0.0061418693   0.0048900626   0.0041135282   0.0008811931  -0.0018103224
       -0.0061853978  -0.0003816650   0.0005570397   0.0008131650   0.0011060037
       -0.0018271951  -0.0056304959   0.0001606844  -0.0001556641   0.0000319079
       -0.0000160710   0.0000172931  -0.0000027917  -0.0000007059  -0.0000006186
       -0.0000289815  -0.0000436318   0.0000178047  -0.0000141901  -0.0000159923
        0.0000585238  -0.0000206731  -0.0002229648  -0.0000903691   0.0001603741
       -0.0000368442   0.0003603892  -0.0001645330
       -0.0004541617  -0.0172950840  -0.0182791296   0.0028977107  -0.0517707466
       -0.0771291573  -0.0021178529   0.0045148040   0.0052978405   0.0580219418
        0.1878373256   0.2511752209  -0.0941392965  -0.0579321492  -0.0906604308
       -0.0061783875  -0.0316562254  -0.0190971231  -0.0106541383   0.0034468911
       -0.0034391980   0.0176791311  -0.0069272760  -0.0009257529   0.0445464072
       -0.0305456194  -0.0626833362  -0.0111699066   0.0047986054   0.0029558568
       -0.0029812113  -0.0013711180   0.0005795412   0.0003638421  -0.0001221523
        0.0002870815  -0.0002010599  -0.0000641822   0.0000251827   0.0000608680
        0.0000487966  -0.0000192486  -0.0002267704  -0.0001218529   0.0000745762
       -0.0005884795   0.0003971271  -0.0003149287   0.0000663770  -0.0000013105
       -0.0005713604   0.0000859916   0.0001013600   0.0002784616   0.0000582681
       -0.0000201473   0.0001249104  -0.0002637469   0.0000552168  -0.0005334160
        0.0000167725   0.0001327944  -0.0000147034   0.0001212600   0.0003117812
       -0.0005277399   0.0011837343   0.0007028703   0.0002308591   0.0011180911
        0.0047806396   0.0042536731   0.0008637323   0.0000780225  -0.0004217046
        0.0017295483   0.0021043654   0.0022564233  -0.0000692566  -0.0062262434
        0.0034733336  -0.0002732238   0.0005605542   0.0002420077   0.0003560573
       -0.0058767142   0.0032272567   0.0000164451  -0.0001503827   0.0000622948
        0.0000105494  -0.0000207666  -0.0000060710  -0.0000171333  -0.0000136643
       -0.0000114107  -0.0000631096   0.0000249728  -0.0000219842   0.0000409739
        0.0000412242   0.0001588799   0.0000493500   0.0000773489  -0.0001547545
        0.0001106829   0.0001009348   0.0001080501
       -0.0000117132   0.0004808196   0.0029581602   0.0056186413  -0.0072549150
       -0.0053730786  -0.0019838182   0.0012125417  -0.0002743597  -0.2481205444
       -0.1104617829  -0.0941392965   0.6639091768  -0.0434726406   0.0256501170
       -0.0976073542   0.0625655797   0.0375672263   0.0115095001   0.0268227181
        0.0182624656  -0.0056714397  -0.0188117604  -0.0125303928  -0.0593961653
        0.0092752674   0.0017891087  -0.0036660203   0.0025092037  -0.0010569159
       -0.0017546786  -0.0004311728   0.0000000000  -0.0001667426  -0.0001580575
       -0.0001640744   0.0001816547  -0.0000985554  -0.0000342391  -0.0000864770
       -0.0000884134   0.0000746795  -0.0001941539   0.0000368962  -0.0000282713
       -0.0000210624   0.0001417023  -0.0002263986  -0.0003239146   0.0007661272
        0.0003251353   0.0000080311  -0.0003416802  -0.0002685606   0.0001411132
       -0.0001412078  -0.0000054109   0.0000560601  -0.0001552667  -0.0000433805
        0.0000339553   0.0000432418  -0.0000244391  -0.0000559558  -0.0000177261
        0.0000047439   0.0002896426  -0.0002115547  -0.0002210500   0.0003800065
        0.0006424797   0.0003741465  -0.0002256411   0.0005489728   0.0001554466
       -0.2604448074   0.0931637158   0.0393349017   0.0020962656  -0.0190069967
       -0.0123652140  -0.0048886584   0.0028879879   0.0005099948   0.0006299505
       -0.0005210229  -0.0003110370  -0.0002339844   0.0000009283   0.0000033927
       -0.0000060347  -0.0000056984   0.0000024187  -0.0000052302   0.0000137161
        0.0000236625  -0.0000369932   0.0000203420  -0.0000190827  -0.0000105414
        0.0000095895  -0.0000021205   0.0000638893   0.0000471420   0.0000290781
       -0.0000059562  -0.0000105205   0.0000226445
        0.0002966164  -0.0004825006  -0.0014213086  -0.0106732571  -0.0124511974
       -0.0089592087  -0.0007969164   0.0005675431  -0.0001535436  -0.0623482200
       -0.1193345026  -0.0579321492  -0.0434726406   0.4897454399   0.2458127721
       -0.0034409127  -0.2463151114  -0.1311549410   0.0753228352  -0.0178763256
       -0.0066556684  -0.0195112009  -0.0362527720  -0.0222377954  -0.0342345162
        0.0373814206   0.0236666355   0.0040263044   0.0014699783  -0.0042030627
        0.0003044694   0.0000370878  -0.0005518251  -0.0005293789   0.0001823843
       -0.0004430574   0.0003451969  -0.0001489490  -0.0000174835  -0.0002261222
       -0.0001373081   0.0000934881  -0.0000362554   0.0002391055  -0.0000863861
        0.0002701176  -0.0001280199   0.0001213840   0.0000998615  -0.0000139875
        0.0000786995  -0.0000747082  -0.0000394451  -0.0000158537  -0.0000802622
       -0.0000343520   0.0000003058   0.0000621818   0.0002339240   0.0004291482
        0.0001505756  -0.0001010010  -0.0000349082  -0.0001207128  -0.0002625300
        0.0003518444  -0.0010523423  -0.0008261541   0.0003459436   0.0000481687
       -0.0042555091  -0.0029603625   0.0003385776  -0.0003672783   0.0000853394
        0.0929133385  -0.0786618248  -0.0208841969   0.0001897398  -0.0139316657
       -0.0094491952   0.0028316385   0.0020226871  -0.0036749359  -0.0003444841
       -0.0003819383   0.0000072319  -0.0001023553   0.0000382055   0.0000056385
       -0.0000011737  -0.0000171994  -0.0000253448   0.0000044799   0.0000053350
        0.0000302975   0.0000216631   0.0000024102   0.0000023970  -0.0000117948
        0.0000177151  -0.0000916690  -0.0000644050  -0.0000150099   0.0000022772
       -0.0001041060   0.0000913450  -0.0000805070
        0.0003883713  -0.0008647083  -0.0017626238  -0.0068610341  -0.0089967862
       -0.0078119378  -0.0006355522   0.0005764536   0.0004672573  -0.0634094205
       -0.0628898644  -0.0906604308   0.0256501170   0.2458127721   0.2815636550
       -0.0075859560  -0.1249687721  -0.1302049301   0.0520849054  -0.0104595958
       -0.0007013226  -0.0134610033  -0.0236109736  -0.0209625342  -0.0267218651
        0.0277397012   0.0149876231   0.0003636686  -0.0038648751   0.0024652399
        0.0006471069   0.0003919985   0.0006336918  -0.0002544138   0.0002181675
       -0.0003450881   0.0002764235  -0.0001647564  -0.0000498572  -0.0001774403
       -0.0001119777   0.0000878680  -0.0000265026   0.0000869485  -0.0001988613
        0.0001762360  -0.0000961984   0.0000759944   0.0000572755   0.0000803181
       -0.0001172052  -0.0000136697  -0.0000557314   0.0000388645  -0.0000699869
       -0.0000484642   0.0000391043   0.0001054871  -0.0001368271   0.0001194661
        0.0001069920  -0.0003119590  -0.0000913513  -0.0003563521  -0.0002355828
        0.0002347816  -0.0007791387  -0.0003065081  -0.0003214024   0.0010104029
       -0.0024132590  -0.0009254968  -0.0007732202  -0.0002628876   0.0006292990
        0.0397237165  -0.0204016528  -0.0447388506   0.0002923046  -0.0111603045
       -0.0072332601   0.0006632994  -0.0034547726   0.0050300050  -0.0001442360
       -0.0001336202  -0.0002957853  -0.0001557989   0.0000501323   0.0000207916
       -0.0000019153  -0.0000155779  -0.0000255093  -0.0000090530   0.0000215911
        0.0000446941   0.0000036435  -0.0000036920  -0.0000033451  -0.0000220254
       -0.0000408840  -0.0000587154  -0.0000203279  -0.0000223811   0.0001441112
       -0.0000710384   0.0000545292  -0.0000739395
        0.0006073017   0.0004534576  -0.0001277951  -0.0042382982  -0.0040493430
       -0.0030676623   0.0005074771   0.0008492730   0.0005967320   0.0369291326
       -0.0126805329  -0.0061783875  -0.0976073542  -0.0034409127  -0.0075859560
        0.6566058465  -0.0050702297   0.0507795068  -0.2892454306   0.1083215600
        0.0471327223  -0.0652710618  -0.0361051846  -0.0284358717  -0.0188708969
        0.0292967143   0.0191426914  -0.0020863695  -0.0023524382  -0.0024572995
        0.0002915757  -0.0000481528  -0.0002357089  -0.0005628857   0.0000345656
       -0.0003211797   0.0003698783  -0.0001661277  -0.0000016244  -0.0002243351
       -0.0002099905   0.0001521642  -0.0000852738   0.0002263996  -0.0001762056
        0.0004689522  -0.0000236537   0.0000619181   0.0003013646   0.0003839764
       -0.0003490033  -0.0000183772  -0.0000805001   0.0001859718  -0.0001568330
       -0.0001683038   0.0000474424  -0.0000122605  -0.0001671543   0.0001585769
        0.0000211784  -0.0000138578  -0.0001524178  -0.0001004935  -0.0001535879
        0.0000597891  -0.0000007857   0.0001089348  -0.0000843333   0.0002762475
       -0.0010225229  -0.0002607421   0.0000213534   0.0011631892   0.0006883236
       -0.0042547011   0.0218882234   0.0140110493  -0.2052322841  -0.0985743592
       -0.0822127326  -0.0051393847   0.0038245901   0.0011697016  -0.0029537289
       -0.0022550181  -0.0023890473  -0.0002864625   0.0000124239  -0.0000865510
       -0.0000209742   0.0000050577  -0.0000417041  -0.0000195972   0.0000362660
        0.0000200498  -0.0000089820  -0.0000002349  -0.0000215797  -0.0000099881
       -0.0000076018  -0.0000397043   0.0000258042  -0.0000144309   0.0000459271
       -0.0000193537  -0.0000004939  -0.0000270601
       -0.0001303350  -0.0013452910  -0.0020349968  -0.0018961004   0.0040054660
       -0.0012372081  -0.0000503735   0.0004723567   0.0005182955  -0.0626801991
       -0.0335400381  -0.0316562254   0.0625655797  -0.2463151114  -0.1249687721
       -0.0050702297   0.4932357132   0.2504436168   0.0427351065  -0.1086346307
       -0.0347792646   0.0118796788   0.0400816672   0.0263303852   0.0276764634
       -0.0302768946  -0.0145914354  -0.0001262192   0.0006556501   0.0018081897
       -0.0000382963   0.0000621489  -0.0001340358   0.0003336969  -0.0001299030
        0.0003130669  -0.0003037126   0.0001456580   0.0000050679   0.0002114452
        0.0001258968  -0.0000833077   0.0000881500  -0.0001378531   0.0001125719
       -0.0001441365   0.0000974415  -0.0000487119  -0.0001626164  -0.0003501517
        0.0000140763   0.0000363756   0.0001315463   0.0000224460   0.0001160525
        0.0001569785   0.0000242972   0.0000711629   0.0000244252  -0.0001508462
       -0.0000916475   0.0001004213   0.0000528707   0.0002310042   0.0001013023
       -0.0000629727  -0.0001190877  -0.0002866861   0.0002917989  -0.0000932700
        0.0005133820   0.0000397442   0.0001105034  -0.0005312647  -0.0003219663
        0.0032097697  -0.0095718557  -0.0063057991  -0.0984749198  -0.1003558568
       -0.0539911555   0.0227550991  -0.0102040286  -0.0050402867  -0.0026780982
        0.0017843148  -0.0045108675   0.0000549914  -0.0000303348  -0.0000493113
        0.0000021210   0.0000117035   0.0000225657   0.0000104594  -0.0000094314
       -0.0000293265   0.0000040126  -0.0000065473   0.0000046594  -0.0000024000
        0.0000115927   0.0000344592  -0.0000314565  -0.0000128807  -0.0000615062
        0.0000014260   0.0000210947   0.0000198841
        0.0002039363   0.0010302050   0.0009663874  -0.0023259911  -0.0022145736