      -----------------------------------------------------------      
     |                   =====================                   |     
     |                           x T B                           |     
     |                   =====================                   |     
     |                         S. Grimme                         |     
     |          Mulliken Center for Theoretical Chemistry        |     
     |                    University of Bonn                     |     
      -----------------------------------------------------------      

   * xtb version 6.7.1 (edcfbbe) compiled by 'albert@albert-system' on 2024-07-22

   xtb is free software: you can redistribute it and/or modify it under
   the terms of the GNU Lesser General Public License as published by
   the Free Software Foundation, either version 3 of the License, or
   (at your option) any later version.
   
   xtb is distributed in the hope that it will be useful,
   but WITHOUT ANY WARRANTY; without even the implied warranty of
   MERCHANTABILITY or FITNESS FOR A PARTICULAR PURPOSE.  See the
   GNU Lesser General Public License for more details.
   
   Cite this work as:
   * C. Bannwarth, E. Caldeweyher, S. Ehlert, A. Hansen, P. Pracht,
     J. Seibert, S. Spicher, S. Grimme, WIREs Comput. Mol. Sci., 2020, 11,
     e01493. DOI: 10.1002/wcms.1493
   
   for GFN2-xTB:
   * C. Bannwarth, S. Ehlert and S. Grimme., J. Chem. Theory Comput., 2019,
     15, 1652-1671. DOI: 10.1021/acs.jctc.8b01176
   for GFN1-xTB:
   * S. Grimme, C. Bannwarth, P. Shushkov, J. Chem. Theory Comput., 2017,
     13, 1989-2009. DOI: 10.1021/acs.jctc.7b00118
   for GFN0-xTB:
   * P. Pracht, E. Caldeweyher, S. Ehlert, S. Grimme, ChemRxiv, 2019, preprint.
     DOI: 10.26434/chemrxiv.8326202.v1
   for GFN-FF:
   * S. Spicher and S. Grimme, Angew. Chem. Int. Ed., 2020, 59, 15665-15673.
     DOI: 10.1002/anie.202004239
   
   for ALPB and GBSA implicit solvation:
   * S. Ehlert, M. Stahn, S. Spicher, S. Grimme, J. Chem. Theory Comput.,
     2021, 17, 4250-4261. DOI: 10.1021/acs.jctc.1c00471
   
   for ddCOSMO and CPCM-X implicit solvation:
   * M. Stahn, S. Ehlert, S. Grimme, J. Phys. Chem. A,
     2023, XX, XXXX-XXXX. DOI: 10.1021/acs.jpca.3c04382
   
   for DFT-D4:
   * E. Caldeweyher, C. Bannwarth and S. Grimme, J. Chem. Phys., 2017,
     147, 034112. DOI: 10.1063/1.4993215
   * E. Caldeweyher, S. Ehlert, A. Hansen, H. Neugebauer, S. Spicher,
     C. Bannwarth and S. Grimme, J. Chem. Phys., 2019, 150, 154122.
     DOI: 10.1063/1.5090222
   * E. Caldeweyher, J.-M. Mewes, S. Ehlert and S. Grimme, Phys. Chem. Chem. Phys.
     2020, 22, 8499-8512. DOI: 10.1039/D0CP00502A
   
   for sTDA-xTB:
   * S. Grimme and C. Bannwarth, J. Chem. Phys., 2016, 145, 054103.
     DOI: 10.1063/1.4959605
   
   in the mass-spec context:
   * V. Asgeirsson, C. Bauer and S. Grimme, Chem. Sci., 2017, 8, 4879.
     DOI: 10.1039/c7sc00601b
   * J. Koopman and S. Grimme, ACS Omega 2019, 4, 12, 15120-15133.
     DOI: 10.1021/acsomega.9b02011
   
   for metadynamics refer to:
   * S. Grimme, J. Chem. Theory Comput., 2019, 155, 2847-2862
     DOI: 10.1021/acs.jctc.9b00143
   
   for SPH calculations refer to:
   * S. Spicher and S. Grimme, J. Chem. Theory Comput., 2021, 17, 1701-1714
     DOI: 10.1021/acs.jctc.0c01306
   
   for ONIOM refer to:
   * C. Plett, A. Katbashev, S. Ehlert, S. Grimme, M. Bursch,
     Phys. Chem. Chem. Phys., 2023, 25, 17860-17868. DOI: 10.1039/D3CP02178E
   
   for DIPRO refer to:
   * J. Kohn, N. Gildemeister, S. Grimme, D. Fazzi, A. Hansen,
     J. Chem. Phys., 2023, just accepted.
   
   for PTB refer to:
   * S. Grimme, M. Mueller, A. Hansen, J. Chem. Phys., 2023, 158, 124111.
     DOI: 10.1063/5.0137838
   
   with help from (in alphabetical order)
   P. Atkinson, C. Bannwarth, F. Bohle, G. Brandenburg, E. Caldeweyher
   M. Checinski, S. Dohm, S. Ehlert, S. Ehrlich, I. Gerasimov, C. Hölzer
   A. Katbashev, J. Kohn, J. Koopman, C. Lavigne, S. Lehtola, F. März, M. Müller,
   F. Musil, H. Neugebauer, J. Pisarek, C. Plett, P. Pracht, F. Pultar,
   J. Seibert, P. Shushkov, S. Spicher, M. Stahn, M. Steiner, T. Strunk,
   J. Stückrath, T. Rose, and J. Unsleber
   
 * started run on 2025/09/05 at 00:24:20.862     
   ID    Z sym.   atoms
    1    8 O      1, 3, 18, 19
    2   16 S      2, 17
    3    6 C      4-9, 11-16, 20-25
    4    7 N      10
    5    1 H      26-36

           -------------------------------------------------
          |                Calculation Setup                |
           -------------------------------------------------

          program call               : xtb data2507/gas/BTPO/BTPO_gas_T1_crest.xyz --gfn 2 --spinpol --tblite --uhf 2 --ohess vtight --parallel 40 --molden --ceasefiles --namespace data2507/gas/BTPO/BTPO_gas_T1_finalOpt
          calculation namespace      : data2507/gas/BTPO/BTPO_gas_T1_finalOpt
          coordinate file            : data2507/gas/BTPO/BTPO_gas_T1_crest.xyz
          omp threads                :                    40

repulsion energy          9.7350238592382E-01 Eh
dispersion energy         9.3550153698254E-04 Eh
interaction energy        0.0000000000000E+00 Eh
number of electrons       1.2400000000000E+02 e
integral cutoff           1.8403572253217E+01 bohr

------------------------------------------------------------
  cycle        total energy    energy error   density error
------------------------------------------------------------
      1     -69.40765866338  -7.0382097E+01   1.5870884E-01
      2     -69.51898059989  -1.1132194E-01   9.9515958E-02
      3     -69.33289465370   1.8608595E-01   7.1034478E-02
      4     -69.54941932553  -2.1652467E-01   3.9477502E-02
      5     -69.60721890030  -5.7799575E-02   3.1019092E-02
      6     -69.68064746432  -7.3428564E-02   1.9004043E-02
      7     -69.68922729094  -8.5798266E-03   1.2707921E-02
      8     -69.68836561840   8.6167254E-04   1.1187606E-02
      9     -69.68527907114   3.0865473E-03   9.4143146E-03
     10     -69.69268833472  -7.4092636E-03   3.0127872E-03
     11     -69.69320452786  -5.1619314E-04   1.8942588E-03
     12     -69.69329953951  -9.5011653E-05   1.1228077E-03
     13     -69.69334812054  -4.8581026E-05   2.9571304E-04
     14     -69.69335278813  -4.6675911E-06   1.5161551E-04
     15     -69.69335319534  -4.0721692E-07   7.6254543E-05
     16     -69.69335335596  -1.6061696E-07   4.3279871E-05
     17     -69.69335343039  -7.4429366E-08   1.7737601E-05
------------------------------------------------------------

electronic energy        -7.0667791317852E+01 Eh
total energy             -6.9693353430391E+01 Eh

 total:                                   0.122 sec
 - repulsion                              0.000 sec (  0%)
 - dispersion                             0.003 sec (  2%)
 - coulomb                                0.002 sec (  2%)
 - hamiltonian                            0.009 sec (  7%)
 - scc                                    0.107 sec ( 87%)

      ----------------------------------------------------------- 
     |                   =====================                   |
     |                        A N C O P T                        |
     |                   =====================                   |
     |               Approximate Normal Coordinate               |
     |                Rational Function Optimizer                |
      ----------------------------------------------------------- 

Optimization log is written to '/dev/null'
      ----------------------------------------------------------- 
     |                   =====================                   |
     |                        A N C O P T                        |
     |                   =====================                   |
     |               Approximate Normal Coordinate               |
     |                Rational Function Optimizer                |
      ----------------------------------------------------------- 

          ...................................................
          :                      SETUP                      :
          :.................................................:
          :   optimization level         verytight          :
          :   max. optcycles                   720          :
          :   ANC micro-cycles                  20          :
          :   degrees of freedom               102          :
          :.................................................:
          :   RF solver                   davidson          :
          :   write xtbopt.log                true          :
          :   linear?                        false          :
          :   energy convergence         0.1000000E-06 Eh   :
          :   grad. convergence          0.2000000E-03 Eh/α :
          :   maxmium RF displ.          1.0000000          :
          :   Hlow (freq-cutoff)         0.1000000E-01      :
          :   Hmax (freq-cutoff)         5.0000000          :
          :   S6 in model hess.         20.0000000          :
          ...................................................

generating ANC from exact Hessian ...
Using Lindh-Hessian (1995)
 Shifting diagonal of input Hessian by   8.235825662904161E-003
 Lowest  eigenvalues of input Hessian
    0.000000    0.000000    0.000000    0.000000    0.000000    0.000000
    0.010000    0.010110    0.011093    0.011918    0.014123    0.014734
    0.018745    0.019898    0.020932    0.026685    0.028705    0.029964
 Highest eigenvalues
    2.153610    2.161945    2.615159    2.619184    3.428236    3.430327
 

........................................................................
.............................. CYCLE    1 ..............................
........................................................................
------------------------------------------------------------
  cycle        total energy    energy error   density error
------------------------------------------------------------
      1     -69.69335308997  -7.0667791E+01   6.6694067E-05
      2     -69.69334876345   4.3265167E-06   2.4454423E-04
      3     -69.69335339338  -4.6299317E-06   2.2244441E-05
      4     -69.69335341919  -2.5806997E-08   1.4169273E-05
------------------------------------------------------------

 total:                                   0.029 sec
 * total energy  :   -69.6933534 Eh     change        0.1120274E-07 Eh
   gradient norm :     0.0046806 Eh/α   predicted     0.0000000E+00 (-100.00%)
   displ. norm   :     0.0111322 α      lambda       -0.1416357E-04
   maximum displ.:     0.0053048 α      in ANC's #2, #9, #27, ...

........................................................................
.............................. CYCLE    2 ..............................
........................................................................
------------------------------------------------------------
  cycle        total energy    energy error   density error
------------------------------------------------------------
      1     -69.69334821287  -7.0667794E+01   7.0468434E-04
      2     -69.69300591982   3.4229304E-04   2.1479313E-03
      3     -69.69334845960  -3.4253978E-04   6.0759619E-04
      4     -69.69336101599  -1.2556394E-05   3.4427147E-04
      5     -69.69336472503  -3.7090337E-06   2.4642027E-04
      6     -69.69336870335  -3.9783244E-06   6.9564096E-05
      7     -69.69336878550  -8.2145817E-08   4.9599660E-05
      8     -69.69336890177  -1.1627617E-07   2.0372709E-05
      9     -69.69336891990  -1.8126357E-08   6.0478642E-06
------------------------------------------------------------

 total:                                   0.057 sec
 * total energy  :   -69.6933689 Eh     change       -0.1550071E-04 Eh
   gradient norm :     0.0030072 Eh/α   predicted    -0.9905374E-05 ( -36.10%)
   displ. norm   :     0.0204716 α      lambda       -0.1914780E-04
   maximum displ.:     0.0118242 α      in ANC's #2, #14, #9, ...

........................................................................
.............................. CYCLE    3 ..............................
........................................................................
------------------------------------------------------------
  cycle        total energy    energy error   density error
------------------------------------------------------------
      1     -69.69332223779  -7.0667758E+01   1.1786447E-03
      2     -69.69234599739   9.7624040E-04   3.6104830E-03
      3     -69.69331851095  -9.7251356E-04   1.0452365E-03
      4     -69.69335479457  -3.6283625E-05   6.3355124E-04
      5     -69.69337155403  -1.6759461E-05   3.5643716E-04
      6     -69.69337892634  -7.3723080E-06   1.3115745E-04
      7     -69.69337937518  -4.4883912E-07   8.4940723E-05
      8     -69.69337972681  -3.5163225E-07   3.2273360E-05
      9     -69.69337977275  -4.5931685E-08   8.7966557E-06
------------------------------------------------------------

 total:                                   0.057 sec
 * total energy  :   -69.6933798 Eh     change       -0.1085284E-04 Eh
   gradient norm :     0.0009694 Eh/α   predicted    -0.9691833E-05 ( -10.70%)
   displ. norm   :     0.0128846 α      lambda       -0.1815019E-05
   maximum displ.:     0.0080644 α      in ANC's #2, #3, #5, ...

........................................................................
.............................. CYCLE    4 ..............................
........................................................................
------------------------------------------------------------
  cycle        total energy    energy error   density error
------------------------------------------------------------
      1     -69.69337872491  -7.0667801E+01   3.2656612E-04
      2     -69.69333585535   4.2869564E-05   7.3385222E-04
      3     -69.69337355283  -3.7697477E-05   3.7767230E-04
      4     -69.69337890159  -5.3487602E-06   1.9824386E-04
      5     -69.69338108710  -2.1855164E-06   9.2147077E-05
      6     -69.69338164189  -5.5478868E-07   3.7578931E-05
      7     -69.69338168462  -4.2730079E-08   2.3030293E-05
      8     -69.69338171402  -2.9402486E-08   7.8444014E-06
------------------------------------------------------------

 total:                                   0.051 sec
 * total energy  :   -69.6933817 Eh     change       -0.1941279E-05 Eh
   gradient norm :     0.0005801 Eh/α   predicted    -0.9735704E-06 ( -49.85%)
   displ. norm   :     0.0146241 α      lambda       -0.1149019E-05
   maximum displ.:     0.0076328 α      in ANC's #2, #3, #4, ...

........................................................................
.............................. CYCLE    5 ..............................
........................................................................
------------------------------------------------------------
  cycle        total energy    energy error   density error
------------------------------------------------------------
      1     -69.69338218188  -7.0667815E+01   1.9216789E-04
      2     -69.69337425992   7.9219563E-06   3.4280709E-04
      3     -69.69338163457  -7.3746452E-06   1.5236091E-04
      4     -69.69338134385   2.9071505E-07   1.3990002E-04
      5     -69.69338272058  -1.3767257E-06   3.6112325E-05
      6     -69.69338279623  -7.5652508E-08   2.9216671E-05
      7     -69.69338283655  -4.0321680E-08   1.6116074E-05
------------------------------------------------------------

 total:                                   0.046 sec
 * total energy  :   -69.6933828 Eh     change       -0.1122526E-05 Eh
   gradient norm :     0.0003969 Eh/α   predicted    -0.5909223E-06 ( -47.36%)
   displ. norm   :     0.0151594 α      lambda       -0.5721669E-06
   maximum displ.:     0.0097021 α      in ANC's #3, #2, #4, ...

........................................................................
.............................. CYCLE    6 ..............................
........................................................................
------------------------------------------------------------
  cycle        total energy    energy error   density error
------------------------------------------------------------
      1     -69.69338321572  -7.0667816E+01   1.7005447E-04
      2     -69.69338109899   2.1167283E-06   1.9826769E-04
      3     -69.69338219240  -1.0934083E-06   1.3428004E-04
      4     -69.69338253415  -3.4175608E-07   1.1644406E-04
      5     -69.69338304614  -5.1199146E-07   7.9869567E-05
      6     -69.69338346124  -4.1509601E-07   2.7503655E-05
      7     -69.69338348161  -2.0374941E-08   1.8547006E-05
------------------------------------------------------------

 total:                                   0.045 sec
 * total energy  :   -69.6933835 Eh     change       -0.6450639E-06 Eh
   gradient norm :     0.0003869 Eh/α   predicted    -0.2876831E-06 ( -55.40%)
   displ. norm   :     0.0165385 α      lambda       -0.5277412E-06
   maximum displ.:     0.0123080 α      in ANC's #3, #2, #4, ...

........................................................................
.............................. CYCLE    7 ..............................
........................................................................
------------------------------------------------------------
  cycle        total energy    energy error   density error
------------------------------------------------------------
      1     -69.69338330700  -7.0667802E+01   2.0062455E-04
      2     -69.69337512739   8.1796174E-06   3.4531520E-04
      3     -69.69338330225  -8.1748614E-06   1.3633318E-04
      4     -69.69338224865   1.0535981E-06   1.3842029E-04
      5     -69.69338338358  -1.1349319E-06   9.8241336E-05
      6     -69.69338403406  -6.5047840E-07   2.9501989E-05
      7     -69.69338405025  -1.6191592E-08   2.1503394E-05
      8     -69.69338407630  -2.6044688E-08   9.9200268E-06
------------------------------------------------------------

 total:                                   0.051 sec
 * total energy  :   -69.6933841 Eh     change       -0.5946813E-06 Eh
   gradient norm :     0.0002113 Eh/α   predicted    -0.2643888E-06 ( -55.54%)
   displ. norm   :     0.0109732 α      lambda       -0.2692539E-06
   maximum displ.:     0.0097000 α      in ANC's #3, #2, #1, ...

........................................................................
.............................. CYCLE    8 ..............................
........................................................................
------------------------------------------------------------
  cycle        total energy    energy error   density error
------------------------------------------------------------
      1     -69.69338426480  -7.0667807E+01   1.2887984E-04
      2     -69.69338300527   1.2595302E-06   1.5003143E-04
      3     -69.69338309394  -8.8668145E-08   1.4152382E-04
      4     -69.69338407619  -9.8225496E-07   5.9619486E-05
      5     -69.69338411764  -4.1444565E-08   6.1222163E-05
      6     -69.69338439451  -2.7687113E-07   1.7705739E-05
------------------------------------------------------------

 total:                                   0.041 sec
 * total energy  :   -69.6933844 Eh     change       -0.3182129E-06 Eh
   gradient norm :     0.0001210 Eh/α   predicted    -0.1368783E-06 ( -56.99%)
   displ. norm   :     0.0087361 α      lambda       -0.2068161E-06
   maximum displ.:     0.0081614 α      in ANC's #3, #1, #5, ...

........................................................................
.............................. CYCLE    9 ..............................
........................................................................
------------------------------------------------------------
  cycle        total energy    energy error   density error
------------------------------------------------------------
      1     -69.69338381989  -7.0667808E+01   1.2446110E-04
      2     -69.69337471567   9.1042172E-06   3.3399608E-04
      3     -69.69338459619  -9.8805217E-06   6.7655421E-05
      4     -69.69338353135   1.0648384E-06   1.2383072E-04
      5     -69.69338448463  -9.5327356E-07   5.7942433E-05
      6     -69.69338468257  -1.9794194E-07   1.7517664E-05
------------------------------------------------------------

 total:                                   0.041 sec
 * total energy  :   -69.6933847 Eh     change       -0.2880612E-06 Eh
   gradient norm :     0.0001612 Eh/α   predicted    -0.1055358E-06 ( -63.36%)
   displ. norm   :     0.0120307 α      lambda       -0.2924986E-06
   maximum displ.:     0.0106493 α      in ANC's #3, #5, #1, ...

........................................................................
.............................. CYCLE   10 ..............................
........................................................................
------------------------------------------------------------
  cycle        total energy    energy error   density error
------------------------------------------------------------
      1     -69.69338413935  -7.0667810E+01   1.5001420E-04
      2     -69.69337463574   9.5036129E-06   3.4479570E-04
      3     -69.69338500928  -1.0373543E-05   8.3890361E-05
      4     -69.69338314461   1.8646678E-06   1.6363490E-04
      5     -69.69338484589  -1.7012808E-06   6.5707571E-05
      6     -69.69338508472  -2.3883072E-07   2.3035332E-05
      7     -69.69338509987  -1.5143698E-08   1.4296014E-05
------------------------------------------------------------

 total:                                   0.047 sec
 * total energy  :   -69.6933851 Eh     change       -0.4172968E-06 Eh
   gradient norm :     0.0002119 Eh/α   predicted    -0.1470541E-06 ( -64.76%)
   displ. norm   :     0.0170430 α      lambda       -0.4067756E-06
   maximum displ.:     0.0144409 α      in ANC's #3, #2, #5, ...

........................................................................
.............................. CYCLE   11 ..............................
........................................................................
------------------------------------------------------------
  cycle        total energy    energy error   density error
------------------------------------------------------------
      1     -69.69338503266  -7.0667808E+01   1.9100031E-04
      2     -69.69338041976   4.6129025E-06   2.6722441E-04
      3     -69.69338525654  -4.8367857E-06   1.0467033E-04
      4     -69.69338479515   4.6139030E-07   1.2281710E-04
      5     -69.69338489245  -9.7298212E-08   1.0670389E-04
      6     -69.69338561968  -7.2723103E-07   3.1588365E-05
      7     -69.69338565299  -3.3307231E-08   1.8782725E-05
------------------------------------------------------------

 total:                                   0.047 sec
 * total energy  :   -69.6933857 Eh     change       -0.5531242E-06 Eh
   gradient norm :     0.0002214 Eh/α   predicted    -0.2037011E-06 ( -63.17%)
   displ. norm   :     0.0248390 α      lambda       -0.5566214E-06
   maximum displ.:     0.0210122 α      in ANC's #3, #2, #4, ...

........................................................................
.............................. CYCLE   12 ..............................
........................................................................
------------------------------------------------------------
  cycle        total energy    energy error   density error
------------------------------------------------------------
      1     -69.69338555820  -7.0667800E+01   2.7628890E-04
      2     -69.69338024157   5.3166346E-06   3.1729418E-04
      3     -69.69338384804  -3.6064738E-06   1.8413856E-04
      4     -69.69338571177  -1.8637275E-06   1.2907757E-04
      5     -69.69338618773  -4.7595451E-07   6.6168819E-05
      6     -69.69338620805  -2.0322517E-08   6.1010485E-05
      7     -69.69338641190  -2.0385389E-07   2.6981015E-05
      8     -69.69338644963  -3.7728384E-08   1.0707810E-05
------------------------------------------------------------

 total:                                   0.054 sec
 * total energy  :   -69.6933864 Eh     change       -0.7966401E-06 Eh
   gradient norm :     0.0001980 Eh/α   predicted    -0.2791596E-06 ( -64.96%)
   displ. norm   :     0.0317244 α      lambda       -0.6937365E-06
   maximum displ.:     0.0267758 α      in ANC's #3, #2, #1, ...

........................................................................
.............................. CYCLE   13 ..............................
........................................................................
------------------------------------------------------------
  cycle        total energy    energy error   density error
------------------------------------------------------------
      1     -69.69338666595  -7.0667792E+01   3.6460835E-04
      2     -69.69338670007  -3.4120987E-08   2.0986164E-04
      3     -69.69338318495   3.5151252E-06   2.8437929E-04
      4     -69.69338114058   2.0443685E-06   2.7405454E-04
      5     -69.69338726549  -6.1249103E-06   5.8221185E-05
      6     -69.69338696213   3.0335642E-07   8.1522444E-05
      7     -69.69338742022  -4.5809045E-07   3.1403220E-05
      8     -69.69338745949  -3.9265785E-08   1.5609972E-05
------------------------------------------------------------

 total:                                   0.053 sec
 * total energy  :   -69.6933875 Eh     change       -0.1009860E-05 Eh
   gradient norm :     0.0001896 Eh/α   predicted    -0.3477860E-06 ( -65.56%)
   displ. norm   :     0.0442086 α      lambda       -0.1009630E-05
   maximum displ.:     0.0372925 α      in ANC's #3, #2, #1, ...

........................................................................
.............................. CYCLE   14 ..............................
........................................................................
------------------------------------------------------------
  cycle        total energy    energy error   density error
------------------------------------------------------------
      1     -69.69338758343  -7.0667777E+01   5.0086577E-04
      2     -69.69338783009  -2.4666392E-07   2.8879408E-04
      3     -69.69338495684   2.8732502E-06   2.9954647E-04
      4     -69.69337980084   5.1560060E-06   3.4299953E-04
      5     -69.69338879106  -8.9902229E-06   6.7079155E-05
      6     -69.69338890729  -1.1622721E-07   4.2952972E-05
      7     -69.69338884554   6.1747244E-08   3.6672832E-05
      8     -69.69338890726  -6.1718438E-08   3.2854421E-05
      9     -69.69338898129  -7.4037601E-08   5.8220893E-06
------------------------------------------------------------

 total:                                   0.059 sec
 * total energy  :   -69.6933890 Eh     change       -0.1521804E-05 Eh
   gradient norm :     0.0002301 Eh/α   predicted    -0.5093034E-06 ( -66.53%)
   displ. norm   :     0.0731986 α      lambda       -0.1777585E-05
   maximum displ.:     0.0613317 α      in ANC's #3, #2, #1, ...

........................................................................
.............................. CYCLE   15 ..............................
........................................................................
------------------------------------------------------------
  cycle        total energy    energy error   density error
------------------------------------------------------------
      1     -69.69338554678  -7.0667728E+01   8.6256067E-04
      2     -69.69336442449   2.1122293E-05   6.0787677E-04
      3     -69.69328337117   8.1053319E-05   1.1714761E-03
      4     -69.69338529039  -1.0191922E-04   3.3339582E-04
      5     -69.69338163119   3.6592049E-06   3.7428216E-04
      6     -69.69339062068  -8.9894868E-06   1.3087935E-04
      7     -69.69339117304  -5.5236237E-07   8.2224307E-05
      8     -69.69339152634  -3.5330571E-07   3.2651072E-05
      9     -69.69339157243  -4.6080871E-08   9.3675760E-06
------------------------------------------------------------

 total:                                   0.059 sec
 * total energy  :   -69.6933916 Eh     change       -0.2591131E-05 Eh
   gradient norm :     0.0003881 Eh/α   predicted    -0.8914817E-06 ( -65.59%)
   displ. norm   :     0.0965844 α      lambda       -0.2394352E-05
   maximum displ.:     0.0807096 α      in ANC's #3, #2, #1, ...

........................................................................
.............................. CYCLE   16 ..............................
........................................................................
------------------------------------------------------------
  cycle        total energy    energy error   density error
------------------------------------------------------------
      1     -69.69338527063  -7.0667665E+01   1.1073270E-03
      2     -69.69335229341   3.2977215E-05   7.9189803E-04
      3     -69.69323422478   1.1806863E-04   1.4724532E-03
      4     -69.69338588672  -1.5166194E-04   4.4561101E-04
      5     -69.69338316746   2.7192523E-06   3.8232492E-04
      6     -69.69339240545  -9.2379896E-06   1.9706302E-04
      7     -69.69339428241  -1.8769585E-06   1.0367230E-04
      8     -69.69339481999  -5.3758029E-07   4.2220424E-05
      9     -69.69339490132  -8.1330839E-08   1.1773764E-05
------------------------------------------------------------

 total:                                   0.059 sec
 * total energy  :   -69.6933949 Eh     change       -0.3328898E-05 Eh
   gradient norm :     0.0006214 Eh/α   predicted    -0.1202502E-05 ( -63.88%)
   displ. norm   :     0.0724971 α      lambda       -0.1820816E-05
   maximum displ.:     0.0601254 α      in ANC's #3, #2, #1, ...

........................................................................
.............................. CYCLE   17 ..............................
........................................................................
------------------------------------------------------------
  cycle        total energy    energy error   density error
------------------------------------------------------------
      1     -69.69339256129  -7.0667677E+01   7.9274246E-04
      2     -69.69337437715   1.8184137E-05   6.0229811E-04
      3     -69.69331437810   5.9999049E-05   1.0912451E-03
      4     -69.69338719575  -7.2817646E-05   4.3390523E-04
      5     -69.69338757796  -3.8221694E-07   3.1349248E-04
      6     -69.69339644884  -8.8708786E-06   1.2700436E-04
      7     -69.69339715036  -7.0151580E-07   7.1354070E-05
      8     -69.69339739961  -2.4925268E-07   2.9562785E-05
      9     -69.69339743979  -4.0174825E-08   7.7564731E-06
------------------------------------------------------------

 total:                                   0.059 sec
 * total energy  :   -69.6933974 Eh     change       -0.2538461E-05 Eh
   gradient norm :     0.0006797 Eh/α   predicted    -0.9136007E-06 ( -64.01%)
   displ. norm   :     0.0489357 α      lambda       -0.1422433E-05
   maximum displ.:     0.0398277 α      in ANC's #3, #2, #1, ...

........................................................................
.............................. CYCLE   18 ..............................
........................................................................
------------------------------------------------------------
  cycle        total energy    energy error   density error
------------------------------------------------------------
      1     -69.69339790273  -7.0667727E+01   4.8932588E-04
      2     -69.69339285225   5.0504784E-06   3.6173741E-04
      3     -69.69336337279   2.9479462E-05   7.2415054E-04
      4     -69.69339571691  -3.2344120E-05   2.6039757E-04
      5     -69.69339633742  -6.2051271E-07   1.6439781E-04
      6     -69.69339905535  -2.7179265E-06   7.6571146E-05
      7     -69.69339933720  -2.8185042E-07   4.1023486E-05
      8     -69.69339941464  -7.7445335E-08   1.8440653E-05
------------------------------------------------------------

 total:                                   0.054 sec
 * total energy  :   -69.6933994 Eh     change       -0.1974857E-05 Eh
   gradient norm :     0.0005821 Eh/α   predicted    -0.7168708E-06 ( -63.70%)
   displ. norm   :     0.0489230 α      lambda       -0.1522484E-05
   maximum displ.:     0.0389767 α      in ANC's #3, #2, #6, ...

........................................................................
.............................. CYCLE   19 ..............................
........................................................................
------------------------------------------------------------
  cycle        total energy    energy error   density error
------------------------------------------------------------
      1     -69.69339895973  -7.0667747E+01   4.5554386E-04
      2     -69.69337793012   2.1029613E-05   5.7781865E-04
      3     -69.69338875768  -1.0827559E-05   4.3520393E-04
      4     -69.69339633810  -7.5804219E-06   2.5046309E-04
      5     -69.69339829822  -1.9601227E-06   2.0449079E-04
      6     -69.69340139206  -3.0938353E-06   4.9587619E-05
      7     -69.69340140298  -1.0918029E-08   4.0069110E-05
      8     -69.69340148724  -8.4264940E-08   1.8309512E-05
------------------------------------------------------------

 total:                                   0.054 sec
 * total energy  :   -69.6934015 Eh     change       -0.2072598E-05 Eh
   gradient norm :     0.0003955 Eh/α   predicted    -0.7629288E-06 ( -63.19%)
   displ. norm   :     0.0563385 α      lambda       -0.1524990E-05
   maximum displ.:     0.0441072 α      in ANC's #3, #2, #6, ...

........................................................................
.............................. CYCLE   20 ..............................
........................................................................
------------------------------------------------------------
  cycle        total energy    energy error   density error
------------------------------------------------------------
      1     -69.69339978280  -7.0667759E+01   5.1240030E-04
      2     -69.69336457628   3.5206517E-05   7.2159337E-04
      3     -69.69339122353  -2.6647244E-05   4.4556638E-04
      4     -69.69339613762  -4.9140928E-06   2.8500088E-04
      5     -69.69340013864  -4.0010168E-06   2.0877924E-04
      6     -69.69340327422  -3.1355809E-06   5.2243813E-05
      7     -69.69340329840  -2.4178235E-08   4.1363221E-05
      8     -69.69340338687  -8.8472191E-08   1.9543720E-05
------------------------------------------------------------

 total:                                   0.053 sec
 * total energy  :   -69.6934034 Eh     change       -0.1899627E-05 Eh
   gradient norm :     0.0001822 Eh/α   predicted    -0.7640777E-06 ( -59.78%)
   displ. norm   :     0.0503296 α      lambda       -0.9073432E-06
   maximum displ.:     0.0393236 α      in ANC's #3, #2, #4, ...
 * RMSD in coord.:     0.0993369 α      energy gain  -0.4995648E-04 Eh

generating ANC from exact Hessian ...
Using Lindh-Hessian (1995)
 Shifting diagonal of input Hessian by   8.242173871378357E-003
 Lowest  eigenvalues of input Hessian
    0.000000    0.000000    0.000000    0.000000    0.000000    0.000000
    0.010000    0.010112    0.011095    0.011900    0.014105    0.014712
    0.018647    0.019927    0.020903    0.026773    0.028581    0.029764
 Highest eigenvalues
    2.149844    2.164061    2.607704    2.622171    3.424068    3.434655
 

........................................................................
.............................. CYCLE   21 ..............................
........................................................................
------------------------------------------------------------
  cycle        total energy    energy error   density error
------------------------------------------------------------
      1     -69.69340080662  -7.0667756E+01   4.6129445E-04
      2     -69.69336327023   3.7536389E-05   7.2551250E-04
      3     -69.69339761519  -3.4344959E-05   3.5513020E-04
      4     -69.69339690378   7.1140541E-07   2.8738145E-04
      5     -69.69340212995  -5.2261654E-06   1.7912834E-04
      6     -69.69340433765  -2.2077042E-06   4.7223408E-05
      7     -69.69340436486  -2.7203129E-08   3.6443716E-05
      8     -69.69340443370  -6.8844955E-08   1.7239243E-05
------------------------------------------------------------

 total:                                   0.054 sec
 * total energy  :   -69.6934044 Eh     change       -0.1046834E-05 Eh
   gradient norm :     0.0000970 Eh/α   predicted     0.0000000E+00 (-100.00%)
   displ. norm   :     0.0001455 α      lambda        0.0000000E+00
   maximum displ.:     0.0000559 α      in ANC's #98, #97, #93, ...

........................................................................
.............................. CYCLE   22 ..............................
........................................................................
------------------------------------------------------------
  cycle        total energy    energy error   density error
------------------------------------------------------------
      1     -69.69340346806  -7.0667768E+01   1.0029304E-04
      2     -69.69339426707   9.2009942E-06   3.1816124E-04
      3     -69.69340433912  -1.0072051E-05   3.7847100E-05
      4     -69.69340444183  -1.0270941E-07   1.4207446E-05
------------------------------------------------------------

 total:                                   0.030 sec
 * total energy  :   -69.6934044 Eh     change       -0.8123905E-08 Eh
   gradient norm :     0.0000759 Eh/α   predicted    -0.3013831E-08 ( -62.90%)
   displ. norm   :     0.0001455 α      lambda        0.0000000E+00
   maximum displ.:     0.0000559 α      in ANC's #98, #97, #93, ...

   *** GEOMETRY OPTIMIZATION CONVERGED AFTER 22 ITERATIONS ***

------------------------------------------------------------------------
 total energy gain   :        -0.0000510 Eh       -0.0320 kcal/mol
 total RMSD          :         0.0993397 a0        0.0526 Å
 total power (kW/mol):        -0.0060878 (step)   -0.1175 (real)
------------------------------------------------------------------------

 ANCopt (total)                0 d,  0 h,  0 min,  1.139 sec
 optimizer setup                ...        0 min,  0.000 sec (  0.014%)
 model hessian                  ...        0 min,  0.024 sec (  2.149%)
 ANC generation                 ...        0 min,  0.003 sec (  0.234%)
 coordinate transformation      ...        0 min,  0.000 sec (  0.037%)
 single point calculation       ...        0 min,  1.105 sec ( 96.991%)
 optimization log               ...        0 min,  0.002 sec (  0.218%)
 hessian update                 ...        0 min,  0.001 sec (  0.052%)
 rational function              ...        0 min,  0.002 sec (  0.136%)

================
 final structure:
================
36
 xtb: 6.7.1 (edcfbbe)
O            2.33695495205354       -0.21040928086947       -2.06832798521037
S            2.58064002664304       -0.73650231970157       -0.74739023300903
O            3.78877329381600       -1.47613297939621       -0.52324996783836
C            2.41088919235598        0.59301476360603        0.40425244634971
C            3.48086579892732        1.26283416507407        0.95007455424972
C            3.29124262651161        2.45747891721077        1.62652563312628
C            1.98630963173226        3.00992076393496        1.72336768220356
C            0.91380693216822        2.36891706628890        1.16910966261936
C            1.08206317153937        1.12872532254785        0.50944197581113
N            0.00437556374039        0.42417898320344        0.04516062071175
C           -1.08709054308838        1.10774573495347       -0.46520015042329
C           -0.90003984269502        2.25882211341928       -1.24934088721436
C           -1.97806434911533        2.88422526780171       -1.82856336644959
C           -3.28123270479737        2.38578921962262       -1.64287744728753
C           -3.48036155983001        1.25711595465099       -0.86755818240674
C           -2.40624935673440        0.62020139420937       -0.28194260578063
S           -2.55245307081577       -0.71957682135615        0.86358834413197
O           -2.22661656391675       -0.21764610471265        2.17555293960512
O           -3.79107516637130       -1.42300562738300        0.69190694370213
C           -1.17790171390391       -1.68488324040937        0.29681464544680
C           -1.20430894997956       -3.07727160225297        0.21384450503889
C           -0.05510058855443       -3.77338791836042       -0.10063658523966
C            1.13378906713484       -3.08342310475984       -0.34898594726781
C            1.14499839654354       -1.69589668722345       -0.29958665684990
C            0.00042370411872       -0.97737592490427        0.01974930973500
H            4.46479855902244        0.84005205333663        0.81631392010368
H            4.12595858986562        2.97715435265539        2.06693705224730
H            1.84454446864779        3.93445987539482        2.25912555211867
H           -0.08693806063292        2.75556934100123        1.29075747736081
H            0.10609879654226        2.60482808904458       -1.43370268273591
H           -1.82374302333464        3.75545378671195       -2.44466899804924
H           -4.11794627189556        2.88764552327620       -2.10115848634259
H           -4.46633534450477        0.85847855502601       -0.68602248846147
H           -2.13959184845801       -3.57320117265484        0.41801185670591
H           -0.06890045887143       -4.85083236462435       -0.15009960253762
H            2.05235635363663       -3.59282273686169       -0.58749771866377
 
 Bond Distances (Angstroems)
 ---------------------------
O1-S2=1.4426         S2-O1=1.4426         S2-O3=1.4342         S2-C4=1.7671         S2-C24=1.7838        O3-S2=1.4342         
C4-S2=1.7671         C4-C5=1.3753         C4-C9=1.4366         C5-C4=1.3753         C5-C6=1.3859         C5-H26=1.0792        
C6-C5=1.3859         C6-C7=1.4204         C6-H27=1.0774        C7-C6=1.4204         C7-C8=1.3669         C7-H28=1.0779        
C8-C7=1.3669         C8-C9=1.4148         C8-H29=1.0797        C9-C4=1.4366         C9-C8=1.4148         C9-N10=1.3687        
N10-C9=1.3687        N10-C11=1.3853       N10-C25=1.4018       C11-N10=1.3853       C11-C12=1.4053       C11-C16=1.4183       
C12-C11=1.4053       C12-C13=1.3743       C12-H30=1.0798       C13-C12=1.3743       C13-C14=1.4075       C13-H31=1.0782       
C14-C13=1.4075       C14-C15=1.3837       C14-H32=1.0779       C15-C14=1.3837       C15-C16=1.3792       C15-H33=1.0789       
C16-C11=1.4183       C16-C15=1.3792       C16-S17=1.7688       S17-C16=1.7688       S17-O18=1.4420       S17-O19=1.4347       
S17-C20=1.7727       O18-S17=1.4420       O19-S17=1.4347       C20-S17=1.7727       C20-C21=1.3951       C20-C25=1.4021       
C21-C20=1.3951       C21-C22=1.3799       C21-H34=1.0781       C22-C21=1.3799       C22-C23=1.3968       C22-H35=1.0787       
C23-C22=1.3968       C23-C24=1.3885       C23-H36=1.0771       C24-S2=1.7838        C24-C23=1.3885       C24-C25=1.3886       
C25-N10=1.4018       C25-C20=1.4021       C25-C24=1.3886       H26-C5=1.0792        H27-C6=1.0774        H28-C7=1.0779        
H29-C8=1.0797        H30-C12=1.0798       H31-C13=1.0782       H32-C14=1.0779       H33-C15=1.0789       H34-C21=1.0781       
H35-C22=1.0787       H36-C23=1.0771       
 C  H  Rav=1.0785 sigma=0.0009  Rmin=1.0771  Rmax=1.0798    11
 C  C  Rav=1.3955 sigma=0.0182  Rmin=1.3669  Rmax=1.4366    18
 N  C  Rav=1.3853 sigma=0.0135  Rmin=1.3687  Rmax=1.4018     3
 S  C  Rav=1.7731 sigma=0.0065  Rmin=1.7671  Rmax=1.7838     4
 S  O  Rav=1.4384 sigma=0.0039  Rmin=1.4342  Rmax=1.4426     4
 
 selected bond angles (degree)
 --------------------
O3-S2-O1=118.26                C4-S2-O1=107.83                C4-S2-O3=111.54                C24-S2-O1=106.86               
C24-S2-O3=111.18               C24-S2-C4= 99.42               C5-C4-S2=123.39                C9-C4-S2=114.65                
C9-C4-C5=120.59                C6-C5-C4=120.47                H26-C5-C4=117.99               H26-C5-C6=121.53               
C7-C6-C5=119.62                H27-C6-C5=120.62               H27-C6-C7=119.76               C8-C7-C6=120.72                
H28-C7-C6=119.23               H28-C7-C8=120.04               C9-C8-C7=120.45                H29-C8-C7=120.91               
H29-C8-C9=118.47               C8-C9-C4=118.10                N10-C9-C4=120.76               N10-C9-C8=121.05               
C11-N10-C9=119.43              C25-N10-C9=121.54              C25-N10-C11=118.98             
 
 selected dihedral angles (degree)
 ---------------------------------
C5-C4-S2-O1=259.22            C5-C4-S2-O3= 30.64            C5-C4-S2-C24=147.98           C9-C4-S2-O1= 65.93            
C9-C4-S2-O3=197.35            C9-C4-S2-C24=314.69           C6-C5-C4-S2=166.83            C6-C5-C4-C9=  0.87            
H26-C5-C4-S2=348.07           H26-C5-C4-C9=182.12           C7-C6-C5-C4=358.27            C7-C6-C5-H26=176.98           
H27-C6-C5-C4=179.14           H27-C6-C5-H26=357.85          C8-C7-C6-C5=  0.71            C8-C7-C6-H27=179.84           
H28-C7-C6-C5=179.41           H28-C7-C6-H27=358.55          C9-C8-C7-C6=  1.18            C9-C8-C7-H28=182.49           
H29-C8-C7-C6=176.35           H29-C8-C7-H28=357.66          C8-C9-C4-S2=193.87            C8-C9-C4-C5=  0.98            
N10-C9-C4-S2= 17.19           N10-C9-C4-C5=184.30           C4-C9-C8-C7=358.00            C4-C9-C8-H29=182.71           
N10-C9-C8-C7=174.67           N10-C9-C8-H29=359.38          C11-N10-C9-C4=212.03          C11-N10-C9-C8= 35.45          
C25-N10-C9-C4= 29.23          C25-N10-C9-C8=212.65          
           -------------------------------------------------
          |                Final Singlepoint                |
           -------------------------------------------------
repulsion energy          9.7343200223563E-01 Eh
dispersion energy         9.3249691686687E-04 Eh
interaction energy        0.0000000000000E+00 Eh
number of electrons       1.2400000000000E+02 e
integral cutoff           1.8403572253217E+01 bohr

------------------------------------------------------------
  cycle        total energy    energy error   density error
------------------------------------------------------------
      1     -69.69340311142  -7.0667768E+01   1.3042280E-04
      2     -69.69338727028   1.5841141E-05   4.6925763E-04
      3     -69.69340433247  -1.7062186E-05   3.4426872E-05
      4     -69.69340444983  -1.1736280E-07   8.1212452E-06
------------------------------------------------------------

electronic energy        -7.0667768948984E+01 Eh
total energy             -6.9693404449832E+01 Eh

 total:                                   0.030 sec
 - repulsion                              0.000 sec (  0%)
 - dispersion                             0.001 sec (  3%)
 - coulomb                                0.001 sec (  3%)
 - hamiltonian                            0.004 sec ( 14%)
 - scc                                    0.024 sec ( 79%)

           ------------------------------------------------- 
          |                Numerical Hessian                |
           ------------------------------------------------- 
step length          :   0.00500
SCC accuracy         :   0.30000
Hessian scale factor :   1.00000
frozen atoms in %    :   0.00000    0
RMS gradient         :   0.00007
estimated CPU  time      6.35 min
estimated wall time      0.17 min

writing file <hessian>.

 projected vibrational frequencies (cm⁻¹)
eigval :       -0.00    -0.00    -0.00     0.00     0.00     0.00
eigval :       23.94    39.12    54.96    76.40    83.87   106.56
eigval :      124.86   141.74   180.36   186.82   210.31   214.17
eigval :      230.90   259.40   260.53   274.29   305.89   314.17
eigval :      341.59   360.31   383.07   389.20   397.81   418.37
eigval :      425.60   445.62   447.30   474.98   481.14   502.25
eigval :      511.65   524.91   546.51   584.10   592.90   608.90
eigval :      620.88   660.32   675.05   687.21   715.77   718.35
eigval :      742.45   756.78   773.98   819.18   843.26   854.34
eigval :      865.86   883.34   892.63   893.24   894.84   901.64
eigval :      903.08   954.73  1002.06  1018.03  1032.90  1057.87
eigval :     1069.67  1091.72  1106.55  1111.47  1129.62  1149.05
eigval :     1150.27  1155.68  1167.00  1176.54  1193.51  1205.54
eigval :     1213.37  1242.59  1243.19  1262.73  1274.01  1322.06
eigval :     1330.89  1341.81  1354.62  1365.80  1381.04  1387.56
eigval :     1399.87  1424.46  1437.84  1447.79  1465.01  1467.44
eigval :     1528.34  3086.78  3089.01  3097.00  3098.55  3099.81
eigval :     3105.64  3107.13  3111.56  3113.05  3116.10  3120.73
           -------------------------------------------------
          |                Property Printout                |
           -------------------------------------------------
           -------------------------------------------------
          |                Geometry Summary                 |
           -------------------------------------------------

      molecular mass/u    :      369.4144922
   center of mass at/Å    :        0.0028970      -0.0019743       0.0166642
  moments of inertia/u·Å² :        0.1683524E+04   0.2467726E+04   0.3288745E+04
rotational constants/cm⁻¹ :        0.1001330E-01   0.6831240E-02   0.5125855E-02

 * 40 selected distances

     #   Z          #   Z                                           value/Å
     1   8 O        2  16 S                                       1.4425787
     2  16 S        3   8 O                                       1.4341823
     2  16 S        4   6 C                                       1.7671198
     4   6 C        5   6 C                                       1.3752927
     5   6 C        6   6 C                                       1.3859002
     6   6 C        7   6 C                                       1.4203594
     7   6 C        8   6 C                                       1.3668760
     4   6 C        9   6 C                                       1.4366035
     8   6 C        9   6 C                                       1.4147606
     9   6 C       10   7 N                                       1.3687051
    10   7 N       11   6 C                                       1.3852907
    11   6 C       12   6 C                                       1.4052907
    12   6 C       13   6 C                                       1.3743235
    13   6 C       14   6 C                                       1.4075389
    14   6 C       15   6 C                                       1.3837182
    11   6 C       16   6 C                                       1.4182606
    15   6 C       16   6 C                                       1.3792473
    16   6 C       17  16 S                                       1.7687914
    17  16 S       18   8 O                                       1.4419970
    17  16 S       19   8 O                                       1.4347375
    17  16 S       20   6 C                                       1.7726931
    20   6 C       21   6 C                                       1.3951083
    21   6 C       22   6 C                                       1.3799118
    22   6 C       23   6 C                                       1.3968492
     2  16 S       24   6 C                                       1.7838254 (max)
    23   6 C       24   6 C                                       1.3884509
    10   7 N       25   6 C                                       1.4017910
    20   6 C       25   6 C                                       1.4020638
    24   6 C       25   6 C                                       1.3886321
     5   6 C       26   1 H                                       1.0792407
     6   6 C       27   1 H                                       1.0773930
     7   6 C       28   1 H                                       1.0779177
     8   6 C       29   1 H                                       1.0797171
    12   6 C       30   1 H                                       1.0798262
    13   6 C       31   1 H                                       1.0781654
    14   6 C       32   1 H                                       1.0779476
    15   6 C       33   1 H                                       1.0788936
    21   6 C       34   1 H                                       1.0781395
    22   6 C       35   1 H                                       1.0786676
    23   6 C       36   1 H                                       1.0770988 (min)

 * 5 distinct bonds (by element types)

   Z      Z             #   av. dist./Å        max./Å        min./Å
   1 H    6 C          11     1.0784552     1.0798262     1.0770988
   6 C    6 C          18     1.3955104     1.4366035     1.3668760
   6 C    7 N           3     1.3852622     1.4017910     1.3687051
   6 C   16 S           4     1.7731074     1.7838254     1.7671198
   8 O   16 S           4     1.4383739     1.4425787     1.4341823

           -------------------------------------------------
          |               Frequency Printout                |
           -------------------------------------------------
 projected vibrational frequencies (cm⁻¹)
eigval :       -0.00    -0.00    -0.00     0.00     0.00     0.00
eigval :       23.94    39.12    54.96    76.40    83.87   106.56
eigval :      124.86   141.74   180.36   186.82   210.31   214.17
eigval :      230.90   259.40   260.53   274.29   305.89   314.17
eigval :      341.59   360.31   383.07   389.20   397.81   418.37
eigval :      425.60   445.62   447.30   474.98   481.14   502.25
eigval :      511.65   524.91   546.51   584.10   592.90   608.90
eigval :      620.88   660.32   675.05   687.21   715.77   718.35
eigval :      742.45   756.78   773.98   819.18   843.26   854.34
eigval :      865.86   883.34   892.63   893.24   894.84   901.64
eigval :      903.08   954.73  1002.06  1018.03  1032.90  1057.87
eigval :     1069.67  1091.72  1106.55  1111.47  1129.62  1149.05
eigval :     1150.27  1155.68  1167.00  1176.54  1193.51  1205.54
eigval :     1213.37  1242.59  1243.19  1262.73  1274.01  1322.06
eigval :     1330.89  1341.81  1354.62  1365.80  1381.04  1387.56
eigval :     1399.87  1424.46  1437.84  1447.79  1465.01  1467.44
eigval :     1528.34  3086.78  3089.01  3097.00  3098.55  3099.81
eigval :     3105.64  3107.13  3111.56  3113.05  3116.10  3120.73
 reduced masses (amu)
   1: 14.68   2: 15.12   3: 15.38   4: 15.99   5: 13.64   6: 17.01   7: 13.76   8: 14.37
   9: 13.60  10: 11.24  11: 12.61  12: 12.31  13: 12.81  14: 13.45  15: 12.68  16: 13.64
  17: 14.14  18: 13.64  19: 16.66  20: 14.23  21: 15.16  22: 14.80  23: 12.14  24: 13.42
  25: 12.79  26: 11.85  27: 11.96  28: 12.44  29: 13.05  30: 11.68  31: 14.52  32: 11.42
  33: 12.94  34: 21.32  35: 16.44  36: 18.06  37: 16.97  38: 18.88  39: 12.19  40: 12.64
  41: 11.62  42: 12.03  43: 11.83  44: 12.07  45: 13.88  46: 13.42  47:  4.96  48: 10.53
  49:  3.73  50: 13.63  51:  3.13  52:  4.31  53:  4.49  54:  3.79  55: 11.32  56:  3.53
  57:  7.24  58:  5.81  59:  5.48  60:  3.97  61:  4.08  62: 10.79  63: 11.36  64:  8.05
  65:  8.93  66:  8.51  67:  7.90  68: 17.71  69: 16.43  70:  8.17  71:  8.34  72:  3.17
  73:  6.39  74:  3.56  75:  4.15  76:  4.75  77:  9.82  78:  6.90  79:  5.86  80: 22.74
  81: 22.31  82:  9.33  83:  7.08  84:  8.64  85:  8.39  86: 10.98  87: 10.45  88: 11.29
  89: 10.03  90:  9.40  91: 10.31  92: 11.06  93: 10.87  94: 10.68  95: 10.75  96: 10.89
  97: 11.59  98:  1.80  99:  1.80 100:  1.81 101:  1.79 102:  1.78 103:  1.85 104:  1.83
 105:  1.86 106:  1.90 107:  1.88 108:  1.85
 IR intensities (km·mol⁻¹)
   1:  0.43   2:  0.53   3:  0.02   4:  0.59   5:  0.18   6:  0.37   7:  3.51   8:  1.00
   9:  1.44  10:  0.81  11:  0.09  12:  1.77  13:  0.41  14:  0.70  15:  1.79  16:  7.09
  17:  6.74  18:  0.77  19:  1.61  20:  3.84  21:  4.34  22:  2.79  23:  2.68  24:  1.40
  25:  3.80  26:  0.62  27:  3.98  28:  1.18  29:  2.72  30: 21.64  31: 15.74  32:  5.15
  33: 14.60  34: 91.43  35: 13.96  36: 21.59  37: 49.45  38:  0.33  39: 17.15  40:  6.18
  41: 21.71  42:  8.58  43:  6.23  44: 15.21  45: 21.98  46:  0.39  47: 29.84  48:  3.70
  49: 27.44  50: 13.38  51: 35.70  52:  2.13  53: 13.37  54:  3.08  55:131.46  56:  4.72
  57: 24.38  58:  1.95  59: 10.75  60:  0.76  61:  1.44  62:136.92  63: 62.42  64: 98.83
  65: 87.27  66: 19.90  67: 55.89  68:931.37  69: 86.62  70: 33.14  71:101.05  72: 10.45
  73:  8.12  74: 40.31  75: 44.57  76:  9.51  77: 30.96  78:  6.21  79: 11.39  80:541.01
  81:241.40  82: 46.89  83:100.89  84:180.28  85:  4.41  86: 29.30  87:  4.40  88:158.15
  89:153.47  90: 56.52  91:  8.06  92: 14.61  93: 63.33  94:286.08  95:153.07  96:418.08
  97:148.05  98:  4.46  99:  7.03 100:  1.42 101:  8.08 102:  4.73 103: 12.91 104:  9.89
 105: 17.79 106: 17.23 107: 11.99 108: 62.27
 Raman intensities (Ä⁴*amu⁻¹)
   1:  0.00   2:  0.00   3:  0.00   4:  0.00   5:  0.00   6:  0.00   7:  0.00   8:  0.00
   9:  0.00  10:  0.00  11:  0.00  12:  0.00  13:  0.00  14:  0.00  15:  0.00  16:  0.00
  17:  0.00  18:  0.00  19:  0.00  20:  0.00  21:  0.00  22:  0.00  23:  0.00  24:  0.00
  25:  0.00  26:  0.00  27:  0.00  28:  0.00  29:  0.00  30:  0.00  31:  0.00  32:  0.00
  33:  0.00  34:  0.00  35:  0.00  36:  0.00  37:  0.00  38:  0.00  39:  0.00  40:  0.00
  41:  0.00  42:  0.00  43:  0.00  44:  0.00  45:  0.00  46:  0.00  47:  0.00  48:  0.00
  49:  0.00  50:  0.00  51:  0.00  52:  0.00  53:  0.00  54:  0.00  55:  0.00  56:  0.00
  57:  0.00  58:  0.00  59:  0.00  60:  0.00  61:  0.00  62:  0.00  63:  0.00  64:  0.00
  65:  0.00  66:  0.00  67:  0.00  68:  0.00  69:  0.00  70:  0.00  71:  0.00  72:  0.00
  73:  0.00  74:  0.00  75:  0.00  76:  0.00  77:  0.00  78:  0.00  79:  0.00  80:  0.00
  81:  0.00  82:  0.00  83:  0.00  84:  0.00  85:  0.00  86:  0.00  87:  0.00  88:  0.00
  89:  0.00  90:  0.00  91:  0.00  92:  0.00  93:  0.00  94:  0.00  95:  0.00  96:  0.00
  97:  0.00  98:  0.00  99:  0.00 100:  0.00 101:  0.00 102:  0.00 103:  0.00 104:  0.00
 105:  0.00 106:  0.00 107:  0.00 108:  0.00
 output can be read by thermo (or use thermo option).
 writing <g98.out> molden fake output.
 recommended (thermochemical) frequency scaling factor: 1.0
           -------------------------------------------------
          |             Thermodynamic Functions             |
           -------------------------------------------------

Molecule has no symmetry elements
It seems to be the C1 point group
c1  symmetry found (for desy threshold:  0.10E+00) used in thermo

          ...................................................
          :                      SETUP                      :
          :.................................................:
          :  # frequencies                         102      :
          :  # imaginary freq.                       0      :
          :  linear?                             false      :
          :  only rotor calc.                    false      :
          :  symmetry                               c1      :
          :  rotational number                       1      :
          :  scaling factor                  1.0000000      :
          :  rotor cutoff                   50.0000000 cm⁻¹ :
          :  imag. cutoff                  -20.0000000 cm⁻¹ :
          :.................................................:

    mode    ω/cm⁻¹     T·S(HO)/kcal·mol⁻¹    T·S(FR)/kcal·mol⁻¹   T·S(vib)
   ------------------------------------------------------------------------
       1     23.94    -1.87166 (  4.99%)    -1.27470 ( 95.01%)    -1.30448
       2     39.12    -1.58107 ( 27.27%)    -1.12916 ( 72.73%)    -1.25238
       3     54.96    -1.38056 ( 59.35%)    -1.02850 ( 40.65%)    -1.23744
       4     76.40    -1.18700 ( 84.50%)    -0.93092 ( 15.50%)    -1.14731
       5     83.87    -1.13246 ( 88.78%)    -0.90331 ( 11.22%)    -1.10676
       6    106.56    -0.99301 ( 95.38%)    -0.83236 (  4.62%)    -0.98558
       7    124.86    -0.90154 ( 97.49%)    -0.78543 (  2.51%)    -0.89863
       8    141.74    -0.82892 ( 98.48%)    -0.74785 (  1.52%)    -0.82768
       9    180.36    -0.69310 ( 99.41%)    -0.67648 (  0.59%)    -0.69300
      10    186.82    -0.67355 ( 99.49%)    -0.66605 (  0.51%)    -0.67352
      11    210.31    -0.60853 ( 99.68%)    -0.63098 (  0.32%)    -0.60860
      12    214.17    -0.59864 ( 99.70%)    -0.62558 (  0.30%)    -0.59872
      13    230.90    -0.55811 ( 99.78%)    -0.60330 (  0.22%)    -0.55821
      14    259.40    -0.49665 ( 99.86%)    -0.56882 (  0.14%)    -0.49675
      15    260.53    -0.49439 ( 99.86%)    -0.56753 (  0.14%)    -0.49449
      16    274.29    -0.46781 ( 99.89%)    -0.55230 (  0.11%)    -0.46791
   ------------------------------------------------------------------------

   temp. (K)  partition function   enthalpy   heat capacity  entropy
                                   cal/mol     cal/K/mol   cal/K/mol   J/K/mol
 298.15  VIB  0.176E+08            11281.912     74.565     67.257
         ROT  0.893E+07              888.752      2.981     34.787
         INT  0.157E+15            12170.664     77.546    102.043
         TR   0.687E+28             1481.254      4.968     43.593
         TOT                       13651.9183    82.5139   145.6366   609.3437

       T/K    H(0)-H(T)+PV         H(T)/Eh          T*S/Eh         G(T)/Eh
   ------------------------------------------------------------------------
    298.15    0.217557E-01    0.261954E+00    0.691967E-01    0.192757E+00
   ------------------------------------------------------------------------

         :::::::::::::::::::::::::::::::::::::::::::::::::::::
         ::                  THERMODYNAMIC                  ::
         :::::::::::::::::::::::::::::::::::::::::::::::::::::
         :: total free energy         -69.500647520696 Eh   ::
         ::.................................................::
         :: total energy              -69.693404450574 Eh   ::
         :: zero point energy           0.240197883124 Eh   ::
         :: G(RRHO) w/o ZPVE           -0.047440953246 Eh   ::
         :: G(RRHO) contrib.            0.192756929878 Eh   ::
         :::::::::::::::::::::::::::::::::::::::::::::::::::::

optimized geometry written to: xtbopt.xyz


           -------------------------------------------------
          | TOTAL ENERGY              -69.693404450574 Eh   |
          | TOTAL ENTHALPY            -69.431450850782 Eh   |
          | TOTAL FREE ENERGY         -69.500647520696 Eh   |
          | GRADIENT NORM               0.000068246764 Eh/α |
           -------------------------------------------------

------------------------------------------------------------------------
 * finished run on 2025/09/05 at 00:24:23.134     
------------------------------------------------------------------------
 total:
 * wall-time:     0 d,  0 h,  0 min,  2.272 sec
 *  cpu-time:     0 d,  0 h,  1 min, 26.418 sec
 * ratio c/w:    38.044 speedup
 SCF:
 * wall-time:     0 d,  0 h,  0 min,  0.122 sec
 *  cpu-time:     0 d,  0 h,  0 min,  4.860 sec
 * ratio c/w:    39.797 speedup
 ANC optimizer:
 * wall-time:     0 d,  0 h,  0 min,  1.171 sec
 *  cpu-time:     0 d,  0 h,  0 min, 46.825 sec
 * ratio c/w:    39.994 speedup
 analytical hessian:
 * wall-time:     0 d,  0 h,  0 min,  0.955 sec
 *  cpu-time:     0 d,  0 h,  0 min, 34.405 sec
 * ratio c/w:    36.030 speedup

