$hessian                                                                        
        0.6752513009   0.0145076546   0.0088767071  -0.3276742311   0.0936679280
        0.0289303227  -0.0607043287  -0.0584989070  -0.0194082747  -0.0328682137
        0.0320526526   0.0104627197   0.0533209480  -0.0051862613   0.0001558216
       -0.1092268797   0.0220439446   0.0045331973  -0.0070252624  -0.0003045654
       -0.0002468365   0.0008844601   0.0000368304  -0.0001773008  -0.0007822047
       -0.0024620161  -0.0006887461   0.0025111873   0.0008596144   0.0003594713
       -0.0019241993   0.0020350501   0.0004179650  -0.0005026673  -0.0027702113
       -0.0008192720  -0.0002362525   0.0035002376   0.0005706086   0.0039434829
       -0.0024237213  -0.0007391393  -0.0011544308   0.0004392427   0.0000923770
        0.0007715982   0.0003005864  -0.0001561557  -0.0003381030   0.0003188960
       -0.0001434440   0.0003006660  -0.0002335362   0.0001397287  -0.0002397735
        0.0000030022   0.0000761127   0.0001004342   0.0000794419  -0.0000647889
       -0.0000068472  -0.0000091499  -0.0000018949  -0.0000228370  -0.0000136911
       -0.0000070272   0.0000219368  -0.0000451433   0.0000346314  -0.0000752508
        0.0000556252  -0.0000126193   0.0000933428  -0.0000298851   0.0000058989
       -0.0000293574  -0.0000193081   0.0000296064  -0.0000014339  -0.0000007698
       -0.0000026193   0.0000098512  -0.0000032784   0.0000039644  -0.0000099782
        0.0000024513  -0.0000083423  -0.0000079140  -0.0000012257   0.0000149593
        0.0000001563   0.0000066567  -0.0000264739   0.0000238282  -0.0000066192
        0.0000033908  -0.0000072674  -0.0000051867   0.0000271997  -0.0000038950
        0.0000025852  -0.0000178277  -0.0000133822   0.0000006693   0.0000049513
        0.0000103943  -0.0000041665  -0.0000011062  -0.0000041243   0.0000009996
        0.0000019587  -0.0000087855   0.0000321845  -0.0000351370  -0.0000127813
        0.0000117577  -0.0000227925   0.0000397277   0.0000591981   0.0000004539
       -0.0000656166  -0.0000754851  -0.0000148195   0.0000661632   0.0000470358
        0.0000418294   0.0000265180  -0.0000124096   0.0000080627  -0.0000124292
        0.0000204534  -0.0000138101  -0.0000277825   0.0000062866  -0.0000093769
        0.0000525535   0.0000202200   0.0000135399  -0.0000462360  -0.0000936240
       -0.0000054751   0.0000372112   0.0001201694   0.0000474069  -0.0000871764
       -0.0001764486   0.0001299125  -0.0000463332   0.0003673050  -0.0000433058
        0.0001922227   0.0000038478  -0.0000666140   0.0000160688  -0.0000417679
       -0.0000698449   0.0000151057   0.0000582756   0.0000327737  -0.0000606632
       -0.0000975128  -0.0000436936   0.0000424692  -0.0000306931   0.0000042122
       -0.0000065355   0.0000153981  -0.0000015080   0.0000059138  -0.0000066822
       -0.0000061878  -0.0000029819  -0.0000022767  -0.0000009219   0.0000179625
       -0.0000156882  -0.0000107994  -0.0000034693   0.0000703095   0.0000069212
       -0.0000095262  -0.0000393509  -0.0000120456   0.0000272425  -0.0000141073
        0.0000294177  -0.0000551527  -0.0001817521  -0.0000655341   0.0001365098
       -0.0005739219  -0.0000761278  -0.1726546030  -0.1245768535  -0.0399135152
       -0.0098542453   0.0044286404   0.0009370900  -0.0022339032  -0.0030381803
       -0.0012646382  -0.0095246446   0.0261873217   0.0081383365  -0.0000216303
        0.0000009150  -0.0000084321  -0.0000108649   0.0000040248   0.0000237394
       -0.0000032698   0.0000177919   0.0000258338   0.0000453800   0.0000199730
        0.0000030357  -0.0000188903   0.0000329214  -0.0000125919  -0.0000016015
       -0.0000383088  -0.0000291620  -0.0000001761   0.0000007158  -0.0000012962
        0.0000028967   0.0000029136   0.0000009943   0.0000018016   0.0000004197
        0.0000035063  -0.0000003369   0.0000016630  -0.0000029599   0.0000032692
        0.0000008250  -0.0000034382   0.0000030396  -0.0000006777   0.0000001757
        0.0000031297  -0.0000004448   0.0000008528   0.0000018993  -0.0000013748
        0.0000040975  -0.0000016927  -0.0000009627   0.0000020354   0.0000023799
       -0.0000000753  -0.0000029458   0.0000016152  -0.0000055023   0.0000027393
       -0.0000008961   0.0000044572  -0.0000075214  -0.0000038135  -0.0000004463
       -0.0000000823  -0.0000655048  -0.0000837695   0.0000271916  -0.0000589587
       -0.0002068360  -0.0001638915  -0.0000434088   0.0000384138   0.0000828138
       -0.0000388414  -0.0000886526  -0.0000003824  -0.0000053272  -0.0000113576
        0.0000016219  -0.0000014971  -0.0000041401   0.0000003107  -0.0000012113
        0.0000004585   0.0000015233  -0.0000097036   0.0000014844   0.0000021048
       -0.0000435619   0.0000118555   0.0000039673   0.0000269177   0.0000052240
       -0.0000223866   0.0000080745  -0.0000086379   0.0000277478  -0.0001167726
       -0.0000609459   0.0001072660
        0.0145076546   0.6088541677   0.1554037806   0.0189440932  -0.1012617655
       -0.0185027085  -0.0034995003   0.0406083004   0.0126747186   0.0373625081
       -0.0203348428  -0.0049062143  -0.0583435916  -0.0522239350  -0.0173679892
        0.0947955568  -0.2871156947  -0.0732102362   0.0022209658   0.0010456511
       -0.0017144709  -0.0028935994  -0.0051941083  -0.0018107721   0.0003748162
        0.0028386103   0.0007446285  -0.0026193534  -0.0013194524  -0.0003621487
        0.0021922844  -0.0017861255  -0.0003660301   0.0002737915   0.0022901774
        0.0007236988   0.0002458695  -0.0014994311   0.0000657570  -0.0077979813
       -0.0035394609  -0.0009716644   0.0015458991  -0.0004701654  -0.0002299511
       -0.0007514722  -0.0002156988   0.0000899667   0.0002647190  -0.0002796942
        0.0000145910  -0.0002665959   0.0001828170  -0.0000937318   0.0003550443
       -0.0000805952  -0.0000658193  -0.0001114418  -0.0000397678   0.0000630635
        0.0000186831   0.0000144821  -0.0000153274   0.0000110778   0.0000145017
        0.0000126571  -0.0000216705   0.0000361780  -0.0000416285   0.0000784151
       -0.0000538013   0.0000096169  -0.0001044870   0.0000392492  -0.0000109002
        0.0000296297   0.0000222025  -0.0000287508  -0.0000005427   0.0000025245
        0.0000003632  -0.0000093434   0.0000032235  -0.0000053357   0.0000077743
       -0.0000038415   0.0000145261   0.0000031841   0.0000024431  -0.0000200541
        0.0000017698  -0.0000079904   0.0000234760  -0.0000252760   0.0000065778
       -0.0000032633   0.0000068764   0.0000025724  -0.0000254739  -0.0000026610
       -0.0000030812   0.0000204297   0.0000136095   0.0000000235  -0.0000129857
       -0.0000089720   0.0000019230   0.0000030073   0.0000023020  -0.0000018677
        0.0000003820   0.0000102219  -0.0000402999   0.0000347032   0.0000063349
       -0.0000028652   0.0000327514  -0.0000538533  -0.0000896910   0.0000040924
        0.0000774117   0.0001293548   0.0000191361  -0.0001122554  -0.0000948003
       -0.0000036174   0.0000606370   0.0000510030   0.0000186914   0.0000286271
       -0.0000325671   0.0000274847   0.0000356237  -0.0000301337  -0.0000053323
       -0.0001824619  -0.0001201553  -0.0000287613   0.0002412608  -0.0000716461
       -0.0000004617  -0.0002848250   0.0000373493  -0.0000349861  -0.0002322422
        0.0000101652   0.0000331312   0.0002999812  -0.0000334018   0.0003227893
        0.0001412052  -0.0001370319   0.0000687755   0.0000002454   0.0000681563
        0.0000127590   0.0001674309   0.0002487223  -0.0000009253   0.0000995819
       -0.0001953636  -0.0000553382  -0.0001415010   0.0000716414   0.0000204817
       -0.0000052807   0.0000173279   0.0000057292   0.0000265441  -0.0000153274
       -0.0000058021   0.0000018217  -0.0000089760   0.0000005082  -0.0000139669
       -0.0000160843   0.0000092872   0.0000200740   0.0001392590   0.0000363869
       -0.0000531215   0.0000745302  -0.0000810666  -0.0000509835  -0.0000343522
        0.0000313000   0.0001543032   0.0001474394   0.0000854901  -0.0003896722
        0.0005634606   0.0000542712  -0.1244642670  -0.1628076434  -0.0422077880
        0.0273947787  -0.0090524723  -0.0027665928  -0.0036571859  -0.0014850120
       -0.0026669628   0.0041973327  -0.0075893983  -0.0027751545   0.0000200148
       -0.0000442235  -0.0000295231  -0.0000300971  -0.0000619494  -0.0000015457
       -0.0000146722  -0.0000116654  -0.0000305387   0.0000986182  -0.0000042992
        0.0000093521   0.0000386742   0.0000036590  -0.0000797947  -0.0000087867
        0.0000315183   0.0000534599   0.0000039625   0.0000001232  -0.0000022817
       -0.0000077964  -0.0000016747  -0.0000026739  -0.0000030526  -0.0000024118
       -0.0000051339  -0.0000000183  -0.0000027781   0.0000027167  -0.0000041083
       -0.0000008419   0.0000013479  -0.0000039716   0.0000002323  -0.0000012772
       -0.0000031907  -0.0000008675  -0.0000017359  -0.0000029867  -0.0000000905
       -0.0000042309   0.0000006809  -0.0000013192  -0.0000040010  -0.0000031203
       -0.0000042017   0.0000041921  -0.0000074832   0.0000036526  -0.0000032016
        0.0000012554   0.0000059705   0.0000055859   0.0000099920   0.0000044705
        0.0000034863   0.0000095925  -0.0000244260   0.0000035184  -0.0001030272
       -0.0000678991  -0.0001419711   0.0000298109   0.0000339075   0.0000357809
       -0.0000075996  -0.0000331952  -0.0000071704   0.0000035802  -0.0000074441
       -0.0000006822   0.0000056695  -0.0000057772  -0.0000039992   0.0000049526
       -0.0000134079  -0.0000047754   0.0000104849  -0.0000042092  -0.0000073694
       -0.0001165618  -0.0000371685   0.0000296710   0.0000076816  -0.0000083569
       -0.0000226575  -0.0000582149   0.0000112092  -0.0000593712   0.0000078823
        0.0000079711  -0.0000193631
        0.0088767071   0.1554037806   0.1592253286   0.0048064230  -0.0176063658
       -0.0510500287  -0.0018002690   0.0116162074   0.0056139391   0.0111994166
       -0.0047739701  -0.0055650494  -0.0172415827  -0.0158168977  -0.0075323129
        0.0281685332  -0.0751594228  -0.0652537089   0.0003472700  -0.0011152090
        0.0054973285  -0.0009233937  -0.0021647210   0.0009339714   0.0000813784
        0.0008584984   0.0002209458  -0.0007780450  -0.0003653846  -0.0003471168
        0.0006655202  -0.0005237501  -0.0000905368   0.0000690031   0.0006880669
        0.0001173247   0.0001046861  -0.0003468793  -0.0000631762  -0.0023683423
       -0.0010506208  -0.0003976608   0.0005260561  -0.0000384982   0.0000352164
       -0.0002910488  -0.0000738458   0.0000439036   0.0000837720  -0.0000955024
       -0.0000120218  -0.0001331605   0.0000437911   0.0000142250   0.0001327633
       -0.0000251124  -0.0000207964  -0.0000298050  -0.0000344840   0.0000259863
       -0.0000121539   0.0000124153  -0.0000045095   0.0000156287   0.0000111245
        0.0000031121  -0.0000168073   0.0000206626  -0.0000199005   0.0000399998
       -0.0000302423   0.0000057632  -0.0000512266   0.0000151011   0.0000022632
        0.0000170000   0.0000108066  -0.0000155450  -0.0000005153   0.0000007795
        0.0000008972  -0.0000052034   0.0000018260  -0.0000034542   0.0000043402
       -0.0000018943   0.0000065751   0.0000019363   0.0000005695  -0.0000079869
        0.0000004790  -0.0000031230   0.0000112131  -0.0000145792   0.0000027911
       -0.0000004767   0.0000061992   0.0000023295  -0.0000155095  -0.0000008050
       -0.0000014663   0.0000089799   0.0000056346  -0.0000003912  -0.0000041262
       -0.0000034570   0.0000003659   0.0000022238   0.0000014371  -0.0000011234
       -0.0000013935   0.0000029073  -0.0000163565   0.0000122187   0.0000047882
       -0.0000023726   0.0000126715  -0.0000215978  -0.0000389398   0.0000020887
        0.0000239699   0.0000461508   0.0000070791  -0.0000196322  -0.0000128735
       -0.0000050749   0.0000035975   0.0000036588   0.0000057752   0.0000156120
        0.0000033050   0.0000087971  -0.0000188483  -0.0000169579   0.0000027715
        0.0000175678   0.0000342819  -0.0000180201  -0.0001170738   0.0000452607
        0.0000759819   0.0001230221  -0.0000201136  -0.0000503022   0.0000302893
       -0.0000015166  -0.0000454583  -0.0000141820   0.0002403337  -0.0002259079
        0.0000005520   0.0000874256  -0.0001527267  -0.0000076402  -0.0000962913
       -0.0000459677   0.0000363755  -0.0001274111  -0.0000310188  -0.0000703200
        0.0001180579   0.0000527762   0.0000648183  -0.0000088938  -0.0000274810
       -0.0000128443   0.0000095153   0.0000081961  -0.0000004175  -0.0000073156
        0.0000013507   0.0000053589   0.0000065344   0.0000030743  -0.0000059004
        0.0000011508   0.0000068793  -0.0000178714  -0.0000149133  -0.0000184316
       -0.0000389292   0.0000027441  -0.0000339311  -0.0000026566  -0.0000079138
        0.0000078220   0.0001174274   0.0000486541   0.0000057977  -0.0001301770
        0.0001945561  -0.0000292189  -0.0400496561  -0.0421489772  -0.0457985177
        0.0089158340  -0.0029837389  -0.0007050729  -0.0012364361  -0.0029523192
        0.0062083006   0.0011112386  -0.0017788633  -0.0005935591   0.0000049490
       -0.0000241579   0.0000245649  -0.0000121819  -0.0000226837   0.0000012586
       -0.0000067838  -0.0000141260   0.0000377410   0.0000351245   0.0000008521
       -0.0000048615   0.0000051973  -0.0000096818  -0.0000227669  -0.0000055956
        0.0000074216   0.0000147635   0.0000007033  -0.0000012748  -0.0000001146
       -0.0000037474  -0.0000010819  -0.0000008754  -0.0000006326  -0.0000007364
       -0.0000026316   0.0000002620  -0.0000013587   0.0000023601  -0.0000022448
       -0.0000003973   0.0000014308  -0.0000016519   0.0000002457  -0.0000003995
       -0.0000015936  -0.0000001404  -0.0000005479  -0.0000012367   0.0000000826
       -0.0000013650   0.0000001987  -0.0000002397  -0.0000007919  -0.0000019138
       -0.0000008509   0.0000019197  -0.0000019249   0.0000011704  -0.0000008730
       -0.0000000642  -0.0000012119   0.0000000086   0.0000080418  -0.0000016032
        0.0000059117  -0.0000404220  -0.0000117517  -0.0000124767  -0.0000961982
        0.0000247624  -0.0001037740  -0.0000406046   0.0000366238   0.0000724695
       -0.0000123294  -0.0000294999   0.0000067076   0.0000016587  -0.0000042693
       -0.0000025038  -0.0000013010   0.0000042291  -0.0000003880  -0.0000038681
       -0.0000014555  -0.0000001202  -0.0000017893  -0.0000021551  -0.0000019249
       -0.0000343473  -0.0000073731   0.0000055774   0.0000020228  -0.0000096782
       -0.0000023635  -0.0000121106  -0.0000073226  -0.0000214360   0.0000314185
        0.0000115900   0.0000007233
       -0.3276742311   0.0189440932   0.0048064230   0.6617757134  -0.0152302814
       -0.0003772592  -0.2062894589  -0.0749919843  -0.0261703783   0.0537074223
       -0.0532398032  -0.0172713941  -0.0618917540  -0.0107688929  -0.0050337649
       -0.0077416877   0.0866947818   0.0279917106   0.0059180682  -0.0037140453
       -0.0013098772  -0.0016339059  -0.0027755760  -0.0005975454   0.0007729419
        0.0036524851   0.0010098524  -0.0036100322  -0.0014403639  -0.0005364976
        0.0026711521  -0.0025991524  -0.0005248573   0.0004648688   0.0036188942
        0.0010421716   0.0011101551  -0.0040169759  -0.0004207603  -0.0067705588
        0.0052527064   0.0018391955   0.0013658289  -0.0008505915  -0.0004325108
       -0.0008496432  -0.0004000051   0.0000159078   0.0004574851  -0.0004018789
        0.0001095438  -0.0003744537   0.0002614015  -0.0001212254   0.0004224044
       -0.0000148734  -0.0000884035  -0.0001973423  -0.0000910758   0.0001039495
        0.0000315383  -0.0000004213   0.0000004069   0.0000168746   0.0000100727
        0.0000146183  -0.0000269337   0.0000424325  -0.0000301715   0.0000428477
       -0.0000692560   0.0000149338  -0.0000746858   0.0000253291  -0.0000039697
        0.0000196576   0.0000145019  -0.0000217459   0.0000021901   0.0000002717
        0.0000033808  -0.0000130210   0.0000042883  -0.0000034265   0.0000090385
       -0.0000007031   0.0000026265   0.0000074310   0.0000003552  -0.0000121250
       -0.0000027004  -0.0000050493   0.0000163300  -0.0000141725   0.0000047040
        0.0000029348   0.0000048611   0.0000012609  -0.0000207192   0.0000050561
       -0.0000000342   0.0000132626   0.0000100304  -0.0000009869  -0.0000010310
       -0.0000114498   0.0000049266   0.0000011435   0.0000060395   0.0000001741
        0.0000000773   0.0000038608  -0.0000225559   0.0000219202   0.0000523475
       -0.0000003157   0.0000241086  -0.0001024597  -0.0000824518  -0.0000092233
        0.0001221785   0.0001083535   0.0000256294  -0.0001419553  -0.0000831181
       -0.0000855452   0.0000610598   0.0000355988   0.0000417241  -0.0000061819
       -0.0000233062  -0.0000201582   0.0000693615   0.0000270401   0.0000007265
       -0.0001579664  -0.0001257865  -0.0000032002   0.0001823268  -0.0000715663
        0.0000230933  -0.0002866500   0.0000835912  -0.0000244821  -0.0002055578
        0.0002323708  -0.0000721118   0.0002118873  -0.0000263529  -0.0001078274
        0.0001922882  -0.0001671223  -0.0001159893   0.0000285272   0.0000526159
        0.0000593704  -0.0000204785   0.0001595022  -0.0000224575   0.0000828874
       -0.0000757610   0.0000379763  -0.0001476907   0.0000590689   0.0000133452
        0.0000334712  -0.0000148601  -0.0000006429   0.0000044294   0.0000279111
        0.0000115001  -0.0000137176  -0.0000197403   0.0000040102   0.0000103962
       -0.0000153969   0.0000088826   0.0000236584   0.0000673331  -0.0000035369
        0.0000124447   0.0000583434  -0.0000446080  -0.0000576145   0.0000047360
        0.0000271963   0.0003999472   0.0001402808  -0.0000328131  -0.0004861342
        0.0006987501   0.0001341748  -0.0234636287   0.0029218230   0.0005408508
       -0.0641327966   0.0656449520   0.0218755740  -0.0243377626  -0.0190028052
       -0.0061125114   0.0006594148   0.0016139543   0.0001440164  -0.0000137006
       -0.0000209599  -0.0000027241  -0.0000109277  -0.0000197865  -0.0000344337
        0.0000050261  -0.0000288263  -0.0000227125  -0.0000298548  -0.0000170239
       -0.0000013234  -0.0000348344  -0.0000470170  -0.0000098079  -0.0000026089
        0.0000527749   0.0000156860   0.0000024216   0.0000057215  -0.0000018023
       -0.0000014960   0.0000005413  -0.0000023782  -0.0000005064  -0.0000011825
       -0.0000039942  -0.0000000786  -0.0000020459   0.0000018298  -0.0000029606
       -0.0000009307   0.0000022544  -0.0000020505  -0.0000001065   0.0000003140
       -0.0000019892   0.0000002239  -0.0000019628  -0.0000012050   0.0000004962
       -0.0000034323   0.0000025086  -0.0000000908  -0.0000013968  -0.0000010324
       -0.0000011100   0.0000022333  -0.0000045134   0.0000015138  -0.0000059239
        0.0000161665   0.0000052583   0.0000188016   0.0000031953  -0.0000051604
       -0.0000076566  -0.0001399675   0.0000025222   0.0000046492   0.0001603969
        0.0000752518  -0.0001147681  -0.0001280857  -0.0000250725   0.0000536861
       -0.0000163694  -0.0000107801  -0.0000103156  -0.0000083360   0.0000061259
       -0.0000047436   0.0000031745  -0.0000193756  -0.0000024453   0.0000143906
        0.0000012082  -0.0000063226   0.0000063035  -0.0000015077  -0.0000095680
       -0.0000279100  -0.0000142896   0.0000321197   0.0000445964   0.0000118474
       -0.0000526711  -0.0000287849  -0.0000265555  -0.0000222997  -0.0000364345
       -0.0000474783  -0.0001586892
        0.0936679280  -0.1012617655  -0.0176063658  -0.0152302814   0.6159751278
        0.1646716439  -0.1474225380  -0.1949258670  -0.0521276985  -0.0018654216
       -0.0527431099  -0.0168718649  -0.0165442143   0.0034814034   0.0019219174
        0.0320810011  -0.0065526852  -0.0019603886   0.0023648356  -0.0045149843
       -0.0015455642  -0.0003849205   0.0002104888   0.0001090580   0.0001836341
        0.0008538594   0.0002913744  -0.0012188019  -0.0001949433  -0.0001259399
        0.0008050542  -0.0010809649  -0.0001286913   0.0004456893   0.0012291159
        0.0003930559   0.0000491017  -0.0043740102  -0.0016159033   0.0013207432
        0.0003096511  -0.0013966084   0.0003923195  -0.0000016694  -0.0002412256
       -0.0001808528  -0.0002316502   0.0002106364   0.0001812330  -0.0000871953
        0.0001031332  -0.0000181690   0.0001121957  -0.0001755905  -0.0000842026
        0.0000821846  -0.0000101488   0.0000002923  -0.0000402778  -0.0000056457
        0.0000221106  -0.0000264638   0.0000132192  -0.0000052530  -0.0000177324
       -0.0000028511   0.0000076130  -0.0000260617   0.0000232681  -0.0000735633
        0.0000172672  -0.0000040427   0.0000758726  -0.0000261572   0.0000052467
       -0.0000255162  -0.0000149181   0.0000256192  -0.0000025589  -0.0000025418
       -0.0000013039   0.0000059105  -0.0000026771   0.0000022019  -0.0000061224
        0.0000025632  -0.0000126734  -0.0000036419  -0.0000031550   0.0000139046
        0.0000005809   0.0000045300  -0.0000203691   0.0000210181  -0.0000052558
       -0.0000006484  -0.0000076892  -0.0000043137   0.0000213519   0.0000017019
        0.0000015273  -0.0000167243  -0.0000090492  -0.0000020942   0.0000090855
        0.0000066745  -0.0000040289   0.0000001437  -0.0000039765   0.0000004308
       -0.0000006623  -0.0000076765   0.0000283827  -0.0000294766   0.0000319413
        0.0000168451  -0.0000223362  -0.0000099402   0.0000497096  -0.0000013791
       -0.0000084807  -0.0000580578  -0.0000147636   0.0000486432   0.0000197050
       -0.0000157699  -0.0001019911  -0.0000473640  -0.0000090746  -0.0000408440
       -0.0000028130  -0.0000129603  -0.0000103937   0.0000537683  -0.0000145823
        0.0001669122   0.0001219298   0.0000797908   0.0000363624  -0.0001474959
       -0.0002505032  -0.0000544124  -0.0000555347   0.0001223187   0.0004685928
       -0.0001970597   0.0002493379  -0.0001181806   0.0005462561   0.0002173002
       -0.0002368454  -0.0002841072   0.0002447469  -0.0001303423  -0.0000228871
       -0.0000793489  -0.0000111052   0.0000051866   0.0000089453  -0.0000409966
       -0.0001836961  -0.0001082134   0.0000438376  -0.0000907910   0.0000479526
        0.0000063525  -0.0000009830  -0.0000175919  -0.0000162358   0.0000044492
       -0.0000069880  -0.0000002372  -0.0000016255  -0.0000114816   0.0000205451
       -0.0000032375  -0.0000305981   0.0000149944  -0.0000364137   0.0000594081
        0.0000688814  -0.0001147010   0.0000919690   0.0000090271   0.0000255920
       -0.0001223897  -0.0001585474   0.0000857628   0.0000295702   0.0001476749
        0.0002848405   0.0001784768  -0.0200338229   0.0036565123   0.0009624677
        0.0656768058  -0.2593744393  -0.0729659160   0.0034741843   0.0041706801
        0.0013702803   0.0019096937  -0.0044233878  -0.0035597322  -0.0000495854
        0.0000467975   0.0000150559  -0.0000316595  -0.0000151513  -0.0000197080
       -0.0000160273  -0.0000380061  -0.0000000703   0.0000128153  -0.0000337366
       -0.0000072852   0.0000202672  -0.0000044780  -0.0000623433   0.0000386770
        0.0000058736  -0.0000169338  -0.0000028428  -0.0000002154   0.0000005744
        0.0000066216   0.0000029767   0.0000008936  -0.0000002625   0.0000010305
        0.0000031520  -0.0000007362   0.0000015369  -0.0000029129   0.0000023739
        0.0000006695  -0.0000028210   0.0000029162  -0.0000003460  -0.0000006856
        0.0000030176  -0.0000004804   0.0000000059   0.0000022204  -0.0000013532
        0.0000020044  -0.0000002939  -0.0000012652   0.0000009107   0.0000012307
        0.0000000004  -0.0000027195   0.0000040469  -0.0000073138   0.0000029681
       -0.0000024142  -0.0000077049   0.0000029803  -0.0000106293  -0.0000046895
       -0.0000011935  -0.0001416313   0.0000495062  -0.0000228424   0.0000674967
       -0.0002000071  -0.0002087032   0.0000747589   0.0000096697  -0.0000492799
       -0.0000011958  -0.0000147345   0.0000248324  -0.0000041136  -0.0000020634
        0.0000109503  -0.0000024660  -0.0000023704   0.0000073636  -0.0000014535
        0.0000080792   0.0000079439  -0.0000038643   0.0000063094   0.0000166450
        0.0003732154   0.0000774335   0.0000157304  -0.0000638441  -0.0000145682
        0.0000576478   0.0000290749  -0.0000071459   0.0000215031   0.0000033493
       -0.0000151019  -0.0001270713
        0.0289303227  -0.0185027085  -0.0510500287  -0.0003772592   0.1646716439
        0.1659533015  -0.0498654303  -0.0508638494  -0.0595068376  -0.0001936545
       -0.0181201402  -0.0076911501  -0.0060715260   0.0026754903  -0.0038913431
        0.0100650096  -0.0014780300   0.0014294854   0.0008257685  -0.0017850567
       -0.0006036565  -0.0000852224   0.0001533151  -0.0000216115   0.0000727902
        0.0003190354   0.0000357148  -0.0004600847  -0.0000725053  -0.0000320687
        0.0003127902  -0.0003663407  -0.0002789613   0.0001880794   0.0004566952
        0.0000932460  -0.0002024199  -0.0020607818   0.0006640219   0.0012807375
       -0.0011082129   0.0046966802  -0.0001866333   0.0003191035   0.0006755908
       -0.0000457195   0.0000473416   0.0000176201  -0.0001270921   0.0000214530
       -0.0000419710  -0.0000532911  -0.0000634190   0.0001113597  -0.0000273097
        0.0000423695   0.0000147152   0.0000151439  -0.0000325976   0.0000042475
       -0.0000118409  -0.0000028355   0.0000014971   0.0000090150  -0.0000010467
       -0.0000021317  -0.0000060112  -0.0000027691   0.0000041914  -0.0000144460
       -0.0000037462   0.0000005549   0.0000141448  -0.0000079619   0.0000085927
       -0.0000023981  -0.0000027065   0.0000031743  -0.0000016104  -0.0000006570
        0.0000007444   0.0000000903   0.0000000236  -0.0000008174  -0.0000006901
        0.0000006250  -0.0000032254  -0.0000005288  -0.0000012172   0.0000041460
       -0.0000008941   0.0000016075  -0.0000055588   0.0000023260  -0.0000017355
        0.0000026068   0.0000015156  -0.0000004973   0.0000013094   0.0000007705
        0.0000003828  -0.0000046790  -0.0000024060  -0.0000011246   0.0000037064
        0.0000020114  -0.0000015696   0.0000008385  -0.0000005752  -0.0000002905
       -0.0000012476  -0.0000041603   0.0000085239  -0.0000121771   0.0000112496
        0.0000045611  -0.0000062502  -0.0000027869   0.0000122536  -0.0000011853
       -0.0000156264  -0.0000186271  -0.0000047856   0.0000471418   0.0000301169
       -0.0000100401  -0.0000673281  -0.0000406998  -0.0000094613  -0.0000125226
        0.0000117977  -0.0000015479  -0.0000279590   0.0000034314   0.0000182738
        0.0002177050   0.0001418129   0.0000313752  -0.0001856333   0.0000515400
       -0.0000257843   0.0002435117  -0.0003895607  -0.0001359238  -0.0002097947
        0.0006461387  -0.0004053184  -0.0000009841   0.0002295415  -0.0000245756
       -0.0001193757   0.0003354604  -0.0002208341  -0.0000782488  -0.0001654048
       -0.0000645917  -0.0000080212  -0.0002194126  -0.0000306300  -0.0001188641
        0.0001214940   0.0000325035   0.0001709228  -0.0000797200  -0.0000211572
       -0.0000092981   0.0000038955   0.0000006307  -0.0000163915   0.0000074159
        0.0000028748  -0.0000009314   0.0000097454   0.0000010108   0.0000030491
        0.0000227810  -0.0000013329  -0.0000256464  -0.0001709714  -0.0000241640
       -0.0000194606  -0.0000812895   0.0000409961   0.0000471012   0.0000427432
       -0.0000575748   0.0001070794  -0.0000358955  -0.0000894022  -0.0000204482
       -0.0000104991  -0.0001578702  -0.0065779046   0.0011802638   0.0003205047
        0.0213428293  -0.0734540981  -0.0557409244   0.0008731197   0.0011456206
        0.0006587230   0.0004516979  -0.0035195520   0.0060121432  -0.0000169764
        0.0000174474  -0.0000025424  -0.0000134832  -0.0000174698   0.0000331267
       -0.0000051188  -0.0000212578   0.0000054743  -0.0000018771  -0.0000224333
        0.0000168345  -0.0000023478  -0.0000182090   0.0000036532  -0.0000074464
       -0.0000115074  -0.0000118556  -0.0000016738  -0.0000014152   0.0000003937
        0.0000015490   0.0000006582   0.0000003902   0.0000003830   0.0000002971
        0.0000000415  -0.0000001356   0.0000001067   0.0000004398   0.0000001354
        0.0000001741  -0.0000001706   0.0000008933  -0.0000000147  -0.0000001825
        0.0000005780  -0.0000001031   0.0000000899   0.0000006047  -0.0000004727
        0.0000007626  -0.0000000144  -0.0000004307   0.0000009774  -0.0000002444
        0.0000004679  -0.0000007434   0.0000021532  -0.0000026788   0.0000009075
       -0.0000037122  -0.0000103087   0.0000006940  -0.0000025133  -0.0000055515
        0.0000041843  -0.0000521624  -0.0000019909  -0.0000158824  -0.0000368033
        0.0000386050  -0.0006209834   0.0000699504  -0.0000064920  -0.0000189626
        0.0000134473  -0.0000018504   0.0000074891  -0.0000010647   0.0000022443
        0.0000024805  -0.0000058498   0.0000073849   0.0000037666  -0.0000078984
        0.0000104606   0.0000046092  -0.0000098935   0.0000019991   0.0000063021
        0.0001310260   0.0000703926  -0.0000953392  -0.0000457852  -0.0000269635
        0.0000267660   0.0000235057  -0.0000324505   0.0000054453  -0.0000067190
       -0.0000193310  -0.0000237274
       -0.0607043287  -0.0034995003  -0.0018002690  -0.2062894589  -0.1474225380
       -0.0498654303   0.6700058984   0.0033787280   0.0052507071  -0.1140128722
        0.0963212369   0.0316690775  -0.0000218508   0.0277006511   0.0090144356
       -0.0011435507  -0.0170030696  -0.0054590132  -0.0091689657   0.0033086318
        0.0005886901   0.0011234240   0.0008630160   0.0002693214  -0.0002048602
       -0.0008758373  -0.0002302638   0.0010380205   0.0003398725   0.0001346703
       -0.0010242488   0.0005891565   0.0001170081   0.0001410982  -0.0026396101
       -0.0006431922  -0.0042631341   0.0002604791  -0.0007511294   0.0092444871
       -0.0256690353  -0.0079805187  -0.0002637473  -0.0023437710  -0.0007149923
        0.0010218440   0.0000779095  -0.0002023253  -0.0004491683   0.0004592932
       -0.0001732680  -0.0003593411  -0.0003343923   0.0005494537   0.0000276712
        0.0000825070  -0.0000265816  -0.0000630061   0.0000014856   0.0000233039