$hessian                                                                        
        0.5110641029  -0.0159562294   0.0209386730  -0.0771402006  -0.0120645549
        0.0382959517   0.0051438127   0.0018417368  -0.0080423672  -0.0245370464
       -0.0058747669   0.0234291140  -0.0002939085  -0.0005289851   0.0014230190
       -0.0003994528  -0.0004840757  -0.0008176969  -0.0000829429   0.0002861675
       -0.0001039612  -0.0004469093  -0.0005977900  -0.0012092064  -0.0025331721
        0.0039474890   0.0010930935   0.0007423091  -0.0015985281  -0.0001454992
        0.0001339170   0.0001055717  -0.0000535874  -0.0000056748  -0.0000228792
       -0.0000105383   0.0000137292   0.0000101701  -0.0000081400   0.0000067463
        0.0000036632  -0.0000176701   0.0000050260   0.0000036603  -0.0000019796
       -0.0000178421  -0.0000137046   0.0000566101   0.0000107944   0.0004053740
        0.0004807506   0.0001146270  -0.0003890450  -0.0000438334  -0.0001058728
        0.0001281706  -0.0000267522   0.0000810141  -0.0000903984  -0.0002188323
        0.0000103333   0.0000027411   0.0000563960  -0.0000254685  -0.0001096166
       -0.0000060250  -0.0000489930   0.0000765210   0.0000047517   0.0001140272
        0.0003195588  -0.0001062472  -0.0006340642   0.0001089959  -0.0006600194
       -0.0011547863   0.0008938007  -0.0000082154   0.0007095462  -0.0067771454
        0.0026313017  -0.0789670179  -0.0844016992  -0.0146970335  -0.1671309091
        0.1081299785   0.0597090207  -0.1633271605   0.0117593025  -0.1193048962
        0.0007234161   0.0003369273  -0.0007819931  -0.0001217317  -0.0001328297
       -0.0001673429  -0.0003645326  -0.0004934354  -0.0018544363  -0.0004127137
       -0.0000850773   0.0007228864   0.0000292599  -0.0000229801  -0.0000403845
       -0.0000077595  -0.0000156788   0.0002178762  -0.0002441943   0.0000741613
        0.0002015380  -0.0000000498   0.0000155333  -0.0000272309  -0.0000085240
       -0.0000030620  -0.0000000070  -0.0000070291  -0.0000032697  -0.0000041241
       -0.0000149737  -0.0000084289  -0.0000098121  -0.0000163842  -0.0000127379
       -0.0000131254  -0.0000066891  -0.0000070060   0.0000153620   0.0000133857
        0.0000084169  -0.0000041463   0.0000154250  -0.0000017929   0.0000314042
        0.0000424771  -0.0000165246  -0.0000307214  -0.0009179460   0.0012543014
       -0.0008919237
       -0.0159562294   0.5140901875   0.0339770069  -0.0138981250  -0.0717074014
        0.0329275349   0.0018413354   0.0014892951  -0.0048800903   0.0026773377
        0.0056491221  -0.0043987322   0.0016377607  -0.0011919252  -0.0006003118
       -0.0009034871   0.0004517254  -0.0001477930   0.0003559359   0.0001662620
       -0.0001087418   0.0001331964   0.0001320273   0.0003274442   0.0007954114
       -0.0019015432  -0.0000703110  -0.0015785456   0.0019353873   0.0001097428
        0.0000645776   0.0000419559  -0.0000924538  -0.0000146102   0.0000127622
       -0.0000068703  -0.0000038952  -0.0000052589  -0.0000045523   0.0000025131
        0.0000041165  -0.0000032457  -0.0000056263  -0.0000003086   0.0000070072
       -0.0000197232   0.0000056689   0.0000075395   0.0033716809  -0.0035117898
        0.0010698884  -0.0006604584  -0.0002318924  -0.0014697588   0.0001415884
       -0.0001128349  -0.0000193564  -0.0003958534   0.0000889301  -0.0005224064
        0.0001286632   0.0000851287  -0.0000821826  -0.0001047272  -0.0001785735
        0.0001145720   0.0000617941  -0.0000185457  -0.0000252967  -0.0002374484
        0.0002408732   0.0001663789   0.0005093318  -0.0005263894   0.0005656542
       -0.0009005050   0.0000016916   0.0007775333  -0.0130565108  -0.0203912659
        0.0216541993  -0.0847441034  -0.2420751940  -0.0341727201   0.1082437873
       -0.1365051437  -0.0527166601   0.0107978578  -0.0457730706   0.0108542091
        0.0003739071   0.0007111489  -0.0018173942   0.0001246513   0.0000255543
       -0.0002069351  -0.0005044331  -0.0004968586  -0.0017917670   0.0007639757
       -0.0002485263  -0.0003332103   0.0000124115  -0.0000296549   0.0000522221
        0.0000452371   0.0000218086  -0.0000053504   0.0001159649  -0.0000073134
        0.0000349692   0.0000102394  -0.0000092272  -0.0000173883  -0.0000034680
       -0.0000039642   0.0000026624  -0.0000064921  -0.0000052936   0.0000018111
       -0.0000069503  -0.0000076636  -0.0000040659   0.0000084722   0.0000015196
        0.0000167300   0.0000055656  -0.0002553060   0.0001426087   0.0000069921
        0.0000263889   0.0002681316   0.0000048919   0.0000317483  -0.0000719650
        0.0000503235  -0.0000088051  -0.0000410069   0.0007157882  -0.0000095523
        0.0005327205
        0.0209386730   0.0339770069   0.4484166602   0.0349727651   0.0272519905
       -0.1316191360   0.0080611070   0.0048891655  -0.0252374487   0.0113851871
       -0.0001440448  -0.0060371179  -0.0001409352   0.0005891698  -0.0000974433
       -0.0001147981   0.0001096813   0.0002855232   0.0001019324   0.0002763900
        0.0000230153   0.0004505857  -0.0002931029   0.0003827135  -0.0007741725
       -0.0007258477  -0.0008180293  -0.0000732708   0.0002137800  -0.0001796067
        0.0000493383   0.0000363183   0.0000994743  -0.0000337140  -0.0000218833
       -0.0000253987   0.0000015799   0.0000014190   0.0000045602   0.0000021311
        0.0000004669  -0.0000036475   0.0000204364   0.0000152299   0.0000123903
       -0.0000075911   0.0000069163  -0.0000061406  -0.0005355701  -0.0008540681
       -0.0008303284  -0.0001268485   0.0006030393   0.0000408700   0.0003084039
       -0.0000713879  -0.0000225206   0.0001371778  -0.0003002918   0.0002862653
       -0.0002079753   0.0000381033  -0.0000281715  -0.0000300977   0.0002656783
        0.0001621892  -0.0000442905   0.0001084940   0.0000429454   0.0002784422
        0.0002508730  -0.0001414910  -0.0015187184  -0.0001800715  -0.0015712505
        0.0002992829  -0.0005627427   0.0003818648   0.0023588435   0.0086897017
       -0.0019981428  -0.0151801393  -0.0352997833  -0.0472289302   0.0600842546
       -0.0531761560  -0.0702500392  -0.1197575678   0.0118641663  -0.1584760588
        0.0012297988   0.0015996927   0.0010430437  -0.0000841973  -0.0000201901
       -0.0009751990  -0.0014825461  -0.0005602922  -0.0043401581   0.0003596408
       -0.0000348248  -0.0003527982   0.0000011537   0.0000177743  -0.0000392478
       -0.0000164561   0.0000139928  -0.0000611103   0.0000041838  -0.0000308273
        0.0000537931  -0.0000023920  -0.0000080030   0.0000196645   0.0000006126
        0.0000009984   0.0000000594   0.0000058005   0.0000028052   0.0000041646
        0.0000042423   0.0000023998   0.0000015986   0.0000053379  -0.0000104369
       -0.0000127513  -0.0000231721  -0.0000112681   0.0000919560   0.0000115999
       -0.0000105737  -0.0000050861   0.0000060998  -0.0000097097  -0.0000581515
        0.0000027231   0.0000313797  -0.0000637696  -0.0009268812   0.0014688730
       -0.0008735783
       -0.0771402006  -0.0138981250   0.0349727651   0.4549643345  -0.0208542194
       -0.0000239160  -0.0771055924  -0.0138762328  -0.0349473958  -0.1732615249
        0.0383993340  -0.0000145336  -0.0085897902   0.0116591621  -0.0000018844
        0.0010746085   0.0002171033  -0.0000000751  -0.0004704464   0.0008416848
        0.0000000592  -0.0012652114  -0.0037031237   0.0000000357  -0.0285699694
        0.0021941086  -0.0000014002   0.0009697520   0.0033526471   0.0000000981
       -0.0001412452  -0.0000034835   0.0000000385   0.0001262968   0.0001381352
       -0.0000646132   0.0000062519   0.0000033685  -0.0000124500   0.0000283913
        0.0000202195   0.0000000555   0.0000062502   0.0000033576   0.0000125248
        0.0001262669   0.0001382065   0.0000646342   0.0022369591  -0.0235673733
       -0.0000021075  -0.0042039176  -0.0011405779  -0.0000000630   0.0007514532
       -0.0003878763  -0.0000000124  -0.0047368607   0.0016691155   0.0000002928
        0.0004857626   0.0010570290  -0.0000000288   0.0001941199  -0.0005822567
       -0.0000000524  -0.0002259356   0.0000081068  -0.0000000181   0.0000427236
        0.0002659828  -0.0000000948   0.0015251018   0.0005741923   0.0000001163
       -0.0014486325   0.0235272300   0.0000020102  -0.0644450057   0.0064722460
        0.0000013779  -0.0049036033  -0.0056161063   0.0089547572  -0.0109826156
       -0.0058956520   0.0187653935   0.0065584736   0.0063866216  -0.0137674997
       -0.0048851296  -0.0056001331  -0.0089305787  -0.0109852063  -0.0059003872
       -0.0187856870   0.0065537782   0.0063853446   0.0137776982   0.0004737362
       -0.0013613790   0.0000003947  -0.0000803122  -0.0002050936  -0.0000002228
        0.0002323717  -0.0000964530   0.0000000844  -0.0008218992   0.0004515923
        0.0000003431  -0.0000317173  -0.0000340932  -0.0000084231   0.0000112959
        0.0000051229  -0.0000078643   0.0000059871   0.0000022907   0.0000000447
        0.0000112637   0.0000051591   0.0000079510  -0.0000317447  -0.0000340509
        0.0000085346  -0.0000963130  -0.0011887957  -0.0000000106  -0.0000057948
        0.0000546684  -0.0000000626  -0.0002986771   0.0002305447  -0.0000000498
        0.0000185850  -0.0000847897  -0.0000000640  -0.0016764179  -0.0000323711
       -0.0000001018
       -0.0120645549  -0.0717074014   0.0272519905  -0.0208542194   0.4758690551
       -0.0000166522  -0.0120468383  -0.0716874760  -0.0272397523   0.0395145629
       -0.0789316239   0.0000059664   0.0287957348  -0.0154487995   0.0000032728
       -0.0008487922  -0.0053705345   0.0000012620   0.0001577325   0.0007985088
       -0.0000000274  -0.0021952582  -0.0028114190   0.0000007007  -0.0127247686
        0.0100229102  -0.0000017894   0.0033554482  -0.0011778332   0.0000001388
        0.0000244141  -0.0001110686   0.0000000532   0.0001378709   0.0000379691
       -0.0000726269  -0.0000061823   0.0000038978  -0.0000314005   0.0000436781
        0.0000331840   0.0000000325  -0.0000061740   0.0000038848   0.0000314529
        0.0001378806   0.0000379680   0.0000726343  -0.0103489216  -0.0242372155
       -0.0000008760  -0.0028419532   0.0011683048  -0.0000001061   0.0008645938
       -0.0006301676   0.0000000521   0.0014917235   0.0004245375  -0.0000000192
        0.0001358736  -0.0007122005  -0.0000000954   0.0001552534  -0.0001376066
        0.0000001631  -0.0003362539   0.0001368222   0.0000001432   0.0001727439
       -0.0002844237  -0.0000001053  -0.0018673899   0.0004003552   0.0000001210
        0.0098893228  -0.0186119726  -0.0000006722   0.0047289759  -0.1794774540
       -0.0000102479  -0.0121049508  -0.0128526096   0.0212756359   0.0057645245
        0.0047485625  -0.0129210626  -0.0008417937  -0.0006971125   0.0032025997
       -0.0120980368  -0.0128571061  -0.0212982403   0.0057528799   0.0047408739
        0.0129123338  -0.0008274009  -0.0006810813  -0.0031644033   0.0006269096
        0.0004584447  -0.0000003949   0.0012735270  -0.0007507419  -0.0000000947
       -0.0000233891   0.0000213916  -0.0000001869  -0.0009967478   0.0001973982
       -0.0000000735  -0.0000374934   0.0000020764  -0.0000252173   0.0000083968
        0.0000106166   0.0000005602  -0.0000057695   0.0000031031   0.0000000287
        0.0000084223   0.0000105750  -0.0000005054  -0.0000374555   0.0000020377
        0.0000252921   0.0001742248  -0.0005598864   0.0000002000   0.0000079779
        0.0002238484  -0.0000000092   0.0000800552   0.0000248818  -0.0000000359
       -0.0001153058   0.0000115651   0.0000000249  -0.0000730774   0.0003429619
       -0.0000000640
        0.0382959517   0.0329275349  -0.1316191360  -0.0000239160  -0.0000166522
        0.4185289595  -0.0382793215  -0.0329204828  -0.1316556035  -0.0000094923
        0.0000052776  -0.0516604447   0.0000014992  -0.0000013908  -0.0012831938
       -0.0000025359   0.0000006531   0.0063237069   0.0000003551   0.0000026430
        0.0000034170   0.0000017896  -0.0000017522   0.0062081169  -0.0000009279
        0.0000015677   0.0014414575  -0.0000019087   0.0000001057  -0.0036806173
        0.0000000284   0.0000000342   0.0001398459   0.0000720011   0.0000571754
        0.0000990578  -0.0000122825   0.0000005347  -0.0000149123   0.0000000379
        0.0000000255  -0.0000387560   0.0000121765  -0.0000005985  -0.0000148580
       -0.0000720815  -0.0000572955   0.0000987730   0.0000019374  -0.0000026765
        0.0020422579  -0.0000013751   0.0000023290   0.0075893842   0.0000023842
       -0.0000011886   0.0000196863  -0.0000014971  -0.0000006602   0.0046511213
        0.0000012538  -0.0000005485   0.0000967866   0.0000001897  -0.0000009844
       -0.0002370692  -0.0000004828   0.0000001963  -0.0000449338  -0.0000003598
        0.0000012828  -0.0001450068   0.0000001315  -0.0000003996  -0.0027010567
       -0.0000013961   0.0000019370  -0.0010460672   0.0000031620  -0.0000057235
       -0.0536007213   0.0007164101   0.0018476114  -0.0000977188   0.0067150608
        0.0026963404  -0.0088472992   0.0072569603   0.0092193583  -0.0230604587
       -0.0007204884  -0.0018558668  -0.0001135101  -0.0067038322  -0.0026914008
       -0.0088350068  -0.0072495153  -0.0092072203  -0.0230691923  -0.0000004044
       -0.0000000327  -0.0024832653  -0.0000001166  -0.0000000151   0.0001303994
        0.0000000554  -0.0000001002  -0.0014699901   0.0000000757   0.0000000421
       -0.0005179577   0.0000212616   0.0000163737  -0.0000948479   0.0000107700
        0.0000051632  -0.0000129663   0.0000000031   0.0000000033  -0.0000098685
       -0.0000107573  -0.0000051462  -0.0000129535  -0.0000212757  -0.0000163670
       -0.0000947131   0.0000000878   0.0000000815  -0.0006592640   0.0000000227
        0.0000001904  -0.0016666639  -0.0000000236   0.0000000208   0.0003863148
        0.0000000263  -0.0000000892   0.0002775745   0.0000003588   0.0000001096
        0.0007511929
        0.0051438127   0.0018413354   0.0080611070  -0.0771055924  -0.0120468383
       -0.0382793215   0.5111088784  -0.0159498014  -0.0208956904  -0.0245322727
       -0.0058670185  -0.0234377863  -0.0002928301  -0.0005301080  -0.0014238015
       -0.0004011231  -0.0004839604   0.0008183523  -0.0000824542   0.0002877774
        0.0001041415  -0.0004454518  -0.0005986163   0.0012096592  -0.0025331819
        0.0039485651  -0.0010927593   0.0007419713  -0.0015998860   0.0001459432
        0.0001340868   0.0001057203   0.0000533922  -0.0000178534  -0.0000137717
       -0.0000566645   0.0000050703   0.0000037123   0.0000020284   0.0000067497
        0.0000036743   0.0000177261   0.0000137446   0.0000101693   0.0000081659
       -0.0000057367  -0.0000228550   0.0000106002   0.0000102381   0.0004044737
       -0.0004798800   0.0001143307  -0.0003882254   0.0000436333  -0.0001051212
        0.0001280565   0.0000268235   0.0000804576  -0.0000905045   0.0002188086
        0.0000110207   0.0000026220  -0.0000563857  -0.0000258992  -0.0001100935
        0.0000060741  -0.0000487767   0.0000762920  -0.0000047868   0.0001135237
        0.0003196064   0.0001061598  -0.0006320495   0.0001074728   0.0006571146
       -0.0011540110   0.0008927673   0.0000081832   0.0007138098  -0.0067723206
       -0.0026285805   0.0007243669   0.0003384649   0.0007825716  -0.0001236378
       -0.0001330955   0.0001706519  -0.0003656621  -0.0004922001   0.0018552690
       -0.0787566670  -0.0842214571   0.0145837626  -0.1674290577   0.1081496795
       -0.0597037918  -0.1633286133   0.0115263246   0.1193368055  -0.0004130721
       -0.0000854739  -0.0007231135   0.0000292614  -0.0000230159   0.0000403681
       -0.0000077470  -0.0000156995  -0.0002179104  -0.0002440644   0.0000740746
       -0.0002016414  -0.0000164092  -0.0000127535   0.0000132254  -0.0000149704
       -0.0000084356   0.0000098605  -0.0000070254  -0.0000032578   0.0000041754
       -0.0000085493  -0.0000030509   0.0000000513  -0.0000000609   0.0000155520
        0.0000272577  -0.0000067128  -0.0000069463  -0.0000154589   0.0000133545
        0.0000083747   0.0000040924   0.0000154146  -0.0000018429  -0.0000314267
        0.0000424364  -0.0000165573   0.0000307312  -0.0009179250   0.0012530705
        0.0008922638
        0.0018417368   0.0014892951   0.0048891655  -0.0138762328  -0.0716874760
       -0.0329204828  -0.0159498014   0.5141240464  -0.0339561280   0.0026799355
        0.0056500383   0.0044054735   0.0016363109  -0.0011917280   0.0005995022
       -0.0009034728   0.0004519453   0.0001466998   0.0003558055   0.0001662096
        0.0001089440   0.0001329378   0.0001319366  -0.0003280177   0.0007953259
       -0.0019028322   0.0000713151  -0.0015798933   0.0019362486  -0.0001094450
        0.0000647073   0.0000420126   0.0000923732  -0.0000197688   0.0000056787
       -0.0000075529  -0.0000056046  -0.0000002662  -0.0000069862   0.0000025206
        0.0000041226   0.0000032774  -0.0000038682  -0.0000052703   0.0000045785
       -0.0000146396   0.0000127431   0.0000069056   0.0033729982  -0.0035116612
       -0.0010696333  -0.0006603898  -0.0002309466   0.0014703404   0.0001424850
       -0.0001129956   0.0000194423  -0.0003961307   0.0000882054   0.0005233263
        0.0001288298   0.0000851991   0.0000822061  -0.0001049761  -0.0001786944
       -0.0001145287   0.0000618263  -0.0000184688   0.0000253454  -0.0002376344
        0.0002415579  -0.0001663202   0.0005092129  -0.0005256168  -0.0005655550
       -0.0009013035   0.0000023542  -0.0007775139  -0.0130486407  -0.0203925562
       -0.0216651062   0.0003711308   0.0007123249   0.0018179719   0.0001245211
        0.0000247209   0.0002078638  -0.0005049043  -0.0004989034   0.0017921496
       -0.0845628036  -0.2423665953   0.0340308650   0.1082630604  -0.1363125724
        0.0525959494   0.0105631048  -0.0457266716  -0.0106290753   0.0007646999
       -0.0002494125   0.0003347478   0.0000123812  -0.0000296986  -0.0000522849
        0.0000451926   0.0000217825   0.0000055550   0.0001159989  -0.0000073322
       -0.0000350131   0.0000084871   0.0000015076  -0.0000166725  -0.0000069613
       -0.0000076468   0.0000040991  -0.0000064866  -0.0000052883  -0.0000017787
       -0.0000034639  -0.0000039759  -0.0000026330   0.0000102508  -0.0000092394
        0.0000174084   0.0000055521  -0.0002551743  -0.0001426967   0.0000070047
        0.0000264359  -0.0002683572   0.0000049041   0.0000317437   0.0000720431
        0.0000503790  -0.0000088578   0.0000410900   0.0007156768  -0.0000102284
       -0.0005328574
       -0.0080423672  -0.0048800903  -0.0252374487  -0.0349473958  -0.0272397523
       -0.1316556035  -0.0208956904  -0.0339561280   0.4483996840  -0.0113930777
        0.0001482151  -0.0060452749   0.0001421562  -0.0005900203  -0.0000972764
        0.0001129354  -0.0001095160   0.0002859881  -0.0001014523  -0.0002755423
        0.0000231530  -0.0004500061   0.0002926896   0.0003826428   0.0007737809
        0.0007262633  -0.0008170834   0.0000732637  -0.0002138999  -0.0001796589
       -0.0000493266  -0.0000363013   0.0000996855   0.0000075996  -0.0000069351
       -0.0000060461  -0.0000204483  -0.0000152337   0.0000123667  -0.0000021305
       -0.0000004653  -0.0000036941  -0.0000016195  -0.0000014282   0.0000045482
        0.0000337504   0.0000219080  -0.0000253804   0.0005364524   0.0008544264
       -0.0008297891   0.0001268994  -0.0006032175   0.0000408439  -0.0003082463
        0.0000716193  -0.0000224629  -0.0001372126   0.0002994587   0.0002860949
        0.0002078369  -0.0000380928  -0.0000280797   0.0000301378  -0.0002657200
        0.0001621866   0.0000442026  -0.0001084513   0.0000429473  -0.0002785165
       -0.0002506262  -0.0001414256   0.0015181209   0.0001815195  -0.0015704060
       -0.0003002101   0.0005626970   0.0003820529  -0.0023589753  -0.0086985524
       -0.0020033250  -0.0012316391  -0.0016003219   0.0010422357   0.0000855378
        0.0000214510  -0.0009814433   0.0014818864   0.0005596413  -0.0043358749
        0.0150652340   0.0351609976  -0.0471726292  -0.0600748464   0.0530512548
       -0.0701728872   0.1197859820  -0.0116395537  -0.1585432499  -0.0003591046
        0.0000346027  -0.0003531444  -0.0000011596  -0.0000177565  -0.0000391240
        0.0000164688  -0.0000140024  -0.0000611404  -0.0000041531   0.0000308477
        0.0000535308  -0.0000052851   0.0000104744  -0.0000128118  -0.0000042429
       -0.0000024142   0.0000015812  -0.0000058032  -0.0000028054   0.0000041333
       -0.0000006060  -0.0000009820   0.0000000409   0.0000023869   0.0000080096
        0.0000196316   0.0000231707   0.0000112455   0.0000918535  -0.0000115984
        0.0000105689  -0.0000051523  -0.0000060970   0.0000097084  -0.0000581574
       -0.0000028147  -0.0000313446  -0.0000637022   0.0009262227  -0.0014684455
       -0.0008729292
       -0.0245370464   0.0026773377   0.0113851871  -0.1732615249   0.0395145629
       -0.0000094923  -0.0245322727   0.0026799355  -0.0113930777   0.6117893430
        0.0250620981   0.0000142471  -0.0959040244   0.0684997187  -0.0000056309
        0.0111240142   0.0314005449  -0.0000018612  -0.0050185774  -0.0229024693
        0.0000011963  -0.0571410379   0.0106558005  -0.0000008868  -0.2312384504
       -0.1377903901   0.0000065455   0.0010046786  -0.0088252000   0.0000011991
        0.0002641185   0.0011734312   0.0000001848  -0.0001224037   0.0000057690
       -0.0000448391   0.0000745227  -0.0000268934   0.0000485325   0.0000625321
        0.0000400295   0.0000000031   0.0000744850  -0.0000269453  -0.0000484884
       -0.0001223254   0.0000058637   0.0000449191   0.0018321876  -0.0010681311
        0.0000000829  -0.0003677308   0.0008324574  -0.0000000882   0.0001998853
       -0.0000227813  -0.0000000435  -0.0002399251   0.0003793247   0.0000000293
        0.0001922523  -0.0000104729  -0.0000000579  -0.0004232021   0.0003642613
       -0.0000000509   0.0003676763  -0.0002014404  -0.0000000601   0.0001565602
       -0.0003512271   0.0000000124  -0.0003915542  -0.0000229657  -0.0000000470
        0.0009206975  -0.0008206916  -0.0000004486  -0.0037296085   0.0098006549
        0.0000005971   0.0001521498  -0.0005337927   0.0001179125  -0.0020527753
       -0.0005417578   0.0025029313   0.0002648483   0.0005988722  -0.0007337894
        0.0001553190  -0.0005319293  -0.0001141428  -0.0020517845  -0.0005417638
       -0.0025067297   0.0002668990   0.0005973612   0.0007350785   0.0013159620
       -0.0236235276   0.0000013200  -0.0047820381   0.0026791469   0.0000000932
        0.0006185898  -0.0003989309  -0.0000000653  -0.0047594630   0.0018858717
       -0.0000002433   0.0000246893  -0.0000466378   0.0000821831  -0.0000216215
       -0.0000116919   0.0000031032   0.0000061967   0.0000082280   0.0000000293
       -0.0000216464  -0.0000117131  -0.0000030569   0.0000246321  -0.0000466815
       -0.0000822313   0.0000040670  -0.0002392564   0.0000000334  -0.0000022787
       -0.0000971861   0.0000000739   0.0000188445  -0.0000757457  -0.0000000095
        0.0000730480   0.0000060267  -0.0000000571  -0.0002669073  -0.0000970739
       -0.0000000971
       -0.0058747669   0.0056491221  -0.0001440448   0.0383993340  -0.0789316239
        0.0000052776  -0.0058670185   0.0056500383   0.0001482151   0.0250620981
        0.6514134662  -0.0000473841  -0.0047223350  -0.3143979415   0.0000186758
        0.0899052993  -0.0217659275   0.0000025149  -0.0256324167  -0.0533875801
        0.0000028850  -0.0377125672   0.0502041947  -0.0000033540  -0.0680956513
       -0.1517320099   0.0000056687  -0.0282413777  -0.0511050560   0.0000037065
        0.0031580120  -0.0045207843   0.0000002134  -0.0011494070  -0.0004743294
       -0.0000831978  -0.0002729676   0.0003865330   0.0001860159   0.0000401547
        0.0000124337  -0.0000000119  -0.0002730207   0.0003864826  -0.0001859409
       -0.0011492725  -0.0004741786   0.0000833728  -0.0037855631   0.0051000057
       -0.0000000987   0.0005778544  -0.0002513565  -0.0000003695  -0.0003035338
        0.0004884944   0.0000000840   0.0013600582  -0.0004296913  -0.0000001948
       -0.0000304301  -0.0001726470   0.0000000428  -0.0004294985   0.0002824713
        0.0000000225   0.0004479881  -0.0001905775   0.0000000282  -0.0000326259
       -0.0001531748   0.0000000003  -0.0005038762  -0.0001813656  -0.0000000309
        0.0000656612  -0.0051007790  -0.0000001625   0.0241099158  -0.0143692764
        0.0000029747  -0.0000385254  -0.0001317302   0.0000321940  -0.0011184362
       -0.0005125585   0.0015148238  -0.0002217533   0.0010181409   0.0003284762
       -0.0000386191  -0.0001304339  -0.0000297956  -0.0011178319  -0.0005118148
       -0.0015166297  -0.0002175620   0.0010167843  -0.0003252172  -0.0011479158
       -0.0216147568   0.0000004890   0.0021048171   0.0001964100   0.0000003500
       -0.0006177617  -0.0004551276  -0.0000001680   0.0029528079  -0.0004028460
        0.0000004341   0.0001711897  -0.0001569886   0.0000179038  -0.0001156452
       -0.0001026999   0.0000558656   0.0000394588  -0.0001264149   0.0000000181
       -0.0001156417  -0.0001027415  -0.0000558280   0.0001711948  -0.0001570244
       -0.0000179379   0.0000637594   0.0002818927   0.0000000194  -0.0000219523
       -0.0000186360   0.0000001193   0.0000870140  -0.0000795426   0.0000000041
        0.0000445980   0.0000133715  -0.0000000089   0.0000867575   0.0000417740
       -0.0000000202
        0.0234291140  -0.0043987322  -0.0060371179  -0.0000145336   0.0000059664
       -0.0516604447  -0.0234377863   0.0044054735  -0.0060452749   0.0000142471
       -0.0000473841   0.1507054069  -0.0000024762   0.0000224912  -0.0455530956
       -0.0000029594   0.0000019942   0.0000752221   0.0000010586   0.0000013772
       -0.0044760763   0.0000011881  -0.0000030042  -0.0011060863   0.0000034823
        0.0000035267  -0.0474785146   0.0000010254   0.0000053542   0.0023157163
       -0.0000001487   0.0000002725   0.0018237525  -0.0002383566  -0.0002752338
       -0.0000469513  -0.0000713450  -0.0000433764   0.0000459126  -0.0000000026
       -0.0000000007   0.0000835301   0.0000713420   0.0000433046   0.0000459170
        0.0002384472   0.0002752433  -0.0000470806   0.0000006160  -0.0000000777
       -0.0002640311  -0.0000000268   0.0000000695  -0.0000732149  -0.0000001714
       -0.0000001749   0.0000117007   0.0000002593   0.0000001496   0.0000109197
       -0.0000000703  -0.0000001366  -0.0000587448   0.0000000672   0.0000000995
       -0.0000104412  -0.0000000061  -0.0000000088   0.0000021280   0.0000000547
       -0.0000000469   0.0000249155  -0.0000001626  -0.0000000527   0.0000834275
       -0.0000000755  -0.0000006850   0.0007779115   0.0000019147   0.0000003474
        0.0000154708   0.0003809601   0.0002322835  -0.0002841269   0.0031350023
        0.0011398143  -0.0032626044   0.0025634175  -0.0006218076  -0.0006852299
       -0.0003768982  -0.0002309585  -0.0002808491  -0.0031368774  -0.0011411573
       -0.0032677632  -0.0025595137   0.0006224300  -0.0006836242  -0.0000001506
        0.0000017249   0.0008341501  -0.0000001020   0.0000004568   0.0073758440
        0.0000000146   0.0000000609   0.0001424548  -0.0000005302   0.0000004491
        0.0071154417  -0.0000047122  -0.0000222470  -0.0000264162  -0.0000381250
       -0.0000015259  -0.0000010689  -0.0000000030   0.0000000083  -0.0000109688
        0.0000381442   0.0000015382  -0.0000010634   0.0000047089   0.0000222762
       -0.0000263979  -0.0000000078  -0.0000000826  -0.0000055096   0.0000000054
       -0.0000000259  -0.0000046776   0.0000000199  -0.0000000278   0.0000166534
        0.0000000247  -0.0000000129  -0.0000217472  -0.0000000728   0.0000000476
       -0.0000873536
       -0.0002939085   0.0016377607  -0.0001409352  -0.0085897902   0.0287957348
        0.0000014992  -0.0002928301   0.0016363109   0.0001421562  -0.0959040244
       -0.0047223350  -0.0000024762   0.6780009878   0.0009982533  -0.0000047838
       -0.2996442955   0.1258249803  -0.0000042088  -0.0671428090  -0.0456067284
        0.0000034252  -0.0199552492   0.0328794680  -0.0000021875   0.0399897852
       -0.0132888371  -0.0000000833  -0.0057122457  -0.0059030796   0.0000003963
        0.0004308695  -0.0013570585   0.0000000770  -0.0003239375  -0.0001434066
       -0.0000256105  -0.0001232757   0.0000708935   0.0000016788   0.0000351918
        0.0000128666  -0.0000000209  -0.0001233129   0.0000708330  -0.0000016743
       -0.0003239078  -0.0001433227   0.0000256517  -0.0001099996   0.0003007571
        0.0000000167  -0.0001850809   0.0001664372   0.0000000749   0.0002598162
       -0.0000041799  -0.0000000162  -0.0005420687   0.0000567664   0.0000000360
        0.0002107896   0.0000797679  -0.0000000050  -0.0000166407  -0.0001973524
       -0.0000000213  -0.0000365511   0.0000242084  -0.0000000176  -0.0000682709
        0.0001681796  -0.0000000161   0.0002317145  -0.0000937304  -0.0000000972
       -0.0001329828   0.0014700436  -0.0000000280  -0.0059435362   0.0005359106
       -0.0000012340  -0.0005480202   0.0004112264   0.0000496025  -0.0003489695
       -0.0000046395   0.0001647394  -0.0002454597   0.0002652862   0.0002540862
       -0.0005495103   0.0004123609  -0.0000515988  -0.0003480013  -0.0000037160
       -0.0001652551  -0.0002437507   0.0002635127  -0.0002528729  -0.2030624285
       -0.1258743855   0.0000101729  -0.0052136455   0.0038694025  -0.0000006108
       -0.0036454918  -0.0032376237   0.0000001325   0.0003599001   0.0006471842
        0.0000002092   0.0000734825  -0.0000367784  -0.0000385693  -0.0000184472
       -0.0000221575   0.0000316522  -0.0000095065  -0.0000443636   0.0000000037
       -0.0000184560  -0.0000221871  -0.0000316588   0.0000734764  -0.0000368171
        0.0000385099   0.0000270186   0.0000618506  -0.0000000334   0.0000007269
       -0.0000065649  -0.0000000087  -0.0000275411   0.0000207906   0.0000000077
        0.0000032250   0.0000129114  -0.0000000478   0.0000469618   0.0000555666
       -0.0000000566
       -0.0005289851  -0.0011919252   0.0005891698   0.0116591621  -0.0154487995
       -0.0000013908  -0.0005301080  -0.0011917280  -0.0005900203   0.0684997187