73
 energy: -100.758539641961 gnorm: 0.000136771298 xtb: 6.7.1 (edcfbbe)
C           -5.69898655616586       -4.62443293610183        0.37998963632416
C           -4.27743975487740       -4.92538875627710       -0.11799966161085
C           -4.32994594263242       -5.41201905296188       -1.57410581570650
C           -3.70006204406616       -6.05428833316426        0.74138068947220
C           -3.44674440524406       -3.65291321920761       -0.04936307968429
C           -2.29027471039218       -3.53914933681177        0.71395692918415
C           -1.56193636470813       -2.36458460105279        0.75379568025188
C           -1.96327235402906       -1.25445586442221        0.01688210540429
N           -1.22782165787667       -0.06042024016048        0.05143535005972
C            0.16397474387234       -0.09203193678753        0.05724036204946
C            0.89844863786426        0.88249481933664        0.73749134441189
C            2.27627893970428        0.86214710610901        0.72214077046460
C            2.97193989454084       -0.13777765430806        0.04410058978782
C            4.43867959532051       -0.16384696463266        0.02313189737652
C            5.12663182363585       -1.34757001437523        0.26346221500780
C            6.51324861343864       -1.41183819472914        0.27053425486089
N            7.17114413735274       -2.61021273632990        0.48960683357238
C            7.26118205210634       -0.24773841173861       -0.02155202685999
N            8.65483180648180       -0.30100458370280        0.00418869302570
C            6.58814837440071        0.93609205827607       -0.25458114075051
C            5.18980743775306        0.99486717947723       -0.22745637875709
C            4.57938647238738        2.22361156764059       -0.53611719887442
N            4.13639157892761        3.24657225522271       -0.82136870036283
C            2.23647328256696       -1.12376272600884       -0.61319316502391
C            0.85886418860115       -1.09887352271544       -0.61787190812042
C           -1.90977741109314        1.16511655020111        0.06896821002373
C           -3.08850205362846        1.31209514052697        0.79381097648112
C           -3.76547420344099        2.51759958455145        0.80438335852358
C           -3.29432155127043        3.62293256888759        0.10512874530397
C           -4.00221406378360        4.96924794387607        0.09932174967114
C           -5.28129928302867        4.96744245427749        0.94216957033717
C           -4.38155043259666        5.33164130834767       -1.34438270005279
C           -3.05425890253267        6.03468225840439        0.67011257204701
C           -2.11255671887429        3.46253007339568       -0.61661567676676
C           -1.43217169093316        2.26310800088707       -0.64425487305914
C           -3.12030983876849       -1.35613981387222       -0.75283409346542
C           -3.84215600666283       -2.53126545782355       -0.77642184703774
H           -5.66936689484511       -4.25843618042824        1.40460511240180
H           -6.18393143260274       -3.87234782339871       -0.23624452784289
H           -6.30402927641086       -5.52841838736414        0.35369915091903
H           -4.90407005069466       -6.33395796518277       -1.64026071741411
H           -4.79519688610090       -4.67437783594555       -2.22223161377378
H           -3.32422890339654       -5.60408956567271       -1.94321748488798
H           -3.66729304210735       -5.77011417469481        1.79081162002248
H           -2.69891141558811       -6.32379347460226        0.41252661365888
H           -4.33148277506607       -6.93620175875685        0.65196163448588
H           -1.93730141303897       -4.36957683708802        1.30350916256749
H           -0.67216303580578       -2.30336754862484        1.36420302380745
H            0.37868914446639        1.65728814136380        1.28156690286321
H            2.82252315690512        1.61948171680802        1.26591524934318
H            4.56356969320407       -2.24317700951185        0.48372929379280
H            6.59109467502270       -3.34559786591959        0.86599165715964
H            8.06388003726453       -2.53228918255473        0.95412220047445
H            9.04504003651700       -1.13572881778985       -0.41130782250811
H            9.09505893554294        0.53558468810378       -0.35284244634557
H            7.14715734363494        1.83595245087592       -0.47180076875989
H            2.75571888425246       -1.89821683512002       -1.15904300812947
H            0.30726673825324       -1.85564020142142       -1.15617864822935
H           -3.47559932127228        0.47342385924029        1.35478351941160
H           -4.67248290883377        2.57924933229572        1.38333598947874
H           -5.99915372666274        4.24368157381272        0.56272654981018
H           -5.74309513570372        5.95204589851400        0.90062102892959
H           -5.06344692934451        4.74261626333677        1.98384811803769
H           -3.50199567257619        5.40895129197489       -1.97762554976803
H           -5.03747637615721        4.57077378970195       -1.76329014623049
H           -4.90219500373860        6.28683900914928       -1.36631633973610
H           -2.15210183344900        6.12477034148269        0.07117137998187
H           -3.54844894145217        7.00390373815264        0.69042926517712
H           -2.76314274568187        5.77403689852988        1.68602433563734
H           -1.70653489489647        4.28761295552854       -1.18231440372590
H           -0.52243028909728        2.17224794566788       -1.22073678388413
H           -3.44863943825679       -0.50612311765788       -1.33373652090194
H           -4.73128137791169       -2.56892432922312       -1.38772081874394
