$hessian                                                                        
        0.4723699702  -0.0079473017  -0.0379374267  -0.1458806473  -0.0025445725
       -0.0573290009  -0.0258842365   0.0056146731  -0.0109942416   0.0010605880
        0.0002545108  -0.0015427959  -0.0137738450  -0.0061652221  -0.0080680303
       -0.0002396394  -0.0019184051  -0.0001145369  -0.0006523338  -0.0002195470
       -0.0004397941  -0.0001520308  -0.0000307061  -0.0001749077   0.0001011042
        0.0000313244   0.0000428714  -0.0001092567  -0.0000138290  -0.0000124167
        0.0000239152   0.0000111767   0.0000044373  -0.0000261383   0.0000050326
        0.0000060535   0.0000114180  -0.0000003094  -0.0000039787   0.0000065420
        0.0000076307  -0.0000031842   0.0000082913   0.0000049879  -0.0000004198
        0.0000016090   0.0000032020   0.0000004392  -0.0000019908  -0.0000039630
        0.0000032126   0.0000267055   0.0000003919   0.0000008770  -0.0000276243
       -0.0000024554  -0.0000076281  -0.0000142507   0.0000059453   0.0000027898
        0.0000093876  -0.0000031273   0.0000009011  -0.0000075996   0.0000169810
       -0.0000065159   0.0000053603  -0.0000201489   0.0000076291  -0.0000034756
       -0.0000043372   0.0000019767   0.0000277617   0.0000212690   0.0000314830
       -0.0000249608   0.0000314206   0.0000176328   0.0000180010   0.0000091431
       -0.0000244905  -0.0000114148  -0.0000066210   0.0000078939  -0.0000040953
       -0.0000011969   0.0000035234  -0.0000141746   0.0000061521  -0.0000042354
        0.0000006888  -0.0000014111  -0.0000006639  -0.0000010479  -0.0000048619
        0.0000040887  -0.0000057060  -0.0000106357  -0.0000000420   0.0000018870
       -0.0000007316  -0.0000008645   0.0000013909  -0.0000154265   0.0000072954
       -0.0000353866   0.0002770461  -0.0002226571  -0.0003863828   0.0003831229
        0.0002056932  -0.0751719783  -0.0814668550   0.0048690383  -0.1552458168
        0.1048940512   0.0575502582  -0.0549645516  -0.0112549155   0.0515627787
        0.0004396020  -0.0004763816  -0.0009715173  -0.0035838806   0.0030041283
        0.0011405859   0.0005873811  -0.0010349320  -0.0005013152   0.0006567304
       -0.0003113636   0.0008131434   0.0005667844  -0.0003322385   0.0013169727
        0.0004158289   0.0000271381   0.0009137395   0.0000536445  -0.0000758865
        0.0001233504  -0.0000750385  -0.0001574145   0.0000466028   0.0000001494
       -0.0000042082  -0.0000050517  -0.0000028127  -0.0000081247  -0.0000046759
        0.0000029877  -0.0000016449   0.0000012565   0.0000085011   0.0000048111
       -0.0000004910  -0.0000011962   0.0000027139  -0.0000011971   0.0000032502
        0.0000024166   0.0000041482  -0.0000005432   0.0000011774   0.0000031740
       -0.0000033609  -0.0000039998   0.0000016621   0.0000039770  -0.0000008477
       -0.0000040771  -0.0000009144  -0.0000144055  -0.0000295077  -0.0000006900
       -0.0000012650   0.0000126188   0.0000072611   0.0000000322  -0.0000057896
        0.0000038917   0.0000035088   0.0000003007  -0.0000008157  -0.0000061905
       -0.0000003469  -0.0000007068  -0.0000004535  -0.0000005017  -0.0000010669
        0.0000007840   0.0000006746   0.0000021603   0.0000021335   0.0000027685
        0.0000016659  -0.0000046416  -0.0000025391   0.0000020735   0.0000036957
       -0.0000003932   0.0000044210  -0.0000047458  -0.0000000322   0.0000012084
        0.0000009906   0.0000014028   0.0000011315  -0.0000067991   0.0000013726
        0.0000059481  -0.0000034589  -0.0000050436   0.0000084566   0.0000187987
        0.0000009005  -0.0001420649  -0.0005648089  -0.0002952374
       -0.0079473017   0.5235852327  -0.0035956868  -0.0041994149  -0.0640850482
       -0.0026235546   0.0179116714  -0.0029160720   0.0086081342   0.0047832372
       -0.0001625347   0.0052084500  -0.0224048938  -0.0046116641  -0.0140485013
       -0.0015852871  -0.0041086116   0.0005169138  -0.0010667574  -0.0006584703
       -0.0005955569   0.0000181874   0.0005620881  -0.0001520080  -0.0005266770
       -0.0006271459  -0.0000181767   0.0004390919  -0.0000111737   0.0000709744
       -0.0001144480  -0.0000424607   0.0000019399   0.0000609091  -0.0000075808
        0.0000064820  -0.0000697429  -0.0000127796  -0.0000110146   0.0000646889
        0.0000003703  -0.0000018844  -0.0000434063  -0.0000000494   0.0000011497
        0.0000393314  -0.0000462638   0.0000122436  -0.0000376996   0.0000458405
        0.0000076403   0.0000572310   0.0000010787   0.0000018111  -0.0000601318
        0.0000004424  -0.0000182965  -0.0000155351   0.0000158493  -0.0000042895
       -0.0000036068  -0.0000144283   0.0000057475  -0.0000045724   0.0000336130
       -0.0000153277  -0.0000020990  -0.0000214372   0.0000094292   0.0000929630
        0.0000196246  -0.0000127373  -0.0001210357   0.0000406323   0.0000351993
       -0.0001719462   0.0002153343  -0.0001161408   0.0000755871  -0.0000214608
       -0.0000068529  -0.0000194872   0.0000363447   0.0000128416  -0.0000101795
       -0.0000019736   0.0000040710   0.0000037404   0.0000149621   0.0000033680
        0.0000142881  -0.0000008237  -0.0000048342   0.0000101089  -0.0000031630
        0.0000088581   0.0000092684   0.0000017726   0.0000028642   0.0000049070
        0.0000190271  -0.0000025931   0.0000204962  -0.0000475885  -0.0000067643
       -0.0005802327   0.0005933632  -0.0005478247  -0.0001175509  -0.0012469104
        0.0000743168  -0.0815020773  -0.2481872834   0.0089590518   0.1050486679
       -0.1406086508  -0.0526442169  -0.0110779927  -0.0547098344   0.0493019446
       -0.0001873676   0.0003297553   0.0004493056   0.0037998925  -0.0024146699
       -0.0008762347   0.0012719638   0.0007521483   0.0005917251  -0.0002432046
        0.0002555780  -0.0004015278  -0.0000326177   0.0000061639   0.0017924845
        0.0007813638   0.0005086715   0.0007702992  -0.0000387823   0.0000596184
       -0.0000637532  -0.0002757892  -0.0003648657  -0.0001145383   0.0000048143
       -0.0000080624  -0.0000068080  -0.0000176812  -0.0000091298  -0.0000128009
        0.0000061209  -0.0000010691   0.0000002569   0.0000013569  -0.0000100623
       -0.0000039181   0.0000083158  -0.0000041584  -0.0000046087   0.0000062916
       -0.0000036996   0.0000073637   0.0000057612   0.0000039175   0.0000048081
       -0.0000053074  -0.0000033556  -0.0000002682  -0.0000178278   0.0000035670
        0.0000114411   0.0000242658  -0.0000112880  -0.0000272857  -0.0000354263
        0.0000007828   0.0000220661   0.0000079529  -0.0000125756  -0.0000057706
       -0.0000071520  -0.0000020680   0.0000009627   0.0000064920  -0.0000134611
        0.0000008838  -0.0000047348   0.0000018156   0.0000001151  -0.0000040293
        0.0000023271   0.0000000641  -0.0000053008  -0.0000008627  -0.0000036136
        0.0000051811  -0.0000142739  -0.0000070097  -0.0000108298  -0.0000049071
       -0.0000033725   0.0000097484  -0.0000111037   0.0000007161  -0.0000078570
       -0.0000034688  -0.0000031513  -0.0000074091  -0.0000137173   0.0000104642
       -0.0000195299  -0.0000009202   0.0000068215  -0.0000081398   0.0000265442
       -0.0000068003  -0.0019828336  -0.0020753377  -0.0005554859
       -0.0379374267  -0.0035956868   0.5045581678  -0.0568180049  -0.0014564221
       -0.1025116071   0.0044783555  -0.0002011721   0.0033611496  -0.0224366811
        0.0022387708  -0.0263520687  -0.0028224141  -0.0026836897  -0.0005428139
       -0.0002138838   0.0002603213   0.0005947705  -0.0001690387   0.0000838435
       -0.0000397649  -0.0001553553  -0.0001446528   0.0000179397   0.0001962687
        0.0002057754  -0.0000156086  -0.0001567529   0.0000066760  -0.0000399108
        0.0000385805   0.0000078267   0.0000047060  -0.0000238083   0.0000083500
        0.0000032666   0.0000227474  -0.0000051014   0.0000028477  -0.0000091420
        0.0000045874  -0.0000013871   0.0000146486   0.0000007621   0.0000021220
       -0.0000082844   0.0000071700  -0.0000069440   0.0000056237  -0.0000091082
        0.0000013991  -0.0000016313  -0.0000005787   0.0000033052   0.0000021846
       -0.0000021699   0.0000030848   0.0000023854  -0.0000017832   0.0000012480
        0.0000047317   0.0000025995   0.0000033823  -0.0000039640   0.0000059333
        0.0000014283   0.0000025135  -0.0000080638   0.0000050288  -0.0000324877
       -0.0000111286  -0.0000041469   0.0000358070  -0.0000014737   0.0000006648
        0.0000605284  -0.0000819658   0.0000481690   0.0000060833   0.0000323570
       -0.0000128553   0.0000021836  -0.0000087222   0.0000012840   0.0000053514
        0.0000009173   0.0000003083  -0.0000087165   0.0000024695  -0.0000036815
        0.0000006810   0.0000018261  -0.0000061487  -0.0000006283   0.0000069876
       -0.0000039447  -0.0000002821   0.0000033441  -0.0000070200   0.0000074345
       -0.0000138051  -0.0000102702  -0.0000060732   0.0000099500  -0.0000007103
        0.0000626349   0.0000334411   0.0001566931   0.0003651267   0.0004287979
       -0.0007481755   0.0048504731   0.0089922666  -0.0437380771   0.0576256774
       -0.0528707680  -0.0724793195   0.0513702957   0.0493026206  -0.2588001502
        0.0008643814  -0.0003963483   0.0008452174   0.0017768789  -0.0012630146
        0.0001203323   0.0004288297  -0.0000113873   0.0001787905  -0.0011219016
        0.0001794177   0.0007178020   0.0003274216   0.0014064040  -0.0064404682
       -0.0010025374  -0.0007902293   0.0005587973   0.0001128881  -0.0000984236
        0.0000155480   0.0000805663  -0.0000183353   0.0000025977  -0.0000042778
        0.0000042816   0.0000038294   0.0000038262   0.0000002419   0.0000016701
       -0.0000002942  -0.0000014182   0.0000012495   0.0000030627   0.0000036193
        0.0000006805  -0.0000022844   0.0000010660   0.0000003817  -0.0000001068
        0.0000024621   0.0000020492  -0.0000010582   0.0000000716   0.0000029766
       -0.0000007467  -0.0000007375   0.0000034362   0.0000061160   0.0000011567
       -0.0000021470   0.0000034162  -0.0000025255   0.0000021299  -0.0000119358
       -0.0000162673   0.0000040569  -0.0000049750  -0.0000054881   0.0000016232
        0.0000018566  -0.0000001345   0.0000011752  -0.0000004371  -0.0000023928
        0.0000007231  -0.0000004723  -0.0000012145   0.0000050714  -0.0000017310
       -0.0000024689   0.0000006407   0.0000019472  -0.0000003001   0.0000022664
       -0.0000005229  -0.0000013244   0.0000015837   0.0000017237  -0.0000027874
       -0.0000023803  -0.0000004402  -0.0000003150   0.0000011789   0.0000008676
       -0.0000010010   0.0000067852  -0.0000022029  -0.0000003559   0.0000021319
        0.0000043961  -0.0000020314   0.0000000116   0.0000106198   0.0000004719
       -0.0000053235   0.0001713850   0.0004680063   0.0005192221
       -0.1458806473  -0.0041994149  -0.0568180049   0.4822229253   0.0101242399
        0.0148668590  -0.1128802808   0.0546812832   0.0273505933  -0.0697524759
       -0.0084389835   0.0257016022  -0.0831388930  -0.0481710314  -0.0039588386
       -0.0146263572  -0.0220786761  -0.0022816685  -0.0014462047  -0.0006255722
       -0.0049960639  -0.0006562576  -0.0007195458  -0.0005421719  -0.0000142385
        0.0009954944   0.0006586972  -0.0003803342  -0.0001019233  -0.0000569202
        0.0000640646   0.0000395336  -0.0000029647  -0.0000399377   0.0000073046
       -0.0000153842   0.0000735395   0.0000370425   0.0000263189  -0.0000350115
        0.0000017914   0.0000023679   0.0000296646  -0.0000032211   0.0000047167
       -0.0000211659   0.0000243002  -0.0000094891   0.0000201604  -0.0000246421
       -0.0000023017  -0.0000290250   0.0000037487  -0.0000030179   0.0000333433
       -0.0000004678   0.0000138666   0.0000066450  -0.0000116859   0.0000059919
        0.0000004621   0.0000211693  -0.0000057459   0.0000083337  -0.0000415526
        0.0000115221  -0.0000011657   0.0000205096  -0.0000068204  -0.0000876847
       -0.0000234755  -0.0000063357   0.0001489874  -0.0000131538  -0.0000349293
        0.0002535253  -0.0001872251   0.0002072957  -0.0000286750   0.0000449965
       -0.0000541872   0.0000046774  -0.0000224899  -0.0000224515  -0.0000085418
       -0.0000094607   0.0000074898  -0.0000138126   0.0000042157   0.0000058282
       -0.0000139750   0.0000083082   0.0000029245  -0.0000114996   0.0000108289
        0.0000014171  -0.0000173971   0.0000080209   0.0000006987   0.0000160204
       -0.0000389507  -0.0000176541  -0.0000347681   0.0000637452   0.0000092438
        0.0016966696   0.0010546005  -0.0040452656   0.0057355431   0.0050820472
        0.0014721281  -0.0135569980  -0.0045350107  -0.0079856856  -0.0214707784
        0.0019885312  -0.0107282131   0.0039769106   0.0007973504   0.0007864209
       -0.0068202404   0.0060186359   0.0058450072  -0.0201611052   0.0166728739
        0.0065167273   0.0061663215  -0.0057873750  -0.0037272532  -0.0071404139
       -0.0030586719   0.0191296525   0.0041496510   0.0056958793  -0.0222041268
       -0.0046775842  -0.0057669053   0.0131915353  -0.0002826592   0.0000092706
        0.0014183981  -0.0005004004  -0.0009849836  -0.0001586678  -0.0000086909
        0.0000125906   0.0000056391   0.0000067617  -0.0000014119   0.0000050831
       -0.0000051139  -0.0000023628  -0.0000029916   0.0000008736   0.0000062100
       -0.0000030651  -0.0000054096   0.0000048533   0.0000040521  -0.0000045488
        0.0000017559  -0.0000042171  -0.0000053414  -0.0000005499  -0.0000046453
        0.0000010186   0.0000012720   0.0000007321   0.0000019814  -0.0000062266
       -0.0000124526  -0.0000125357  -0.0000366029  -0.0000083137   0.0000156711
       -0.0000349085   0.0000066535  -0.0000107758   0.0000040695   0.0000052654
        0.0000025490  -0.0000035655  -0.0000011743  -0.0000062438   0.0000011977
        0.0000014087   0.0000053884  -0.0000046542   0.0000007472   0.0000037022
       -0.0000045871  -0.0000011993   0.0000005395  -0.0000043590  -0.0000004201
       -0.0000034243   0.0000039296   0.0000011461   0.0000091056  -0.0000019442
        0.0000033111  -0.0000033354   0.0000029362  -0.0000001259   0.0000084903
       -0.0000027735   0.0000004584   0.0000030084   0.0000035146  -0.0000056604
        0.0000195751  -0.0000105590  -0.0000072913   0.0001756576   0.0007338794
       -0.0001342113  -0.0010678194   0.0007669937   0.0005981300
       -0.0025445725  -0.0640850482  -0.0014564221   0.0101242399   0.4678086617
        0.0031129203   0.0477960555  -0.1119545091  -0.0272489079  -0.0070455210
       -0.0666749051   0.0232009701  -0.0443854623  -0.1575685176   0.0021406762
       -0.0116135638  -0.0083842253  -0.0058142164  -0.0004979116   0.0028362150
        0.0007524825  -0.0003258808  -0.0017003347   0.0005071073   0.0006142050
        0.0006104541  -0.0002942584  -0.0002855979   0.0000219200  -0.0001308853
        0.0000592135   0.0000036029  -0.0000157576  -0.0000402826   0.0000033700
        0.0000052561   0.0000522212   0.0000006621   0.0000003978  -0.0000010374
       -0.0000010424  -0.0000012053   0.0000185960  -0.0000088621   0.0000003358
        0.0000021647  -0.0000003914  -0.0000029423   0.0000037967  -0.0000014297
       -0.0000071850  -0.0000088784   0.0000080935  -0.0000020522   0.0000111179
        0.0000008569   0.0000064703   0.0000131681  -0.0000082403   0.0000038858
       -0.0000066531   0.0000205795  -0.0000047139   0.0000086543  -0.0000355467
        0.0000116321  -0.0000041396   0.0000191552  -0.0000061213  -0.0000411461
       -0.0000235554   0.0000090901   0.0000827910   0.0000387399   0.0000274120
        0.0000932114  -0.0001863359   0.0000617645  -0.0000006816   0.0000737181
       -0.0000149420   0.0000156877  -0.0000281978   0.0000016341   0.0000091003
        0.0000117568  -0.0000180799  -0.0000221978   0.0000188286   0.0000067821
       -0.0000108460   0.0000120779  -0.0000046936  -0.0000057899   0.0000126219
        0.0000059524  -0.0000149509   0.0000074656   0.0000046675   0.0000011682
       -0.0000051109  -0.0000055807  -0.0000103574   0.0000038335   0.0000238446
        0.0012354598  -0.0006168559   0.0032012809  -0.0061952723  -0.0257524382
        0.0044566336  -0.0242241914  -0.0048287874  -0.0154531464   0.0168196778
       -0.0001947950   0.0100375378   0.0054922748   0.0001630976   0.0041484528
       -0.0029876576   0.0036786740   0.0004948317   0.0031492847  -0.0017415582
        0.0004838457   0.0169256787  -0.0245243666  -0.0106623584   0.0055810047
        0.0039639105  -0.0177989398   0.0004367555  -0.0006291280   0.0017776589
       -0.0089767057  -0.0102992389   0.0254269179   0.0013332805  -0.0001682750
        0.0001990364   0.0002077588   0.0000786571   0.0001974025  -0.0000144852
        0.0000154959   0.0000131803   0.0000020101   0.0000015264   0.0000024344
       -0.0000036602   0.0000055494  -0.0000018663  -0.0000004741   0.0000035474
       -0.0000002596   0.0000005247   0.0000047087  -0.0000003855  -0.0000005884
        0.0000029339  -0.0000038508  -0.0000003630   0.0000026632  -0.0000002785
       -0.0000030832   0.0000039894   0.0000014817   0.0000091318   0.0000025796
       -0.0000057790  -0.0000337645  -0.0000415005  -0.0000256900  -0.0000069102
       -0.0000615583   0.0000240485  -0.0000015396  -0.0000193712   0.0000029820
       -0.0000041621  -0.0000069784   0.0000015426  -0.0000036594  -0.0000084443
        0.0000027019   0.0000015640  -0.0000049781   0.0000049358   0.0000011154
       -0.0000060933  -0.0000004037  -0.0000036544  -0.0000083526   0.0000001823
       -0.0000046109  -0.0000074778  -0.0000010383   0.0000019725  -0.0000107689
        0.0000007166  -0.0000018379  -0.0000053833   0.0000001706   0.0000023060
       -0.0000069638   0.0000015995  -0.0000037773  -0.0000037325   0.0000015472
        0.0000267400  -0.0000104127  -0.0000132916  -0.0003909476  -0.0005983510
       -0.0001040212  -0.0004051154   0.0007821163  -0.0012651302
       -0.0573290009  -0.0026235546  -0.1025116071   0.0148668590   0.0031129203
        0.4656747371   0.0262624122  -0.0303263086  -0.0762377154   0.0285969876
        0.0300958498  -0.1645930146  -0.0054291965  -0.0004110369  -0.0588028617
       -0.0055391817  -0.0131195640  -0.0006431070  -0.0052459888   0.0003116603
        0.0021954331  -0.0006107235   0.0001629629  -0.0000927405   0.0008137328
       -0.0000016940  -0.0008098888  -0.0001997594   0.0001401249  -0.0001756197
        0.0001003613   0.0000485042   0.0000352498  -0.0000650032   0.0000068555
        0.0000328260   0.0000266079  -0.0000440639  -0.0000301659  -0.0000227724
        0.0000022311  -0.0000072963   0.0000078732  -0.0000053120  -0.0000041374
       -0.0000088321   0.0000081092  -0.0000031851   0.0000081458  -0.0000097900
       -0.0000082816  -0.0000191170   0.0000009792   0.0000026162   0.0000191007
        0.0000009406   0.0000029062   0.0000069564  -0.0000052295  -0.0000008098
       -0.0000023298   0.0000110189  -0.0000011198   0.0000082481  -0.0000160059
        0.0000110032  -0.0000045325   0.0000106859  -0.0000048334   0.0000107832
       -0.0000131086   0.0000182387   0.0000200018  -0.0000554549   0.0000577335
       -0.0000431866  -0.0001462717  -0.0000533880  -0.0000269190   0.0000602638
        0.0000698069   0.0000363326  -0.0000382992   0.0000077083   0.0000339304
        0.0000242955  -0.0000332219  -0.0000031039  -0.0000070200  -0.0000060463
       -0.0000035259   0.0000045418  -0.0000034372  -0.0000030432   0.0000073661
       -0.0000087271  -0.0000044107   0.0000091297  -0.0000054588  -0.0000276594
        0.0000098123   0.0000274807   0.0000048059  -0.0000218885   0.0000129228
       -0.0038074295   0.0035038942   0.0028747017   0.0052436740   0.0122304662
        0.0009945684  -0.0016155142  -0.0016372409  -0.0006758148   0.0066462942
        0.0009146183   0.0048022700  -0.0229189119  -0.0004530800  -0.0209900061
        0.0190783090  -0.0180637783  -0.0139663014  -0.0108329601   0.0104788811
        0.0048805659   0.0010051030  -0.0026735046  -0.0005939267   0.0061577830
        0.0011118847  -0.0139885962   0.0011811609   0.0046936098  -0.0205082261
        0.0019695099   0.0038196855  -0.0039921831   0.0010006037  -0.0007669629
       -0.0013786018  -0.0005816616  -0.0006481592  -0.0000407375  -0.0000063386
       -0.0000010996  -0.0000019292   0.0000024379   0.0000032081   0.0000034657
        0.0000013579   0.0000016443   0.0000027124  -0.0000014475   0.0000022665
        0.0000050345  -0.0000026090   0.0000004160   0.0000014308  -0.0000015953
        0.0000014720  -0.0000014805  -0.0000016589  -0.0000007092   0.0000010972
        0.0000014922   0.0000030081   0.0000014921   0.0000087515   0.0000009660
        0.0000021809  -0.0000121972   0.0000093616  -0.0000148993  -0.0000024676
       -0.0000048475  -0.0000184951  -0.0000003233  -0.0000052942   0.0000104052
       -0.0000002761  -0.0000025667   0.0000006976  -0.0000018149   0.0000019855
        0.0000017110   0.0000011929  -0.0000020934   0.0000030281   0.0000029992
       -0.0000036151   0.0000013535  -0.0000003231  -0.0000029841   0.0000015586
       -0.0000015655   0.0000034554   0.0000029109   0.0000061994  -0.0000014758
        0.0000025092  -0.0000027724   0.0000036172   0.0000020455   0.0000042493
       -0.0000013020   0.0000030996   0.0000018770   0.0000043239  -0.0000017586
        0.0000044821   0.0000018076  -0.0000027220   0.0002379832   0.0007188331
       -0.0001350883   0.0010015542  -0.0004243415  -0.0014000715
       -0.0258842365   0.0179116714   0.0044783555  -0.1128802808   0.0477960555
        0.0262624122   0.4944857639   0.0352073746   0.0227951480  -0.0083260530
        0.0064902634   0.0080049114   0.0072407289  -0.0019806053  -0.0021952174
       -0.0010862650  -0.0010065769  -0.0005961556   0.0002600605   0.0003759623
        0.0001272697   0.0004250827   0.0005396121   0.0001047208  -0.0002700537
       -0.0008221209  -0.0000710329   0.0003385787   0.0000123330   0.0001452416
       -0.0000730682  -0.0000330069  -0.0000050835   0.0000359844   0.0000009344
        0.0000045420  -0.0000596949  -0.0000087020  -0.0000068860   0.0000490662
        0.0000105196  -0.0000057962  -0.0000190013   0.0000089810  -0.0000030236
        0.0000136055  -0.0000065905   0.0000055990  -0.0000109707   0.0000030593
       -0.0000026223   0.0000589378  -0.0000093470   0.0000027534  -0.0000582661
       -0.0000055716  -0.0000232566  -0.0000325613   0.0000167885  -0.0000036220
        0.0000217180  -0.0000316192   0.0000055872  -0.0000296382   0.0000632792
       -0.0000231689   0.0000159881  -0.0000470556   0.0000131692   0.0000828613
        0.0000420664  -0.0000052053  -0.0000955054   0.0000752267   0.0000119083
       -0.0002755436   0.0003485889  -0.0001199346   0.0000624017  -0.0000758627
        0.0000133041  -0.0000322992   0.0000343755   0.0000195762  -0.0000044754
       -0.0000022435   0.0000073240  -0.0000048403   0.0000065557  -0.0000063698
        0.0000110599  -0.0000083327  -0.0000014616   0.0000079431  -0.0000198226
        0.0000039535   0.0000064303  -0.0000228845   0.0000019885  -0.0000163659
        0.0000373928   0.0000027305   0.0000330873  -0.0000842195  -0.0000029192
       -0.0005010207  -0.0000836400   0.0003834401  -0.0005453420  -0.0012505724
        0.0000132217   0.0004503674   0.0011929441   0.0006735506  -0.0052121328
        0.0007817988  -0.0026352411   0.0006982198   0.0001311155   0.0009497357
       -0.0598051971  -0.0172365526   0.0571344715  -0.2040133481   0.0051817134
       -0.1135510753  -0.0855920593  -0.0925669505  -0.0021570790  -0.0003874492
       -0.0001470458   0.0018957742   0.0007325392  -0.0001675423  -0.0009297000
        0.0001166912   0.0005610475  -0.0003288797  -0.0000465101  -0.0009031206
       -0.0003942943  -0.0000241099  -0.0000152321   0.0000007337   0.0000118559
       -0.0000231467  -0.0000136967  -0.0000078367  -0.0000183080  -0.0000129102
       -0.0000004309  -0.0000099823   0.0000031522   0.0000067534  -0.0000016529
       -0.0000023690   0.0000011232  -0.0000017631   0.0000002358   0.0000062180
       -0.0000039174   0.0000078683   0.0000012104   0.0000023205   0.0000020490
       -0.0000030872  -0.0000083762  -0.0000002981  -0.0000062943  -0.0000067704
        0.0000031683   0.0000050962  -0.0000250587  -0.0000172966  -0.0000061222
        0.0000242232   0.0000008541   0.0000196667  -0.0000052312  -0.0000135261
        0.0000046636   0.0000084921   0.0000018546   0.0000025176  -0.0000040370
       -0.0000001764  -0.0000028907   0.0000034070  -0.0000029133  -0.0000019469
        0.0000037050   0.0000018852   0.0000031497   0.0000063986   0.0000050708
        0.0000046148  -0.0000038836  -0.0000018615  -0.0000020049   0.0000053850
       -0.0000002474   0.0000064313  -0.0000030167   0.0000023394  -0.0000034410
        0.0000042087   0.0000006995   0.0000011920  -0.0000076268   0.0000052732
       -0.0000074018   0.0000020829  -0.0000004217  -0.0000012532  -0.0001442983
        0.0000626916   0.0001073900  -0.0000875951  -0.0000248226
        0.0056146731  -0.0029160720  -0.0002011721   0.0546812832  -0.1119545091
       -0.0303263086   0.0352073746   0.4836738391  -0.0215186764  -0.0006683966
        0.0023848420  -0.0004825216   0.0126547071  -0.0300736224  -0.0092054169
        0.0009066287  -0.0005277368  -0.0002271062  -0.0000988701   0.0001470259
        0.0007937539   0.0005395469   0.0004647152   0.0004055711  -0.0002600696
       -0.0007006539  -0.0001747294   0.0003579697   0.0000275349   0.0000701332
       -0.0000845568  -0.0000480231  -0.0000089513   0.0000423285  -0.0000021294
        0.0000123205  -0.0000619268  -0.0000083020  -0.0000050315   0.0000677228
       -0.0000021777  -0.0000022566  -0.0000408562  -0.0000029182   0.0000021061
        0.0000463785  -0.0000572339   0.0000128481  -0.0000452018   0.0000549091
        0.0000107323   0.0000643048   0.0000051693   0.0000006295  -0.0000672993
       -0.0000002390  -0.0000203380  -0.0000116066   0.0000133545  -0.0000026772
       -0.0000034441  -0.0000057024   0.0000030964  -0.0000034036   0.0000251344
       -0.0000154637  -0.0000032679  -0.0000211785   0.0000095461   0.0000783190
        0.0000158096  -0.0000118735  -0.0001000508   0.0000773534   0.0000388569
       -0.0001582021   0.0001500672  -0.0001290552   0.0000662450  -0.0000049444
       -0.0000300631  -0.0000181583   0.0000151431   0.0000173156  -0.0000087959
        0.0000007778   0.0000044014  -0.0000067695   0.0000213099  -0.0000025361
        0.0000104359  -0.0000027800  -0.0000077207   0.0000087170  -0.0000034147
        0.0000062768   0.0000008331  -0.0000071687  -0.0000029615   0.0000079598
        0.0000162971  -0.0000043954   0.0000221533  -0.0000438735   0.0000004790
       -0.0011661427  -0.0008471081   0.0012989998  -0.0012414889  -0.0013574812
       -0.0016348321  -0.0011548516   0.0008210347  -0.0002081251   0.0001013235
        0.0004070594   0.0002391625  -0.0002206224   0.0000814137  -0.0003477122
       -0.0172437292  -0.0596526516   0.0586659730   0.0052173389  -0.0429422232
        0.0047068600  -0.0920529763  -0.2375390787  -0.0033486128  -0.0006834704
        0.0005158626   0.0013391144  -0.0002024499   0.0001698360   0.0003406489
       -0.0004524312   0.0008171346   0.0006276090   0.0003664302  -0.0007350264
       -0.0003305890   0.0000289875  -0.0000050388  -0.0000259086   0.0000038335
       -0.0000040409  -0.0000006373  -0.0000153604  -0.0000108681  -0.0000136654
        0.0000026885   0.0000002214  -0.0000005293   0.0000018968  -0.0000104503
       -0.0000082671   0.0000076555  -0.0000039067  -0.0000053062   0.0000052291
       -0.0000049792   0.0000084269   0.0000045893   0.0000032223   0.0000038791
       -0.0000071964  -0.0000050256  -0.0000005469  -0.0000195661   0.0000009717
        0.0000103266   0.0000069488  -0.0000304464  -0.0000315527  -0.0000154657
        0.0000035121   0.0000344221   0.0000067443  -0.0000060954  -0.0000048310
       -0.0000059834   0.0000003853  -0.0000008112   0.0000063447  -0.0000133468
       -0.0000005954  -0.0000027258   0.0000023978   0.0000001218  -0.0000033821
        0.0000047722   0.0000036072  -0.0000048109   0.0000014846  -0.0000019115
        0.0000061783  -0.0000130809  -0.0000069053  -0.0000090737   0.0000005909
        0.0000004852   0.0000103646  -0.0000113544  -0.0000001261  -0.0000036156
        0.0000019888  -0.0000028349  -0.0000069011  -0.0000169112   0.0000111848
       -0.0000121515  -0.0000082287   0.0000031629  -0.0001377259  -0.0002134060
        0.0000616818   0.0001488626  -0.0001117428  -0.0003901778
       -0.0109942416   0.0086081342   0.0033611496   0.0273505933  -0.0272489079
       -0.0762377154   0.0227951480  -0.0215186764   0.5104014939   0.0208803363
       -0.0166312001  -0.0173402716   0.0002859084  -0.0033124465   0.0004794954
       -0.0004614813   0.0002713460   0.0000747140   0.0001451611   0.0000643495
        0.0000702390   0.0000000758  -0.0001309344   0.0000486039  -0.0000016333
        0.0000446191  -0.0000144315   0.0000630745   0.0000002299   0.0000013882
       -0.0000059110  -0.0000113560   0.0000022440   0.0000114557  -0.0000060228
       -0.0000064263  -0.0000127652  -0.0000085429   0.0000029573  -0.0000015913
        0.0000026586   0.0000006586  -0.0000028884  -0.0000009214  -0.0000034542
       -0.0000015908   0.0000002055  -0.0000018275   0.0000010357   0.0000009927
       -0.0000025899   0.0000004915   0.0000000316   0.0000040138   0.0000005746
        0.0000011655  -0.0000019232   0.0000028123   0.0000019961  -0.0000010863
       -0.0000004948   0.0000030327   0.0000003446   0.0000021206  -0.0000015621
        0.0000049558  -0.0000034938   0.0000009045   0.0000030211  -0.0000003457
        0.0000060398  -0.0000110303  -0.0000090855   0.0000034900  -0.0000260991
        0.0000092022  -0.0000085642   0.0000145513  -0.0000026400   0.0000184276
       -0.0000059266  -0.0000023076   0.0000112129  -0.0000029697   0.0000018577
       -0.0000018299   0.0000022612   0.0000014943  -0.0000025996  -0.0000017224