$hessian                                                                        
        0.5117880864  -0.0010554201  -0.0343670759  -0.0784765517   0.0006672239
       -0.0422834831  -0.0067737957   0.0043361362  -0.0149753057   0.0036558065
        0.0008591376   0.0194294122  -0.0112037050  -0.0067317295  -0.0191598483
       -0.0006030761  -0.0003038635  -0.0002236060   0.0005690791  -0.0001136728
        0.0000446452   0.0003747450   0.0000580883  -0.0001919911  -0.0000473931
       -0.0013241870   0.0005275703  -0.0017602723   0.0001185928   0.0000219146
       -0.0000129488   0.0000268819   0.0002185886  -0.0000281360  -0.0000568266
       -0.0000366562   0.0000066385   0.0000299217   0.0000041974  -0.0000127368
        0.0000085270   0.0000210079   0.0000070283  -0.0000117554  -0.0000056440
       -0.0000007999  -0.0000056779  -0.0000095149   0.0000106263   0.0000036315
       -0.0000094417  -0.0000160306   0.0000052632   0.0000134419   0.0000124788
       -0.0000153213  -0.0000419972  -0.0001456523  -0.0000205150   0.0000435451
       -0.0002757174  -0.0003336445  -0.0001214839   0.0001927346   0.0000234593
       -0.0001271566  -0.0000594877   0.0000374031   0.0000410355   0.0000291176
        0.0000021472  -0.0000120100  -0.0000720334  -0.0000087576   0.0000272607
        0.0000991236   0.0000313302  -0.0000595696  -0.0000225327  -0.0000320685
        0.0000449167  -0.0000306121   0.0000090089  -0.0000046954   0.0000083268
       -0.0000098420   0.0000129142  -0.0000149938  -0.0000007632   0.0000046955
        0.0000299557  -0.0000104081   0.0000126393  -0.0000308300   0.0000120933
       -0.0000141036   0.0000031337  -0.0000104423   0.0000132328   0.0000007175
        0.0000059041  -0.0000014402   0.0000017477  -0.0000035049   0.0000040752
        0.0000005103  -0.0000012951   0.0000015009   0.0000001610  -0.0000013051
        0.0000002435   0.0000005360   0.0000004031  -0.0000004891   0.0000004807
        0.0000011036  -0.0000005125   0.0000012510   0.0000014905   0.0000003599
        0.0000003476   0.0000040767  -0.0000023805  -0.0000040449  -0.0000042879
        0.0000021582  -0.0000004315   0.0000045545  -0.0000031163  -0.0000011152
       -0.0000006871   0.0000012356   0.0000001319   0.0000029752  -0.0000021722
        0.0000009747  -0.0000007141  -0.0000006506  -0.0000002528  -0.0000005245
       -0.0000006913   0.0000000946  -0.0000005706  -0.0000001385  -0.0000003854
        0.0000008007  -0.0000001782   0.0000051121   0.0000011352   0.0000015775
       -0.0000031078  -0.0000030636   0.0000015673   0.0000169310   0.0000050430
       -0.0000062759  -0.0000063754   0.0000084101  -0.0000100492   0.0000155786
        0.0000034065  -0.0000102499   0.0000356755  -0.0000004045  -0.0000048134
       -0.0000513270  -0.0000522374   0.0000271839  -0.1698505535   0.0324339226
        0.1172398348  -0.1589250570  -0.1179036858  -0.0100928619  -0.0851689283
        0.0874899818  -0.0196619622   0.0002951437  -0.0004636724  -0.0007231025
        0.0003843873  -0.0006340204   0.0004480761  -0.0011173623   0.0026942432
       -0.0012206981   0.0005664660  -0.0003719820   0.0007672341  -0.0026536530
        0.0005010057   0.0042064024   0.0006628269   0.0004289445   0.0011798107
       -0.0011939369  -0.0003942875  -0.0008028947  -0.0000049316   0.0000137671
       -0.0000060730  -0.0002179274   0.0000632413  -0.0001584855  -0.0000057731
       -0.0000039100   0.0000069744  -0.0000065164  -0.0000042874   0.0000049171
        0.0000019582   0.0000015111   0.0000058255   0.0000074012  -0.0000030460
       -0.0000105525  -0.0000076072   0.0000021286   0.0000037683  -0.0000015668
        0.0000066092  -0.0000010081   0.0000111985  -0.0000065576  -0.0000063291
        0.0000046313  -0.0000057786  -0.0000066535  -0.0000011439   0.0000060552
       -0.0000012364  -0.0000002177   0.0000018114   0.0000055359  -0.0000024317
       -0.0000119656   0.0000018077  -0.0000108158  -0.0000082940  -0.0000087866
        0.0000148944  -0.0000042123  -0.0000050655  -0.0000085147   0.0000061904
       -0.0000011200   0.0000035648   0.0000010352   0.0000035043   0.0000006467
        0.0000000951  -0.0000008784   0.0000012383  -0.0000009395   0.0000001237
        0.0000022932   0.0000007985   0.0000000134   0.0000004781   0.0000012939
       -0.0000000673   0.0000005145   0.0000008348   0.0000017381   0.0000018059
        0.0000005925   0.0000009394   0.0000000044   0.0000015497   0.0000000919
        0.0000013635   0.0000005876   0.0000013402   0.0000009137   0.0000001680
        0.0000004604   0.0000009469   0.0000008875   0.0000013448   0.0000010148
        0.0000005243   0.0000008370   0.0000003209   0.0000015935  -0.0000005735
        0.0000000579   0.0000000895  -0.0000002192   0.0000003041   0.0000004590
       -0.0000003824  -0.0000002021  -0.0000003030  -0.0000000586   0.0000009142
        0.0000001257  -0.0000005067   0.0000008036   0.0000005997   0.0000000569
       -0.0000000797  -0.0000001518  -0.0000003189   0.0000010481   0.0000006149
        0.0000000190   0.0000009969   0.0000009100  -0.0000000369   0.0000009224
        0.0000005944  -0.0000000579   0.0000009730   0.0000005254  -0.0000005250
       -0.0000001819  -0.0000003712  -0.0000006382   0.0000000964  -0.0000005925
       -0.0000003218   0.0000006884   0.0000007254  -0.0000012094  -0.0000035312
       -0.0000003187   0.0000008923  -0.0000005880  -0.0000025881   0.0000022300
       -0.0000027905  -0.0000055998   0.0000021959   0.0000007070   0.0000078882
       -0.0000075296
       -0.0010554201   0.5231364545  -0.0009477630  -0.0017115385  -0.0597730051
       -0.0043394210   0.0115478609  -0.0041319707   0.0236484765  -0.0007539388
        0.0002977281  -0.0049236682  -0.0113621261  -0.0047110985  -0.0187982817
       -0.0005812403  -0.0000462721  -0.0008576200   0.0004099278  -0.0002569689
        0.0001961667   0.0004246531   0.0001510307  -0.0001488157   0.0001225288
       -0.0013389575   0.0005494765  -0.0019849509  -0.0009317074   0.0001437911
       -0.0000309790  -0.0000145166   0.0001719902  -0.0000449937  -0.0000327747
        0.0000162089  -0.0000081502   0.0000163464   0.0000031864  -0.0000139518
        0.0000057908   0.0000083611   0.0000069897  -0.0000123664  -0.0000054610
        0.0000053086  -0.0000131323  -0.0000139682   0.0000112912  -0.0000007737
       -0.0000089511  -0.0000080291  -0.0000178189  -0.0000021096   0.0000052664
        0.0000133321  -0.0000130171  -0.0001599735   0.0000091038   0.0000569710
       -0.0003069359  -0.0003335302  -0.0001071285   0.0002318934   0.0000487235
       -0.0001618824  -0.0000602633   0.0000188631   0.0000410527   0.0000405349
        0.0000263618  -0.0000296280  -0.0000864050  -0.0000186323   0.0000323403
        0.0001045564   0.0000360662  -0.0000567537  -0.0000259298  -0.0000413545
        0.0000431266  -0.0000320615   0.0000105021  -0.0000060460   0.0000060872
       -0.0000107188   0.0000103767  -0.0000165967  -0.0000017749   0.0000061013
        0.0000325321  -0.0000105204   0.0000150816  -0.0000381785   0.0000112283
       -0.0000169493   0.0000013695  -0.0000138735   0.0000167317   0.0000017698
        0.0000029869  -0.0000005544   0.0000031670  -0.0000026597   0.0000027523
       -0.0000022918  -0.0000017893   0.0000008320  -0.0000005601  -0.0000004252
        0.0000009286   0.0000004396   0.0000009010  -0.0000003218   0.0000000664
        0.0000012451  -0.0000004467   0.0000003936   0.0000013355  -0.0000006965
        0.0000010632   0.0000009009  -0.0000005624  -0.0000058556  -0.0000040736
        0.0000014805  -0.0000006366   0.0000055016  -0.0000042110   0.0000001276
        0.0000004574   0.0000003606   0.0000001809   0.0000039616  -0.0000028358
       -0.0000009911  -0.0000010885  -0.0000003051  -0.0000014316  -0.0000001266
       -0.0000001246  -0.0000007823   0.0000001762  -0.0000004350  -0.0000014368
       -0.0000002471  -0.0000008147   0.0000058853   0.0000003375   0.0000019214
       -0.0000027319  -0.0000018889   0.0000002002   0.0000203403   0.0000075399
       -0.0000071185  -0.0000072117   0.0000076999  -0.0000131645   0.0000143637
        0.0000023891  -0.0000080414   0.0000524198  -0.0000098121  -0.0000066964
       -0.0000625805  -0.0000363896   0.0000260360   0.0325903940  -0.0523037054
       -0.0298183191  -0.1181534639  -0.1659838670  -0.0110340877   0.0877194024
       -0.2318867911   0.0439330219  -0.0003268298   0.0007432989   0.0005656618
        0.0005003681   0.0008398091   0.0007298562   0.0029403350  -0.0044694315
        0.0025781296  -0.0001637529   0.0003406530  -0.0007634572   0.0006410476
        0.0002130874  -0.0008409911  -0.0000982418   0.0001862750   0.0007635063
       -0.0001609996   0.0000063531  -0.0003466610   0.0000120389   0.0000210749
       -0.0000090671  -0.0001626619   0.0002719150  -0.0002477864   0.0000079713
        0.0000157088  -0.0000074376  -0.0000064135   0.0000029778   0.0000073577
        0.0000027008  -0.0000016352   0.0000084335   0.0000053678  -0.0000036823
       -0.0000123912  -0.0000056367   0.0000107465  -0.0000027102  -0.0000059810
       -0.0000045149   0.0000022207   0.0000092187  -0.0000063254  -0.0000054017
        0.0000054755  -0.0000061988  -0.0000098038  -0.0000041601   0.0000019466
        0.0000019229   0.0000027403   0.0000020949   0.0000071822  -0.0000036215
       -0.0000106117  -0.0000035602  -0.0000171765  -0.0000114374  -0.0000120256
        0.0000120498  -0.0000078060   0.0000044341  -0.0000099904   0.0000008221
        0.0000012253   0.0000018058   0.0000007916   0.0000055532  -0.0000002573
        0.0000000507  -0.0000011362  -0.0000009022  -0.0000011283   0.0000000028
        0.0000001013  -0.0000002600   0.0000002709  -0.0000005068   0.0000013082
       -0.0000003759  -0.0000003123  -0.0000002858   0.0000012109   0.0000000173
       -0.0000006681   0.0000006603  -0.0000005619   0.0000013231  -0.0000001395
        0.0000003106  -0.0000005601   0.0000004748   0.0000012008   0.0000000968
        0.0000003336  -0.0000003559   0.0000003677   0.0000010823   0.0000011138
        0.0000006262   0.0000005837  -0.0000004066   0.0000009306  -0.0000006937
       -0.0000008385   0.0000005979  -0.0000006249  -0.0000009323   0.0000001752
       -0.0000002576  -0.0000009390  -0.0000002537  -0.0000000975   0.0000000675
        0.0000004285  -0.0000009458   0.0000003184  -0.0000004009  -0.0000005329
       -0.0000008749  -0.0000002153  -0.0000002771   0.0000002964   0.0000003119
        0.0000003400   0.0000004902  -0.0000000096  -0.0000002281   0.0000000556
        0.0000004321   0.0000002154  -0.0000000522   0.0000008110  -0.0000007706
       -0.0000008898  -0.0000004113  -0.0000005879  -0.0000009038  -0.0000008137
       -0.0000002210  -0.0000001706   0.0000003585  -0.0000008907  -0.0000030417
        0.0000000821   0.0000007191   0.0000002887  -0.0000017451   0.0000002582
       -0.0000072006  -0.0000058602   0.0000037809   0.0000000550  -0.0000035323
       -0.0000071156
       -0.0343670759  -0.0009477630   0.4585162026  -0.0377145942   0.0011461494
       -0.1634938581  -0.0065486680   0.0045726510  -0.0120074305  -0.0021135778
       -0.0015881871  -0.0291815064  -0.0090269292  -0.0070648420  -0.0062427380
        0.0010051389   0.0005414295  -0.0007237764  -0.0000015962  -0.0003615641
        0.0000824906  -0.0000459941  -0.0001675127   0.0000675638  -0.0000476058
       -0.0005030244   0.0000453007  -0.0004183100   0.0009264349   0.0002967178
       -0.0000088231  -0.0000159200   0.0000592495   0.0000577722  -0.0000285495
       -0.0000515175   0.0000193977   0.0000172855  -0.0000023126  -0.0000004512
        0.0000040884  -0.0000026520   0.0000008100   0.0000112601   0.0000149406
       -0.0000044979   0.0000083376   0.0000109983  -0.0000060082   0.0000044631
        0.0000038253   0.0000058900   0.0000018460  -0.0000001927  -0.0000313025
       -0.0000407179  -0.0000080968   0.0000304835  -0.0000194794  -0.0001059686
        0.0001609006   0.0001993444  -0.0000225905  -0.0001786784  -0.0000434697
        0.0001101545   0.0000367505   0.0000097745  -0.0000377803  -0.0000399465
       -0.0000324534   0.0000332892   0.0000721200   0.0000122836  -0.0000276117
       -0.0000753890  -0.0000185733   0.0000297536   0.0000216491   0.0000220302
       -0.0000210493   0.0000238970  -0.0000112028   0.0000043030  -0.0000009076
        0.0000064514  -0.0000046373   0.0000123499   0.0000006655  -0.0000041750
       -0.0000239768   0.0000075980  -0.0000090968   0.0000283606  -0.0000087010
        0.0000120390  -0.0000011778   0.0000123646  -0.0000135419   0.0000016070
       -0.0000016890   0.0000009148  -0.0000018474   0.0000026291  -0.0000019836
        0.0000022479   0.0000009658   0.0000002404   0.0000017787   0.0000011769
       -0.0000002617   0.0000007594   0.0000000944   0.0000012090   0.0000011607
       -0.0000005396   0.0000006551   0.0000013047   0.0000000143   0.0000012164
        0.0000006913  -0.0000000203   0.0000004981   0.0000052575   0.0000034361
       -0.0000010504   0.0000000178  -0.0000035490   0.0000024812   0.0000013011
       -0.0000006355  -0.0000000348   0.0000008333  -0.0000027196   0.0000017538
        0.0000023133   0.0000015576  -0.0000000152   0.0000017863   0.0000002954
       -0.0000011407   0.0000015742  -0.0000000259   0.0000003773   0.0000012894
        0.0000006661  -0.0000000734  -0.0000038407   0.0000006013  -0.0000024575
        0.0000021233   0.0000015956  -0.0000009529  -0.0000128865  -0.0000051166
        0.0000052100   0.0000047254  -0.0000051506   0.0000106387  -0.0000093309
       -0.0000029960   0.0000035754  -0.0000555377   0.0000155851   0.0000117506
        0.0000433996   0.0000256596  -0.0000122213   0.1167326825  -0.0295194950
       -0.1492199638  -0.0096686490  -0.0103800029  -0.0430951455  -0.0193057819
        0.0434414911  -0.0528860842   0.0006855455  -0.0008198661   0.0007535515
        0.0002403402  -0.0006868856   0.0003204039  -0.0008785913   0.0015666285
       -0.0003591330  -0.0010035701   0.0003611351   0.0006144544   0.0031241319
       -0.0006533677  -0.0037900049  -0.0011657085  -0.0002148513   0.0004556820
        0.0004873065   0.0001106788  -0.0000578541   0.0000005103   0.0000165846
       -0.0000378980  -0.0000842933   0.0000863958  -0.0000565821  -0.0000177164
        0.0000011154   0.0000056128   0.0000007694  -0.0000001121  -0.0000039923
        0.0000020116  -0.0000009685  -0.0000002060  -0.0000058632   0.0000009753
        0.0000089228   0.0000025823   0.0000025107  -0.0000053871   0.0000035528
       -0.0000029337  -0.0000031978  -0.0000072125   0.0000042595   0.0000069245
       -0.0000045270   0.0000044952   0.0000066614   0.0000024377  -0.0000038947
       -0.0000021662  -0.0000008817  -0.0000005810  -0.0000018981  -0.0000028149
       -0.0000000227   0.0000045621   0.0000081249   0.0000043444  -0.0000042080
        0.0000019126  -0.0000119079  -0.0000002963   0.0000111837  -0.0000008358
        0.0000019178   0.0000034003  -0.0000004133  -0.0000052395   0.0000013470
        0.0000006582   0.0000009406   0.0000018316   0.0000010534   0.0000005629
        0.0000012506   0.0000004927   0.0000006286   0.0000008007   0.0000002723
        0.0000005980   0.0000012641   0.0000008521  -0.0000001161   0.0000007643
        0.0000007317   0.0000001281   0.0000010433  -0.0000000171   0.0000006764
        0.0000005063   0.0000006551   0.0000000962  -0.0000002974   0.0000003617
        0.0000003512   0.0000015109   0.0000006410  -0.0000004225  -0.0000003939
       -0.0000000973  -0.0000000305   0.0000011264   0.0000005262   0.0000004909
        0.0000009024  -0.0000000500   0.0000006428   0.0000014429   0.0000004079
       -0.0000000842   0.0000006888  -0.0000001325  -0.0000004382   0.0000010071
       -0.0000006265   0.0000002569   0.0000005365   0.0000003069  -0.0000001150
        0.0000009052   0.0000001879  -0.0000004129   0.0000008909   0.0000002416
       -0.0000009278   0.0000006602  -0.0000000286  -0.0000003275   0.0000010628
        0.0000000741  -0.0000010920   0.0000011023  -0.0000005101  -0.0000000124
        0.0000011283   0.0000000754  -0.0000004314   0.0000010908  -0.0000000729
        0.0000001170   0.0000014990  -0.0000004212   0.0000011191   0.0000018067
        0.0000001018  -0.0000005738  -0.0000008070   0.0000018794   0.0000013089
        0.0000010988  -0.0000016766  -0.0000019795   0.0000026107   0.0000053042
        0.0000029847
       -0.0784765517  -0.0017115385  -0.0377145942   0.4862436702   0.0057766467
       -0.0150279617  -0.0845436604   0.0491357788  -0.0100240987  -0.1336083756
        0.0109569283   0.0586547441  -0.1167242045  -0.0611607953  -0.0025993817
       -0.0232183198  -0.0168874330   0.0027459517  -0.0010373112  -0.0001176699
        0.0043933579  -0.0006366885  -0.0006395070   0.0002587042   0.0025163740
       -0.0004313537   0.0030583505   0.0018823836  -0.0041746029  -0.0036245114
        0.0002024793  -0.0000310835   0.0001804465   0.0001391617   0.0000379115
       -0.0001007817   0.0000562211   0.0000398099  -0.0000276980   0.0000274753
       -0.0000061303  -0.0000018286  -0.0000027620   0.0000332562   0.0000283268
       -0.0000077470   0.0000259262   0.0000358374  -0.0000269839   0.0000066975
        0.0000091521  -0.0000241885   0.0000306076   0.0000579408  -0.0000550310
       -0.0000916052  -0.0000628917  -0.0000083589   0.0002317651  -0.0002074905
        0.0001903621   0.0007494467  -0.0001772411  -0.0003026811  -0.0000588822
        0.0001340766   0.0000828468   0.0000177664  -0.0000669451  -0.0000785645
       -0.0000655971   0.0000779549   0.0001422934   0.0000485002  -0.0000612460
       -0.0001744458  -0.0000406336   0.0000634717   0.0000532364   0.0000567860
       -0.0000555242   0.0000616364  -0.0000235986   0.0000158457  -0.0000070824
        0.0000185378  -0.0000137341   0.0000309391   0.0000047677  -0.0000101453
       -0.0000693881   0.0000205254  -0.0000288991   0.0000788340  -0.0000125879
        0.0000263372   0.0000029499   0.0000187220  -0.0000251722  -0.0000059082
       -0.0000086723   0.0000029787  -0.0000043553   0.0000040929  -0.0000030381
        0.0000070958   0.0000079082  -0.0000031811  -0.0000014486   0.0000026774
       -0.0000023814   0.0000005369   0.0000016665   0.0000002688   0.0000004987
       -0.0000008688   0.0000011167   0.0000012544  -0.0000009438   0.0000005919
       -0.0000043567  -0.0000060437   0.0000038128   0.0000107196   0.0000093647
       -0.0000036792   0.0000054535  -0.0000127120   0.0000104689   0.0000023961
        0.0000056574  -0.0000054791  -0.0000023063  -0.0000070431   0.0000031096
       -0.0000038227  -0.0000008291  -0.0000013453   0.0000037164  -0.0000004283
        0.0000001918   0.0000030890   0.0000001414  -0.0000008633   0.0000043246
       -0.0000004735  -0.0000006782  -0.0000017876  -0.0000030062  -0.0000007694
        0.0000080160   0.0000069080  -0.0000028535  -0.0000402559  -0.0000138479
        0.0000112009   0.0000114626  -0.0000120975   0.0000251082  -0.0000259523
       -0.0000047281   0.0000100776  -0.0000616599   0.0000349929   0.0000099909
        0.0000874600   0.0000204404  -0.0000245179   0.0065071034   0.0006129372
        0.0193688689  -0.0110736183  -0.0032915424  -0.0207803474  -0.0066008322
        0.0021011503  -0.0131138007  -0.0125524847   0.0200839748  -0.0023460691
        0.0068264415  -0.0166189277   0.0040762255  -0.0061151646   0.0110887320
       -0.0048079318  -0.0140866668   0.0054417469   0.0091527000   0.0065445334
       -0.0007289148  -0.0037490952  -0.0204521104  -0.0013837056   0.0135178989
       -0.0000598561   0.0001424614  -0.0013878809  -0.0006968930  -0.0007260432
        0.0001211949  -0.0009446637   0.0014290308  -0.0000415885  -0.0000544614
       -0.0000034724   0.0000416315   0.0000093755  -0.0000115488  -0.0000108296
       -0.0000053919   0.0000006918  -0.0000113767  -0.0000146721   0.0000117737
        0.0000314181   0.0000026071  -0.0000086981  -0.0000101222   0.0000111432
        0.0000063211  -0.0000089317  -0.0000229976   0.0000190887   0.0000173552
       -0.0000137941   0.0000189216   0.0000241105   0.0000114531  -0.0000017757
       -0.0000068326  -0.0000078505  -0.0000025533  -0.0000117072   0.0000009300
        0.0000025620   0.0000074906   0.0000136331   0.0000303096  -0.0000165186
       -0.0000109632  -0.0000229179   0.0000042560   0.0000189671   0.0000023853
        0.0000042661   0.0000045743  -0.0000035798  -0.0000094520   0.0000000690
       -0.0000006194   0.0000016389   0.0000052493   0.0000012183   0.0000027383
        0.0000000011   0.0000029838  -0.0000010055   0.0000016049  -0.0000021233
        0.0000025883   0.0000005642   0.0000013413  -0.0000016905   0.0000000458
        0.0000028146   0.0000008465   0.0000022427  -0.0000028980   0.0000016805
       -0.0000003667   0.0000013636   0.0000003627   0.0000007909   0.0000012851
       -0.0000008074   0.0000006483   0.0000008454  -0.0000013028   0.0000012002
        0.0000014119  -0.0000008738   0.0000022612  -0.0000015298   0.0000030839
        0.0000057627   0.0000004545   0.0000014378   0.0000026676  -0.0000020792
        0.0000014399   0.0000057232   0.0000005992  -0.0000019113   0.0000005634
       -0.0000011320   0.0000001924   0.0000004947  -0.0000007962  -0.0000001559
        0.0000055717   0.0000005981  -0.0000005541   0.0000007783  -0.0000008734
       -0.0000018954   0.0000003360  -0.0000005202  -0.0000002777   0.0000013681
       -0.0000008929  -0.0000016958   0.0000012659  -0.0000016084  -0.0000005254
        0.0000057786   0.0000020405  -0.0000002077   0.0000023664   0.0000030103
       -0.0000021970   0.0000008754  -0.0000006731   0.0000015864   0.0000051185
       -0.0000008702  -0.0000029302  -0.0000002952   0.0000037350  -0.0000006731
        0.0000048043   0.0000033020  -0.0000059778   0.0000014801   0.0000216880
        0.0000116708
        0.0006672239  -0.0597730051   0.0011461494   0.0057766467   0.4660145200
        0.0006183642   0.0421047018  -0.1511807901   0.0209951661   0.0124292080
       -0.0658527319  -0.0109588881  -0.0579988259  -0.1225094607  -0.0094265349
       -0.0075728742  -0.0012894064   0.0052640380   0.0003230255   0.0028724907
       -0.0019066155  -0.0003528912  -0.0008238532  -0.0005974226  -0.0005895133
       -0.0001574435  -0.0050291772  -0.0142699650  -0.0207878034  -0.0061659077
       -0.0007433887  -0.0001935480   0.0000181659   0.0000497947  -0.0000987758
       -0.0000655112   0.0001095055   0.0000647144   0.0000015941  -0.0000192079
        0.0000132729  -0.0000042562  -0.0000003553   0.0000050052   0.0000134188
       -0.0000077994  -0.0000018085   0.0000167531  -0.0000123518   0.0000127333
       -0.0000038799  -0.0000695843   0.0000667730   0.0000638918  -0.0000519047
       -0.0001597797  -0.0000331489   0.0000516002  -0.0001994501   0.0000811733
        0.0006618742   0.0000154786   0.0002213225  -0.0002510885  -0.0000609215
        0.0002464790   0.0000398266   0.0000289163  -0.0000552864  -0.0000544840
       -0.0000394298   0.0000343691   0.0001338923   0.0000061838  -0.0000430101
       -0.0001572755  -0.0000107848   0.0000243284   0.0000523165   0.0000255130
       -0.0000154408   0.0000635484  -0.0000258973   0.0000163221  -0.0000008985
        0.0000153309  -0.0000144891   0.0000298437   0.0000018406  -0.0000116997
       -0.0000606669   0.0000189328  -0.0000242032   0.0000617446  -0.0000244722
        0.0000299888  -0.0000040814   0.0000260783  -0.0000304179   0.0000024847
       -0.0000094242   0.0000057544   0.0000028576   0.0000086418  -0.0000043968
        0.0000021553   0.0000047663  -0.0000024186   0.0000038941   0.0000066241
       -0.0000017995   0.0000021570   0.0000000418   0.0000027484   0.0000011850
       -0.0000006981   0.0000023562   0.0000019821  -0.0000014822   0.0000005220
       -0.0000012881  -0.0000054082   0.0000038887   0.0000136263   0.0000075010
       -0.0000016176   0.0000019554  -0.0000084814   0.0000060752   0.0000069955
        0.0000064843  -0.0000047727   0.0000021417  -0.0000053239   0.0000032123
       -0.0000017360   0.0000000282  -0.0000009857   0.0000026576   0.0000001177
       -0.0000000437   0.0000032063   0.0000007043  -0.0000007223   0.0000031083
       -0.0000005696  -0.0000015533  -0.0000015735  -0.0000023874  -0.0000012936
        0.0000075708   0.0000081268  -0.0000043431  -0.0000227677  -0.0000080132
        0.0000111536   0.0000125977  -0.0000126363   0.0000242861  -0.0000245931
       -0.0000050311   0.0000065209  -0.0001056130   0.0000324347   0.0000147428
        0.0000600283   0.0000302907  -0.0000181789  -0.0013551100  -0.0005512640
       -0.0053105417  -0.0099984415  -0.0022304513  -0.0195510734   0.0109737352
       -0.0017110230   0.0241138100   0.0057368263  -0.0072293869  -0.0006936617
        0.0071198447  -0.0264669331   0.0048604602   0.0019112145  -0.0020616620
        0.0031355380   0.0211473384  -0.0057256699  -0.0155436042   0.0006540918
       -0.0002543772  -0.0008257890  -0.0185758634   0.0005262972   0.0137460862
        0.0013762765  -0.0007542218   0.0001241288   0.0002845585   0.0002221592
       -0.0002073371   0.0003570180   0.0001820178   0.0016883078  -0.0000339218
        0.0000016489   0.0000036863  -0.0000019553  -0.0000068577  -0.0000067535
        0.0000077314  -0.0000010656   0.0000074715  -0.0000055439   0.0000069147
        0.0000138089   0.0000053699   0.0000102400  -0.0000080895   0.0000053374
        0.0000025406  -0.0000082140  -0.0000095776   0.0000116090   0.0000115234
       -0.0000071534   0.0000113246   0.0000125953   0.0000071679   0.0000022212
       -0.0000052077   0.0000008563   0.0000025427   0.0000009543  -0.0000068492
       -0.0000002228   0.0000002990   0.0000235642  -0.0000215307  -0.0000001536
       -0.0000128675  -0.0000266255   0.0000038359   0.0000224091   0.0000003507
       -0.0000024741   0.0000033727  -0.0000005464  -0.0000099106   0.0000027832
        0.0000010785   0.0000038030   0.0000015594   0.0000035606  -0.0000003248
       -0.0000015648  -0.0000009865   0.0000016830   0.0000025671  -0.0000005624
        0.0000025258   0.0000005579   0.0000031421   0.0000006957   0.0000008018
        0.0000011941  -0.0000016699   0.0000034743  -0.0000014293   0.0000018276
        0.0000010745   0.0000011056  -0.0000008715  -0.0000003451   0.0000005400
        0.0000004996   0.0000014118   0.0000023779  -0.0000003573   0.0000001447
        0.0000001392  -0.0000006154   0.0000033907  -0.0000002964   0.0000026938
        0.0000034717   0.0000011042   0.0000008248   0.0000030411  -0.0000010310
        0.0000010713   0.0000037779   0.0000002475  -0.0000014288   0.0000018949
       -0.0000006549  -0.0000002631   0.0000016649  -0.0000011730  -0.0000009879
        0.0000037608   0.0000002567  -0.0000007148   0.0000018499  -0.0000001137
       -0.0000011303   0.0000018412  -0.0000010332  -0.0000006704   0.0000020621
        0.0000000573  -0.0000013119   0.0000023869  -0.0000007004  -0.0000005627
        0.0000041501   0.0000010277  -0.0000008326   0.0000019331   0.0000009828
       -0.0000009829   0.0000018639  -0.0000011623   0.0000020883   0.0000043729
        0.0000004914  -0.0000021521  -0.0000006835   0.0000044231   0.0000014964
        0.0000002905  -0.0000048210  -0.0000021786   0.0000064086   0.0000094788
        0.0000033800
       -0.0422834831  -0.0043394210  -0.1634938581  -0.0150279617   0.0006183642
        0.4698851111  -0.0091057135   0.0230890917  -0.0662569578   0.0597399752
       -0.0099182304  -0.1130174167  -0.0000102643  -0.0069836143  -0.0603907516
        0.0096846296   0.0116842765   0.0008240591   0.0046703221  -0.0015927938
        0.0007106016   0.0003911453  -0.0004292945  -0.0003222165   0.0028493820
       -0.0051572157   0.0016567187  -0.0110577851  -0.0130577677  -0.0011260100
       -0.0003372023  -0.0004887414   0.0003513933  -0.0001085767  -0.0000523766
       -0.0000082092   0.0000020950   0.0000234435  -0.0000154687  -0.0000114150
       -0.0000124480   0.0000322447   0.0000003555  -0.0000206885  -0.0000115863
       -0.0000043288  -0.0000165865  -0.0000111988   0.0000103812   0.0000050700
       -0.0000057683   0.0000102393   0.0000047342   0.0000252341  -0.0000413601
        0.0000080952  -0.0000245519  -0.0002713261  -0.0000625670  -0.0002377586
       -0.0004402723   0.0000759979  -0.0004634570   0.0001749738   0.0000342550
       -0.0001893152  -0.0000236846   0.0000256876   0.0000700080   0.0000077850
        0.0000085379   0.0000035237  -0.0000664861   0.0000194123   0.0000084787
        0.0000831333   0.0000095836  -0.0000094435  -0.0000195796  -0.0000111173
       -0.0000028190  -0.0000350943   0.0000136234  -0.0000111166   0.0000035141
       -0.0000090106   0.0000194247  -0.0000156782  -0.0000008041   0.0000040783
        0.0000343106  -0.0000107989   0.0000185452  -0.0000301775   0.0000171918
       -0.0000223418   0.0000033331  -0.0000143083   0.0000187908   0.0000015206
        0.0000051490  -0.0000041755  -0.0000019010  -0.0000045376   0.0000009799
        0.0000004100  -0.0000029004   0.0000020355  -0.0000018981  -0.0000033412
        0.0000026048  -0.0000010163   0.0000018240  -0.0000004031   0.0000009486
        0.0000006154  -0.0000011169  -0.0000001673   0.0000013691   0.0000002350
        0.0000031077   0.0000028611  -0.0000023093  -0.0000075522  -0.0000027923
       -0.0000002911   0.0000010690   0.0000047089  -0.0000030599  -0.0000031859
       -0.0000047571   0.0000027568  -0.0000000990   0.0000030440  -0.0000021344
        0.0000030918   0.0000009311   0.0000014000   0.0000008875   0.0000000244
       -0.0000005925  -0.0000001490  -0.0000003540   0.0000008217   0.0000001193
        0.0000002078   0.0000009661   0.0000022648   0.0000016721  -0.0000000398
       -0.0000022141  -0.0000051429   0.0000022759   0.0000108490   0.0000041217
       -0.0000063312  -0.0000063068   0.0000084058  -0.0000121686   0.0000164431
        0.0000020445  -0.0000056110   0.0000707109   0.0000023824  -0.0000140064