      -----------------------------------------------------------      
     |                   =====================                   |     
     |                           x T B                           |     
     |                   =====================                   |     
     |                         S. Grimme                         |     
     |          Mulliken Center for Theoretical Chemistry        |     
     |                    University of Bonn                     |     
      -----------------------------------------------------------      

   * xtb version 6.7.1 (edcfbbe) compiled by 'albert@albert-system' on 2024-07-22

   xtb is free software: you can redistribute it and/or modify it under
   the terms of the GNU Lesser General Public License as published by
   the Free Software Foundation, either version 3 of the License, or
   (at your option) any later version.
   
   xtb is distributed in the hope that it will be useful,
   but WITHOUT ANY WARRANTY; without even the implied warranty of
   MERCHANTABILITY or FITNESS FOR A PARTICULAR PURPOSE.  See the
   GNU Lesser General Public License for more details.
   
   Cite this work as:
   * C. Bannwarth, E. Caldeweyher, S. Ehlert, A. Hansen, P. Pracht,
     J. Seibert, S. Spicher, S. Grimme, WIREs Comput. Mol. Sci., 2020, 11,
     e01493. DOI: 10.1002/wcms.1493
   
   for GFN2-xTB:
   * C. Bannwarth, S. Ehlert and S. Grimme., J. Chem. Theory Comput., 2019,
     15, 1652-1671. DOI: 10.1021/acs.jctc.8b01176
   for GFN1-xTB:
   * S. Grimme, C. Bannwarth, P. Shushkov, J. Chem. Theory Comput., 2017,
     13, 1989-2009. DOI: 10.1021/acs.jctc.7b00118
   for GFN0-xTB:
   * P. Pracht, E. Caldeweyher, S. Ehlert, S. Grimme, ChemRxiv, 2019, preprint.
     DOI: 10.26434/chemrxiv.8326202.v1
   for GFN-FF:
   * S. Spicher and S. Grimme, Angew. Chem. Int. Ed., 2020, 59, 15665-15673.
     DOI: 10.1002/anie.202004239
   
   for ALPB and GBSA implicit solvation:
   * S. Ehlert, M. Stahn, S. Spicher, S. Grimme, J. Chem. Theory Comput.,
     2021, 17, 4250-4261. DOI: 10.1021/acs.jctc.1c00471
   
   for ddCOSMO and CPCM-X implicit solvation:
   * M. Stahn, S. Ehlert, S. Grimme, J. Phys. Chem. A,
     2023, XX, XXXX-XXXX. DOI: 10.1021/acs.jpca.3c04382
   
   for DFT-D4:
   * E. Caldeweyher, C. Bannwarth and S. Grimme, J. Chem. Phys., 2017,
     147, 034112. DOI: 10.1063/1.4993215
   * E. Caldeweyher, S. Ehlert, A. Hansen, H. Neugebauer, S. Spicher,
     C. Bannwarth and S. Grimme, J. Chem. Phys., 2019, 150, 154122.
     DOI: 10.1063/1.5090222
   * E. Caldeweyher, J.-M. Mewes, S. Ehlert and S. Grimme, Phys. Chem. Chem. Phys.
     2020, 22, 8499-8512. DOI: 10.1039/D0CP00502A
   
   for sTDA-xTB:
   * S. Grimme and C. Bannwarth, J. Chem. Phys., 2016, 145, 054103.
     DOI: 10.1063/1.4959605
   
   in the mass-spec context:
   * V. Asgeirsson, C. Bauer and S. Grimme, Chem. Sci., 2017, 8, 4879.
     DOI: 10.1039/c7sc00601b
   * J. Koopman and S. Grimme, ACS Omega 2019, 4, 12, 15120-15133.
     DOI: 10.1021/acsomega.9b02011
   
   for metadynamics refer to:
   * S. Grimme, J. Chem. Theory Comput., 2019, 155, 2847-2862
     DOI: 10.1021/acs.jctc.9b00143
   
   for SPH calculations refer to:
   * S. Spicher and S. Grimme, J. Chem. Theory Comput., 2021, 17, 1701-1714
     DOI: 10.1021/acs.jctc.0c01306
   
   for ONIOM refer to:
   * C. Plett, A. Katbashev, S. Ehlert, S. Grimme, M. Bursch,
     Phys. Chem. Chem. Phys., 2023, 25, 17860-17868. DOI: 10.1039/D3CP02178E
   
   for DIPRO refer to:
   * J. Kohn, N. Gildemeister, S. Grimme, D. Fazzi, A. Hansen,
     J. Chem. Phys., 2023, just accepted.
   
   for PTB refer to:
   * S. Grimme, M. Mueller, A. Hansen, J. Chem. Phys., 2023, 158, 124111.
     DOI: 10.1063/5.0137838
   
   with help from (in alphabetical order)
   P. Atkinson, C. Bannwarth, F. Bohle, G. Brandenburg, E. Caldeweyher
   M. Checinski, S. Dohm, S. Ehlert, S. Ehrlich, I. Gerasimov, C. Hölzer
   A. Katbashev, J. Kohn, J. Koopman, C. Lavigne, S. Lehtola, F. März, M. Müller,
   F. Musil, H. Neugebauer, J. Pisarek, C. Plett, P. Pracht, F. Pultar,
   J. Seibert, P. Shushkov, S. Spicher, M. Stahn, M. Steiner, T. Strunk,
   J. Stückrath, T. Rose, and J. Unsleber
   
 * started run on 2025/08/24 at 14:27:22.856     
   ID    Z sym.   atoms
    1    8 O      1, 3, 22
    2   16 S      2
    3    6 C      4-7, 9-14, 16-21, 23-29
    4    7 N      8, 15
    5    1 H      30-45

           -------------------------------------------------
          |                Calculation Setup                |
           -------------------------------------------------

          program call               : xtb data2507/gas/PSPP/PSPP_gas_S0_crest.xyz --gfn 2 --ohess vtight --parallel 40 --molden --ceasefiles --namespace data2507/gas/PSPP/PSPP_gas_S0_finalOpt
          calculation namespace      : data2507/gas/PSPP/PSPP_gas_S0_finalOpt
          coordinate file            : data2507/gas/PSPP/PSPP_gas_S0_crest.xyz
          omp threads                :                    40


           -------------------------------------------------
          |                 G F N 2 - x T B                 |
           -------------------------------------------------

        Reference                      10.1021/acs.jctc.8b01176
      * Hamiltonian:
        H0-scaling (s, p, d)           1.850000    2.230000    2.230000
        zeta-weighting                 0.500000
      * Dispersion:
        s8                             2.700000
        a1                             0.520000
        a2                             5.000000
        s9                             5.000000
      * Repulsion:
        kExp                           1.500000    1.000000
        rExp                           1.000000
      * Coulomb:
        alpha                          2.000000
        third order                    shell-resolved
        anisotropic                    true
        a3                             3.000000
        a5                             4.000000
        cn-shift                       1.200000
        cn-exp                         4.000000
        max-rad                        5.000000


          ...................................................
          :                      SETUP                      :
          :.................................................:
          :  # basis functions                 138          :
          :  # atomic orbitals                 137          :
          :  # shells                           75          :
          :  # electrons                       142          :
          :  max. iterations                   250          :
          :  Hamiltonian                  GFN2-xTB          :
          :  restarted?                      false          :
          :  GBSA solvation                  false          :
          :  PC potential                    false          :
          :  electronic temp.          300.0000000     K    :
          :  accuracy                    1.0000000          :
          :  -> integral cutoff          0.2500000E+02      :
          :  -> integral neglect         0.1000000E-07      :
          :  -> SCF convergence          0.1000000E-05 Eh   :
          :  -> wf. convergence          0.1000000E-03 e    :
          :  Broyden damping             0.4000000          :
          :  net charge                          0          :
          :  unpaired electrons                  0          :
          ...................................................

 iter      E             dE          RMSdq      gap      omega  full diag
   1    -79.8514193 -0.798514E+02  0.510E+00    2.28       0.0  T
   2    -79.9047861 -0.533669E-01  0.317E+00    2.23       1.0  T
   3    -79.8716652  0.331209E-01  0.109E+00    1.75       1.0  T
   4    -79.9101725 -0.385073E-01  0.439E-01    1.94       1.0  T
   5    -79.9161597 -0.598712E-02  0.152E-01    1.86       1.0  T
   6    -79.9163915 -0.231821E-03  0.843E-02    1.90       1.0  T
   7    -79.9165206 -0.129148E-03  0.457E-02    1.89       1.0  T
   8    -79.9165405 -0.198205E-04  0.249E-02    1.90       1.0  T
   9    -79.9165447 -0.419975E-05  0.931E-03    1.90       1.6  T
  10    -79.9165470 -0.234278E-05  0.352E-03    1.90       4.2  T
  11    -79.9165471 -0.567058E-07  0.189E-03    1.90       7.9  T
  12    -79.9165471 -0.716532E-07  0.550E-04    1.90      27.1  T
  13    -79.9165471 -0.445452E-08  0.222E-04    1.90      67.3  T

   *** convergence criteria satisfied after 13 iterations ***

         #    Occupation            Energy/Eh            Energy/eV
      -------------------------------------------------------------
         1        2.0000           -0.7796560             -21.2155
       ...           ...                  ...                  ...
        65        2.0000           -0.4324323             -11.7671
        66        2.0000           -0.4239670             -11.5367
        67        2.0000           -0.4209619             -11.4550
        68        2.0000           -0.4195805             -11.4174
        69        2.0000           -0.3984918             -10.8435
        70        2.0000           -0.3929523             -10.6928
        71        2.0000           -0.3529116              -9.6032 (HOMO)
        72                         -0.2831856              -7.7059 (LUMO)
        73                         -0.2735424              -7.4435
        74                         -0.2658756              -7.2348
        75                         -0.2612624              -7.1093
        76                         -0.2465417              -6.7087
       ...                                ...                  ...
       137                          1.2099085              32.9233
      -------------------------------------------------------------
                  HL-Gap            0.0697259 Eh            1.8973 eV
             Fermi-level           -0.3180486 Eh           -8.6545 eV

 SCC (total)                   0 d,  0 h,  0 min,  0.080 sec
 SCC setup                      ...        0 min,  0.001 sec (  0.750%)
 Dispersion                     ...        0 min,  0.001 sec (  1.575%)
 classical contributions        ...        0 min,  0.000 sec (  0.068%)
 integral evaluation            ...        0 min,  0.010 sec ( 12.442%)
 iterations                     ...        0 min,  0.062 sec ( 77.830%)
 molecular gradient             ...        0 min,  0.005 sec (  6.620%)
 printout                       ...        0 min,  0.000 sec (  0.603%)

         :::::::::::::::::::::::::::::::::::::::::::::::::::::
         ::                     SUMMARY                     ::
         :::::::::::::::::::::::::::::::::::::::::::::::::::::
         :: total energy             -78.680552502748 Eh    ::
         :: gradient norm              0.000409865897 Eh/a0 ::
         :: HOMO-LUMO gap              1.897339489942 eV    ::
         ::.................................................::
         :: SCC energy               -79.915325466146 Eh    ::
         :: -> isotropic ES            0.083891182418 Eh    ::
         :: -> anisotropic ES         -0.003108703943 Eh    ::
         :: -> anisotropic XC          0.036607901261 Eh    ::
         :: -> dispersion             -0.064037764636 Eh    ::
         :: repulsion energy           1.234772963398 Eh    ::
         :: add. restraining           0.000000000000 Eh    ::
         :: total charge              -0.000000000000 e     ::
         :::::::::::::::::::::::::::::::::::::::::::::::::::::

      ----------------------------------------------------------- 
     |                   =====================                   |
     |                        A N C O P T                        |
     |                   =====================                   |
     |               Approximate Normal Coordinate               |
     |                Rational Function Optimizer                |
      ----------------------------------------------------------- 

Optimization log is written to '/dev/null'
      ----------------------------------------------------------- 
     |                   =====================                   |
     |                        A N C O P T                        |
     |                   =====================                   |
     |               Approximate Normal Coordinate               |
     |                Rational Function Optimizer                |
      ----------------------------------------------------------- 

          ...................................................
          :                      SETUP                      :
          :.................................................:
          :   optimization level         verytight          :
          :   max. optcycles                   900          :
          :   ANC micro-cycles                  20          :
          :   degrees of freedom               129          :
          :.................................................:
          :   RF solver                   davidson          :
          :   write xtbopt.log                true          :
          :   linear?                        false          :
          :   energy convergence         0.1000000E-06 Eh   :
          :   grad. convergence          0.2000000E-03 Eh/α :
          :   maxmium RF displ.          1.0000000          :
          :   Hlow (freq-cutoff)         0.1000000E-01      :
          :   Hmax (freq-cutoff)         5.0000000          :
          :   S6 in model hess.         20.0000000          :
          ...................................................

generating ANC from exact Hessian ...
Using Lindh-Hessian (1995)
 Shifting diagonal of input Hessian by   9.758845859580936E-003
 Lowest  eigenvalues of input Hessian
    0.000000    0.000000    0.000000    0.000000    0.000000    0.000000
    0.010000    0.010437    0.010659    0.011069    0.011734    0.012364
    0.012601    0.013454    0.015273    0.017683    0.018882    0.020722
 Highest eigenvalues
    2.070468    2.138683    2.199492    2.218498    2.572560    3.431857
 

........................................................................
.............................. CYCLE    1 ..............................
........................................................................

 iter      E             dE          RMSdq      gap      omega  full diag
   1    -79.9165471 -0.799165E+02  0.909E-05    1.90       0.0  T
   2    -79.9165471 -0.709264E-10  0.576E-05    1.90     258.9  T
   3    -79.9165471 -0.874110E-10  0.344E-05    1.90     433.4  T
     SCC iter.                  ...        0 min,  0.014 sec
     gradient                   ...        0 min,  0.005 sec
 * total energy  :   -78.6805525 Eh     change       -0.5053948E-09 Eh
   gradient norm :     0.0004103 Eh/α   predicted     0.0000000E+00 (-100.00%)
   displ. norm   :     0.0071969 α      lambda       -0.1494144E-06
   maximum displ.:     0.0034063 α      in ANC's #4, #5, #7, ...

........................................................................
.............................. CYCLE    2 ..............................
........................................................................

 iter      E             dE          RMSdq      gap      omega  full diag
   1    -79.9165333 -0.799165E+02  0.380E-03    1.90       0.0  T
   2    -79.9165333 -0.405231E-08  0.224E-03    1.90       6.6  T
   3    -79.9165333  0.559344E-08  0.409E-04    1.90      36.5  T
   4    -79.9165333 -0.719830E-08  0.107E-04    1.90     139.2  T
     SCC iter.                  ...        0 min,  0.018 sec
     gradient                   ...        0 min,  0.005 sec
 * total energy  :   -78.6805531 Eh     change       -0.6079112E-06 Eh
   gradient norm :     0.0002011 Eh/α   predicted    -0.3749713E-06 ( -38.32%)
   displ. norm   :     0.0106498 α      lambda       -0.2762376E-06
   maximum displ.:     0.0057731 α      in ANC's #5, #4, #7, ...

........................................................................
.............................. CYCLE    3 ..............................
........................................................................

 iter      E             dE          RMSdq      gap      omega  full diag
   1    -79.9165220 -0.799165E+02  0.380E-03    1.90       0.0  T
   2    -79.9165220 -0.526146E-08  0.221E-03    1.90       6.7  T
   3    -79.9165220  0.683610E-08  0.443E-04    1.90      33.6  T
   4    -79.9165220 -0.893105E-08  0.113E-04    1.90     131.6  T
     SCC iter.                  ...        0 min,  0.018 sec
     gradient                   ...        0 min,  0.005 sec
 * total energy  :   -78.6805537 Eh     change       -0.5690253E-06 Eh
   gradient norm :     0.0001548 Eh/α   predicted    -0.2217411E-06 ( -61.03%)
   displ. norm   :     0.0337514 α      lambda       -0.1111461E-05
   maximum displ.:     0.0181936 α      in ANC's #5, #4, #7, ...

........................................................................
.............................. CYCLE    4 ..............................
........................................................................

 iter      E             dE          RMSdq      gap      omega  full diag
   1    -79.9164849 -0.799165E+02  0.120E-02    1.90       0.0  T
   2    -79.9164850 -0.454028E-07  0.696E-03    1.90       2.1  T
   3    -79.9164849  0.272868E-07  0.106E-03    1.90      14.1  T
   4    -79.9164850 -0.432594E-07  0.326E-04    1.90      45.7  T
   5    -79.9164850 -0.120853E-08  0.136E-04    1.90     109.7  T
     SCC iter.                  ...        0 min,  0.022 sec
     gradient                   ...        0 min,  0.005 sec
 * total energy  :   -78.6805548 Eh     change       -0.1168248E-05 Eh
   gradient norm :     0.0003218 Eh/α   predicted    -0.5578753E-06 ( -52.25%)
   displ. norm   :     0.0291545 α      lambda       -0.5868075E-06
   maximum displ.:     0.0158605 α      in ANC's #5, #7, #4, ...

........................................................................
.............................. CYCLE    5 ..............................
........................................................................

 iter      E             dE          RMSdq      gap      omega  full diag
   1    -79.9164734 -0.799165E+02  0.104E-02    1.90       0.0  T
   2    -79.9164735 -0.357813E-07  0.606E-03    1.90       2.5  T
   3    -79.9164735  0.127522E-07  0.805E-04    1.90      18.5  T
   4    -79.9164735 -0.247944E-07  0.284E-04    1.90      52.5  T
     SCC iter.                  ...        0 min,  0.018 sec
     gradient                   ...        0 min,  0.005 sec
 * total energy  :   -78.6805555 Eh     change       -0.6480080E-06 Eh
   gradient norm :     0.0003446 Eh/α   predicted    -0.2987430E-06 ( -53.90%)
   displ. norm   :     0.0258115 α      lambda       -0.4563912E-06
   maximum displ.:     0.0139935 α      in ANC's #5, #7, #4, ...

........................................................................
.............................. CYCLE    6 ..............................
........................................................................

 iter      E             dE          RMSdq      gap      omega  full diag
   1    -79.9164682 -0.799165E+02  0.949E-03    1.90       0.0  T
   2    -79.9164682 -0.253309E-07  0.552E-03    1.90       2.7  T
   3    -79.9164682  0.118364E-07  0.720E-04    1.90      20.7  T
   4    -79.9164682 -0.208320E-07  0.241E-04    1.90      61.8  T
     SCC iter.                  ...        0 min,  0.018 sec
     gradient                   ...        0 min,  0.005 sec
 * total energy  :   -78.6805560 Eh     change       -0.5226485E-06 Eh
   gradient norm :     0.0002319 Eh/α   predicted    -0.2316478E-06 ( -55.68%)
   displ. norm   :     0.0237816 α      lambda       -0.3758741E-06
   maximum displ.:     0.0132940 α      in ANC's #7, #5, #4, ...

........................................................................
.............................. CYCLE    7 ..............................
........................................................................

 iter      E             dE          RMSdq      gap      omega  full diag
   1    -79.9164676 -0.799165E+02  0.907E-03    1.90       0.0  T
   2    -79.9164677 -0.253913E-07  0.526E-03    1.90       2.8  T
   3    -79.9164676  0.149082E-07  0.768E-04    1.90      19.4  T
   4    -79.9164677 -0.244915E-07  0.237E-04    1.90      62.8  T
     SCC iter.                  ...        0 min,  0.018 sec
     gradient                   ...        0 min,  0.005 sec
 * total energy  :   -78.6805564 Eh     change       -0.3756593E-06 Eh
   gradient norm :     0.0000797 Eh/α   predicted    -0.1892890E-06 ( -49.61%)
   displ. norm   :     0.0125665 α      lambda       -0.1586582E-06
   maximum displ.:     0.0078041 α      in ANC's #7, #5, #3, ...

........................................................................
.............................. CYCLE    8 ..............................
........................................................................

 iter      E             dE          RMSdq      gap      omega  full diag
   1    -79.9164713 -0.799165E+02  0.501E-03    1.90       0.0  T
   2    -79.9164713 -0.761443E-08  0.291E-03    1.90       5.1  T
   3    -79.9164713  0.357073E-08  0.413E-04    1.90      36.1  T
   4    -79.9164713 -0.653414E-08  0.137E-04    1.90     108.6  T
     SCC iter.                  ...        0 min,  0.018 sec
     gradient                   ...        0 min,  0.005 sec
 * total energy  :   -78.6805566 Eh     change       -0.1843672E-06 Eh
   gradient norm :     0.0001097 Eh/α   predicted    -0.7979803E-07 ( -56.72%)
   displ. norm   :     0.0124033 α      lambda       -0.1570548E-06
   maximum displ.:     0.0076493 α      in ANC's #7, #3, #5, ...

........................................................................
.............................. CYCLE    9 ..............................
........................................................................

 iter      E             dE          RMSdq      gap      omega  full diag
   1    -79.9164752 -0.799165E+02  0.472E-03    1.90       0.0  T
   2    -79.9164752 -0.730400E-08  0.274E-03    1.90       5.4  T
   3    -79.9164752  0.366761E-08  0.419E-04    1.90      35.6  T
   4    -79.9164752 -0.652012E-08  0.136E-04    1.90     109.9  T
     SCC iter.                  ...        0 min,  0.018 sec
     gradient                   ...        0 min,  0.005 sec
 * total energy  :   -78.6805568 Eh     change       -0.2204535E-06 Eh
   gradient norm :     0.0001433 Eh/α   predicted    -0.8113965E-07 ( -63.19%)
   displ. norm   :     0.0232430 α      lambda       -0.3217422E-06
   maximum displ.:     0.0137332 α      in ANC's #7, #3, #5, ...

........................................................................
.............................. CYCLE   10 ..............................
........................................................................

 iter      E             dE          RMSdq      gap      omega  full diag
   1    -79.9164744 -0.799165E+02  0.839E-03    1.90       0.0  T
   2    -79.9164745 -0.228071E-07  0.487E-03    1.90       3.1  T
   3    -79.9164745  0.105731E-07  0.728E-04    1.90      20.5  T
   4    -79.9164745 -0.194096E-07  0.239E-04    1.90      62.4  T
     SCC iter.                  ...        0 min,  0.018 sec
     gradient                   ...        0 min,  0.005 sec
 * total energy  :   -78.6805572 Eh     change       -0.4424903E-06 Eh
   gradient norm :     0.0001578 Eh/α   predicted    -0.1658816E-06 ( -62.51%)
   displ. norm   :     0.0412175 α      lambda       -0.5445783E-06
   maximum displ.:     0.0235530 α      in ANC's #7, #3, #5, ...

........................................................................
.............................. CYCLE   11 ..............................
........................................................................

 iter      E             dE          RMSdq      gap      omega  full diag
   1    -79.9164644 -0.799165E+02  0.146E-02    1.90       0.0  T
   2    -79.9164644 -0.657387E-07  0.846E-03    1.90       1.8  T
   3    -79.9164644  0.319124E-07  0.123E-03    1.90      12.1  T
   4    -79.9164645 -0.579801E-07  0.394E-04    1.90      37.8  T
   5    -79.9164645 -0.649905E-09  0.142E-04    1.90     104.9  T
     SCC iter.                  ...        0 min,  0.022 sec
     gradient                   ...        0 min,  0.005 sec
 * total energy  :   -78.6805579 Eh     change       -0.6898773E-06 Eh
   gradient norm :     0.0001611 Eh/α   predicted    -0.2729393E-06 ( -60.44%)
   displ. norm   :     0.0594373 α      lambda       -0.6279492E-06
   maximum displ.:     0.0339947 α      in ANC's #7, #3, #5, ...

........................................................................
.............................. CYCLE   12 ..............................
........................................................................

 iter      E             dE          RMSdq      gap      omega  full diag
   1    -79.9164473 -0.799164E+02  0.212E-02    1.90       0.0  T
   2    -79.9164474 -0.136423E-06  0.123E-02    1.90       1.2  T
   3    -79.9164474  0.425169E-07  0.158E-03    1.90       9.4  T
   4    -79.9164475 -0.949610E-07  0.549E-04    1.90      27.2  T
   5    -79.9164475 -0.132403E-08  0.182E-04    1.90      82.1  T
     SCC iter.                  ...        0 min,  0.022 sec
     gradient                   ...        0 min,  0.005 sec
 * total energy  :   -78.6805587 Eh     change       -0.7449921E-06 Eh
   gradient norm :     0.0001853 Eh/α   predicted    -0.3188841E-06 ( -57.20%)
   displ. norm   :     0.0563006 α      lambda       -0.4675052E-06
   maximum displ.:     0.0318681 α      in ANC's #7, #3, #5, ...

........................................................................
.............................. CYCLE   13 ..............................
........................................................................

 iter      E             dE          RMSdq      gap      omega  full diag
   1    -79.9164512 -0.799165E+02  0.203E-02    1.90       0.0  T
   2    -79.9164513 -0.123965E-06  0.118E-02    1.90       1.3  T
   3    -79.9164513  0.304553E-07  0.142E-03    1.90      10.5  T
   4    -79.9164513 -0.774191E-07  0.511E-04    1.90      29.2  T
   5    -79.9164514 -0.141782E-08  0.158E-04    1.90      94.3  T
     SCC iter.                  ...        0 min,  0.022 sec
     gradient                   ...        0 min,  0.005 sec
 * total energy  :   -78.6805592 Eh     change       -0.5558286E-06 Eh
   gradient norm :     0.0001810 Eh/α   predicted    -0.2381888E-06 ( -57.15%)
   displ. norm   :     0.0369105 α      lambda       -0.3224496E-06
   maximum displ.:     0.0200919 α      in ANC's #7, #3, #5, ...

........................................................................
.............................. CYCLE   14 ..............................
........................................................................

 iter      E             dE          RMSdq      gap      omega  full diag
   1    -79.9164983 -0.799165E+02  0.134E-02    1.90       0.0  T
   2    -79.9164984 -0.530737E-07  0.776E-03    1.90       1.9  T
   3    -79.9164984  0.433201E-08  0.807E-04    1.90      18.5  T
   4    -79.9164984 -0.228808E-07  0.333E-04    1.90      44.8  T
     SCC iter.                  ...        0 min,  0.018 sec
     gradient                   ...        0 min,  0.005 sec
 * total energy  :   -78.6805596 Eh     change       -0.3899207E-06 Eh
   gradient norm :     0.0001074 Eh/α   predicted    -0.1647437E-06 ( -57.75%)
   displ. norm   :     0.0260080 α      lambda       -0.2247539E-06
   maximum displ.:     0.0141320 α      in ANC's #5, #7, #3, ...

........................................................................
.............................. CYCLE   15 ..............................
........................................................................

 iter      E             dE          RMSdq      gap      omega  full diag
   1    -79.9165082 -0.799165E+02  0.937E-03    1.90       0.0  T
   2    -79.9165083 -0.271397E-07  0.544E-03    1.90       2.7  T
   3    -79.9165082  0.386436E-08  0.601E-04    1.90      24.8  T
   4    -79.9165083 -0.127546E-07  0.247E-04    1.90      60.4  T
     SCC iter.                  ...        0 min,  0.018 sec
     gradient                   ...        0 min,  0.005 sec
 * total energy  :   -78.6805599 Eh     change       -0.2704192E-06 Eh
   gradient norm :     0.0000523 Eh/α   predicted    -0.1155757E-06 ( -57.26%)
   displ. norm   :     0.0188794 α      lambda       -0.1209953E-06
   maximum displ.:     0.0107415 α      in ANC's #5, #3, #7, ...

........................................................................
.............................. CYCLE   16 ..............................
........................................................................

 iter      E             dE          RMSdq      gap      omega  full diag
   1    -79.9165100 -0.799165E+02  0.675E-03    1.90       0.0  T
   2    -79.9165100 -0.137687E-07  0.392E-03    1.90       3.8  T
   3    -79.9165100  0.156821E-08  0.418E-04    1.90      35.6  T
   4    -79.9165100 -0.597771E-08  0.177E-04    1.90      84.1  T
     SCC iter.                  ...        0 min,  0.018 sec
     gradient                   ...        0 min,  0.005 sec
 * total energy  :   -78.6805600 Eh     change       -0.1395852E-06 Eh
   gradient norm :     0.0000468 Eh/α   predicted    -0.6194984E-07 ( -55.62%)
   displ. norm   :     0.0108590 α      lambda       -0.5652370E-07
   maximum displ.:     0.0063383 α      in ANC's #5, #3, #1, ...

........................................................................
.............................. CYCLE   17 ..............................
........................................................................

 iter      E             dE          RMSdq      gap      omega  full diag
   1    -79.9165201 -0.799165E+02  0.381E-03    1.90       0.0  T
   2    -79.9165201 -0.428571E-08  0.222E-03    1.90       6.7  T
   3    -79.9165201  0.155995E-08  0.275E-04    1.90      54.3  T
   4    -79.9165201 -0.311360E-08  0.101E-04    1.90     147.9  T
     SCC iter.                  ...        0 min,  0.018 sec
     gradient                   ...        0 min,  0.005 sec
 * total energy  :   -78.6805601 Eh     change       -0.7911882E-07 Eh
   gradient norm :     0.0000438 Eh/α   predicted    -0.2993411E-07 ( -62.17%)
   displ. norm   :     0.0120904 α      lambda       -0.7433928E-07
   maximum displ.:     0.0069822 α      in ANC's #5, #3, #1, ...

   *** GEOMETRY OPTIMIZATION CONVERGED AFTER 17 ITERATIONS ***

------------------------------------------------------------------------
 total energy gain   :        -0.0000076 Eh       -0.0048 kcal/mol
 total RMSD          :         0.0552878 a0        0.0293 Å
 total power (kW/mol):        -0.0011752 (step)   -0.0422 (real)
------------------------------------------------------------------------

 ANCopt (total)                0 d,  0 h,  0 min,  0.474 sec
 optimizer setup                ...        0 min,  0.000 sec (  0.034%)
 model hessian                  ...        0 min,  0.019 sec (  3.987%)
 ANC generation                 ...        0 min,  0.002 sec (  0.431%)
 coordinate transformation      ...        0 min,  0.002 sec (  0.369%)
 single point calculation       ...        0 min,  0.444 sec ( 93.671%)
 optimization log               ...        0 min,  0.003 sec (  0.572%)
 hessian update                 ...        0 min,  0.002 sec (  0.382%)
 rational function              ...        0 min,  0.001 sec (  0.260%)

================
 final structure:
================
45
 xtb: 6.7.1 (edcfbbe)
O            2.86484509934984        1.67881222384958       -2.12394389904730
S            3.10650640998904        1.51478900002733       -0.71622102951754
O            4.16448818013451        2.27013308107754       -0.10532263490649
C            3.34601605491799       -0.23876003975179       -0.38912961325356
C            3.13618218198520       -1.17209752506413       -1.38782785581801
C            3.24248168511116       -2.51510609156183       -1.06103765425849
C            3.54615808730978       -2.84383492075310        0.25324086809151
N            3.74637222022140       -1.94779094840034        1.20611984379282
C            3.64974096927640       -0.66900307736353        0.89154116969683
C            1.58378090430876        1.78606848829058        0.19782846803762
C            1.52940890015530        2.67061143136637        1.25594830242930
C            0.35598058787479        2.76116429485185        1.99011931008068
C           -0.72282305158237        1.94966466288987        1.68598680914573
C           -0.65619300769951        1.05517122400111        0.61753018514489
N           -1.72656969319471        0.19380730597352        0.32493238739716
C           -2.98230062171052        0.69730523170193       -0.03704961379310
C           -3.23807356329131        2.05884396199313       -0.13210038288301
C           -4.49607305224558        2.52172440611779       -0.48748395129204
C           -5.51442150377737        1.63256153026925       -0.76500560987223
C           -5.26458093961877        0.26971013271618       -0.71081430904041
C           -4.01099176457913       -0.19666477209672       -0.35995798095581
O           -3.83117006622259       -1.55739238989279       -0.36593190809397
C           -2.58772762178594       -2.03488584276668       -0.04245228029045
C           -2.42078555601581       -3.40764940554521       -0.06413799748111
C           -1.20485268364048       -3.97214750453382        0.29079669534458
C           -0.16716235188535       -3.15406461659002        0.68846587734566
C           -0.32817765722153       -1.77690196567587        0.70727936168348
C           -1.52683153795199       -1.19240824315519        0.31665890722364
C            0.50903946527925        0.99344498238975       -0.14249047770805
H            2.90319714167023       -0.83212570004262       -2.38581974760220
H            3.08954178840655       -3.28369287594618       -1.80184355817253
H            3.63755631520155       -3.87619673348881        0.56409204047204
H            3.82390787864775        0.04499436266922        1.68473450856406
H            2.39896613195230        3.26467965901597        1.48639939874657
H            0.29036052945638        3.44929251834854        2.81888217470440
H           -1.62147436054228        1.99169231170185        2.28320872801076
H           -2.44647983969350        2.76566240108569        0.06032367210353
H           -4.66757763481369        3.58518634462029       -0.54843566349356
H           -6.49596557824125        1.98742630909384       -1.03606133458886
H           -6.03013685133084       -0.45242345126145       -0.94502698678560
H           -3.26038785642550       -4.01795202338874       -0.35572936443615
H           -1.08392986722625       -5.04345399328016        0.26831351687326
H            0.77855056115866       -3.57318450553669        0.99567525574083
H            0.48906558873880       -1.15772849756007        1.04383748118375
H            0.57966361965070        0.32877973060462       -0.98986991952255
 
 Bond Distances (Angstroems)
 ---------------------------
O1-S2=1.4377         S2-O1=1.4377         S2-O3=1.4363         S2-C4=1.7998         S2-C10=1.7966        O3-S2=1.4363         
C4-S2=1.7998         C4-C5=1.3829         C4-C9=1.3847         C5-C4=1.3829         C5-C6=1.3863         C5-H30=1.0797        
C6-C5=1.3863         C6-C7=1.3884         C6-H31=1.0784        C7-C6=1.3884         C7-N8=1.3232         C7-H32=1.0820        
N8-C7=1.3232         N8-C9=1.3205         C9-C4=1.3847         C9-N8=1.3205         C9-H33=1.0813        C10-S2=1.7966        
C10-C11=1.3802       C10-C29=1.3781       C11-C10=1.3802       C11-C12=1.3871       C11-H34=1.0780       C12-C11=1.3871       
C12-C13=1.3838       C12-H35=1.0792       C13-C12=1.3838       C13-C14=1.3950       C13-H36=1.0798       C14-C13=1.3950       
C14-N15=1.4047       C14-C29=1.3926       N15-C14=1.4047       N15-C16=1.4005       N15-C28=1.4006       C16-N15=1.4005       
C16-C17=1.3886       C16-C21=1.4006       C17-C16=1.3886       C17-C18=1.3868       C17-H37=1.0785       C18-C17=1.3868       
C18-C19=1.3801       C18-H38=1.0789       C19-C18=1.3801       C19-C20=1.3866       C19-H39=1.0783       C20-C19=1.3866       
C20-C21=1.3828       C20-H40=1.0782       C21-C16=1.4006       C21-C20=1.3828       C21-O22=1.3726       O22-C21=1.3726       
O22-C23=1.3707       C23-O22=1.3707       C23-C24=1.3830       C23-C28=1.4015       C24-C23=1.3830       C24-C25=1.3868       
C24-H41=1.0782       C25-C24=1.3868       C25-C26=1.3799       C25-H42=1.0783       C26-C25=1.3799       C26-C27=1.3867       
C26-H43=1.0791       C27-C26=1.3867       C27-C28=1.3896       C27-H44=1.0791       C28-N15=1.4006       C28-C23=1.4015       
C28-C27=1.3896       C29-C10=1.3781       C29-C14=1.3926       C29-H45=1.0793       H30-C5=1.0797        H31-C6=1.0784        
H32-C7=1.0820        H33-C9=1.0813        H34-C11=1.0780       H35-C12=1.0792       H36-C13=1.0798       H37-C17=1.0785       
H38-C18=1.0789       H39-C19=1.0783       H40-C20=1.0782       H41-C24=1.0782       H42-C25=1.0783       H43-C26=1.0791       
H44-C27=1.0791       H45-C29=1.0793       
 C  H  Rav=1.0792 sigma=0.0011  Rmin=1.0780  Rmax=1.0820    16
 C  C  Rav=1.3869 sigma=0.0060  Rmin=1.3781  Rmax=1.4015    22
 N  C  Rav=1.3699 sigma=0.0393  Rmin=1.3205  Rmax=1.4047     5
 O  C  Rav=1.3716 sigma=0.0009  Rmin=1.3707  Rmax=1.3726     2
 S  C  Rav=1.7982 sigma=0.0016  Rmin=1.7966  Rmax=1.7998     2
 S  O  Rav=1.4370 sigma=0.0007  Rmin=1.4363  Rmax=1.4377     2
 
 selected bond angles (degree)
 --------------------
O3-S2-O1=118.70                C4-S2-O1=108.15                C4-S2-O3=109.70                C10-S2-O1=109.78               
C10-S2-O3=109.18               C10-S2-C4= 99.64               C5-C4-S2=120.41                C9-C4-S2=120.00                
C9-C4-C5=119.44                C6-C5-C4=118.16                H30-C5-C4=119.19               H30-C5-C6=122.65               
C7-C6-C5=117.99                H31-C6-C5=121.18               H31-C6-C7=120.83               N8-C7-C6=123.67                
H32-C7-C6=121.09               H32-C7-N8=115.24               C9-N8-C7=118.24                N8-C9-C4=122.50                
H33-C9-C4=120.57               H33-C9-N8=116.93               C11-C10-S2=121.35              C29-C10-S2=116.65              
C29-C10-C11=121.82             
 
 selected dihedral angles (degree)
 ---------------------------------
C5-C4-S2-O1=352.88            C5-C4-S2-O3=222.02            C5-C4-S2-C10=107.52           C9-C4-S2-O1=177.47            
C9-C4-S2-O3= 46.62            C9-C4-S2-C10=292.12           C6-C5-C4-S2=184.45            C6-C5-C4-C9=359.88            
H30-C5-C4-S2=  4.80           H30-C5-C4-C9=180.23           C7-C6-C5-C4=  0.36            C7-C6-C5-H30=180.01           
H31-C6-C5-C4=180.06           H31-C6-C5-H30=359.71          N8-C7-C6-C5=359.61            N8-C7-C6-H31=179.91           
H32-C7-C6-C5=179.77           H32-C7-C6-H31=  0.08          C9-N8-C7-C6=  0.14            C9-N8-C7-H32=179.98           
N8-C9-C4-S2=175.30            N8-C9-C4-C5=359.85            H33-C9-C4-S2=355.03           H33-C9-C4-C5=179.58           
C4-C9-N8-C7=  0.14            H33-C9-N8-C7=180.40           C11-C10-S2-O1=231.99          C11-C10-S2-O3=  3.71          
C11-C10-S2-C4=118.61          C29-C10-S2-O1= 56.92          C29-C10-S2-O3=188.64          C29-C10-S2-C4=303.54          
           -------------------------------------------------
          |                Final Singlepoint                |
           -------------------------------------------------

          ...................................................
          :                      SETUP                      :
          :.................................................:
          :  # basis functions                 138          :
          :  # atomic orbitals                 137          :
          :  # shells                           75          :
          :  # electrons                       142          :
          :  max. iterations                   250          :
          :  Hamiltonian                  GFN2-xTB          :
          :  restarted?                      false          :
          :  GBSA solvation                  false          :
          :  PC potential                    false          :
          :  electronic temp.          300.0000000     K    :
          :  accuracy                    1.0000000          :
          :  -> integral cutoff          0.2500000E+02      :
          :  -> integral neglect         0.1000000E-07      :
          :  -> SCF convergence          0.1000000E-05 Eh   :
          :  -> wf. convergence          0.1000000E-03 e    :
          :  Broyden damping             0.4000000          :
          :  net charge                          0          :
          :  unpaired electrons                  0          :
          ...................................................

 iter      E             dE          RMSdq      gap      omega  full diag
   1    -79.9165201 -0.799165E+02  0.334E-05    1.90       0.0  T
   2    -79.9165201 -0.115534E-10  0.229E-05    1.90     650.6  T
   3    -79.9165201 -0.221405E-10  0.989E-06    1.90    1507.1  T

   *** convergence criteria satisfied after 3 iterations ***

         #    Occupation            Energy/Eh            Energy/eV
      -------------------------------------------------------------
         1        2.0000           -0.7796224             -21.2146
       ...           ...                  ...                  ...
        65        2.0000           -0.4325600             -11.7706
        66        2.0000           -0.4241611             -11.5420
        67        2.0000           -0.4211274             -11.4595
        68        2.0000           -0.4195508             -11.4166
        69        2.0000           -0.3986594             -10.8481
        70        2.0000           -0.3927966             -10.6885
        71        2.0000           -0.3530955              -9.6082 (HOMO)
        72                         -0.2833876              -7.7114 (LUMO)
        73                         -0.2735120              -7.4426
        74                         -0.2655891              -7.2270
        75                         -0.2612344              -7.1085
        76                         -0.2467392              -6.7141
       ...                                ...                  ...
       137                          1.2093433              32.9079
      -------------------------------------------------------------
                  HL-Gap            0.0697079 Eh            1.8968 eV
             Fermi-level           -0.3182416 Eh           -8.6598 eV

 SCC (total)                   0 d,  0 h,  0 min,  0.021 sec
 SCC setup                      ...        0 min,  0.000 sec (  0.496%)
 Dispersion                     ...        0 min,  0.000 sec (  1.514%)
 classical contributions        ...        0 min,  0.000 sec (  0.137%)
 integral evaluation            ...        0 min,  0.002 sec (  9.053%)
 iterations                     ...        0 min,  0.013 sec ( 63.486%)
 molecular gradient             ...        0 min,  0.005 sec ( 23.912%)
 printout                       ...        0 min,  0.000 sec (  1.110%)

         :::::::::::::::::::::::::::::::::::::::::::::::::::::
         ::                     SUMMARY                     ::
         :::::::::::::::::::::::::::::::::::::::::::::::::::::
         :: total energy             -78.680560111926 Eh    ::
         :: gradient norm              0.000044032393 Eh/a0 ::
         :: HOMO-LUMO gap              1.896848172512 eV    ::
         ::.................................................::
         :: SCC energy               -79.915301436201 Eh    ::
         :: -> isotropic ES            0.083870000187 Eh    ::
         :: -> anisotropic ES         -0.003081551790 Eh    ::
         :: -> anisotropic XC          0.036596066955 Eh    ::
         :: -> dispersion             -0.064031029558 Eh    ::
         :: repulsion energy           1.234741324275 Eh    ::
         :: add. restraining           0.000000000000 Eh    ::
         :: total charge              -0.000000000000 e     ::
         :::::::::::::::::::::::::::::::::::::::::::::::::::::

           ------------------------------------------------- 
          |                Numerical Hessian                |
           ------------------------------------------------- 
step length          :   0.00500
SCC accuracy         :   0.30000
Hessian scale factor :   1.00000
frozen atoms in %    :   0.00000    0
RMS gradient         :   0.00004
estimated CPU  time      2.58 min
estimated wall time      0.06 min

writing file <hessian>.

 projected vibrational frequencies (cm⁻¹)
eigval :       -0.00    -0.00    -0.00    -0.00     0.00     0.00
eigval :       10.34    23.02    26.19    33.28    44.76    52.72
eigval :       68.24   101.37   114.86   122.79   137.68   185.37
eigval :      201.80   229.73   246.42   255.31   261.52   275.57
eigval :      286.40   292.53   322.66   342.63   357.53   386.49
eigval :      396.84   412.16   427.88   433.35   441.83   451.13
eigval :      495.25   510.35   516.36   525.53   529.51   568.49
eigval :      572.85   594.99   601.56   632.06   659.73   661.83
eigval :      668.30   671.02   686.11   705.66   731.98   779.31
eigval :      780.40   783.66   799.59   809.15   856.15   865.98
eigval :      867.51   891.12   897.94   901.41   902.63   907.61
eigval :      916.08   917.95   918.62   924.36   932.76   934.21
eigval :      935.60   993.04   995.68  1080.68  1090.40  1091.93
eigval :     1095.46  1106.42  1109.05  1110.85  1119.57  1128.67
eigval :     1139.21  1171.23  1172.93  1175.04  1183.91  1188.60
eigval :     1202.83  1221.20  1237.90  1238.97  1245.25  1252.17
eigval :     1262.79  1278.82  1305.74  1309.71  1315.05  1337.56
eigval :     1353.04  1389.85  1413.83  1425.66  1427.58  1440.72
eigval :     1456.06  1487.65  1503.86  1554.13  1555.12  1568.36
eigval :     1574.27  1580.50  1588.83  1592.90  1602.86  3064.59
eigval :     3072.65  3089.04  3089.47  3089.71  3092.25  3097.10
eigval :     3098.56  3099.60  3101.29  3102.95  3105.14  3108.11
eigval :     3114.23  3114.82  3115.35
           -------------------------------------------------
          |                Property Printout                |
           -------------------------------------------------

    * Orbital Energies and Occupations

         #    Occupation            Energy/Eh            Energy/eV
      -------------------------------------------------------------
         1        2.0000           -0.7796223             -21.2146
       ...           ...                  ...                  ...
        59        2.0000           -0.4473303             -12.1725
        60        2.0000           -0.4444276             -12.0935
        61        2.0000           -0.4436045             -12.0711
        62        2.0000           -0.4420592             -12.0290
        63        2.0000           -0.4399095             -11.9705
        64        2.0000           -0.4346862             -11.8284
        65        2.0000           -0.4325600             -11.7706
        66        2.0000           -0.4241611             -11.5420
        67        2.0000           -0.4211275             -11.4595
        68        2.0000           -0.4195508             -11.4166
        69        2.0000           -0.3986594             -10.8481
        70        2.0000           -0.3927966             -10.6885
        71        2.0000           -0.3530956              -9.6082 (HOMO)
        72                         -0.2833876              -7.7114 (LUMO)
        73                         -0.2735121              -7.4426
        74                         -0.2655891              -7.2270
        75                         -0.2612344              -7.1086
        76                         -0.2467393              -6.7141
        77                         -0.2381277              -6.4798
        78                         -0.2226547              -6.0587
        79                         -0.2043738              -5.5613
        80                         -0.1580437              -4.3006
        81                         -0.1412586              -3.8438
        82                         -0.1272839              -3.4636
       ...                                ...                  ...
       137                          1.2093434              32.9079
      -------------------------------------------------------------
                  HL-Gap            0.0697080 Eh            1.8969 eV
             Fermi-level           -0.3182416 Eh           -8.6598 eV

     #   Z          covCN         q      C6AA      α(0)
     1   8 O        0.860    -0.535    24.576     6.647
     2  16 S        3.812     0.955   107.962    17.488
     3   8 O        0.860    -0.532    24.504     6.637
     4   6 C        2.964    -0.087    30.169     9.009
     5   6 C        2.959    -0.006    28.173     8.706
     6   6 C        2.916    -0.031    28.784     8.798
     7   6 C        2.913     0.064    26.575     8.453
     8   7 N        1.837    -0.197    26.105     7.572
     9   6 C        2.944     0.062    26.616     8.461
    10   6 C        2.971    -0.075    29.875     8.965
    11   6 C        2.947    -0.029    28.724     8.790
    12   6 C        2.922    -0.023    28.576     8.766
    13   6 C        2.921    -0.038    28.949     8.823
    14   6 C        2.922     0.075    26.332     8.415
    15   7 N        2.751    -0.069    22.575     7.057
    16   6 C        2.921     0.042    27.064     8.531
    17   6 C        2.924    -0.059    29.476     8.903
    18   6 C        2.919    -0.037    28.932     8.821
    19   6 C        2.919    -0.038    28.957     8.824
    20   6 C        2.920    -0.055    29.363     8.886
    21   6 C        2.884     0.126    25.243     8.237
    22   8 O        1.709    -0.250    18.149     5.752
    23   6 C        2.884     0.127    25.217     8.233
    24   6 C        2.920    -0.056    29.380     8.889
    25   6 C        2.919    -0.039    28.966     8.826
    26   6 C        2.919    -0.039    28.981     8.828
    27   6 C        2.924    -0.060    29.498     8.907
    28   6 C        2.922     0.041    27.074     8.533
    29   6 C        2.977    -0.043    29.063     8.843
    30   1 H        0.926     0.069     2.101     2.267
    31   1 H        0.926     0.058     2.228     2.334
    32   1 H        0.925     0.059     2.213     2.326
    33   1 H        0.925     0.057     2.233     2.337
    34   1 H        0.926     0.070     2.090     2.261
    35   1 H        0.926     0.058     2.217     2.328
    36   1 H        0.926     0.059     2.207     2.323
    37   1 H        0.926     0.036     2.498     2.471
    38   1 H        0.926     0.040     2.448     2.447
    39   1 H        0.926     0.042     2.420     2.432
    40   1 H        0.926     0.054     2.270     2.356
    41   1 H        0.926     0.055     2.254     2.348
    42   1 H        0.926     0.042     2.418     2.432
    43   1 H        0.926     0.036     2.507     2.476
    44   1 H        0.926     0.024     2.675     2.558
    45   1 H        0.926     0.051     2.305     2.374

 Mol. C6AA /au·bohr⁶  :      32655.167255
 Mol. C8AA /au·bohr⁸  :     852522.542008
 Mol. α(0) /au        :        289.670160


MOs/occ written to file <molden.input>


molecular dipole:
                 x           y           z       tot (Debye)
 q only:       -1.333      -1.029       0.961
   full:       -1.267      -0.864       0.627       4.210
molecular quadrupole (traceless):
                xx          xy          yy          xz          yz          zz
 q only:      -12.607     -22.910      10.799       4.502      12.697       1.808
  q+dip:      -13.518     -20.360      13.709       2.516      17.881      -0.191
   full:      -13.374     -21.783      11.576       0.390      15.862       1.799

           -------------------------------------------------
          |                Geometry Summary                 |
           -------------------------------------------------

      molecular mass/u    :      400.4503863
   center of mass at/Å    :        0.0014338       0.0000790      -0.0001198
  moments of inertia/u·Å² :        0.1962418E+04   0.4027913E+04   0.5325305E+04
rotational constants/cm⁻¹ :        0.8590237E-02   0.4185203E-02   0.3165571E-02

 * 49 selected distances

     #   Z          #   Z                                           value/Å
     1   8 O        2  16 S                                       1.4377023
     2  16 S        3   8 O                                       1.4363382
     2  16 S        4   6 C                                       1.7998024 (max)
     4   6 C        5   6 C                                       1.3829489
     5   6 C        6   6 C                                       1.3862770
     6   6 C        7   6 C                                       1.3883841
     7   6 C        8   7 N                                       1.3232381
     4   6 C        9   6 C                                       1.3847295
     8   7 N        9   6 C                                       1.3204530
     2  16 S       10   6 C                                       1.7966003
    10   6 C       11   6 C                                       1.3802139
    11   6 C       12   6 C                                       1.3871342
    12   6 C       13   6 C                                       1.3837796
    13   6 C       14   6 C                                       1.3950477
    14   6 C       15   7 N                                       1.4047305
    15   7 N       16   6 C                                       1.4005005
    16   6 C       17   6 C                                       1.3886117
    17   6 C       18   6 C                                       1.3867656
    18   6 C       19   6 C                                       1.3800952
    19   6 C       20   6 C                                       1.3866223
    16   6 C       21   6 C                                       1.4005920
    20   6 C       21   6 C                                       1.3827841
    21   6 C       22   8 O                                       1.3725711
    22   8 O       23   6 C                                       1.3706891
    23   6 C       24   6 C                                       1.3830474
    24   6 C       25   6 C                                       1.3867696
    25   6 C       26   6 C                                       1.3799282
    26   6 C       27   6 C                                       1.3866713
    15   7 N       28   6 C                                       1.4005562
    23   6 C       28   6 C                                       1.4015100
    27   6 C       28   6 C                                       1.3896002
    10   6 C       29   6 C                                       1.3780923
    14   6 C       29   6 C                                       1.3925547
     5   6 C       30   1 H                                       1.0797458
     6   6 C       31   1 H                                       1.0783830
     7   6 C       32   1 H                                       1.0820135
     9   6 C       33   1 H                                       1.0813336
    11   6 C       34   1 H                                       1.0780328 (min)
    12   6 C       35   1 H                                       1.0792009
    13   6 C       36   1 H                                       1.0798216
    17   6 C       37   1 H                                       1.0785361
    18   6 C       38   1 H                                       1.0789256
    19   6 C       39   1 H                                       1.0783456
    20   6 C       40   1 H                                       1.0781505
    24   6 C       41   1 H                                       1.0781591
    25   6 C       42   1 H                                       1.0783439
    26   6 C       43   1 H                                       1.0790793
    27   6 C       44   1 H                                       1.0791357
    29   6 C       45   1 H                                       1.0792682

 * 6 distinct bonds (by element types)

   Z      Z             #   av. dist./Å        max./Å        min./Å
   1 H    6 C          16     1.0791547     1.0820135     1.0780328
   6 C    6 C          22     1.3869163     1.4015100     1.3780923
   6 C    7 N           5     1.3698957     1.4047305     1.3204530
   6 C    8 O           2     1.3716301     1.3725711     1.3706891
   6 C   16 S           2     1.7982013     1.7998024     1.7966003
   8 O   16 S           2     1.4370202     1.4377023     1.4363382

           -------------------------------------------------
          |               Frequency Printout                |
           -------------------------------------------------
 projected vibrational frequencies (cm⁻¹)
eigval :       -0.00    -0.00    -0.00    -0.00     0.00     0.00
eigval :       10.34    23.02    26.19    33.28    44.76    52.72
eigval :       68.24   101.37   114.86   122.79   137.68   185.37
eigval :      201.80   229.73   246.42   255.31   261.52   275.57
eigval :      286.40   292.53   322.66   342.63   357.53   386.49
eigval :      396.84   412.16   427.88   433.35   441.83   451.13
eigval :      495.25   510.35   516.36   525.53   529.51   568.49
eigval :      572.85   594.99   601.56   632.06   659.73   661.83
eigval :      668.30   671.02   686.11   705.66   731.98   779.31
eigval :      780.40   783.66   799.59   809.15   856.15   865.98
eigval :      867.51   891.12   897.94   901.41   902.63   907.61
eigval :      916.08   917.95   918.62   924.36   932.76   934.21
eigval :      935.60   993.04   995.68  1080.68  1090.40  1091.93
eigval :     1095.46  1106.42  1109.05  1110.85  1119.57  1128.67
eigval :     1139.21  1171.23  1172.93  1175.04  1183.91  1188.60
eigval :     1202.83  1221.20  1237.90  1238.97  1245.25  1252.17
eigval :     1262.79  1278.82  1305.74  1309.71  1315.05  1337.56
eigval :     1353.04  1389.85  1413.83  1425.66  1427.58  1440.72
eigval :     1456.06  1487.65  1503.86  1554.13  1555.12  1568.36
eigval :     1574.27  1580.50  1588.83  1592.90  1602.86  3064.59
eigval :     3072.65  3089.04  3089.47  3089.71  3092.25  3097.10
eigval :     3098.56  3099.60  3101.29  3102.95  3105.14  3108.11
eigval :     3114.23  3114.82  3115.35
 reduced masses (amu)
   1: 14.86   2: 12.18   3: 11.44   4: 13.73   5: 15.38   6: 13.77   7: 12.22   8: 10.91
   9: 12.28  10: 12.73  11: 12.32  12: 12.38  13: 10.96  14: 12.92  15: 10.73  16: 12.48
  17: 12.19  18: 13.16  19: 11.67  20: 10.33  21: 11.03  22: 10.62  23: 12.66  24: 13.29
  25: 13.61  26: 13.38  27: 12.66  28: 13.46  29: 11.62  30: 11.73  31: 11.32  32: 10.65
  33: 11.31  34: 11.08  35: 11.39  36: 11.79  37: 17.60  38: 10.23  39: 14.64  40: 11.68
  41: 19.15  42: 12.35  43: 12.26  44: 11.94  45: 12.02  46: 11.82  47: 11.74  48: 11.73
  49: 11.77  50: 10.65  51: 10.04  52: 13.35  53: 13.46  54:  3.35  55:  3.23  56:  4.51
  57:  3.78  58: 12.42  59: 12.43  60:  3.34  61:  3.31  62:  3.61  63:  3.95  64:  3.32
  65:  3.86  66:  4.32  67:  4.51  68:  4.18  69:  8.08  70:  4.33  71:  3.47  72:  5.10
  73: 10.62  74: 11.43  75: 10.95  76:  6.13  77:  5.58  78:  5.84  79: 11.25  80:  4.59
  81:  8.58  82:  8.98  83:  4.08  84:  8.62  85: 13.07  86:  1.72  87:  4.09  88:  2.05
  89:  3.35  90:  4.62  91:  6.92  92:  8.34  93:  5.11  94:  4.80  95:  5.43  96: 19.88
  97:  4.77  98: 12.15  99: 11.04 100: 11.63 101: 11.57 102: 10.21 103: 10.99 104:  9.62
 105:  9.57 106:  9.55 107:  9.27 108:  9.44 109:  9.82 110: 10.71 111: 10.52 112: 11.89
 113: 11.58 114: 11.49 115: 11.73 116: 11.58 117: 11.61 118: 11.67 119: 11.73 120:  1.80
 121:  1.81 122:  1.77 123:  1.81 124:  1.78 125:  1.77 126:  1.82 127:  1.83 128:  1.87
 129:  1.81 130:  1.89 131:  1.86 132:  1.87 133:  1.87 134:  1.89 135:  1.89
 IR intensities (km·mol⁻¹)
   1:  0.01   2:  0.08   3:  0.05   4:  0.25   5:  0.08   6:  0.00   7:  0.69   8:  0.92
   9:  0.25  10:  2.70  11:  0.18  12:  0.65  13:  0.82  14:  2.43  15:  1.59  16:  0.86
  17:  3.29  18:  3.22  19:  0.25  20:  1.35  21:  1.76  22:  1.18  23:  4.33  24:  8.72
  25:  4.27  26:  1.78  27:  3.20  28:  4.00  29:  8.37  30:  5.42  31:  0.79  32:  1.24
  33:  2.64  34:  1.89  35:  9.73  36: 10.57  37: 56.71  38:  1.82  39: 58.07  40: 10.98
  41:187.00  42:  8.04  43:  6.88  44:  6.79  45:  8.67  46:  8.90  47:  4.32  48:  0.45
  49:  4.53  50: 11.64  51: 21.27  52: 47.09  53: 55.38  54: 70.58  55: 15.07  56:  1.44
  57:  1.70  58: 21.95  59: 11.65  60:  0.30  61:  1.42  62:  3.23  63:  1.56  64:  1.19
  65:  2.64  66:  3.31  67:  5.03  68:  2.88  69: 21.88  70:  0.10  71:  0.16  72:  0.49
  73:  4.25  74: 20.00  75:  0.26  76:  4.93  77:  1.74  78:  7.73  79:136.21  80: 11.09
  81: 20.84  82:134.44  83: 37.76  84: 28.90  85:150.66  86:  3.16  87:  3.81  88:  1.19
  89:  8.46  90:  3.50  91: 12.13  92: 45.08  93: 20.40  94: 32.13  95: 39.13  96:291.83
  97:  1.46  98:  2.81  99:115.08 100:229.49 101: 93.75 102:176.62 103: 14.00 104:  6.96
 105: 18.57 106:  6.67 107:  3.37 108: 20.63 109: 98.79 110:563.08 111: 33.41 112: 18.73
 113: 10.32 114:  7.54 115: 44.21 116: 11.13 117: 97.95 118:  6.72 119:  6.54 120: 10.52
 121:  6.64 122:  3.90 123:  2.50 124:  7.83 125:  5.33 126: 32.73 127:  3.36 128: 17.65
 129: 24.05 130: 12.96 131: 44.62 132: 37.07 133:  2.76 134: 19.44 135: 26.70
 Raman intensities (Ä⁴*amu⁻¹)
   1:  0.00   2:  0.00   3:  0.00   4:  0.00   5:  0.00   6:  0.00   7:  0.00   8:  0.00
   9:  0.00  10:  0.00  11:  0.00  12:  0.00  13:  0.00  14:  0.00  15:  0.00  16:  0.00
  17:  0.00  18:  0.00  19:  0.00  20:  0.00  21:  0.00  22:  0.00  23:  0.00  24:  0.00
  25:  0.00  26:  0.00  27:  0.00  28:  0.00  29:  0.00  30:  0.00  31:  0.00  32:  0.00
  33:  0.00  34:  0.00  35:  0.00  36:  0.00  37:  0.00  38:  0.00  39:  0.00  40:  0.00
  41:  0.00  42:  0.00  43:  0.00  44:  0.00  45:  0.00  46:  0.00  47:  0.00  48:  0.00
  49:  0.00  50:  0.00  51:  0.00  52:  0.00  53:  0.00  54:  0.00  55:  0.00  56:  0.00
  57:  0.00  58:  0.00  59:  0.00  60:  0.00  61:  0.00  62:  0.00  63:  0.00  64:  0.00
  65:  0.00  66:  0.00  67:  0.00  68:  0.00  69:  0.00  70:  0.00  71:  0.00  72:  0.00
  73:  0.00  74:  0.00  75:  0.00  76:  0.00  77:  0.00  78:  0.00  79:  0.00  80:  0.00
  81:  0.00  82:  0.00  83:  0.00  84:  0.00  85:  0.00  86:  0.00  87:  0.00  88:  0.00
  89:  0.00  90:  0.00  91:  0.00  92:  0.00  93:  0.00  94:  0.00  95:  0.00  96:  0.00
  97:  0.00  98:  0.00  99:  0.00 100:  0.00 101:  0.00 102:  0.00 103:  0.00 104:  0.00
 105:  0.00 106:  0.00 107:  0.00 108:  0.00 109:  0.00 110:  0.00 111:  0.00 112:  0.00
 113:  0.00 114:  0.00 115:  0.00 116:  0.00 117:  0.00 118:  0.00 119:  0.00 120:  0.00
 121:  0.00 122:  0.00 123:  0.00 124:  0.00 125:  0.00 126:  0.00 127:  0.00 128:  0.00
 129:  0.00 130:  0.00 131:  0.00 132:  0.00 133:  0.00 134:  0.00 135:  0.00
 output can be read by thermo (or use thermo option).
 writing <g98.out> molden fake output.
 recommended (thermochemical) frequency scaling factor: 1.0
           -------------------------------------------------
          |             Thermodynamic Functions             |
           -------------------------------------------------

Molecule has no symmetry elements
It seems to be the C1 point group
c1  symmetry found (for desy threshold:  0.10E+00) used in thermo

          ...................................................
          :                      SETUP                      :
          :.................................................:
          :  # frequencies                         129      :
          :  # imaginary freq.                       0      :
          :  linear?                             false      :
          :  only rotor calc.                    false      :
          :  symmetry                               c1      :
          :  rotational number                       1      :
          :  scaling factor                  1.0000000      :
          :  rotor cutoff                   50.0000000 cm⁻¹ :
          :  imag. cutoff                  -20.0000000 cm⁻¹ :
          :.................................................:

    mode    ω/cm⁻¹     T·S(HO)/kcal·mol⁻¹    T·S(FR)/kcal·mol⁻¹   T·S(vib)
   ------------------------------------------------------------------------
       1     10.34    -2.36885 (  0.18%)    -1.52338 ( 99.82%)    -1.52493
       2     23.02    -1.89474 (  4.30%)    -1.28628 ( 95.70%)    -1.31244
       3     26.19    -1.81844 (  7.00%)    -1.24809 ( 93.00%)    -1.28800
       4     33.28    -1.67661 ( 16.41%)    -1.17706 ( 83.59%)    -1.25906
       5     44.76    -1.50164 ( 39.10%)    -1.08933 ( 60.90%)    -1.25055
       6     52.72    -1.40509 ( 55.28%)    -1.04084 ( 44.72%)    -1.24218
       7     68.24    -1.25330 ( 77.62%)    -0.96441 ( 22.38%)    -1.18866
       8    101.37    -1.02200 ( 94.41%)    -0.84717 (  5.59%)    -1.01223
       9    114.86    -0.94963 ( 96.53%)    -0.81016 (  3.47%)    -0.94479
      10    122.79    -0.91116 ( 97.32%)    -0.79039 (  2.68%)    -0.90792
      11    137.68    -0.84550 ( 98.29%)    -0.75647 (  1.71%)    -0.84398
      12    185.37    -0.67789 ( 99.47%)    -0.66837 (  0.53%)    -0.67784
      13    201.80    -0.63108 ( 99.62%)    -0.64321 (  0.38%)    -0.63112
      14    229.73    -0.56083 ( 99.78%)    -0.60481 (  0.22%)    -0.56093
      15    246.42    -0.52357 ( 99.83%)    -0.58404 (  0.17%)    -0.52367
      16    255.31    -0.50495 ( 99.85%)    -0.57353 (  0.15%)    -0.50505
      17    261.52    -0.49243 ( 99.87%)    -0.56642 (  0.13%)    -0.49253
      18    275.57    -0.46541 ( 99.89%)    -0.55091 (  0.11%)    -0.46550
      19    286.40    -0.44577 ( 99.91%)    -0.53949 (  0.09%)    -0.44586
      20    292.53    -0.43508 ( 99.91%)    -0.53322 (  0.09%)    -0.43516
   ------------------------------------------------------------------------

   temp. (K)  partition function   enthalpy   heat capacity  entropy
                                   cal/mol     cal/K/mol   cal/K/mol   J/K/mol
 298.15  VIB  0.149E+11            13165.166     83.123     81.072
         ROT  0.157E+08              888.752      2.981     35.905
         INT  0.233E+18            14053.919     86.104    116.977
         TR   0.775E+28             1481.254      4.968     43.834
         TOT                       15535.1725    91.0722   160.8106   672.8315

       T/K    H(0)-H(T)+PV         H(T)/Eh          T*S/Eh         G(T)/Eh
   ------------------------------------------------------------------------
    298.15    0.247569E-01    0.352874E+00    0.764063E-01    0.276468E+00
   ------------------------------------------------------------------------

         :::::::::::::::::::::::::::::::::::::::::::::::::::::
         ::                  THERMODYNAMIC                  ::
         :::::::::::::::::::::::::::::::::::::::::::::::::::::
         :: total free energy         -78.404092539960 Eh   ::
         ::.................................................::
         :: total energy              -78.680560111924 Eh   ::
         :: zero point energy           0.328116996202 Eh   ::
         :: G(RRHO) w/o ZPVE           -0.051649424238 Eh   ::
         :: G(RRHO) contrib.            0.276467571964 Eh   ::
         :::::::::::::::::::::::::::::::::::::::::::::::::::::

optimized geometry written to: xtbopt.xyz


           -------------------------------------------------
          | TOTAL ENERGY              -78.680560111924 Eh   |
          | TOTAL ENTHALPY            -78.327686242565 Eh   |
          | TOTAL FREE ENERGY         -78.404092539960 Eh   |
          | GRADIENT NORM               0.000044073919 Eh/α |
          | HOMO-LUMO GAP               1.896851305498 eV   |
           -------------------------------------------------

------------------------------------------------------------------------
 * finished run on 2025/08/24 at 14:27:24.446     
------------------------------------------------------------------------
 total:
 * wall-time:     0 d,  0 h,  0 min,  1.589 sec
 *  cpu-time:     0 d,  0 h,  1 min,  1.066 sec
 * ratio c/w:    38.429 speedup
 SCF:
 * wall-time:     0 d,  0 h,  0 min,  0.080 sec
 *  cpu-time:     0 d,  0 h,  0 min,  3.177 sec
 * ratio c/w:    39.779 speedup
 ANC optimizer:
 * wall-time:     0 d,  0 h,  0 min,  0.496 sec
 *  cpu-time:     0 d,  0 h,  0 min, 19.840 sec
 * ratio c/w:    39.998 speedup
 analytical hessian:
 * wall-time:     0 d,  0 h,  0 min,  0.929 sec
 *  cpu-time:     0 d,  0 h,  0 min, 35.124 sec
 * ratio c/w:    37.820 speedup

