$hessian                                                                        
        0.2354533731  -0.2306753909   0.0621546218  -0.2234423067   0.2031684684
       -0.0484659888  -0.0028231648   0.0118501491  -0.0113885125   0.0064216135
       -0.0035705005  -0.0020257547  -0.0001771366  -0.0002374954  -0.0015241066
       -0.0000760944  -0.0000601610   0.0007968546  -0.0000909445  -0.0004602503
        0.0001547015  -0.0003750186   0.0005750850   0.0001384962   0.0000933103
       -0.0010448002   0.0005265750  -0.0072138169   0.0205060323  -0.0062119816
       -0.0010247802   0.0015420316  -0.0006754564   0.0005822153  -0.0003694723
       -0.0011479451  -0.0000267853   0.0008448401  -0.0006574364   0.0011254426
       -0.0015006076  -0.0007864287  -0.0031199620   0.0013770285  -0.0001420138
       -0.0001670838  -0.0013695136   0.0003633496   0.0001470667   0.0001187708
        0.0001998963  -0.0002730993  -0.0000222722  -0.0000786642   0.0002196117
        0.0000903161   0.0000582234  -0.0001524605  -0.0003031830  -0.0000466538
        0.0004637761   0.0004762503   0.0000778862  -0.0004779368   0.0002514690
       -0.0001224262  -0.0003702629  -0.0005468471  -0.0001022928   0.0002114510
        0.0002884699   0.0000739153   0.0000134860  -0.0002794986   0.0000216690
       -0.0001017165   0.0001927931  -0.0000093597  -0.0000839105  -0.0001590760
       -0.0000285060   0.0013045614   0.0007777176   0.0000363814  -0.0064868663
       -0.0005441370   0.0063341760   0.0002401007  -0.0001652099   0.0010207546
        0.0001051355   0.0001465567   0.0000977135   0.0001696108  -0.0000364522
       -0.0000070274   0.0001852046  -0.0006517665   0.0002725895  -0.0006356025
       -0.0000322109   0.0003396429  -0.0001401447  -0.0001224274   0.0002455101
       -0.0000669656   0.0001552306   0.0002505266  -0.0001292345  -0.0002618790
       -0.0001699072   0.0000185108   0.0000345965  -0.0000044610  -0.0000278485
        0.0000704898  -0.0000164714  -0.0000544254   0.0000410842  -0.0000123306
       -0.0000499827   0.0000139598  -0.0000185269  -0.0000538591  -0.0000192486
       -0.0000125417  -0.0000152529  -0.0000609254   0.0000043637   0.0001226959
        0.0001510698   0.0000063258   0.0007794966  -0.0001790837   0.0004806208
       -0.2306753909   0.3181565316  -0.0724768250   0.2053271007  -0.2987611288
        0.0567953057   0.0082476259   0.0010408265   0.0111872366   0.0192203652
       -0.0147046180   0.0045324745   0.0014469903  -0.0010375362   0.0016715056
       -0.0009315005   0.0003618774   0.0015268827   0.0002472803   0.0014876659
       -0.0003071081  -0.0014907574  -0.0055879916   0.0019358707  -0.0029481052
       -0.0020386825  -0.0051861624   0.0010929604  -0.0000288441   0.0042207569
        0.0003009899  -0.0003705858   0.0014828858  -0.0005063791   0.0001409361
       -0.0002570338  -0.0001749135  -0.0001825364   0.0001498352  -0.0012373011
        0.0000835636   0.0002497793   0.0014676787  -0.0002838009   0.0000026561
        0.0000722223   0.0002897807  -0.0000586639  -0.0000596360   0.0000550596
       -0.0002434762   0.0001341674   0.0000607144  -0.0000279695  -0.0000174481
        0.0000077869  -0.0000103276   0.0000922885   0.0001742260  -0.0000010402
       -0.0004116496  -0.0002556911  -0.0000454988   0.0004162965   0.0000539375
        0.0000817954   0.0001691309   0.0001057549   0.0000578538  -0.0000992712
       -0.0001277643  -0.0000268014  -0.0000260448   0.0001863217  -0.0000151344
        0.0000363846  -0.0000946641   0.0000198044   0.0000956468   0.0000829546
        0.0000505896  -0.0008711292  -0.0004603406  -0.0001064845   0.0015585024
        0.0009104441  -0.0020043614   0.0003250673  -0.0002749841  -0.0005359567
       -0.0001561630  -0.0001656437  -0.0001320989   0.0003358240  -0.0001543580
       -0.0004059356  -0.0000702929   0.0004493214  -0.0006554665  -0.0002836979
        0.0002622456  -0.0011071100   0.0001834186   0.0001126952  -0.0002374227
        0.0000203452   0.0000610638  -0.0000771128  -0.0000757196  -0.0000320622
        0.0002080724  -0.0000602472   0.0000849992   0.0000246665   0.0000085100
       -0.0000463211   0.0000073041   0.0000426101  -0.0000396451   0.0000100890
        0.0000267066  -0.0000097759   0.0000072441   0.0000360822   0.0000050473
        0.0000093142   0.0000482842   0.0000411848   0.0000055094  -0.0000182180
       -0.0000934485  -0.0000190382  -0.0008386137   0.0005354843  -0.0003004034
        0.0621546218  -0.0724768250   0.0739827241  -0.0480879005   0.0558701968
       -0.0767323977  -0.0269629449   0.0306050253  -0.0058834258   0.0021294711
       -0.0034133260   0.0036580368  -0.0006037648  -0.0002497744  -0.0008431790
        0.0005428284  -0.0000605372   0.0004126938  -0.0000385959  -0.0000883968
       -0.0000463801   0.0002403584  -0.0003856331   0.0004197349  -0.0004872617
       -0.0007569822  -0.0000464803   0.0054101864  -0.0069533594   0.0040464275
        0.0007348909   0.0002126907  -0.0007008387  -0.0000292818  -0.0004124853
        0.0007350282   0.0001090543  -0.0001863165   0.0000598676  -0.0000251084
       -0.0000236744   0.0001866897   0.0006192823  -0.0003186313   0.0002139234
        0.0000877265   0.0001724486  -0.0001626959  -0.0001124145   0.0000138077
        0.0000044760   0.0000288105  -0.0000248640   0.0000568522  -0.0000324158
       -0.0000407346   0.0000024053   0.0000404240   0.0000524208   0.0000596108
       -0.0000633971  -0.0001021579  -0.0000554896   0.0000951331  -0.0000252312
        0.0000528774   0.0000832595   0.0000737486   0.0000037408  -0.0000304798
       -0.0000587184   0.0000035122   0.0000160056   0.0000522971   0.0000171944
        0.0000284054  -0.0000312753   0.0000215591  -0.0000203243   0.0000654101
        0.0000528983  -0.0001937701  -0.0001548450  -0.0000545396   0.0031275881
        0.0001061751  -0.0010988442   0.0006809148   0.0001386398   0.0009226554
        0.0000743298   0.0001178232   0.0000634124  -0.0000101071  -0.0000480756
        0.0000806531   0.0000276238  -0.0004923799   0.0000458322   0.0000760697
       -0.0008971947   0.0007084390  -0.0000886694  -0.0000144225   0.0001109161
        0.0000670329  -0.0000737122  -0.0000166366  -0.0000024598   0.0000724470
       -0.0000312222  -0.0000016445   0.0000173126  -0.0000137874   0.0000100174
       -0.0000122388  -0.0000042095   0.0000124975  -0.0000114531  -0.0000044263
        0.0000131072  -0.0000031121   0.0000005450   0.0000156697   0.0000009545
        0.0000005154   0.0000053978   0.0000058234  -0.0000078233  -0.0000286833
       -0.0000415081  -0.0000515021   0.0003885167  -0.0002193560  -0.0001693428
       -0.2234423067   0.2053271007  -0.0480879005   0.5002584005  -0.1698658639
        0.1229230004  -0.0861458514   0.0169481757  -0.1088087958  -0.0626742686
       -0.0340087852  -0.0095209309  -0.0073749042  -0.0088220338  -0.0060806996
        0.0034437483   0.0015662019  -0.0065041121  -0.0001335628  -0.0013325275
        0.0003860863   0.0051514417   0.0043694655  -0.0029355817   0.0023109737
       -0.0043262607   0.0043489525  -0.1086896892  -0.0158734406   0.0424203752
        0.0005936805  -0.0063579301   0.0087242642   0.0017761994   0.0020364936
        0.0009020728  -0.0004736137  -0.0019717789   0.0015594330  -0.0049895085
        0.0081110089  -0.0024787689   0.0044115573  -0.0031392371   0.0011106733
        0.0004634603   0.0029210822  -0.0009399826  -0.0003252212  -0.0003001713
       -0.0003620621   0.0005526481   0.0000368598   0.0001748160  -0.0006000423
       -0.0001928662  -0.0001873596   0.0002780773   0.0006571281   0.0000992361
       -0.0009932294  -0.0010179942  -0.0001472018   0.0010874785  -0.0006351199
        0.0002337684   0.0006674615   0.0011696458   0.0002147278  -0.0005324735
       -0.0006121349  -0.0002427061  -0.0000439727   0.0005662088  -0.0000515873
        0.0002137365  -0.0004553198  -0.0000198632   0.0001816878   0.0003503560
        0.0000224534  -0.0030096880  -0.0013259607   0.0003715579  -0.0190342196
        0.0046277257   0.0056343951  -0.0017383289  -0.0002010288   0.0005285726
        0.0000398500  -0.0004580886  -0.0001407691  -0.0014801817   0.0003582324
        0.0010445027  -0.0010178162   0.0018679405   0.0000819101   0.0004925124
        0.0007220133  -0.0028939785   0.0005096762   0.0003662462  -0.0006949778
       -0.0000836839  -0.0004737950  -0.0006628992   0.0003268634   0.0005291007
        0.0003098648   0.0000079231  -0.0001294263  -0.0000132498   0.0000714108
       -0.0001558917   0.0000403640   0.0001116347  -0.0000907168   0.0000344017
        0.0001245925  -0.0000463660   0.0000653413   0.0001309065   0.0000333174
        0.0000575007   0.0000223011   0.0001256239  -0.0000009142  -0.0002378988
       -0.0002796005   0.0000629362  -0.0002077609  -0.0006175885  -0.0005768655
        0.2031684684  -0.2987611288   0.0558701968  -0.1698658639   0.5355885766
       -0.0856303853   0.0170659366  -0.0643655883   0.0432482621  -0.0404129550
       -0.1097065449  -0.0208373012  -0.0067014378   0.0004528701  -0.0102442417
        0.0008892439   0.0035719101   0.0005186769   0.0002578456  -0.0033141065
        0.0009632867   0.0022342551   0.0012088824   0.0025205160  -0.0045345100
       -0.0226946871  -0.0013014675  -0.0096190654  -0.0426781134   0.0049250554
       -0.0084949971  -0.0015097301   0.0050700481   0.0021338359   0.0015409366
        0.0049717922   0.0002525980  -0.0008549410   0.0006578469   0.0033412110
        0.0039733769   0.0024335019   0.0007849450  -0.0015860360  -0.0000305694
        0.0000826169   0.0014024191  -0.0003765316   0.0001856025  -0.0003476265
        0.0004905805  -0.0000709869  -0.0002710199   0.0001183948  -0.0002523595
       -0.0001249862  -0.0000698851  -0.0000104891   0.0000132112   0.0000649874
        0.0006736862  -0.0000517545   0.0000952634  -0.0006441624  -0.0006925009
       -0.0000678601   0.0000708010   0.0006609603  -0.0000424072  -0.0000539055
       -0.0000633498  -0.0000013494   0.0000202431  -0.0000927619   0.0000088705
        0.0000528163  -0.0000239205  -0.0000199974  -0.0001688014  -0.0000286041
       -0.0001046306   0.0007483241   0.0002256376   0.0002408620   0.0078721266
        0.0002545900  -0.0067496876   0.0015422812   0.0010411448   0.0022292226
        0.0006447914   0.0007316171   0.0008129072   0.0002477127   0.0001442552
        0.0003207727  -0.0000481691   0.0005809902   0.0002101490  -0.0011994405
       -0.0016031213   0.0007220600  -0.0006144064  -0.0000097934   0.0006425584
       -0.0003043129  -0.0009675539  -0.0005799192   0.0001369332   0.0003888606
       -0.0004528472   0.0000275484  -0.0002253747  -0.0000747719  -0.0000208746
        0.0000610427  -0.0000244791  -0.0000626675   0.0000447028  -0.0000284762
        0.0000101392  -0.0000074672   0.0000001676  -0.0000332510  -0.0000148079
        0.0000085655  -0.0000903418  -0.0000556710  -0.0000047182  -0.0000904759
        0.0000098801   0.0000640708   0.0008495112  -0.0018446745  -0.0005670894
       -0.0484659888   0.0567953057  -0.0767323977   0.1229230004  -0.0856303853
        0.6610475781  -0.1069215635   0.0429281055  -0.4501826895  -0.0147973781
       -0.0246972219  -0.0494134629  -0.0075066772  -0.0120906817  -0.0075311347
       -0.0055204530   0.0011149667  -0.0001736229  -0.0003218029  -0.0012044431
       -0.0004495474  -0.0022670138   0.0078188417   0.0011604276   0.0055483209
       -0.0030251090   0.0055999811   0.0462191634   0.0088492490  -0.0694003178
        0.0107189002   0.0048272723  -0.0134912039   0.0009622246   0.0044398358
       -0.0009179942   0.0002334740   0.0017727105  -0.0014577224   0.0032284501
        0.0001916645   0.0040576090  -0.0045188599   0.0023303650  -0.0018373875
       -0.0007089105  -0.0017971676   0.0011215163   0.0005217779  -0.0000464559
       -0.0000034245  -0.0003521349  -0.0000006716  -0.0002127675   0.0004263523
        0.0001621016   0.0000524852  -0.0002604286  -0.0005928397  -0.0002146838
        0.0007884922   0.0009104797   0.0002527645  -0.0009937751   0.0004054711
       -0.0003606558  -0.0006899577  -0.0008639656  -0.0000269656   0.0004165560
        0.0004808861   0.0000703295   0.0000164570  -0.0004961284  -0.0000108552
       -0.0001104602   0.0002914663  -0.0001021078  -0.0000751112  -0.0003436523
       -0.0003273208   0.0021078952   0.0013156871   0.0001765277   0.0018495240
       -0.0060319966   0.0032681544   0.0001754954  -0.0002793284  -0.0013867860
       -0.0002394803  -0.0004178128  -0.0001395586   0.0009042534   0.0000682868
       -0.0007632780   0.0003229902   0.0026957661  -0.0007766584  -0.0002975645
       -0.0002421313  -0.0006656916   0.0002547746  -0.0000988727  -0.0002091443
       -0.0004713459  -0.0003422189  -0.0003344115  -0.0000515836  -0.0001395123
        0.0001148316   0.0000956588  -0.0000226170   0.0000629195  -0.0000459329
        0.0001348014   0.0000197676  -0.0001091528   0.0000902190   0.0000252206
       -0.0001091246   0.0000347787  -0.0000015248  -0.0001035304  -0.0000126095
        0.0000019416  -0.0000467723  -0.0001011204   0.0000460079   0.0001208744
        0.0001443053   0.0002136884  -0.0028496322   0.0006743757  -0.0001684354
       -0.0028231648   0.0082476259  -0.0269629449  -0.0861458514   0.0170659366
       -0.1069215635   0.0840266444  -0.0228224565   0.1292457484   0.0024363832
        0.0024031117  -0.0130789014  -0.0002255663  -0.0037676868  -0.0009569072
       -0.0014323420  -0.0003230540   0.0001287338  -0.0001078843   0.0006251513
       -0.0002106058  -0.0004518127  -0.0006721535   0.0006600006  -0.0002704691
        0.0016324827  -0.0012796766   0.0076277546   0.0012282096   0.0148086081
       -0.0028516338  -0.0000338000   0.0023673226  -0.0003320668  -0.0012985144
        0.0001241435  -0.0000295521   0.0000947916   0.0000213358   0.0010626984
       -0.0015695644  -0.0004785648  -0.0005687479   0.0005273886   0.0002189994
        0.0000358910  -0.0005699075  -0.0000025585   0.0000643485   0.0000668730
        0.0001202861  -0.0001083655  -0.0000137137  -0.0000237101   0.0000744677
        0.0000454837   0.0000274133  -0.0000413239  -0.0000472723   0.0000162451
        0.0001356972   0.0001037353  -0.0000020611  -0.0001157407   0.0001006348
       -0.0000082669  -0.0000624320  -0.0001679650  -0.0000596607   0.0000512197
        0.0000855654   0.0000489980  -0.0000114881  -0.0000517505   0.0000094106
       -0.0000367720   0.0000796713   0.0000201102  -0.0000353700  -0.0000730402
        0.0000792613   0.0005190405   0.0001682264  -0.0001280035  -0.0009043277
        0.0007115943   0.0011423127   0.0004796681   0.0000400023   0.0001245579
       -0.0002122622  -0.0003301069  -0.0000833815   0.0002186792  -0.0000949285
       -0.0001858217  -0.0001809824  -0.0004992389   0.0000055156  -0.0000965840
        0.0000327087   0.0005816911  -0.0002388265  -0.0000997026   0.0001799512
        0.0000386688   0.0000814117   0.0001971117  -0.0001161888  -0.0001911873
       -0.0001246711  -0.0000266289   0.0000424638  -0.0000006017  -0.0000164267
        0.0000260193  -0.0000129057  -0.0000118705   0.0000128590  -0.0000127144
       -0.0000191400   0.0000064410  -0.0000163907  -0.0000236638  -0.0000063029
       -0.0000142550   0.0000008713  -0.0000169957  -0.0000069004   0.0000583443
        0.0000881337  -0.0000622963   0.0006671083  -0.0008671803   0.0005056068
        0.0118501491   0.0010408265   0.0306050253   0.0169481757  -0.0643655883
        0.0429281055  -0.0228224565   0.0572007430  -0.0572541701  -0.0027337352
        0.0053427053  -0.0173572768  -0.0016851266  -0.0041466365  -0.0014167946
       -0.0014472935  -0.0001551228  -0.0004180634  -0.0002607067   0.0005604713
       -0.0004662573  -0.0004603947   0.0008583535   0.0001568915   0.0003859706
       -0.0008104559  -0.0001449407   0.0024645221   0.0036333563   0.0046327708
       -0.0010902421   0.0008326913   0.0005069656  -0.0004697960  -0.0004520965
       -0.0001294470   0.0001442157   0.0001963148  -0.0001729686   0.0001898309
       -0.0008761526  -0.0003254251  -0.0004567995   0.0006166437  -0.0002042804
       -0.0000991382  -0.0005663937   0.0002187646   0.0000232008   0.0001022102
       -0.0001358594  -0.0000365392   0.0000599790  -0.0000745582   0.0001236273
        0.0000490710   0.0000266214  -0.0000144045  -0.0000667229  -0.0000487589
       -0.0001340736   0.0000879815   0.0000185088   0.0000950547   0.0002507283
       -0.0000041609  -0.0000700667  -0.0002790441   0.0000021266   0.0000570448
        0.0000593777   0.0000191417   0.0000013956  -0.0000070612  -0.0000035397
       -0.0000161834   0.0000411825   0.0000094066   0.0000331410  -0.0000011833
        0.0000026027  -0.0000220134   0.0000292117  -0.0000400367   0.0005428656
       -0.0002246454   0.0005354442   0.0000352566  -0.0002766110  -0.0003918932
       -0.0002082154  -0.0003408327  -0.0001731692   0.0000760802  -0.0000592081
       -0.0002048957  -0.0004260045   0.0009293963  -0.0007822754   0.0002045051
        0.0002363911  -0.0001896843  -0.0000983018  -0.0000589205   0.0000608406
        0.0000191442   0.0001453963   0.0000678797  -0.0000834124  -0.0000913782
        0.0001457576   0.0000023066   0.0000754855   0.0000296019   0.0000005024
        0.0000021585   0.0000107467   0.0000077199  -0.0000057652   0.0000122868
       -0.0000063785   0.0000069927  -0.0000032636  -0.0000005225  -0.0000000894
       -0.0000028016   0.0000251345   0.0000035082  -0.0000000952   0.0000359276
       -0.0000050414  -0.0000152763  -0.0006239662   0.0004277736  -0.0000295964
       -0.0113885125   0.0111872366  -0.0058834258  -0.1088087958   0.0432482621
       -0.4501826895   0.1292457484  -0.0572541701   0.4881956346  -0.0033860578
        0.0050224913  -0.0111212991  -0.0008373917  -0.0057667290  -0.0009316233
       -0.0011275838   0.0002006681  -0.0006285311   0.0003092457   0.0008526291
       -0.0000430398  -0.0004895733  -0.0018984243   0.0008204799  -0.0011176270
        0.0036530169  -0.0019466831  -0.0094856511   0.0027340552  -0.0147374598
        0.0063007872  -0.0020181187  -0.0028735049  -0.0002875380   0.0018652340
       -0.0005642327  -0.0002138669  -0.0009477023   0.0007878485  -0.0025903218
        0.0024546359  -0.0000558225   0.0024608764  -0.0013884786   0.0010850630
        0.0003329718   0.0011030210  -0.0006494530  -0.0001781881  -0.0000409763
        0.0000064905   0.0001972095   0.0000041117   0.0001136109  -0.0002167314
       -0.0001098192  -0.0000310572   0.0001653669   0.0003496621   0.0001382094
       -0.0004319021  -0.0005157798  -0.0001626004   0.0005379222  -0.0002648233
        0.0001835781   0.0003884283   0.0005250874   0.0000184973  -0.0002452838
       -0.0002951040  -0.0000423696  -0.0000032545   0.0002993436   0.0000052346
        0.0000926431  -0.0001608856   0.0000465768   0.0000163017   0.0001480554
        0.0002023014  -0.0012081944  -0.0007012101  -0.0001534523  -0.0000711434
        0.0015934146  -0.0012695889   0.0008943628  -0.0000919721   0.0007927225
       -0.0002527005  -0.0006089663  -0.0001426011   0.0001064346  -0.0001589105
       -0.0000896140   0.0004582913  -0.0010384887  -0.0000313441  -0.0001081824
       -0.0009868366   0.0005621340   0.0006616611   0.0001696843  -0.0004907723
        0.0000518499  -0.0002836997  -0.0002433206  -0.0000365384   0.0001422109
       -0.0000427881  -0.0000755563   0.0000025556  -0.0000388255   0.0000158529
       -0.0000682086  -0.0000117575   0.0000550524  -0.0000510365  -0.0000151569
        0.0000565463  -0.0000132347  -0.0000027882   0.0000515229   0.0000115666
       -0.0000008865   0.0000235428   0.0000618665  -0.0000292737  -0.0001106722
       -0.0000816451  -0.0001400019   0.0002486487  -0.0008835888  -0.0004024180
        0.0064216135   0.0192203652   0.0021294711  -0.0626742686  -0.0404129550
       -0.0147973781   0.0024363832  -0.0027337352  -0.0033860578   0.2909918894
       -0.0020823410   0.2393836692  -0.1489153299   0.0231580696  -0.1376210535
       -0.0183850512  -0.0490107805  -0.0168607698  -0.0221045089   0.0162530608
       -0.0185604475   0.0336427320   0.0057534884   0.0163365914  -0.0762302449
        0.0260813639  -0.0402124966  -0.0001378209  -0.0106069036  -0.0054174506
       -0.0026404021  -0.0002023658   0.0007660261   0.0006768364   0.0005744714
        0.0010285345   0.0000891227   0.0001777795  -0.0001329474   0.0013714805
        0.0004515014   0.0005780074  -0.0008179531   0.0004831530  -0.0001779460
       -0.0000499282  -0.0005260128   0.0001295661   0.0000982606   0.0000042764
        0.0000592424  -0.0000916069  -0.0000403808  -0.0000467400   0.0001049139
        0.0000335133   0.0000296596  -0.0000522190  -0.0001112837  -0.0000116880
        0.0001057792   0.0001612660   0.0000186677  -0.0001328285   0.0001201567
       -0.0000335236  -0.0001100047  -0.0001890634  -0.0000165966   0.0000703320
        0.0000926714   0.0000319873  -0.0000065860  -0.0000763724   0.0000077874
       -0.0000217542   0.0000721950  -0.0000044676  -0.0000181560  -0.0000936662
       -0.0000093368   0.0004599541   0.0002530073   0.0000043347  -0.0013392748
       -0.0005022571   0.0011278638  -0.0036405773   0.0025957092  -0.0085351683
        0.0052415737  -0.0030254135  -0.0048266660  -0.0000569319   0.0006091909
       -0.0000703626  -0.0034983707   0.0139942716  -0.0104727259  -0.0002960410
       -0.0001872094  -0.0002344637  -0.0001988427   0.0000136588   0.0002072915
       -0.0001357320  -0.0002059226  -0.0001441924  -0.0000827093  -0.0000055283
       -0.0000125282   0.0000058805   0.0000256505   0.0000088044  -0.0000095045
        0.0000263845   0.0000007446  -0.0000152028   0.0000176992   0.0000006930
       -0.0000236458   0.0000101275  -0.0000021987  -0.0000251096  -0.0000011692
        0.0000027261  -0.0000034207  -0.0000134291   0.0000075774   0.0000391327
        0.0000556040   0.0000065731  -0.0000418580  -0.0002118460  -0.0002786129
       -0.0035705005  -0.0147046180  -0.0034133260  -0.0340087852  -0.1097065449
       -0.0246972219   0.0024031117   0.0053427053   0.0050224913  -0.0020823410
        0.5273608319  -0.0828000137  -0.0128449340  -0.0872700549  -0.0106736618
       -0.0151942780   0.0246623047  -0.0241237518   0.0219028217  -0.0117559420
        0.0294806150  -0.0379473340  -0.0972196820  -0.0294020143   0.0635664154
       -0.2319968443   0.1190078540   0.0026313033   0.0025925608  -0.0020766107
       -0.0004029069   0.0000084649  -0.0001122852   0.0000790430  -0.0000436611
       -0.0000819511   0.0000090129   0.0001331915  -0.0001587276   0.0001657598
       -0.0001981877  -0.0000920226  -0.0002391489   0.0001653035  -0.0000437575
       -0.0000122599  -0.0000541399   0.0000462999   0.0000126025  -0.0000477494
        0.0000402726  -0.0000042033   0.0000265126  -0.0000231502   0.0000480748
        0.0000033145   0.0000080233  -0.0000284307  -0.0000271231  -0.0000175515
        0.0000056086   0.0000477991   0.0000042752  -0.0000463986   0.0000185637
       -0.0000215835  -0.0000291542  -0.0000557744  -0.0000059796   0.0000215739
        0.0000243299   0.0000087800   0.0000017041  -0.0000178128   0.0000032851
       -0.0000132567   0.0000114379   0.0000003487  -0.0000016828  -0.0000029181
       -0.0000059697   0.0000883675   0.0000410636   0.0000155856  -0.0004764365
       -0.0006306392   0.0004019350   0.0151835050  -0.0013674736   0.0206964709
       -0.0031699725  -0.0038848594  -0.0017898828   0.0006115101   0.0011562925
        0.0005750637   0.0029222497  -0.0028398533   0.0045449658   0.0002475407
        0.0000475075  -0.0001603078   0.0000202036   0.0000003929  -0.0000151850
        0.0000037491   0.0000249966   0.0000216054   0.0001131827   0.0000375997
       -0.0000416423  -0.0000521338  -0.0000518742   0.0000008555  -0.0000191924
        0.0000074048  -0.0000083741  -0.0000125884  -0.0000044379  -0.0000038728
        0.0000035654   0.0000028535  -0.0000010202   0.0000007308  -0.0000000867
        0.0000042436   0.0000040296   0.0000042935   0.0000043164   0.0000054278
        0.0000044716   0.0000026935   0.0001048448   0.0001560803  -0.0001201167
       -0.0020257547   0.0045324745   0.0036580368  -0.0095209309  -0.0208373012
       -0.0494134629  -0.0130789014  -0.0173572768  -0.0111212991   0.2393836692
       -0.0828000137   0.4369696901  -0.1325952768   0.0368738846  -0.2263873431
       -0.0226795693  -0.0688434182  -0.0167013314  -0.0196221989   0.0212626482
       -0.0398911170   0.0237666469   0.0297820639   0.0472224458  -0.0466244444
        0.0667203447  -0.1256546450   0.0044517078   0.0084450037   0.0056746491
        0.0013133808   0.0001153963  -0.0010896512  -0.0004811823  -0.0007161260
       -0.0007498149   0.0000040932  -0.0001541210   0.0000462121  -0.0009416682
       -0.0006124703  -0.0006512315   0.0005447181  -0.0003855147   0.0002258513
        0.0000938823   0.0004188727  -0.0001462444  -0.0001180039   0.0000175197
       -0.0000060591   0.0000767643   0.0000167491   0.0000609937  -0.0000588180
       -0.0000460407  -0.0000059435   0.0000356220   0.0000789795   0.0000343897
       -0.0000055673  -0.0001044483  -0.0000162779   0.0000422148  -0.0001314706
        0.0000322854   0.0000857201   0.0001664313  -0.0000107840  -0.0000439638
       -0.0000568037  -0.0000070428   0.0000037712   0.0000443559   0.0000021970
        0.0000006981  -0.0000472817   0.0000148995   0.0000059109   0.0000683036
        0.0000321663  -0.0002288910  -0.0001751617  -0.0000414633   0.0011312752
        0.0002522540  -0.0006946277  -0.0103372933   0.0038420247  -0.0122820874
       -0.0046532733  -0.0015790565   0.0034930394  -0.0000711617   0.0006297537
       -0.0002463616  -0.0087084809   0.0198094839  -0.0124718234   0.0002695636
        0.0002812905   0.0001454934   0.0000951053   0.0000222076  -0.0000641385
        0.0001043017   0.0002062499   0.0001445853   0.0001147539  -0.0000264751
       -0.0000162126  -0.0000330406  -0.0000346013  -0.0000420868   0.0000025988
       -0.0000236230  -0.0000107297   0.0000040865  -0.0000156243  -0.0000113083
        0.0000147267  -0.0000059659  -0.0000024634   0.0000139692  -0.0000005650
       -0.0000046869   0.0000005291   0.0000087166  -0.0000063991  -0.0000216085
       -0.0000320647  -0.0000249448   0.0002903194   0.0003904156   0.0000146462
       -0.0001771366   0.0014469903  -0.0006037648  -0.0073749042  -0.0067014378
       -0.0075066772  -0.0002255663  -0.0016851266  -0.0008373917  -0.1489153299
       -0.0128449340  -0.1325952768   0.3118513123   0.0310835489   0.2459893937
       -0.0976326520  -0.0560768666  -0.0546336389   0.0248504263  -0.0214261981
        0.0334185416  -0.0273975126  -0.0223455783  -0.0220154079  -0.0050427798
        0.0524436093  -0.0178885650  -0.0003666061  -0.0008669586   0.0000021051
        0.0000489428  -0.0003373382   0.0002153241   0.0000274405   0.0000758116
        0.0000048147  -0.0000501352   0.0000139559   0.0000142598  -0.0001222924
        0.0001223995   0.0000376129   0.0001723986   0.0000064384   0.0000086338
        0.0000368024  -0.0000667867   0.0000018551  -0.0000687079   0.0000411465
       -0.0000706555   0.0000480809  -0.0000013164   0.0000107030   0.0000006036
        0.0000100172   0.0000034757  -0.0000059183   0.0000084497  -0.0000072415
       -0.0000870264  -0.0000305430  -0.0000171597   0.0000963464   0.0000368576
        0.0000173432   0.0000316228  -0.0000039116   0.0000045124  -0.0000154908
       -0.0000086595  -0.0000142453  -0.0000082708   0.0000171877  -0.0000131008
        0.0000101449  -0.0000112903  -0.0000066866   0.0000222537   0.0000040117
        0.0000053176  -0.0001136549  -0.0000575657  -0.0000184058  -0.0000384979
        0.0001551895   0.0000235032  -0.0522216055   0.0513613236  -0.0280290502
       -0.0070413866  -0.0158816913  -0.0072835475   0.0048708525   0.0008709572
       -0.0040947720   0.0049446944   0.0004896296  -0.0039058526  -0.0000336862
        0.0001168734  -0.0000802542   0.0000139579   0.0000226719  -0.0000328893
       -0.0000129946  -0.0000056435  -0.0000276605  -0.0000087616   0.0000008408
        0.0000575116   0.0000133808   0.0000105677   0.0000029350   0.0000148149
       -0.0000167130   0.0000065693   0.0000171468  -0.0000039707  -0.0000010142
        0.0000066107  -0.0000002271  -0.0000082208   0.0000061562   0.0000055642
       -0.0000101090   0.0000037992   0.0000097290  -0.0000080413  -0.0000051881
       -0.0000010607  -0.0000096700  -0.0001216844   0.0000200466  -0.0001051129
       -0.0002374954  -0.0010375362  -0.0002497744  -0.0088220338   0.0004528701
       -0.0120906817  -0.0037676868  -0.0041466365  -0.0057667290   0.0231580696
       -0.0872700549   0.0368738846   0.0310835489   0.6708136994  -0.0521951393
       -0.1030919178  -0.2738814526  -0.0949592964   0.0149729505  -0.0662307507
        0.0317170121  -0.0212159377  -0.0124908578  -0.0277054954   0.0184104183
        0.0284812727   0.0206574717  -0.0009767799  -0.0018340287  -0.0004453872
       -0.0006117713   0.0002305793   0.0001764275   0.0001914572   0.0000709629
        0.0001282017  -0.0000057869   0.0000831534  -0.0000796863   0.0003780963
       -0.0000595454   0.0001515658  -0.0002971022   0.0000856025  -0.0000461105
       -0.0000141605  -0.0000800297   0.0000431122   0.0000245198  -0.0000277811
        0.0000034651  -0.0000103489  -0.0000069774  -0.0000150809   0.0000408809
        0.0000167697   0.0000098941  -0.0000272696  -0.0000305320  -0.0000082420
        0.0000956403   0.0000538183   0.0000204726  -0.0001056717  -0.0000202138
       -0.0000262917  -0.0000471245  -0.0000297569  -0.0000123687   0.0000274004
        0.0000367678   0.0000134948  -0.0000007005  -0.0000276545   0.0000035824
       -0.0000152912   0.0000243774  -0.0000021534  -0.0000233779  -0.0000088895
        0.0000005427   0.0002013714   0.0000933769   0.0000108343  -0.0001741227
       -0.0001058176   0.0003838809   0.0516213348  -0.2416840758   0.0993216498