 Entering Gaussian System
 *********************************************
 Gaussian 98:
 frequency output generated by the xtb code
 *********************************************
                         Standard orientation:
 --------------------------------------------------------------------
  Center     Atomic     Atomic              Coordinates (Angstroms)
  Number     Number      Type              X           Y           Z
 --------------------------------------------------------------------
    1         35             0       -5.019152    4.524764   -0.524796
    2          6             0       -3.998544    3.216284    0.416042
    3          6             0       -3.234114    3.605811    1.505135
    4          6             0       -2.496804    2.640441    2.177233
    5          6             0       -2.535164    1.319511    1.782909
    6          6             0       -3.312215    0.939852    0.682368
    7          7             0       -3.395105   -0.396813    0.305194
    8          6             0       -2.344436   -1.314798    0.134571
    9          6             0       -0.969250   -1.056337    0.098323
   10          6             0       -0.080116   -2.176278    0.117660
   11          6             0        1.265729   -2.017925    0.086542
   12          6             0        1.872537   -0.728280    0.022385
   13          6             0        3.287262   -0.554539    0.008209
   14          6             0        3.892411    0.682030    0.348013
   15          6             0        5.248758    0.854711    0.327139
   16          6             0        6.103909   -0.198545   -0.037040
   17          7             0        7.482336   -0.021301   -0.067289
   18          6             0        8.022201    1.209861   -0.452606
   19          6             0        7.421075    1.958231   -1.466173
   20          6             0        7.954690    3.175711   -1.839155
   21          6             0        9.092627    3.664051   -1.216539
   22          6             0        9.695081    2.923035   -0.212039
   23          6             0        9.167088    1.706674    0.172695
   24          6             0        8.333711   -1.074283    0.281774
   25          6             0        7.990979   -1.945575    1.317169
   26          6             0        8.832802   -2.986391    1.655124
   27          6             0       10.025866   -3.173825    0.975056
   28          6             0       10.371763   -2.309728   -0.051961
   29          6             0        9.535255   -1.268493   -0.401733
   30          6             0        5.526635   -1.434753   -0.371557
   31          6             0        4.170060   -1.605261   -0.347810
   32          6             0        0.980468    0.379151   -0.056695
   33          6             0       -0.369723    0.232111   -0.028090
   34          7             0       -2.848898   -2.536544   -0.108230
   35          6             0       -4.173216   -2.428789   -0.158059
   36          6             0       -5.008858   -3.596284   -0.384824
   37          6             0       -6.279390   -3.720899    0.176852
   38          6             0       -7.033036   -4.855265   -0.056767
   39          6             0       -6.533048   -5.878889   -0.845534
   40          6             0       -5.262606   -5.771564   -1.389420
   41          6             0       -4.502977   -4.642264   -1.157819
   42          6             0       -4.567580   -1.091303    0.087793
   43          6             0       -5.887443   -0.511922    0.144204
   44          6             0       -6.826756   -0.831324   -0.845425
   45          6             0       -8.086716   -0.271757   -0.821160
   46          6             0       -8.442449    0.611864    0.187826
   47          6             0       -7.527902    0.921192    1.182992
   48          6             0       -6.263032    0.370143    1.165869
   49          6             0       -4.045773    1.906819   -0.011577
   50          1             0       -3.216749    4.636618    1.820258
   51          1             0       -1.898509    2.927948    3.028239
   52          1             0       -1.975408    0.567729    2.317975
   53          1             0       -0.526932   -3.155335    0.185419
   54          1             0        1.894633   -2.892174    0.153736
   55          1             0        3.273864    1.501958    0.677356
   56          1             0        5.678730    1.802673    0.617756
   57          1             0        6.542831    1.570936   -1.961240
   58          1             0        7.483623    3.743690   -2.627532
   59          1             0        9.507446    4.615362   -1.512416
   60          1             0       10.578775    3.299350    0.281518
   61          1             0        9.629879    1.136049    0.964511
   62          1             0        7.067979   -1.790944    1.856218
   63          1             0        8.559527   -3.651300    2.460893
   64          1             0       10.681807   -3.987592    1.243661
   65          1             0       11.296752   -2.452842   -0.590515
   66          1             0        9.799499   -0.603581   -1.210932
   67          1             0        6.169209   -2.247862   -0.677784
   68          1             0        3.765662   -2.555827   -0.657047
   69          1             0        1.386718    1.368916   -0.201479
   70          1             0       -0.995329    1.100440   -0.163433
   71          1             0       -6.667804   -2.938713    0.811635
   72          1             0       -8.015769   -4.943455    0.383352
   73          1             0       -7.129009   -6.760937   -1.028800
   74          1             0       -4.865686   -6.572636   -1.995947
   75          1             0       -3.511017   -4.543176   -1.570640
   76          1             0       -6.544515   -1.506975   -1.639520
   77          1             0       -8.795702   -0.517951   -1.597856
   78          1             0       -9.426957    1.054141    0.200061
   79          1             0       -7.804219    1.596845    1.979244
   80          1             0       -5.568037    0.595762    1.961878
   81          1             0       -4.633719    1.628703   -0.872277
 --------------------------------------------------------------------
     1 basis functions        1 primitive gaussians
     1 alpha electrons        1 beta electrons
 
 Harmonic frequencies (cm**-1), IR intensities (km*mol⁻¹),
 Raman scattering activities (A**4/amu), Raman depolarization ratios,
 reduced masses (AMU), force constants (mDyne/A) and normal coordinates:
                      1                      2                      3
                        a                      a                      a 
 Frequencies --     8.5398                 9.5125                13.6889
 Red. masses --    18.5303                12.7264                34.1896
 Frc consts  --     0.0000                 0.0000                 0.0000
 IR Inten    --     0.0254                 0.1126                 1.0201
 Raman Activ --     0.0000                 0.0000                 0.0000
 Depolar     --     0.0000                 0.0000                 0.0000
 Atom AN      X      Y      Z        X      Y      Z        X      Y      Z
   1  35     0.06   0.04   0.33     0.15   0.03  -0.03     0.57   0.05  -0.05
   2   6     0.03  -0.01   0.07    -0.00   0.00   0.04     0.14  -0.03  -0.01
   3   6     0.05  -0.05   0.07    -0.06  -0.01   0.09     0.16  -0.07  -0.01
   4   6     0.05  -0.07   0.03    -0.10  -0.01   0.12     0.11  -0.10  -0.01
   5   6     0.04  -0.06   0.00    -0.09  -0.01   0.12     0.05  -0.10  -0.01
   6   6     0.01  -0.03   0.01    -0.03  -0.00   0.07     0.04  -0.06  -0.01
   7   7     0.00  -0.02  -0.03    -0.02  -0.00   0.07    -0.01  -0.06  -0.02
   8   6    -0.00  -0.02  -0.04    -0.01  -0.00   0.12    -0.03  -0.08  -0.03
   9   6    -0.00  -0.02  -0.04    -0.01  -0.00   0.17    -0.03  -0.09  -0.05
  10   6    -0.00  -0.02  -0.02    -0.01  -0.01   0.20    -0.03  -0.09  -0.04
  11   6    -0.00  -0.01  -0.01    -0.01  -0.01   0.21    -0.03  -0.08  -0.04
  12   6    -0.00  -0.01  -0.03    -0.00  -0.01   0.20    -0.03  -0.08  -0.04
  13   6    -0.00  -0.01  -0.02    -0.00  -0.02   0.17    -0.03  -0.06  -0.01
  14   6    -0.01   0.02  -0.09     0.01  -0.02   0.15    -0.06  -0.05   0.01
  15   6    -0.01   0.02  -0.08     0.01  -0.01   0.09    -0.07  -0.03   0.02
  16   6    -0.00   0.00  -0.01    -0.01  -0.01   0.06    -0.04  -0.00   0.01
  17   7    -0.00   0.01  -0.00    -0.01  -0.01  -0.02    -0.05   0.04   0.01
  18   6    -0.01  -0.02  -0.10    -0.04  -0.01  -0.06    -0.09   0.06   0.03
  19   6    -0.01  -0.11  -0.17    -0.10  -0.02  -0.04    -0.11   0.05   0.04
  20   6    -0.01  -0.13  -0.27    -0.13  -0.03  -0.08    -0.16   0.08   0.06
  21   6    -0.02  -0.07  -0.30    -0.09  -0.01  -0.15    -0.18   0.12   0.08
  22   6    -0.02   0.01  -0.23    -0.03   0.00  -0.18    -0.16   0.13   0.07
  23   6    -0.02   0.04  -0.13    -0.00   0.01  -0.13    -0.12   0.10   0.05
  24   6    -0.01   0.04   0.10     0.02   0.00  -0.06    -0.01   0.06  -0.00
  25   6    -0.02   0.13   0.16     0.08   0.01  -0.03     0.02   0.03  -0.02
  26   6    -0.03   0.16   0.27     0.11   0.01  -0.07     0.06   0.06  -0.03
  27   6    -0.01   0.11   0.31     0.07   0.02  -0.14     0.07   0.12  -0.03
  28   6     0.01   0.03   0.25     0.01   0.01  -0.16     0.04   0.15  -0.02
  29   6     0.01  -0.00   0.15    -0.02   0.00  -0.12    -0.00   0.12  -0.00
  30   6     0.01  -0.02   0.06    -0.02  -0.02   0.10    -0.01  -0.01   0.01
  31   6     0.01  -0.02   0.05    -0.02  -0.02   0.15    -0.01  -0.04  -0.00
  32   6    -0.01  -0.02  -0.06     0.00  -0.01   0.20    -0.04  -0.09  -0.07
  33   6    -0.01  -0.02  -0.06    -0.00  -0.01   0.19    -0.03  -0.09  -0.07
  34   7    -0.01  -0.02  -0.06     0.00  -0.00   0.11    -0.06  -0.08  -0.01
  35   6    -0.01  -0.01  -0.05     0.00   0.00   0.03    -0.06  -0.04   0.00
  36   6    -0.02   0.00  -0.07     0.01   0.00  -0.02    -0.09  -0.03   0.02
  37   6    -0.02   0.00  -0.08    -0.02   0.01  -0.10    -0.08   0.01   0.04
  38   6    -0.03   0.01  -0.10    -0.01   0.01  -0.14    -0.11   0.03   0.07
  39   6    -0.03   0.02  -0.11     0.03   0.01  -0.10    -0.15   0.01   0.07
  40   6    -0.03   0.02  -0.10     0.07  -0.00  -0.03    -0.16  -0.03   0.05
  41   6    -0.02   0.01  -0.08     0.06  -0.00   0.02    -0.12  -0.05   0.03
  42   6    -0.00  -0.01  -0.03    -0.00   0.00   0.00    -0.03  -0.03  -0.00
  43   6     0.00  -0.00  -0.02    -0.01   0.01  -0.08    -0.01   0.00  -0.00
  44   6    -0.00   0.03  -0.03     0.05   0.01  -0.14    -0.02   0.01   0.01
  45   6     0.00   0.04  -0.01     0.06   0.02  -0.22    -0.01   0.04   0.01
  46   6     0.01   0.01   0.01    -0.00   0.02  -0.24     0.02   0.07  -0.01
  47   6     0.01  -0.02   0.02    -0.06   0.02  -0.18     0.03   0.06  -0.02
  48   6     0.01  -0.02   0.00    -0.06   0.01  -0.10     0.02   0.03  -0.01
  49   6     0.01  -0.00   0.04     0.01   0.00   0.04     0.08  -0.03  -0.01
  50   1     0.02  -0.02   0.03    -0.02  -0.00   0.03     0.06  -0.02  -0.00
  51   1     0.02  -0.03   0.01    -0.04  -0.00   0.05     0.04  -0.04  -0.00
  52   1     0.01  -0.02  -0.01    -0.03  -0.00   0.04     0.01  -0.04  -0.00
  53   1     0.00  -0.01  -0.00    -0.00  -0.00   0.06    -0.01  -0.03  -0.01
  54   1    -0.00  -0.00   0.00    -0.00  -0.00   0.07    -0.01  -0.02  -0.01
  55   1    -0.01   0.01  -0.04     0.01  -0.00   0.05    -0.02  -0.02   0.00
  56   1    -0.01   0.01  -0.04     0.01  -0.00   0.02    -0.03  -0.01   0.01
  57   1    -0.00  -0.04  -0.04    -0.04  -0.01   0.00    -0.03   0.01   0.01
  58   1    -0.00  -0.06  -0.09    -0.05  -0.01  -0.02    -0.05   0.02   0.02
  59   1    -0.01  -0.03  -0.11    -0.03  -0.00  -0.06    -0.06   0.04   0.03
  60   1    -0.01   0.02  -0.07    -0.00   0.00  -0.07    -0.05   0.04   0.02
  61   1    -0.01   0.03  -0.02     0.01   0.01  -0.04    -0.03   0.03   0.01
  62   1    -0.01   0.05   0.04     0.03   0.00   0.01     0.00  -0.00  -0.01
  63   1    -0.01   0.06   0.09     0.04   0.01  -0.01     0.02   0.01  -0.01
  64   1    -0.00   0.04   0.11     0.03   0.01  -0.05     0.03   0.04  -0.01
  65   1     0.01  -0.00   0.08    -0.01   0.00  -0.06     0.01   0.06  -0.00
  66   1     0.01  -0.02   0.03    -0.02  -0.00  -0.04    -0.01   0.04   0.00
  67   1     0.00  -0.01   0.04    -0.01  -0.01   0.02     0.00   0.00   0.00
  68   1     0.01  -0.01   0.03    -0.01  -0.01   0.05     0.00  -0.02  -0.00
  69   1    -0.00  -0.01  -0.02     0.00  -0.00   0.06    -0.01  -0.03  -0.03
  70   1    -0.00  -0.01  -0.02     0.00  -0.00   0.06    -0.01  -0.03  -0.03
  71   1    -0.01  -0.00  -0.02    -0.02   0.00  -0.04    -0.02   0.01   0.01
  72   1    -0.01   0.00  -0.03    -0.01   0.00  -0.06    -0.03   0.02   0.02
  73   1    -0.01   0.01  -0.04     0.01   0.00  -0.04    -0.05   0.01   0.03
  74   1    -0.01   0.01  -0.03     0.03  -0.00   0.00    -0.05  -0.01   0.02
  75   1    -0.01   0.00  -0.02     0.02  -0.00   0.02    -0.04  -0.02   0.00
  76   1    -0.00   0.01  -0.01     0.03   0.00  -0.03    -0.01  -0.00   0.00
  77   1    -0.00   0.02  -0.00     0.03   0.01  -0.08    -0.01   0.01   0.00
  78   1     0.00   0.01   0.01    -0.00   0.01  -0.09     0.01   0.03  -0.00
  79   1     0.00  -0.01   0.01    -0.03   0.01  -0.06     0.02   0.02  -0.01
  80   1     0.00  -0.01   0.00    -0.03   0.00  -0.02     0.01   0.01  -0.01
  81   1    -0.00   0.01   0.01     0.02   0.00   0.00     0.02  -0.00  -0.00
                      4                      5                      6
                        a                      a                      a 
 Frequencies --    19.2719                23.5236                30.8511
 Red. masses --    20.5748                32.7940                17.6294
 Frc consts  --     0.0000                 0.0000                 0.0000
 IR Inten    --     0.2135                 1.2449                 0.2801
 Raman Activ --     0.0000                 0.0000                 0.0000
 Depolar     --     0.0000                 0.0000                 0.0000
 Atom AN      X      Y      Z        X      Y      Z        X      Y      Z
   1  35     0.05   0.13   0.35    -0.50  -0.12   0.22    -0.02  -0.28  -0.14
   2   6     0.02   0.01   0.08    -0.05  -0.01  -0.01    -0.02  -0.07   0.01
   3   6     0.02  -0.04   0.09    -0.02   0.01  -0.05    -0.07  -0.04   0.04
   4   6     0.02  -0.07   0.05     0.06   0.03  -0.10    -0.08  -0.01   0.08
   5   6     0.00  -0.05   0.00     0.09   0.03  -0.11    -0.04  -0.02   0.10
   6   6    -0.01  -0.01  -0.01     0.05   0.02  -0.08     0.01  -0.05   0.08
   7   7    -0.01   0.00  -0.05     0.05   0.02  -0.08     0.02  -0.06   0.11
   8   6    -0.01   0.00  -0.01     0.03  -0.01  -0.06     0.01  -0.07   0.10
   9   6    -0.01   0.01  -0.03     0.03  -0.04  -0.06     0.00  -0.06   0.08
  10   6     0.00   0.02  -0.01     0.02  -0.05  -0.03     0.02  -0.04   0.04
  11   6    -0.00   0.03  -0.04     0.02  -0.07  -0.00     0.02  -0.02  -0.02
  12   6    -0.01   0.04  -0.08     0.04  -0.08  -0.00    -0.00  -0.01  -0.04
  13   6    -0.02   0.04  -0.10     0.04  -0.09   0.04    -0.01   0.01  -0.09
  14   6    -0.02   0.04  -0.10     0.03  -0.09   0.05    -0.02   0.02  -0.11
  15   6    -0.01   0.04  -0.09     0.03  -0.08   0.06    -0.02   0.03  -0.12
  16   6    -0.01   0.03  -0.07     0.04  -0.07   0.06    -0.01   0.03  -0.11
  17   7    -0.01   0.02  -0.04     0.04  -0.05   0.04    -0.01   0.03  -0.08
  18   6     0.02   0.01  -0.00    -0.01  -0.02   0.03     0.01   0.03  -0.03
  19   6     0.07   0.04  -0.01    -0.04  -0.06   0.02     0.06   0.05  -0.04
  20   6     0.10   0.03   0.02    -0.09  -0.03   0.01     0.08   0.06   0.00
  21   6     0.09  -0.00   0.06    -0.12   0.02   0.01     0.06   0.04   0.06
  22   6     0.05  -0.03   0.07    -0.09   0.05   0.02     0.02   0.01   0.07
  23   6     0.01  -0.02   0.04    -0.04   0.03   0.02    -0.01   0.01   0.02
  24   6    -0.04  -0.00  -0.01     0.08  -0.01   0.01    -0.03   0.02  -0.03
  25   6    -0.08   0.00  -0.02     0.14  -0.04  -0.00    -0.09   0.03  -0.04
  26   6    -0.11  -0.01  -0.01     0.19  -0.01  -0.03    -0.11   0.03   0.01
  27   6    -0.10  -0.04   0.02     0.19   0.06  -0.04    -0.08   0.01   0.06
  28   6    -0.06  -0.04   0.03     0.14   0.09  -0.03    -0.03   0.01   0.08
  29   6    -0.03  -0.02   0.02     0.08   0.05  -0.01    -0.00   0.01   0.03
  30   6    -0.02   0.04  -0.09     0.05  -0.08   0.08    -0.00   0.03  -0.12
  31   6    -0.02   0.04  -0.10     0.05  -0.09   0.07    -0.00   0.02  -0.12
  32   6    -0.02   0.03  -0.08     0.06  -0.07  -0.05    -0.02  -0.03   0.01
  33   6    -0.02   0.02  -0.06     0.05  -0.05  -0.08    -0.02  -0.05   0.07
  34   7     0.00  -0.01   0.03     0.01  -0.01  -0.03    -0.01  -0.06   0.11
  35   6     0.00  -0.02   0.01     0.01   0.02  -0.02    -0.01  -0.04   0.08
  36   6     0.01  -0.03   0.08    -0.03   0.03   0.02    -0.01  -0.02   0.03
  37   6    -0.01   0.01   0.05    -0.04   0.10   0.00    -0.10   0.04  -0.16
  38   6     0.01  -0.02   0.13    -0.08   0.12   0.04    -0.11   0.06  -0.23
  39   6     0.04  -0.09   0.24    -0.10   0.06   0.10    -0.03   0.01  -0.11
  40   6     0.06  -0.13   0.27    -0.08  -0.01   0.12     0.06  -0.06   0.08
  41   6     0.04  -0.10   0.19    -0.05  -0.02   0.08     0.06  -0.08   0.14
  42   6    -0.01  -0.01  -0.04     0.03   0.03  -0.05     0.01  -0.04   0.08
  43   6    -0.01  -0.01  -0.12     0.04   0.06  -0.06     0.03   0.03   0.07
  44   6     0.05  -0.05  -0.17     0.06   0.12  -0.09     0.06   0.19  -0.01
  45   6     0.05  -0.05  -0.26     0.08   0.17  -0.10     0.12   0.32  -0.04
  46   6    -0.01  -0.01  -0.32     0.09   0.16  -0.09     0.15   0.28  -0.01
  47   6    -0.08   0.02  -0.27     0.07   0.09  -0.06     0.12   0.12   0.07
  48   6    -0.07   0.02  -0.17     0.05   0.04  -0.04     0.06  -0.01   0.11
  49   6     0.00   0.02   0.03    -0.01   0.00  -0.04     0.02  -0.07   0.03
  50   1     0.01  -0.01   0.04    -0.01   0.00  -0.01    -0.03  -0.01   0.01
  51   1     0.01  -0.03   0.02     0.03   0.01  -0.04    -0.03   0.00   0.03
  52   1    -0.00  -0.02  -0.01     0.04   0.01  -0.04    -0.01  -0.00   0.04
  53   1     0.00   0.01   0.00     0.00  -0.01  -0.01     0.01  -0.02   0.02
  54   1     0.00   0.01  -0.01     0.00  -0.02   0.01     0.01  -0.00  -0.01
  55   1    -0.00   0.01  -0.03     0.01  -0.03   0.01    -0.01   0.00  -0.03
  56   1    -0.00   0.01  -0.03     0.01  -0.02   0.02    -0.01   0.01  -0.04
  57   1     0.02   0.02  -0.01    -0.01  -0.03   0.01     0.02   0.02  -0.02
  58   1     0.04   0.01   0.00    -0.03  -0.02   0.00     0.03   0.02  -0.00
  59   1     0.04  -0.00   0.02    -0.05   0.01   0.00     0.02   0.01   0.03
  60   1     0.01  -0.01   0.03    -0.03   0.03   0.01    -0.00   0.00   0.03
  61   1    -0.01  -0.01   0.01    -0.00   0.02   0.01    -0.01  -0.00   0.01
  62   1    -0.03   0.01  -0.01     0.04  -0.03   0.00    -0.03   0.01  -0.02
  63   1    -0.04  -0.00  -0.00     0.07  -0.01  -0.01    -0.05   0.01  -0.00
  64   1    -0.04  -0.01   0.01     0.07   0.02  -0.02    -0.03   0.00   0.03
  65   1    -0.01  -0.02   0.02     0.04   0.04  -0.01    -0.00  -0.00   0.04
  66   1     0.00  -0.01   0.01     0.01   0.02  -0.00     0.01   0.00   0.01
  67   1    -0.00   0.01  -0.02     0.02  -0.02   0.03     0.00   0.01  -0.04
  68   1    -0.01   0.01  -0.03     0.02  -0.03   0.02     0.00   0.01  -0.03
  69   1    -0.01   0.01  -0.03     0.02  -0.02  -0.02    -0.01  -0.01   0.00
  70   1    -0.01   0.00  -0.02     0.02  -0.01  -0.04    -0.01  -0.02   0.03
  71   1    -0.01   0.02  -0.01    -0.01   0.04  -0.01    -0.05   0.02  -0.07
  72   1    -0.00   0.00   0.03    -0.03   0.05   0.01    -0.05   0.03  -0.11
  73   1     0.02  -0.03   0.09    -0.04   0.02   0.04    -0.01   0.01  -0.05
  74   1     0.02  -0.05   0.10    -0.03  -0.01   0.05     0.04  -0.03   0.05
  75   1     0.02  -0.04   0.06    -0.01  -0.02   0.03     0.04  -0.04   0.08
  76   1     0.03  -0.02  -0.04     0.01   0.04  -0.03     0.01   0.06  -0.01
  77   1     0.03  -0.02  -0.09     0.03   0.06  -0.04     0.04   0.13  -0.03
  78   1    -0.00  -0.00  -0.11     0.03   0.06  -0.03     0.06   0.11  -0.01
  79   1    -0.04   0.01  -0.09     0.02   0.02  -0.01     0.04   0.03   0.03
  80   1    -0.04   0.01  -0.04     0.01  -0.00  -0.01     0.01  -0.04   0.05
  81   1    -0.00   0.02   0.01    -0.01  -0.00  -0.01     0.02  -0.03   0.00
                      7                      8                      9
                        a                      a                      a 
 Frequencies --    34.2797                36.3065                42.3208
 Red. masses --    14.0984                11.3122                11.4756
 Frc consts  --     0.0000                 0.0000                 0.0000
 IR Inten    --     0.5169                 0.1745                 2.9945
 Raman Activ --     0.0000                 0.0000                 0.0000
 Depolar     --     0.0000                 0.0000                 0.0000
 Atom AN      X      Y      Z        X      Y      Z        X      Y      Z
   1  35     0.07   0.21   0.04     0.02   0.09  -0.06     0.06  -0.04  -0.10
   2   6     0.01   0.04  -0.02    -0.03   0.04   0.03    -0.06  -0.03   0.03
   3   6     0.05   0.02  -0.04    -0.08   0.05   0.06    -0.22  -0.06   0.15
   4   6     0.04  -0.00  -0.06    -0.10   0.05   0.09    -0.26  -0.07   0.19
   5   6     0.00   0.00  -0.07    -0.07   0.05   0.09    -0.16  -0.05   0.11
   6   6    -0.03   0.03  -0.06    -0.03   0.04   0.07    -0.02  -0.02   0.01
   7   7    -0.04   0.03  -0.08    -0.01   0.04   0.07     0.02  -0.01  -0.05
   8   6    -0.03   0.04  -0.08     0.00   0.05   0.07     0.02   0.01  -0.12
   9   6    -0.03   0.04  -0.07     0.00   0.04   0.06     0.02   0.01  -0.10
  10   6    -0.05   0.03  -0.05    -0.02   0.03  -0.03     0.02   0.01  -0.30
  11   6    -0.04   0.01  -0.02    -0.02  -0.00  -0.09     0.02   0.00  -0.27
  12   6    -0.03   0.01  -0.00     0.01  -0.01  -0.06     0.03   0.01  -0.04
  13   6    -0.03  -0.01   0.03     0.01  -0.04  -0.10     0.03   0.00   0.01
  14   6    -0.02  -0.02   0.06     0.04  -0.06  -0.07     0.03  -0.04   0.16
  15   6    -0.02  -0.03   0.07     0.04  -0.09  -0.07     0.03  -0.03   0.17
  16   6    -0.03  -0.04   0.06     0.02  -0.10  -0.10     0.03   0.01   0.06
  17   7    -0.03  -0.03   0.05     0.02  -0.12  -0.08     0.04   0.02   0.05
  18   6    -0.05  -0.03   0.02    -0.02  -0.07  -0.04     0.01   0.01   0.01
  19   6    -0.08  -0.05   0.02     0.04  -0.16  -0.14    -0.09   0.02   0.07
  20   6    -0.12  -0.05  -0.00    -0.04  -0.12  -0.10    -0.12   0.02   0.02
  21   6    -0.12  -0.02  -0.03    -0.17   0.01   0.05    -0.05   0.00  -0.10
  22   6    -0.08   0.01  -0.03    -0.23   0.10   0.15     0.05  -0.01  -0.17
  23   6    -0.05  -0.00  -0.01    -0.16   0.06   0.10     0.08  -0.00  -0.11
  24   6    -0.02  -0.03   0.02     0.05  -0.06  -0.02     0.02   0.01   0.04
  25   6     0.00  -0.05   0.01    -0.03  -0.17  -0.14    -0.01   0.01   0.03
  26   6     0.01  -0.05  -0.02     0.02  -0.11  -0.08    -0.03  -0.01   0.03
  27   6     0.01  -0.03  -0.03     0.14   0.05   0.10    -0.03  -0.04   0.04
  28   6    -0.01  -0.01  -0.02     0.22   0.15   0.21    -0.00  -0.04   0.05
  29   6    -0.02  -0.01   0.00     0.17   0.09   0.15     0.02  -0.02   0.05
  30   6    -0.03  -0.03   0.05    -0.01  -0.08  -0.15     0.03   0.04  -0.06
  31   6    -0.04  -0.02   0.04    -0.01  -0.04  -0.15     0.03   0.04  -0.09
  32   6    -0.02   0.02  -0.03     0.02   0.01   0.05     0.03   0.03   0.15
  33   6    -0.02   0.03  -0.07     0.02   0.04   0.11     0.03   0.03   0.12
  34   7    -0.02   0.04  -0.08     0.01   0.05   0.05     0.02   0.02  -0.18
  35   6    -0.03   0.02  -0.07     0.01   0.04   0.04     0.02   0.01  -0.11
  36   6     0.05  -0.03  -0.05     0.03   0.03   0.02     0.00   0.01  -0.04
  37   6    -0.03  -0.05  -0.22     0.04  -0.02   0.03     0.05   0.02   0.06
  38   6     0.09  -0.14  -0.17     0.07  -0.03   0.01     0.04   0.00   0.18
  39   6     0.29  -0.22   0.05     0.08   0.00  -0.02    -0.01  -0.03   0.19
  40   6     0.35  -0.19   0.21     0.07   0.05  -0.03    -0.06  -0.04   0.08
  41   6     0.23  -0.10   0.16     0.05   0.06  -0.02    -0.05  -0.02  -0.04
  42   6    -0.04   0.02  -0.06    -0.00   0.03   0.05     0.02  -0.00  -0.04
  43   6    -0.03   0.03   0.00    -0.01   0.01   0.02     0.03   0.01  -0.01
  44   6    -0.07   0.09   0.03     0.01  -0.04   0.01     0.02   0.05  -0.02
  45   6    -0.06   0.12   0.10    -0.01  -0.08  -0.02     0.03   0.09  -0.01
  46   6    -0.01   0.08   0.15    -0.05  -0.06  -0.04     0.06   0.09   0.00
  47   6     0.04   0.02   0.13    -0.07  -0.01  -0.04     0.07   0.04   0.01
  48   6     0.02  -0.01   0.06    -0.05   0.03  -0.01     0.05   0.00   0.00
  49   6    -0.03   0.05  -0.03    -0.01   0.04   0.03     0.03  -0.01  -0.03
  50   1     0.02   0.00  -0.01    -0.03   0.01   0.02    -0.09  -0.02   0.06
  51   1     0.02  -0.01  -0.02    -0.04   0.02   0.03    -0.11  -0.03   0.08
  52   1    -0.00  -0.00  -0.03    -0.02   0.02   0.03    -0.05  -0.02   0.04
  53   1    -0.02   0.01  -0.02    -0.01   0.01  -0.02     0.00  -0.00  -0.14
  54   1    -0.02   0.00  -0.00    -0.01  -0.01  -0.05     0.00  -0.01  -0.12
  55   1    -0.01  -0.01   0.02     0.02  -0.02  -0.01     0.01  -0.02   0.07
  56   1    -0.00  -0.01   0.03     0.02  -0.03  -0.02     0.01  -0.02   0.08
  57   1    -0.02  -0.02   0.01     0.04  -0.08  -0.07    -0.04   0.01   0.05
  58   1    -0.04  -0.02   0.00     0.00  -0.05  -0.05    -0.06   0.01   0.02
  59   1    -0.04  -0.00  -0.01    -0.07   0.01   0.02    -0.02  -0.00  -0.04
  60   1    -0.02   0.01  -0.01    -0.10   0.06   0.07     0.03  -0.01  -0.07
  61   1    -0.01   0.00  -0.00    -0.06   0.03   0.05     0.05  -0.00  -0.05
  62   1     0.00  -0.02   0.01    -0.04  -0.09  -0.08    -0.00   0.01   0.01
  63   1     0.01  -0.02  -0.01    -0.01  -0.06  -0.05    -0.02  -0.00   0.01
  64   1     0.00  -0.01  -0.02     0.05   0.03   0.04    -0.01  -0.01   0.01
  65   1    -0.00   0.00  -0.01     0.09   0.08   0.10    -0.00  -0.02   0.02
  66   1    -0.01   0.00   0.00     0.07   0.05   0.07     0.01  -0.01   0.01
  67   1    -0.01  -0.01   0.02    -0.01  -0.02  -0.05     0.01   0.02  -0.04
  68   1    -0.01  -0.00   0.01    -0.01  -0.01  -0.05     0.01   0.02  -0.06
  69   1     0.00   0.00  -0.01     0.01   0.00   0.03     0.01   0.02   0.09
  70   1    -0.00   0.01  -0.03     0.01   0.02   0.06     0.01   0.02   0.08
  71   1    -0.05  -0.00  -0.11     0.01  -0.01   0.01     0.03   0.01   0.02
  72   1     0.01  -0.05  -0.09     0.02  -0.02   0.01     0.02   0.00   0.08
  73   1     0.11  -0.08   0.03     0.03  -0.00  -0.01    -0.00  -0.01   0.08
  74   1     0.15  -0.07   0.11     0.02   0.02  -0.02    -0.03  -0.02   0.02
  75   1     0.08  -0.02   0.08     0.01   0.03  -0.01    -0.02  -0.01  -0.04
  76   1    -0.03   0.03  -0.00     0.01  -0.02   0.01    -0.00   0.02  -0.01
  77   1    -0.03   0.05   0.03     0.00  -0.04  -0.00     0.01   0.04  -0.00
  78   1     0.00   0.03   0.06    -0.02  -0.03  -0.02     0.02   0.04   0.00
  79   1     0.02  -0.00   0.05    -0.03   0.00  -0.02     0.03   0.01   0.01
  80   1     0.02  -0.02   0.01    -0.02   0.02  -0.00     0.02  -0.01   0.00
  81   1    -0.02   0.02  -0.00     0.01   0.01   0.00     0.04   0.00  -0.03
                     10                     11                     12
                        a                      a                      a 
 Frequencies --    49.7484                56.1943                58.4100
 Red. masses --    11.7615                10.9696                10.9866
 Frc consts  --     0.0000                 0.0000                 0.0000
 IR Inten    --     0.7405                 0.6080                 0.2024
 Raman Activ --     0.0000                 0.0000                 0.0000
 Depolar     --     0.0000                 0.0000                 0.0000
 Atom AN      X      Y      Z        X      Y      Z        X      Y      Z
   1  35    -0.09  -0.08   0.06     0.03  -0.08   0.01     0.04   0.09  -0.04
   2   6     0.07   0.01  -0.02     0.02  -0.03  -0.01    -0.01   0.02  -0.01
   3   6     0.16   0.06  -0.10     0.03  -0.04  -0.02     0.01   0.02  -0.02
   4   6     0.20   0.08  -0.12     0.04  -0.05  -0.03     0.01   0.02  -0.02
   5   6     0.15   0.06  -0.05     0.03  -0.04  -0.04     0.01   0.02  -0.03
   6   6     0.07   0.02   0.02     0.02  -0.03  -0.03     0.00   0.02  -0.02
   7   7     0.05   0.01   0.07     0.02  -0.03  -0.05     0.03   0.03  -0.05
   8   6     0.04   0.00   0.07     0.02  -0.02  -0.04     0.03   0.01   0.00
   9   6     0.04  -0.01   0.03     0.02   0.01  -0.02     0.03   0.01   0.02
  10   6     0.03  -0.01   0.03     0.04   0.03   0.05     0.03   0.00   0.01
  11   6     0.03  -0.02   0.00     0.04   0.07   0.10     0.03  -0.00   0.01
  12   6     0.02  -0.02  -0.01     0.00   0.09   0.07     0.03  -0.00   0.02
  13   6     0.02  -0.02  -0.01    -0.00   0.11   0.08     0.04  -0.01   0.00
  14   6     0.01  -0.06   0.15    -0.00   0.11   0.08     0.04  -0.03   0.06
  15   6     0.01  -0.05   0.15     0.00   0.10   0.11     0.04  -0.03   0.05
  16   6    -0.00  -0.00  -0.01    -0.00   0.09   0.12     0.03  -0.01  -0.04
  17   7     0.00   0.01  -0.02     0.00   0.08   0.19     0.04  -0.01  -0.05
  18   6    -0.04   0.02  -0.03     0.00   0.05   0.08     0.03  -0.00  -0.03
  19   6    -0.18   0.05   0.08     0.07  -0.11  -0.08    -0.03   0.04   0.03
  20   6    -0.28   0.10   0.09     0.10  -0.16  -0.22    -0.05   0.06   0.05
  21   6    -0.23   0.11  -0.02     0.04  -0.06  -0.19    -0.02   0.04   0.01
  22   6    -0.07   0.06  -0.15    -0.05   0.11  -0.02     0.03  -0.00  -0.05
  23   6     0.02   0.02  -0.15    -0.07   0.16   0.12     0.06  -0.02  -0.07
  24   6    -0.04  -0.01   0.02    -0.02   0.04   0.09     0.03  -0.01  -0.02
  25   6    -0.15  -0.02  -0.02    -0.12  -0.15  -0.10    -0.02  -0.01  -0.03
  26   6    -0.24  -0.08   0.00    -0.18  -0.25  -0.25    -0.03  -0.01   0.01
  27   6    -0.21  -0.13   0.07    -0.14  -0.16  -0.19    -0.00  -0.00   0.06
  28   6    -0.09  -0.12   0.12    -0.02   0.05   0.03     0.04  -0.01   0.08
  29   6    -0.00  -0.06   0.10     0.04   0.14   0.16     0.05  -0.01   0.03
  30   6     0.01   0.04  -0.17    -0.01   0.11   0.07     0.03   0.01  -0.10
  31   6     0.01   0.03  -0.16    -0.01   0.12   0.05     0.03   0.01  -0.08
  32   6     0.04  -0.02  -0.02    -0.02   0.06   0.01     0.04   0.00   0.05
  33   6     0.04  -0.01  -0.02    -0.02   0.02  -0.04     0.04   0.00   0.04
  34   7     0.04  -0.00   0.09     0.03  -0.03  -0.04     0.03   0.01   0.02
  35   6     0.04   0.00   0.07     0.02  -0.03  -0.04     0.03   0.02  -0.02
  36   6     0.05   0.01   0.04     0.00  -0.02  -0.01    -0.01   0.04   0.01
  37   6     0.06  -0.03   0.04     0.01   0.02   0.00    -0.10   0.19  -0.13
  38   6     0.06  -0.02  -0.01    -0.03   0.04   0.03    -0.17   0.24  -0.14
  39   6     0.06   0.03  -0.08    -0.07   0.02   0.03    -0.16   0.13   0.01
  40   6     0.05   0.06  -0.08    -0.08  -0.02   0.01    -0.07  -0.03   0.19
  41   6     0.05   0.05  -0.03    -0.04  -0.04  -0.01    -0.00  -0.08   0.18
  42   6     0.04   0.01   0.07     0.02  -0.03  -0.04     0.04   0.03  -0.07
  43   6     0.04   0.00   0.03     0.02  -0.03  -0.02     0.02  -0.01  -0.07
  44   6     0.06  -0.05   0.03     0.02   0.03  -0.03     0.07   0.08  -0.14
  45   6     0.06  -0.05  -0.03     0.03   0.05  -0.01     0.00  -0.08  -0.05
  46   6     0.05   0.02  -0.09     0.05   0.01   0.03    -0.11  -0.33   0.13
  47   6     0.03   0.07  -0.09     0.05  -0.04   0.04    -0.14  -0.37   0.17
  48   6     0.02   0.06  -0.03     0.04  -0.06   0.01    -0.07  -0.20   0.06
  49   6     0.03  -0.00   0.03     0.01  -0.03  -0.02    -0.02   0.02  -0.00
  50   1     0.06   0.02  -0.04     0.01  -0.01  -0.00     0.01   0.01  -0.01
  51   1     0.08   0.03  -0.05     0.01  -0.02  -0.01     0.01   0.00  -0.01
  52   1     0.05   0.02  -0.01     0.01  -0.01  -0.01     0.01   0.01  -0.01
  53   1     0.01  -0.00   0.02     0.02   0.01   0.02     0.01   0.00   0.00
  54   1     0.01  -0.00   0.00     0.02   0.03   0.05     0.01  -0.00  -0.00
  55   1     0.00  -0.03   0.08    -0.00   0.03   0.02     0.01  -0.01   0.04
  56   1     0.00  -0.03   0.08     0.00   0.03   0.03     0.01  -0.01   0.03
  57   1    -0.07   0.01   0.05     0.03  -0.06  -0.03    -0.01   0.02   0.02
  58   1    -0.12   0.04   0.05     0.05  -0.08  -0.10    -0.03   0.02   0.03
  59   1    -0.09   0.04  -0.00     0.02  -0.03  -0.09    -0.01   0.02   0.01
  60   1    -0.01   0.02  -0.07    -0.03   0.06   0.00     0.02  -0.00  -0.02
  61   1     0.04  -0.00  -0.07    -0.04   0.08   0.07     0.03  -0.01  -0.03
  62   1    -0.05   0.01  -0.02    -0.04  -0.07  -0.04    -0.01  -0.00  -0.02
  63   1    -0.10  -0.03  -0.01    -0.08  -0.12  -0.12    -0.02  -0.00  -0.00
  64   1    -0.08  -0.05   0.02    -0.06  -0.07  -0.09    -0.00   0.00   0.03
  65   1    -0.02  -0.04   0.05     0.01   0.04   0.02     0.02  -0.00   0.03
  66   1     0.03  -0.02   0.04     0.04   0.08   0.09     0.03  -0.00   0.01
  67   1     0.00   0.03  -0.08    -0.00   0.03   0.01     0.01   0.01  -0.04
  68   1    -0.00   0.02  -0.08    -0.00   0.04   0.00     0.00   0.01  -0.04
  69   1     0.02  -0.01  -0.01    -0.01   0.02   0.00     0.01   0.00   0.02
  70   1     0.01  -0.00  -0.01    -0.01  -0.00  -0.03     0.01   0.00   0.01
  71   1     0.02  -0.02   0.03     0.01   0.01   0.00    -0.03   0.08  -0.07
  72   1     0.02  -0.01  -0.00    -0.01   0.02   0.01    -0.07   0.11  -0.08
  73   1     0.02   0.01  -0.04    -0.03   0.01   0.01    -0.06   0.05  -0.00
  74   1     0.01   0.03  -0.04    -0.03  -0.01   0.00    -0.01  -0.04   0.09
  75   1     0.01   0.02  -0.01    -0.01  -0.02  -0.01     0.02  -0.06   0.09
  76   1     0.02  -0.03   0.02     0.00   0.01  -0.02     0.04   0.07  -0.07
  77   1     0.02  -0.03  -0.01     0.01   0.03  -0.01     0.01  -0.00  -0.03
  78   1     0.01   0.01  -0.04     0.02   0.01   0.01    -0.05  -0.14   0.07
  79   1     0.00   0.03  -0.04     0.02  -0.02   0.02    -0.07  -0.16   0.08
  80   1     0.00   0.03  -0.01     0.01  -0.03   0.01    -0.02  -0.07   0.02
  81   1    -0.01  -0.01   0.02     0.00  -0.01  -0.00    -0.01   0.00   0.00
                     13                     14                     15
                        a                      a                      a 
 Frequencies --    64.2611                72.7794                79.8245
 Red. masses --    11.4719                10.7535                11.0318
 Frc consts  --     0.0000                 0.0000                 0.0000
 IR Inten    --     0.8096                 1.6007                 0.7163
 Raman Activ --     0.0000                 0.0000                 0.0000
 Depolar     --     0.0000                 0.0000                 0.0000
 Atom AN      X      Y      Z        X      Y      Z        X      Y      Z
   1  35    -0.01   0.08   0.04     0.04  -0.04  -0.06    -0.03   0.10   0.04
   2   6    -0.01  -0.01  -0.03    -0.02  -0.00   0.04    -0.03   0.00  -0.01
   3   6    -0.07  -0.05   0.03    -0.08   0.00   0.08    -0.20  -0.05   0.13
   4   6    -0.08  -0.07   0.01    -0.07   0.01   0.09    -0.20  -0.06   0.12
   5   6    -0.04  -0.05  -0.06    -0.01   0.02   0.06    -0.07  -0.02  -0.01
   6   6     0.02  -0.01  -0.11     0.03   0.01   0.03     0.05   0.02  -0.10
   7   7     0.03   0.00  -0.17     0.05   0.02   0.02     0.06   0.02  -0.12
   8   6     0.02  -0.01  -0.08     0.05   0.03   0.01     0.03  -0.02  -0.00
   9   6     0.03  -0.03   0.06     0.04   0.04  -0.02     0.04  -0.04  -0.01
  10   6     0.03  -0.02   0.27     0.04   0.03  -0.04     0.04  -0.04   0.07
  11   6     0.03  -0.01   0.34     0.04   0.03  -0.07     0.04  -0.03   0.04
  12   6     0.02  -0.02   0.21     0.03   0.03  -0.11     0.03  -0.04  -0.05
  13   6     0.02  -0.02   0.11     0.03   0.02  -0.08     0.03  -0.02  -0.04
  14   6     0.04   0.00   0.01     0.02   0.06  -0.21     0.01  -0.02  -0.04
  15   6     0.04   0.00  -0.12     0.02   0.05  -0.15     0.01  -0.00   0.00
  16   6     0.01  -0.01  -0.15     0.03  -0.01   0.04     0.03   0.01   0.02
  17   7     0.01  -0.04  -0.22     0.03  -0.01   0.05     0.03   0.03   0.06
  18   6     0.01  -0.01  -0.12    -0.01  -0.02  -0.00     0.02   0.03   0.03
  19   6     0.03   0.04  -0.09    -0.01  -0.11  -0.07    -0.01   0.01   0.03
  20   6    -0.02   0.10   0.03    -0.13  -0.04  -0.03    -0.03   0.01   0.00
  21   6    -0.08   0.11   0.13    -0.26   0.11   0.09    -0.02   0.03  -0.03
  22   6    -0.08   0.05   0.09    -0.23   0.18   0.11     0.01   0.04  -0.04
  23   6    -0.03  -0.01  -0.04    -0.09   0.10   0.06     0.03   0.04  -0.01
  24   6    -0.02  -0.02  -0.10     0.01  -0.02   0.06     0.03   0.02   0.04
  25   6    -0.09   0.02  -0.09     0.06   0.08   0.16     0.01   0.00   0.02
  26   6    -0.13   0.03   0.01    -0.01  -0.00   0.09    -0.03  -0.04  -0.02
  27   6    -0.09  -0.01   0.10    -0.14  -0.18  -0.09    -0.04  -0.06  -0.04
  28   6    -0.01  -0.06   0.09    -0.17  -0.26  -0.16    -0.01  -0.03  -0.00
  29   6     0.03  -0.06  -0.01    -0.09  -0.16  -0.07     0.02   0.01   0.04
  30   6    -0.02  -0.02  -0.07     0.04  -0.06   0.18     0.05   0.00   0.01
  31   6    -0.01  -0.03   0.06     0.04  -0.04   0.13     0.05  -0.01  -0.02
  32   6     0.03  -0.02   0.12     0.03   0.03  -0.12     0.03  -0.05  -0.13
  33   6     0.03  -0.03   0.04     0.03   0.04  -0.06     0.03  -0.05  -0.09
  34   7     0.02  -0.01  -0.12     0.07   0.02   0.01     0.01  -0.04   0.11
  35   6     0.02   0.01  -0.16     0.06   0.02   0.02     0.01  -0.02   0.08
  36   6     0.01   0.00  -0.11     0.05   0.02   0.02     0.00  -0.01   0.09
  37   6     0.07   0.00   0.01     0.06   0.04   0.03    -0.07   0.04  -0.06
  38   6     0.07  -0.02   0.14     0.04   0.05   0.03    -0.11   0.10  -0.19
  39   6     0.01  -0.05   0.14     0.01   0.05   0.01    -0.08   0.08  -0.14
  40   6    -0.05  -0.04  -0.01     0.01   0.04  -0.00     0.02  -0.00   0.06
  41   6    -0.05  -0.01  -0.13     0.03   0.03  -0.00     0.05  -0.05   0.17
  42   6     0.03   0.01  -0.18     0.06   0.01   0.02     0.03   0.02  -0.05
  43   6     0.03   0.02  -0.10     0.05   0.00   0.00     0.04   0.03  -0.03
  44   6    -0.04   0.05  -0.04     0.10   0.05  -0.05    -0.08  -0.19   0.15
  45   6    -0.03   0.07   0.07     0.08   0.02  -0.06    -0.11  -0.26   0.22
  46   6     0.05   0.05   0.11     0.03  -0.06  -0.00    -0.01  -0.07   0.08
  47   6     0.12   0.01   0.06    -0.01  -0.11   0.05     0.12   0.19  -0.12
  48   6     0.11  -0.01  -0.05     0.00  -0.08   0.05     0.13   0.22  -0.16
  49   6     0.03   0.01  -0.10     0.02   0.00   0.03     0.10   0.04  -0.13
  50   1    -0.03  -0.02   0.03    -0.04  -0.00   0.03    -0.09  -0.02   0.07
  51   1    -0.04  -0.03   0.02    -0.03   0.01   0.03    -0.09  -0.03   0.06
  52   1    -0.02  -0.02  -0.02     0.00   0.01   0.02    -0.02  -0.01  -0.00
  53   1     0.01  -0.00   0.10     0.01   0.01  -0.01     0.01  -0.01   0.04
  54   1     0.01   0.00   0.14     0.01   0.01  -0.02     0.01  -0.01   0.03
  55   1     0.02   0.00   0.01     0.00   0.03  -0.10    -0.00  -0.01  -0.02
  56   1     0.02   0.00  -0.05     0.00   0.02  -0.07    -0.00   0.00   0.00
  57   1     0.02   0.01  -0.05     0.02  -0.06  -0.04    -0.00  -0.00   0.02
  58   1    -0.00   0.04   0.02    -0.04  -0.03  -0.02    -0.02  -0.00   0.00
  59   1    -0.04   0.05   0.07    -0.11   0.05   0.04    -0.01   0.01  -0.01
  60   1    -0.04   0.02   0.05    -0.09   0.08   0.05     0.01   0.01  -0.02
  61   1    -0.01  -0.02  -0.02    -0.02   0.04   0.02     0.02   0.01  -0.00
  62   1    -0.04   0.02  -0.04     0.04   0.06   0.08     0.00   0.00   0.01
  63   1    -0.06   0.02   0.01     0.01   0.02   0.05    -0.01  -0.02  -0.01
  64   1    -0.03  -0.00   0.05    -0.06  -0.08  -0.05    -0.02  -0.03  -0.02
  65   1     0.01  -0.03   0.05    -0.08  -0.11  -0.08    -0.00  -0.01  -0.00
  66   1     0.03  -0.03  -0.01    -0.03  -0.06  -0.04     0.01   0.01   0.02
  67   1    -0.01  -0.01  -0.03     0.01  -0.03   0.10     0.02   0.00   0.01
  68   1    -0.01  -0.01   0.04     0.02  -0.02   0.07     0.02  -0.01  -0.01
  69   1     0.01  -0.01   0.02     0.01   0.01  -0.05     0.01  -0.02  -0.06
  70   1     0.01  -0.01  -0.01     0.01   0.01  -0.01     0.01  -0.02  -0.04
  71   1     0.03   0.01   0.00     0.02   0.01   0.01    -0.03   0.01  -0.02
  72   1     0.03  -0.01   0.07     0.01   0.02   0.01    -0.05   0.05  -0.10
  73   1     0.01  -0.02   0.07     0.00   0.02   0.00    -0.03   0.04  -0.07
  74   1    -0.03  -0.01  -0.01    -0.00   0.01  -0.00     0.02  -0.01   0.03
  75   1    -0.03  -0.00  -0.07     0.01   0.01  -0.00     0.03  -0.03   0.09
  76   1    -0.03   0.02  -0.02     0.04   0.03  -0.03    -0.04  -0.09   0.07
  77   1    -0.03   0.03   0.03     0.03   0.02  -0.03    -0.06  -0.13   0.11
  78   1     0.02   0.02   0.06     0.00  -0.03  -0.00    -0.01  -0.03   0.04
  79   1     0.05  -0.00   0.03    -0.02  -0.05   0.03     0.06   0.10  -0.06
  80   1     0.05  -0.01  -0.02    -0.01  -0.03   0.02     0.06   0.11  -0.08
  81   1     0.02   0.01  -0.04     0.02  -0.00   0.00     0.06   0.02  -0.06
                     16                     17                     18
                        a                      a                      a 
 Frequencies --    88.7885                94.9527               102.6558
 Red. masses --    11.1405                11.2235                29.5196
 Frc consts  --     0.0000                 0.0000                 0.0000
 IR Inten    --     0.2141                 1.2463                 1.3402
 Raman Activ --     0.0000                 0.0000                 0.0000
 Depolar     --     0.0000                 0.0000                 0.0000
 Atom AN      X      Y      Z        X      Y      Z        X      Y      Z
   1  35    -0.07  -0.08   0.03    -0.01   0.06  -0.05     0.03  -0.51  -0.06
   2   6     0.07   0.02  -0.02    -0.03   0.03   0.03     0.09  -0.02   0.09
   3   6     0.11   0.05  -0.06    -0.10   0.04   0.08     0.07   0.01   0.10
   4   6     0.11   0.06  -0.05    -0.08   0.06   0.08     0.08   0.02   0.11
   5   6     0.06   0.04   0.01     0.01   0.06   0.04     0.10   0.01   0.13
   6   6     0.05   0.02   0.03     0.05   0.05   0.02     0.10  -0.00   0.14
   7   7     0.02   0.01   0.05     0.05   0.05   0.02     0.03   0.03   0.09
   8   6    -0.00  -0.01  -0.02     0.00  -0.02   0.09    -0.01   0.02  -0.05
   9   6     0.01  -0.07  -0.00     0.02  -0.11   0.10    -0.01   0.03  -0.03
  10   6    -0.02  -0.09  -0.21    -0.02  -0.15   0.14    -0.00   0.05   0.04
  11   6    -0.01  -0.13  -0.15    -0.01  -0.20   0.04    -0.00   0.08   0.08
  12   6     0.03  -0.14   0.11     0.01  -0.22  -0.10    -0.03   0.08  -0.00
  13   6     0.03  -0.12   0.12     0.00  -0.19  -0.09    -0.03   0.08  -0.01
  14   6     0.00  -0.11   0.13    -0.09  -0.14  -0.09    -0.00   0.09  -0.09
  15   6    -0.01  -0.02   0.02    -0.10  -0.05  -0.04     0.00   0.04  -0.07
  16   6     0.01   0.03  -0.05    -0.02   0.00   0.01    -0.01   0.00   0.01
  17   7     0.00   0.07  -0.07    -0.04   0.10   0.12    -0.01  -0.03  -0.00
  18   6     0.01   0.07  -0.04    -0.04   0.09   0.09    -0.00  -0.04  -0.01
  19   6     0.13   0.00  -0.16    -0.04   0.09   0.09    -0.05  -0.00   0.04
  20   6     0.18  -0.01  -0.16     0.04   0.03  -0.01    -0.07   0.02   0.07
  21   6     0.07   0.05  -0.01     0.12  -0.03  -0.11    -0.04  -0.01   0.02
  22   6    -0.07   0.12   0.13     0.09  -0.01  -0.08     0.02  -0.05  -0.04
  23   6    -0.09   0.12   0.11     0.01   0.06   0.02     0.03  -0.06  -0.05
  24   6    -0.01   0.07  -0.02    -0.02   0.09   0.07    -0.01  -0.04  -0.01
  25   6    -0.02   0.14   0.03    -0.04   0.03   0.01    -0.01  -0.07  -0.04
  26   6    -0.09   0.09   0.03    -0.08  -0.03  -0.08     0.01  -0.05  -0.03
  27   6    -0.14  -0.03  -0.04    -0.08  -0.01  -0.09     0.05   0.01   0.02
  28   6    -0.12  -0.08  -0.07    -0.04   0.08   0.00     0.05   0.04   0.04
  29   6    -0.04  -0.02  -0.05    -0.01   0.13   0.08     0.02   0.01   0.02
  30   6     0.05  -0.00  -0.02     0.07  -0.04   0.01    -0.04  -0.00   0.07
  31   6     0.06  -0.07   0.05     0.08  -0.14  -0.03    -0.05   0.04   0.06
  32   6     0.06  -0.10   0.29     0.04  -0.20  -0.17    -0.04   0.06  -0.08
  33   6     0.05  -0.07   0.22     0.04  -0.14  -0.05    -0.04   0.04  -0.07
  34   7    -0.05   0.02  -0.10    -0.05   0.01   0.08    -0.05   0.08  -0.20
  35   6    -0.04   0.06  -0.07    -0.03   0.09  -0.03    -0.05   0.13  -0.17
  36   6    -0.04   0.06  -0.05    -0.03   0.09  -0.07    -0.05   0.13  -0.16
  37   6    -0.06   0.06  -0.09     0.01   0.01   0.00    -0.05   0.14  -0.15
  38   6    -0.03   0.03  -0.05     0.11  -0.07   0.10     0.00   0.08  -0.01
  39   6     0.03  -0.01   0.04     0.15  -0.05   0.10     0.06  -0.01   0.14
  40   6     0.04  -0.02   0.08     0.08   0.06  -0.03     0.05  -0.01   0.11
  41   6     0.00   0.02   0.03    -0.00   0.14  -0.11    -0.01   0.07  -0.05
  42   6    -0.01   0.06   0.00     0.02   0.10  -0.06    -0.01   0.12  -0.03
  43   6    -0.00   0.06  -0.00     0.02   0.11  -0.06     0.00   0.12  -0.03
  44   6    -0.02  -0.04   0.04     0.05   0.15  -0.10    -0.02   0.01   0.02
  45   6    -0.06  -0.12   0.05     0.02   0.06  -0.05    -0.08  -0.11   0.06
  46   6    -0.07  -0.07   0.01    -0.05  -0.07   0.05    -0.11  -0.09   0.03
  47   6    -0.04   0.07  -0.06    -0.07  -0.10   0.07    -0.07   0.07  -0.05
  48   6    -0.01   0.13  -0.06    -0.02   0.00   0.01    -0.03   0.17  -0.07
  49   6     0.06   0.01   0.01     0.04   0.04   0.00     0.12  -0.02   0.11
  50   1     0.04   0.02  -0.03    -0.05   0.01   0.03     0.02   0.00   0.03
  51   1     0.04   0.02  -0.02    -0.04   0.02   0.03     0.02   0.01   0.03
  52   1     0.01   0.01   0.01     0.01   0.02   0.01     0.03   0.01   0.04
  53   1    -0.01  -0.03  -0.12    -0.02  -0.04   0.07     0.00   0.01   0.03
  54   1    -0.01  -0.05  -0.10    -0.01  -0.06   0.02     0.00   0.03   0.05
  55   1    -0.00  -0.04   0.06    -0.04  -0.05  -0.03     0.00   0.04  -0.05
  56   1    -0.01  -0.00  -0.00    -0.05  -0.01  -0.01     0.01   0.01  -0.03
  57   1     0.06  -0.01  -0.07    -0.03   0.04   0.04    -0.02   0.00   0.02
  58   1     0.08  -0.02  -0.08     0.01   0.01  -0.00    -0.03   0.01   0.03
  59   1     0.03   0.01  -0.00     0.06  -0.03  -0.06    -0.02   0.00   0.01
  60   1    -0.05   0.05   0.07     0.04  -0.02  -0.04     0.02  -0.02  -0.02
  61   1    -0.06   0.05   0.06    -0.00   0.02   0.01     0.02  -0.02  -0.03
  62   1     0.00   0.07   0.02    -0.01   0.00   0.00    -0.01  -0.03  -0.02
  63   1    -0.03   0.04   0.02    -0.03  -0.03  -0.04     0.00  -0.02  -0.01
  64   1    -0.06  -0.03  -0.02    -0.03  -0.02  -0.05     0.02   0.01   0.01
  65   1    -0.04  -0.05  -0.03    -0.01   0.03   0.00     0.02   0.02   0.02
  66   1    -0.01  -0.01  -0.02     0.00   0.05   0.04     0.00   0.01   0.01
  67   1     0.02   0.01  -0.02     0.04  -0.00   0.01    -0.02  -0.01   0.03
  68   1     0.03  -0.03   0.02     0.04  -0.05  -0.00    -0.02   0.01   0.03
  69   1     0.02  -0.02   0.14     0.02  -0.07  -0.09    -0.02   0.02  -0.04
  70   1     0.03  -0.01   0.10     0.01  -0.04  -0.02    -0.02   0.00  -0.03
  71   1    -0.03   0.02  -0.04    -0.00   0.00  -0.00    -0.02   0.05  -0.07
  72   1    -0.01   0.01  -0.02     0.04  -0.05   0.05     0.00   0.03   0.00
  73   1     0.02  -0.01   0.02     0.07  -0.04   0.06     0.03  -0.02   0.08
  74   1     0.03  -0.01   0.04     0.03   0.03  -0.02     0.03  -0.02   0.06
  75   1     0.00   0.00   0.02    -0.01   0.06  -0.05    -0.01   0.02  -0.02
  76   1    -0.00  -0.02   0.02     0.03   0.07  -0.04    -0.00   0.00   0.01
  77   1    -0.02  -0.06   0.03     0.01   0.03  -0.02    -0.03  -0.07   0.03
  78   1    -0.03  -0.04   0.01    -0.02  -0.05   0.03    -0.04  -0.05   0.02
  79   1    -0.01   0.03  -0.03    -0.03  -0.06   0.04    -0.02   0.03  -0.03
  80   1    -0.00   0.06  -0.03    -0.01  -0.00   0.01    -0.01   0.08  -0.03
  81   1     0.01  -0.00   0.01     0.03   0.01  -0.01     0.04  -0.01   0.03
                     19                     20                     21
                        a                      a                      a 
 Frequencies --   104.8635               122.6226               136.4460
 Red. masses --    10.6795                11.8082                11.4999
 Frc consts  --     0.0000                 0.0000                 0.0000
 IR Inten    --     2.9242                 1.9035                 1.1733
 Raman Activ --     0.0000                 0.0000                 0.0000
 Depolar     --     0.0000                 0.0000                 0.0000
 Atom AN      X      Y      Z        X      Y      Z        X      Y      Z
   1  35     0.01  -0.09  -0.01    -0.06   0.07   0.06    -0.06   0.00   0.07
   2   6     0.02  -0.00   0.02     0.04   0.00  -0.07     0.11   0.02  -0.09
   3   6    -0.03  -0.01   0.05     0.13   0.02  -0.14     0.08   0.02  -0.07
   4   6    -0.01  -0.00   0.04     0.06   0.00  -0.08     0.02   0.01  -0.01
   5   6     0.03   0.00   0.01    -0.08  -0.02   0.01    -0.02   0.01   0.02
   6   6     0.05   0.01  -0.00    -0.07  -0.03   0.01     0.08   0.02  -0.05
   7   7     0.05   0.02  -0.02    -0.07  -0.04   0.04     0.09   0.01  -0.04
   8   6     0.03  -0.00   0.04    -0.04  -0.04   0.14     0.07  -0.00   0.08
   9   6     0.02   0.01   0.05    -0.02  -0.04   0.24     0.04   0.01   0.08
  10   6     0.03   0.01   0.15     0.02  -0.01   0.15     0.00  -0.01  -0.11
  11   6     0.02   0.03   0.09     0.02   0.02  -0.03    -0.01  -0.01  -0.16
  12   6    -0.03   0.04  -0.05     0.02   0.02  -0.07    -0.05   0.01  -0.00
  13   6    -0.03   0.04  -0.08     0.02   0.05  -0.22    -0.08   0.01  -0.02
  14   6    -0.04  -0.04   0.20     0.03   0.06  -0.25    -0.11   0.06  -0.13
  15   6    -0.04  -0.06   0.24     0.03   0.03  -0.12    -0.12   0.05  -0.13
  16   6    -0.08  -0.01   0.02     0.07   0.01   0.02    -0.14  -0.01   0.00
  17   7    -0.09  -0.02   0.06     0.08   0.02   0.18    -0.17  -0.03   0.01
  18   6    -0.08  -0.03   0.06     0.07   0.01   0.09    -0.15  -0.03   0.03
  19   6     0.00  -0.10  -0.04    -0.00  -0.04   0.09    -0.14   0.01   0.05
  20   6     0.06  -0.15  -0.10    -0.08  -0.03   0.04    -0.06  -0.02   0.05
  21   6     0.01  -0.11  -0.03    -0.07   0.03  -0.03     0.01  -0.12   0.00
  22   6    -0.10  -0.02   0.11     0.03   0.07  -0.07    -0.02  -0.16  -0.01
  23   6    -0.14   0.01   0.14     0.09   0.06   0.00    -0.11  -0.11   0.02
  24   6    -0.07  -0.03   0.01     0.08   0.00   0.12    -0.15  -0.02  -0.02
  25   6     0.05   0.06   0.11     0.12  -0.01   0.12    -0.12  -0.06  -0.04
  26   6     0.13   0.14   0.14     0.11  -0.05   0.04    -0.04   0.00  -0.04
  27   6     0.06   0.11   0.02     0.05  -0.09  -0.05    -0.00   0.13   0.00
  28   6    -0.10  -0.02  -0.14     0.02  -0.07  -0.04    -0.05   0.15   0.00
  29   6    -0.16  -0.07  -0.14     0.04  -0.02   0.05    -0.14   0.07  -0.02
  30   6    -0.07   0.08  -0.28     0.06   0.04  -0.08    -0.11  -0.05   0.12
  31   6    -0.08   0.11  -0.36     0.05   0.07  -0.22    -0.10  -0.04   0.11
  32   6    -0.02   0.03  -0.10    -0.03  -0.00   0.17    -0.02   0.04   0.16
  33   6    -0.02   0.01  -0.06    -0.02  -0.03   0.32    -0.01   0.04   0.20
  34   7     0.04  -0.00   0.03    -0.03  -0.03   0.05     0.11  -0.02   0.11
  35   6     0.04   0.02  -0.04    -0.02  -0.02  -0.11     0.11  -0.01   0.01
  36   6     0.03   0.03  -0.04    -0.03  -0.02  -0.13     0.11  -0.00   0.01
  37   6     0.04   0.05  -0.02    -0.02   0.01  -0.09     0.11   0.05   0.03
  38   6     0.04   0.04   0.03    -0.02  -0.01   0.02     0.06   0.09   0.02
  39   6     0.02   0.03   0.04    -0.04  -0.07   0.08     0.01   0.09  -0.01
  40   6     0.01   0.01   0.01    -0.07  -0.08   0.02     0.02   0.02  -0.00
  41   6     0.02   0.02  -0.03    -0.06  -0.06  -0.09     0.07  -0.02   0.01
  42   6     0.05   0.03  -0.07    -0.05  -0.02  -0.12     0.11  -0.00  -0.10
  43   6     0.05   0.03  -0.06    -0.04  -0.01  -0.10     0.12  -0.00  -0.11
  44   6     0.03   0.02  -0.04    -0.12  -0.01  -0.03     0.09  -0.01  -0.07
  45   6     0.01  -0.01   0.02    -0.11   0.01   0.05     0.07  -0.05   0.03
  46   6     0.03  -0.04   0.05    -0.03   0.05   0.06     0.12  -0.08   0.07
  47   6     0.06  -0.02   0.02     0.05   0.04  -0.01     0.17  -0.05   0.01
  48   6     0.07   0.01  -0.04     0.03   0.01  -0.09     0.18  -0.01  -0.08
  49   6     0.06   0.01  -0.01    -0.03  -0.01  -0.02     0.14   0.03  -0.11
  50   1    -0.02  -0.00   0.02     0.07   0.01  -0.06     0.02   0.01  -0.02
  51   1    -0.01  -0.00   0.02     0.03   0.00  -0.03    -0.01   0.00   0.01
  52   1     0.01   0.00   0.00    -0.04  -0.01   0.02    -0.03  -0.00   0.02
  53   1     0.01   0.01   0.08     0.02  -0.01   0.05    -0.01  -0.00  -0.07
  54   1     0.02   0.02   0.05     0.01   0.01  -0.05    -0.00  -0.00  -0.09
  55   1    -0.01  -0.03   0.11     0.01   0.03  -0.10    -0.03   0.03  -0.07
  56   1     0.00  -0.04   0.13     0.00   0.01  -0.03    -0.03   0.02  -0.06
  57   1     0.01  -0.04  -0.02    -0.00  -0.03   0.04    -0.05   0.02   0.02
  58   1     0.04  -0.06  -0.06    -0.04  -0.02   0.02    -0.01   0.01   0.02
  59   1     0.02  -0.04  -0.02    -0.04   0.01  -0.02     0.03  -0.05  -0.01
  60   1    -0.04   0.01   0.05     0.01   0.03  -0.04     0.01  -0.07  -0.01
  61   1    -0.06   0.01   0.06     0.05   0.03  -0.01    -0.04  -0.04   0.00
  62   1     0.02   0.02   0.05     0.04  -0.00   0.05    -0.04  -0.04  -0.02
  63   1     0.08   0.06   0.07     0.04  -0.02   0.01    -0.00  -0.01  -0.02
  64   1     0.04   0.05   0.01     0.01  -0.04  -0.04     0.02   0.06   0.01
  65   1    -0.05  -0.02  -0.07    -0.01  -0.03  -0.03    -0.01   0.07   0.01
  66   1    -0.08  -0.04  -0.06     0.00  -0.00   0.02    -0.06   0.02  -0.01
  67   1    -0.02   0.04  -0.13     0.02   0.01  -0.01    -0.03  -0.02   0.06
  68   1    -0.04   0.06  -0.18     0.02   0.02  -0.08    -0.03  -0.02   0.06
  69   1    -0.00   0.01  -0.05    -0.03   0.01   0.06    -0.01   0.02   0.07
  70   1    -0.01  -0.00  -0.04    -0.01  -0.00   0.13    -0.01   0.01   0.09
  71   1     0.02   0.02  -0.01    -0.00   0.01  -0.04     0.05   0.02   0.01
  72   1     0.01   0.02   0.01    -0.00   0.00   0.02     0.02   0.04   0.00
  73   1     0.01   0.01   0.02    -0.01  -0.03   0.05    -0.01   0.04  -0.01
  74   1    -0.00  -0.00   0.00    -0.02  -0.03   0.02    -0.01   0.00  -0.00
  75   1     0.00   0.00  -0.02    -0.02  -0.03  -0.04     0.02  -0.02   0.00
  76   1     0.00   0.01  -0.02    -0.06  -0.01  -0.01     0.02   0.00  -0.03
  77   1    -0.00  -0.00   0.01    -0.05   0.00   0.03     0.01  -0.02   0.02
  78   1     0.00  -0.02   0.03    -0.01   0.02   0.03     0.03  -0.04   0.04
  79   1     0.02  -0.01   0.01     0.03   0.02  -0.00     0.06  -0.02   0.01
  80   1     0.03   0.00  -0.02     0.02  -0.00  -0.03     0.07  -0.00  -0.04
  81   1     0.02   0.00  -0.01    -0.02  -0.00   0.00     0.05   0.01  -0.04
                     22                     23                     24
                        a                      a                      a 
 Frequencies --   146.8468               165.2381               176.7579
 Red. masses --    12.6277                14.9310                15.7833
 Frc consts  --     0.0000                 0.0000                 0.0000
 IR Inten    --     3.6661                 2.0548                 0.7641
 Raman Activ --     0.0000                 0.0000                 0.0000
 Depolar     --     0.0000                 0.0000                 0.0000
 Atom AN      X      Y      Z        X      Y      Z        X      Y      Z
   1  35     0.02   0.13  -0.06    -0.04   0.23   0.02    -0.05   0.25  -0.01
   2   6    -0.12   0.00   0.08    -0.01  -0.01  -0.08    -0.06  -0.01  -0.03
   3   6    -0.03   0.06  -0.00    -0.09   0.01  -0.04    -0.07   0.06  -0.05
   4   6     0.02   0.09  -0.01    -0.05   0.06  -0.02    -0.03   0.12  -0.01
   5   6    -0.00   0.07   0.05     0.05   0.05  -0.03     0.01   0.09   0.06
   6   6    -0.10  -0.00   0.14     0.10   0.00  -0.05     0.01  -0.02   0.10
   7   7    -0.04  -0.02   0.15     0.11  -0.04   0.03     0.04  -0.07   0.23
   8   6     0.03   0.09  -0.05     0.03  -0.10  -0.18     0.01  -0.12   0.23
   9   6     0.03   0.09   0.04     0.04  -0.15  -0.10     0.01  -0.13   0.08
  10   6    -0.04   0.04   0.10     0.08  -0.12  -0.00     0.07  -0.08  -0.06
  11   6    -0.03  -0.04   0.08     0.08  -0.04   0.15     0.05   0.01  -0.16
  12   6     0.00  -0.08  -0.03     0.01  -0.00   0.13    -0.02   0.05  -0.11
  13   6     0.01  -0.11  -0.04    -0.01   0.07  -0.03    -0.01   0.09   0.07
  14   6    -0.04  -0.10  -0.04    -0.02   0.11  -0.14     0.00   0.06   0.15
  15   6    -0.05  -0.06  -0.03    -0.02   0.09  -0.12     0.02   0.05   0.15
  16   6    -0.03  -0.05  -0.02    -0.03   0.05  -0.03     0.00   0.06   0.09
  17   7    -0.05   0.02   0.01    -0.03  -0.00   0.10     0.02  -0.02  -0.07
  18   6    -0.07   0.03   0.04    -0.00  -0.03   0.06     0.06  -0.04  -0.10
  19   6    -0.06   0.05   0.04    -0.03  -0.06   0.05     0.08  -0.04  -0.10
  20   6     0.01   0.01   0.00    -0.06  -0.05   0.03     0.03   0.01  -0.02
  21   6     0.05  -0.04  -0.04    -0.05  -0.04  -0.00    -0.03   0.05   0.07
  22   6     0.01  -0.03  -0.01    -0.01  -0.03  -0.02    -0.01   0.01   0.03
  23   6    -0.06   0.01   0.04     0.02  -0.03   0.02     0.04  -0.04  -0.07
  24   6    -0.02   0.04   0.02    -0.05  -0.04   0.05    -0.02  -0.05  -0.09
  25   6    -0.02   0.04   0.01    -0.01  -0.07   0.04    -0.04  -0.05  -0.09
  26   6    -0.03   0.02  -0.01     0.05  -0.02   0.02    -0.02  -0.01  -0.02
  27   6    -0.05   0.02  -0.03     0.05   0.04   0.00     0.03   0.03   0.07
  28   6    -0.04   0.04  -0.01    -0.02   0.03  -0.03     0.03  -0.01   0.03
  29   6    -0.03   0.06   0.02    -0.08  -0.01  -0.00    -0.00  -0.07  -0.06
  30   6     0.01  -0.07  -0.00    -0.03   0.07  -0.10    -0.02   0.06   0.14
  31   6     0.02  -0.11  -0.01    -0.03   0.08  -0.11    -0.01   0.08   0.14
  32   6     0.07  -0.03  -0.08    -0.03  -0.04   0.17    -0.08  -0.02  -0.19
  33   6     0.06   0.06   0.01    -0.02  -0.12   0.03    -0.07  -0.10  -0.08
  34   7     0.14   0.09  -0.28    -0.05  -0.04  -0.28    -0.02  -0.11   0.17
  35   6     0.12  -0.03  -0.19    -0.06   0.01  -0.01    -0.01  -0.04  -0.05
  36   6     0.14  -0.04  -0.16    -0.10   0.04  -0.01    -0.06   0.01  -0.20
  37   6     0.14   0.11  -0.11    -0.12  -0.02  -0.05    -0.07   0.04  -0.20
  38   6     0.01   0.19  -0.03    -0.05  -0.06  -0.04    -0.04  -0.02  -0.02
  39   6    -0.10   0.07   0.06     0.02  -0.07   0.01    -0.01  -0.13   0.14
  40   6    -0.07  -0.11   0.07     0.02  -0.01   0.02    -0.07  -0.10   0.01
  41   6     0.05  -0.16  -0.05    -0.06   0.05  -0.01    -0.11  -0.03  -0.18
  42   6     0.02  -0.09   0.07     0.06   0.00   0.22     0.05  -0.02   0.00
  43   6     0.01  -0.17   0.12     0.08   0.04   0.24     0.07  -0.01  -0.03
  44   6    -0.00  -0.21   0.13     0.22  -0.03   0.14     0.06  -0.03  -0.01
  45   6     0.05  -0.10   0.03     0.20  -0.08  -0.04     0.05  -0.07   0.03
  46   6     0.11   0.07  -0.09     0.05  -0.08  -0.09     0.07  -0.05   0.02
  47   6     0.09   0.05  -0.06    -0.07  -0.01   0.00     0.10   0.00  -0.02
  48   6     0.02  -0.10   0.07    -0.04   0.06   0.17     0.10   0.02  -0.03
  49   6    -0.19  -0.03   0.18     0.08  -0.02  -0.09    -0.02  -0.04   0.05
  50   1     0.01   0.02  -0.02    -0.05   0.00  -0.00    -0.03   0.02  -0.03
  51   1     0.03   0.04  -0.03    -0.03   0.03   0.00    -0.01   0.05  -0.01
  52   1     0.02   0.03   0.01     0.02   0.03  -0.00     0.02   0.04   0.03
  53   1    -0.03   0.02   0.05     0.04  -0.04  -0.01     0.04  -0.03  -0.02
  54   1    -0.02  -0.02   0.04     0.04   0.00   0.07     0.03   0.01  -0.07
  55   1    -0.02  -0.03  -0.01    -0.00   0.04  -0.06    -0.00   0.02   0.05
  56   1    -0.02  -0.02  -0.01    -0.01   0.03  -0.05     0.01   0.01   0.05
  57   1    -0.02   0.02   0.02    -0.01  -0.02   0.02     0.03  -0.01  -0.04
  58   1     0.01   0.00  -0.00    -0.03  -0.02   0.01     0.01   0.01  -0.00
  59   1     0.03  -0.02  -0.03    -0.02  -0.01  -0.00    -0.03   0.03   0.05
  60   1     0.01  -0.02  -0.01     0.00  -0.00  -0.02    -0.01   0.01   0.02
  61   1    -0.03   0.00   0.02     0.01  -0.00   0.00     0.01  -0.02  -0.03
  62   1    -0.01   0.01   0.01    -0.00  -0.03   0.01    -0.02  -0.02  -0.04
  63   1    -0.01   0.00  -0.01     0.03  -0.01   0.01    -0.01   0.00  -0.00
  64   1    -0.02   0.00  -0.02     0.03   0.02   0.00     0.02   0.02   0.04
  65   1    -0.01   0.01  -0.00    -0.01   0.02  -0.02     0.02   0.00   0.02
  66   1    -0.01   0.02   0.01    -0.04  -0.00  -0.00     0.00  -0.03  -0.02
  67   1     0.01  -0.02   0.01    -0.01   0.02  -0.03    -0.01   0.02   0.04
  68   1     0.01  -0.04   0.01    -0.01   0.03  -0.04     0.00   0.02   0.04
  69   1     0.04  -0.02  -0.05    -0.02  -0.00   0.07    -0.04  -0.00  -0.08
  70   1     0.03   0.02   0.01    -0.02  -0.04   0.00    -0.04  -0.05  -0.03
  71   1     0.07   0.05  -0.04    -0.05  -0.01  -0.02    -0.02   0.02  -0.07
  72   1    -0.00   0.10  -0.01    -0.02  -0.03  -0.02    -0.00  -0.00   0.01
  73   1    -0.05   0.03   0.03     0.02  -0.03   0.01     0.02  -0.06   0.10
  74   1    -0.04  -0.06   0.05     0.02   0.00   0.01    -0.02  -0.04   0.02
  75   1     0.01  -0.09  -0.02    -0.02   0.03   0.00    -0.04  -0.01  -0.08
  76   1    -0.01  -0.08   0.05     0.10  -0.01   0.05     0.02  -0.01  -0.00
  77   1     0.02  -0.03   0.01     0.09  -0.04  -0.04     0.01  -0.03   0.02
  78   1     0.05   0.06  -0.06     0.01  -0.04  -0.06     0.02  -0.02   0.01
  79   1     0.03   0.04  -0.04    -0.06   0.00  -0.02     0.03   0.01  -0.01
  80   1    -0.00  -0.04   0.03    -0.03   0.04   0.06     0.03   0.01  -0.01
  81   1    -0.07  -0.02   0.07     0.04  -0.02  -0.03    -0.00  -0.03   0.01
                     25                     26                     27
                        a                      a                      a 
 Frequencies --   186.0673               213.0744               227.9527
 Red. masses --    12.8028                10.6165                13.1635
 Frc consts  --     0.0000                 0.0000                 0.0000
 IR Inten    --     6.1091                 0.1851                 2.4378
 Raman Activ --     0.0000                 0.0000                 0.0000
 Depolar     --     0.0000                 0.0000                 0.0000
 Atom AN      X      Y      Z        X      Y      Z        X      Y      Z
   1  35    -0.13   0.01   0.13    -0.03  -0.03  -0.01     0.12  -0.08   0.11
   2   6     0.30   0.05  -0.28     0.06   0.04  -0.01    -0.07  -0.15  -0.11
   3   6     0.24   0.04  -0.23     0.10   0.04  -0.03    -0.12  -0.20  -0.06
   4   6    -0.14  -0.02   0.09    -0.02  -0.01   0.04    -0.02  -0.16  -0.12
   5   6    -0.33  -0.07   0.25    -0.11  -0.02   0.09     0.04  -0.11  -0.22
   6   6    -0.01  -0.00   0.01    -0.05   0.01   0.04    -0.01  -0.05  -0.19
   7   7    -0.03  -0.03   0.07    -0.03   0.03  -0.02    -0.01  -0.03  -0.09
   8   6    -0.01   0.03  -0.03    -0.00   0.04  -0.04     0.02  -0.00   0.06
   9   6    -0.01   0.06   0.01     0.01  -0.04  -0.01     0.03   0.03   0.19
  10   6    -0.02   0.06   0.08    -0.02  -0.08  -0.00     0.04   0.04   0.13
  11   6    -0.02   0.03   0.04    -0.01  -0.13   0.01     0.03   0.02  -0.13
  12   6    -0.00   0.01  -0.09     0.02  -0.14   0.01     0.04   0.02  -0.15
  13   6     0.00  -0.03  -0.02     0.01  -0.06   0.05     0.03   0.01  -0.07
  14   6     0.02  -0.06   0.06    -0.08   0.00   0.02     0.01   0.00   0.00
  15   6     0.02  -0.07   0.09    -0.09   0.15  -0.01     0.01   0.00   0.10
  16   6     0.02  -0.05   0.02    -0.02   0.19   0.03     0.01   0.01   0.08
  17   7     0.02  -0.00  -0.05    -0.00   0.08   0.17    -0.00   0.01  -0.01
  18   6    -0.02   0.02  -0.02     0.19  -0.06  -0.00    -0.01   0.02   0.01
  19   6    -0.00   0.04  -0.02     0.20  -0.16  -0.07    -0.02   0.02   0.01
  20   6     0.03   0.03  -0.02     0.01  -0.06  -0.01     0.01   0.00  -0.02
  21   6     0.04   0.01  -0.01    -0.13   0.12   0.10     0.02  -0.01  -0.02
  22   6    -0.00   0.01   0.01     0.04   0.09  -0.03    -0.02   0.02   0.01
  23   6    -0.03   0.02   0.00     0.24  -0.03  -0.10    -0.02   0.02   0.02
  24   6     0.04   0.03  -0.02    -0.17  -0.11   0.00    -0.04  -0.04  -0.09
  25   6     0.02   0.05  -0.01    -0.15  -0.20  -0.06    -0.08  -0.05  -0.11
  26   6    -0.02   0.02  -0.00     0.01  -0.06  -0.01    -0.05   0.01  -0.02
  27   6    -0.03  -0.03  -0.01     0.10   0.15   0.09     0.01   0.07   0.08
  28   6     0.02  -0.02   0.01    -0.06   0.07  -0.03    -0.01  -0.01   0.01
  29   6     0.06   0.01   0.01    -0.22  -0.09  -0.09    -0.05  -0.07  -0.10
  30   6     0.01  -0.05   0.03     0.05   0.17  -0.02     0.04  -0.01   0.12
  31   6     0.01  -0.05   0.02     0.08   0.02   0.01     0.05  -0.02   0.04
  32   6     0.00   0.02  -0.17     0.05  -0.13  -0.06     0.03   0.02  -0.02
  33   6    -0.00   0.05  -0.06     0.05  -0.07  -0.03     0.04   0.03   0.15
  34   7     0.01   0.04  -0.11     0.02   0.05  -0.07     0.02   0.01   0.05
  35   6     0.00  -0.01  -0.02     0.03   0.02  -0.04     0.02   0.04   0.02
  36   6     0.01  -0.02  -0.03     0.08  -0.01   0.04     0.00   0.12  -0.07
  37   6     0.01  -0.00  -0.02     0.11   0.02   0.08    -0.00   0.18  -0.08
  38   6    -0.01   0.01  -0.01     0.05   0.07   0.02     0.04   0.15  -0.01
  39   6    -0.02  -0.01   0.01     0.00   0.11  -0.06     0.12   0.09   0.12
  40   6    -0.02  -0.03   0.01     0.04   0.03   0.01     0.09   0.11   0.04
  41   6    -0.01  -0.03  -0.02     0.09  -0.03   0.07     0.03   0.16  -0.09
  42   6    -0.02  -0.04   0.10    -0.02   0.01  -0.04    -0.02   0.00   0.06
  43   6    -0.01  -0.02   0.11    -0.05  -0.03  -0.02    -0.06  -0.03   0.17
  44   6     0.04  -0.00   0.05    -0.09  -0.02  -0.00    -0.04  -0.06   0.15
  45   6     0.05   0.01  -0.03    -0.07   0.04   0.00    -0.02  -0.01   0.01
  46   6    -0.01  -0.01  -0.03    -0.04   0.06  -0.01    -0.06   0.08  -0.09
  47   6    -0.06  -0.02   0.02    -0.03  -0.00   0.00    -0.14   0.03   0.00
  48   6    -0.05  -0.01   0.08    -0.05  -0.05  -0.01    -0.15  -0.03   0.14
  49   6     0.28   0.03  -0.24    -0.01   0.03   0.03    -0.06  -0.11  -0.20
  50   1     0.10   0.02  -0.09     0.05   0.01  -0.02    -0.06  -0.06   0.00
  51   1    -0.10  -0.01   0.07    -0.01  -0.01   0.02    -0.01  -0.05  -0.03
  52   1    -0.20  -0.04   0.15    -0.05  -0.01   0.04     0.02  -0.04  -0.08
  53   1    -0.01   0.02   0.05    -0.02  -0.02  -0.00     0.01   0.01   0.05
  54   1    -0.01   0.01   0.03    -0.01  -0.04   0.00     0.01   0.00  -0.07
  55   1     0.00  -0.02   0.03    -0.04  -0.01   0.01    -0.00  -0.00  -0.00
  56   1     0.01  -0.03   0.04    -0.05   0.06  -0.01     0.00  -0.00   0.04
  57   1    -0.00   0.02  -0.01     0.08  -0.08  -0.03    -0.01   0.01   0.01
  58   1     0.01   0.01  -0.01    -0.01  -0.03  -0.00     0.01  -0.00  -0.01
  59   1     0.02  -0.00  -0.00    -0.10   0.07   0.07     0.01  -0.01  -0.01
  60   1    -0.00  -0.00   0.01     0.00   0.05  -0.01    -0.01   0.01   0.01
  61   1    -0.01   0.00   0.00     0.10  -0.01  -0.05    -0.01   0.01   0.01
  62   1     0.01   0.03  -0.00    -0.05  -0.09  -0.03    -0.03  -0.01  -0.04
  63   1    -0.01   0.01  -0.00     0.02  -0.03  -0.01    -0.02   0.01  -0.00
  64   1    -0.02  -0.02  -0.01     0.08   0.10   0.06     0.02   0.04   0.06
  65   1     0.01  -0.01   0.01    -0.02   0.04  -0.01     0.00  -0.00   0.01
  66   1     0.03   0.00   0.01    -0.10  -0.03  -0.05    -0.02  -0.03  -0.04
  67   1     0.00  -0.02   0.01     0.03   0.07  -0.02     0.02  -0.00   0.05
  68   1     0.00  -0.01   0.01     0.04  -0.00   0.00     0.02  -0.01   0.02
  69   1     0.01   0.00  -0.08     0.02  -0.04  -0.03     0.00   0.01  -0.02
  70   1    -0.00   0.02  -0.01     0.02  -0.01  -0.01     0.01   0.01   0.06
  71   1     0.01   0.00  -0.01     0.05   0.00   0.03     0.00   0.06  -0.03
  72   1    -0.00   0.01  -0.00     0.01   0.03   0.00     0.01   0.04  -0.00
  73   1    -0.01  -0.00   0.01    -0.02   0.05  -0.04     0.05   0.01   0.07
  74   1    -0.01  -0.01   0.01     0.00   0.01  -0.00     0.03   0.02   0.03
  75   1    -0.00  -0.01  -0.01     0.03  -0.01   0.03     0.00   0.06  -0.03
  76   1     0.03   0.00   0.02    -0.04  -0.01  -0.00    -0.00  -0.03   0.06
  77   1     0.03   0.01  -0.02    -0.02   0.02   0.00     0.01  -0.01  -0.01
  78   1    -0.00  -0.00  -0.02    -0.00   0.03  -0.01    -0.01   0.05  -0.07
  79   1    -0.03  -0.01   0.00    -0.00  -0.00   0.01    -0.05   0.02  -0.01
  80   1    -0.02   0.01   0.03    -0.01  -0.02  -0.00    -0.06   0.00   0.05
  81   1     0.11   0.00  -0.09    -0.01   0.01   0.01    -0.01  -0.03  -0.06
                     28                     29                     30
                        a                      a                      a 
 Frequencies --   232.3636               241.7996               246.5973
 Red. masses --    10.5451                10.9135                11.1163
 Frc consts  --     0.0000                 0.0000                 0.0000
 IR Inten    --     1.2629                 0.8850                 0.1138
 Raman Activ --     0.0000                 0.0000                 0.0000
 Depolar     --     0.0000                 0.0000                 0.0000
 Atom AN      X      Y      Z        X      Y      Z        X      Y      Z
   1  35    -0.03   0.03  -0.03     0.02   0.02   0.01     0.03   0.07   0.02
   2   6     0.01   0.03   0.03    -0.04  -0.02   0.01    -0.16  -0.13  -0.02
   3   6     0.04   0.05   0.00    -0.10  -0.01   0.05     0.11  -0.08  -0.23
   4   6     0.00   0.04   0.03     0.05   0.04  -0.04    -0.06  -0.07  -0.05
   5   6    -0.02   0.02   0.06     0.13   0.05  -0.08    -0.24  -0.12   0.13
   6   6    -0.01   0.00   0.06     0.06  -0.00  -0.01    -0.17  -0.10   0.10
   7   7     0.00   0.00   0.02     0.01  -0.03   0.05     0.04  -0.07  -0.01
   8   6     0.01  -0.00  -0.02     0.00   0.00  -0.06     0.04  -0.08  -0.07
   9   6     0.02  -0.02  -0.03     0.02   0.01   0.18     0.05  -0.16  -0.04
  10   6     0.05  -0.00  -0.02     0.04   0.03   0.18     0.11  -0.13  -0.01
  11   6     0.05   0.01   0.02     0.03   0.03  -0.08     0.10  -0.03   0.03
  12   6     0.06   0.01   0.01     0.02   0.02  -0.19     0.02   0.01  -0.02
  13   6     0.06   0.01   0.00     0.02   0.02  -0.13     0.01   0.07  -0.02
  14   6     0.06   0.03  -0.07    -0.01  -0.01   0.01     0.02   0.07  -0.00
  15   6     0.06   0.01  -0.02    -0.00  -0.02   0.16     0.03   0.02   0.05
  16   6     0.06   0.00  -0.00    -0.00  -0.01   0.13    -0.00  -0.01   0.04
  17   7     0.05   0.00  -0.01    -0.02   0.00  -0.02    -0.01  -0.03  -0.06
  18   6    -0.05   0.13   0.21    -0.01  -0.02  -0.08    -0.06  -0.01  -0.04
  19   6    -0.14   0.13   0.26     0.02  -0.01  -0.09    -0.06   0.02  -0.02
  20   6    -0.04  -0.00  -0.01     0.03   0.01  -0.02    -0.01   0.00   0.00
  21   6     0.11  -0.06  -0.23    -0.01   0.01   0.06     0.01  -0.05   0.01
  22   6    -0.03   0.14  -0.01    -0.01  -0.04   0.02    -0.03  -0.06   0.02
  23   6    -0.11   0.24   0.23    -0.00  -0.07  -0.07    -0.07  -0.04   0.01
  24   6    -0.01  -0.13  -0.21    -0.02   0.02  -0.03     0.04   0.02  -0.02
  25   6    -0.10  -0.15  -0.24    -0.04   0.02  -0.03     0.03   0.05   0.01
  26   6    -0.04  -0.01   0.01    -0.05   0.02  -0.03    -0.00   0.02  -0.00
  27   6     0.10   0.07   0.22    -0.03   0.04   0.00    -0.02  -0.03  -0.02
  28   6     0.01  -0.15   0.01    -0.01   0.04   0.01     0.02  -0.01   0.01
  29   6    -0.04  -0.25  -0.22    -0.02   0.02  -0.03     0.06   0.02   0.02
  30   6     0.05  -0.00   0.01     0.03  -0.03   0.16    -0.02   0.00   0.04
  31   6     0.06  -0.01   0.07     0.03  -0.01  -0.00    -0.02   0.05  -0.01
  32   6     0.04  -0.01  -0.01     0.01   0.02  -0.04    -0.04  -0.04  -0.04
  33   6     0.03  -0.02  -0.01     0.02   0.01   0.20    -0.03  -0.14  -0.02
  34   7    -0.01   0.00  -0.03     0.00   0.05  -0.27    -0.01  -0.03  -0.13
  35   6    -0.01  -0.01  -0.01    -0.02  -0.01  -0.10    -0.01   0.03  -0.03
  36   6    -0.01  -0.05   0.03     0.07  -0.15   0.04     0.02   0.06   0.08
  37   6    -0.01  -0.08   0.03     0.10  -0.19   0.11     0.05   0.08   0.12
  38   6    -0.02  -0.07   0.00     0.01  -0.12   0.03     0.07   0.09   0.05
  39   6    -0.05  -0.05  -0.04    -0.15  -0.04  -0.16     0.09   0.17  -0.04
  40   6    -0.04  -0.04  -0.02    -0.09  -0.14  -0.04     0.12   0.14   0.01
  41   6    -0.02  -0.06   0.03     0.03  -0.23   0.11     0.11   0.10   0.10
  42   6    -0.00   0.00  -0.01    -0.02  -0.00   0.06     0.02   0.02  -0.02
  43   6    -0.00   0.03  -0.04     0.02   0.16   0.03     0.05   0.11  -0.06
  44   6    -0.02   0.05  -0.04     0.07   0.21  -0.03     0.05   0.13  -0.06
  45   6    -0.03   0.02   0.00     0.01   0.08  -0.02    -0.01  -0.01   0.03
  46   6    -0.03  -0.01   0.03    -0.14  -0.09   0.07    -0.04  -0.07   0.07
  47   6    -0.00   0.01  -0.00    -0.11   0.06   0.00     0.02   0.08  -0.04
  48   6     0.01   0.03  -0.04    -0.03   0.23  -0.04     0.05   0.14  -0.08
  49   6    -0.01   0.02   0.07     0.06  -0.01  -0.03    -0.35  -0.18   0.15
  50   1     0.02   0.02  -0.01    -0.06  -0.01   0.03     0.11  -0.00  -0.14
  51   1     0.00   0.01   0.01     0.02   0.02  -0.02     0.00  -0.00  -0.03
  52   1    -0.01   0.01   0.02     0.06   0.03  -0.03    -0.09  -0.04   0.05
  53   1     0.02  -0.00  -0.01     0.02   0.01   0.08     0.05  -0.04   0.00
  54   1     0.01   0.00   0.01     0.01   0.01  -0.04     0.05   0.01   0.03
  55   1     0.02   0.02  -0.04    -0.01  -0.01   0.00     0.01   0.02  -0.01
  56   1     0.02   0.00  -0.00    -0.00  -0.01   0.06     0.02  -0.00   0.02
  57   1    -0.06   0.04   0.10     0.01   0.00  -0.03    -0.02   0.01  -0.01
  58   1    -0.01  -0.03  -0.02     0.02   0.01  -0.00     0.00   0.01   0.00
  59   1     0.08  -0.06  -0.15    -0.01   0.01   0.04     0.02  -0.02   0.00
  60   1    -0.00   0.05  -0.02    -0.01  -0.02   0.02    -0.01  -0.02   0.01
  61   1    -0.04   0.09   0.09    -0.00  -0.03  -0.02    -0.03  -0.02   0.01
  62   1    -0.05  -0.05  -0.10    -0.01   0.01  -0.01     0.01   0.02   0.00
  63   1    -0.02   0.02   0.02    -0.02   0.00  -0.01    -0.01   0.01   0.00
  64   1     0.06   0.08   0.14    -0.01   0.02   0.01    -0.02  -0.02  -0.01
  65   1     0.01  -0.05   0.02     0.00   0.01   0.01     0.01  -0.01   0.01
  66   1    -0.01  -0.10  -0.08    -0.01   0.00  -0.01     0.03   0.01   0.01
  67   1     0.01  -0.00   0.00     0.02  -0.01   0.07    -0.01  -0.00   0.01
  68   1     0.02  -0.01   0.04     0.01  -0.00  -0.01    -0.01   0.02  -0.01
  69   1     0.01   0.00  -0.00    -0.00   0.01  -0.02    -0.03  -0.00  -0.01
  70   1     0.01  -0.01   0.00     0.01   0.01   0.08    -0.03  -0.05   0.01
  71   1    -0.01  -0.02   0.01     0.04  -0.06   0.04     0.02   0.02   0.04
  72   1    -0.01  -0.02   0.00     0.00  -0.02   0.02     0.02   0.01   0.01
  73   1    -0.02  -0.01  -0.03    -0.08   0.02  -0.10     0.02   0.06  -0.04
  74   1    -0.01  -0.01  -0.01    -0.04  -0.03  -0.03     0.03   0.04  -0.00
  75   1    -0.00  -0.02   0.01     0.02  -0.09   0.04     0.04   0.05   0.05
  76   1    -0.01   0.02  -0.02     0.04   0.08  -0.02     0.02   0.05  -0.03
  77   1    -0.01   0.01   0.00     0.02   0.01  -0.02    -0.01  -0.02   0.02
  78   1    -0.01  -0.01   0.02    -0.07  -0.08   0.05    -0.03  -0.06   0.05
  79   1     0.00  -0.00   0.00    -0.05   0.01   0.00     0.01   0.03  -0.01
  80   1     0.00   0.01  -0.02    -0.01   0.10  -0.02     0.01   0.05  -0.02
  81   1    -0.00   0.01   0.02     0.03  -0.01  -0.02    -0.12  -0.07   0.06
                     31                     32                     33
                        a                      a                      a 
 Frequencies --   249.9420               255.9223               267.7889
 Red. masses --    12.5057                11.2333                11.7006
 Frc consts  --     0.0000                 0.0000                 0.0000
 IR Inten    --     4.0568                 0.0576                17.0325
 Raman Activ --     0.0000                 0.0000                 0.0000
 Depolar     --     0.0000                 0.0000                 0.0000
 Atom AN      X      Y      Z        X      Y      Z        X      Y      Z
   1  35     0.08   0.02   0.12     0.05  -0.07   0.02     0.05  -0.02   0.06
   2   6    -0.05  -0.14  -0.15    -0.09  -0.05   0.02    -0.02  -0.05  -0.05
   3   6    -0.16  -0.09  -0.09     0.05  -0.07  -0.07    -0.10  -0.02  -0.01
   4   6    -0.04   0.03  -0.07    -0.01  -0.10  -0.05     0.01   0.05  -0.05
   5   6     0.05   0.02  -0.04    -0.12  -0.09  -0.03     0.07   0.05  -0.05
   6   6     0.01  -0.06   0.01    -0.14  -0.02  -0.03     0.03  -0.00  -0.01
   7   7    -0.04  -0.10   0.26    -0.03   0.01  -0.06    -0.03  -0.02   0.08
   8   6     0.00  -0.00   0.15    -0.02   0.09  -0.02    -0.08  -0.02  -0.01
   9   6    -0.02   0.05  -0.10    -0.05   0.22  -0.01    -0.13  -0.02   0.06
  10   6    -0.05   0.02  -0.16    -0.12   0.17   0.04    -0.19  -0.05   0.05
  11   6    -0.04  -0.01   0.05    -0.12   0.04   0.03    -0.20  -0.04  -0.02
  12   6    -0.01  -0.02   0.18    -0.02  -0.01  -0.01    -0.23  -0.03  -0.02
  13   6    -0.01  -0.03   0.14    -0.01  -0.13  -0.00    -0.21  -0.01  -0.02
  14   6     0.00  -0.01   0.01    -0.02  -0.12   0.01    -0.14  -0.05   0.01
  15   6    -0.00   0.02  -0.16    -0.04  -0.05  -0.03    -0.12  -0.06   0.03
  16   6    -0.01   0.01  -0.14     0.00  -0.01  -0.05    -0.03  -0.00   0.03
  17   7     0.00  -0.00   0.02     0.01   0.04   0.09     0.04   0.00  -0.01
  18   6     0.02   0.01   0.06     0.08   0.01   0.04     0.05   0.06   0.01
  19   6    -0.01  -0.01   0.06     0.09  -0.03   0.01     0.09   0.10   0.01
  20   6    -0.03  -0.02   0.02     0.03  -0.00  -0.01     0.09   0.10  -0.04
  21   6    -0.00  -0.01  -0.04    -0.02   0.09   0.00     0.07   0.17  -0.06
  22   6     0.01   0.02  -0.02     0.04   0.09  -0.03     0.03   0.17  -0.04
  23   6     0.02   0.04   0.04     0.11   0.05  -0.03     0.06   0.14  -0.04
  24   6    -0.01  -0.01   0.05    -0.06  -0.02   0.03     0.08  -0.04  -0.03
  25   6     0.02  -0.02   0.05    -0.06  -0.06  -0.00     0.12  -0.07  -0.03
  26   6     0.05  -0.02   0.02    -0.01  -0.02  -0.00     0.10  -0.07   0.03
  27   6     0.02  -0.03  -0.02     0.02   0.06   0.02     0.11  -0.15   0.07
  28   6    -0.01  -0.01  -0.02    -0.04   0.03  -0.02     0.09  -0.17   0.05
  29   6    -0.01   0.01   0.04    -0.09  -0.01  -0.02     0.11  -0.13   0.02
  30   6    -0.02   0.03  -0.16     0.03  -0.04  -0.04    -0.13   0.03   0.03
  31   6    -0.02  -0.00   0.01     0.03  -0.11   0.01    -0.15   0.03  -0.01
  32   6     0.02  -0.00   0.01     0.06   0.07   0.00    -0.21  -0.01   0.01
  33   6     0.01   0.03  -0.16     0.04   0.20   0.01    -0.20  -0.01   0.05
  34   7     0.06  -0.02   0.13     0.02   0.04   0.06    -0.04   0.01  -0.16
  35   6     0.07  -0.05   0.03    -0.01  -0.03   0.10    -0.02   0.03  -0.09
  36   6     0.18  -0.09  -0.11    -0.08   0.01   0.02     0.01   0.03   0.02
  37   6     0.21   0.04  -0.05    -0.13  -0.02  -0.09     0.06   0.04   0.11
  38   6     0.09   0.11   0.03    -0.07  -0.09  -0.04     0.05   0.07   0.04
[...]
   5   6    -0.00   0.00  -0.00     0.03  -0.04   0.03     0.09  -0.12   0.09
   6   6    -0.00   0.00   0.00     0.00  -0.00  -0.00     0.00  -0.01  -0.00
   7   7    -0.00  -0.00   0.00    -0.00   0.00  -0.00     0.00   0.00  -0.00
   8   6     0.00   0.00  -0.00     0.00   0.00   0.00    -0.00  -0.00   0.00
   9   6    -0.00  -0.00   0.00     0.00   0.00  -0.00     0.00   0.00  -0.00
  10   6     0.00   0.00  -0.00     0.00   0.00  -0.00     0.00   0.00  -0.00
  11   6    -0.00   0.00  -0.00    -0.00  -0.00  -0.00     0.00  -0.00   0.00
  12   6     0.00   0.00   0.00    -0.00  -0.00   0.00    -0.00  -0.00   0.00
  13   6    -0.00   0.00   0.00     0.00  -0.00  -0.00     0.00  -0.00  -0.00
  14   6    -0.00   0.00   0.00     0.04  -0.06  -0.02     0.08  -0.11  -0.04
  15   6     0.00   0.00   0.00    -0.01  -0.02  -0.01    -0.02  -0.04  -0.01
  16   6     0.00  -0.00  -0.00    -0.00   0.00   0.00    -0.00   0.00   0.00
  17   7     0.00  -0.00   0.00     0.00   0.00   0.00     0.00  -0.00   0.00
  18   6     0.00   0.00  -0.00    -0.00  -0.00   0.00     0.00   0.00  -0.00
  19   6     0.04   0.02   0.02    -0.04  -0.02  -0.02     0.02   0.01   0.01
  20   6     0.04  -0.04   0.06    -0.04   0.05  -0.06     0.02  -0.02   0.03
  21   6    -0.05  -0.12   0.04     0.06   0.13  -0.04    -0.02  -0.05   0.02
  22   6    -0.06  -0.03  -0.03     0.07   0.03   0.04    -0.03  -0.01  -0.02
  23   6    -0.01   0.02  -0.03     0.02  -0.02   0.03    -0.01   0.01  -0.01
  24   6    -0.00   0.00  -0.00    -0.00   0.00  -0.00     0.00  -0.00   0.00
  25   6    -0.04   0.01   0.03    -0.03   0.01   0.02     0.01  -0.00  -0.01
  26   6    -0.02  -0.06   0.07    -0.02  -0.05   0.06     0.01   0.02  -0.02
  27   6     0.10  -0.12   0.04     0.08  -0.10   0.03    -0.03   0.03  -0.01
  28   6     0.08  -0.01  -0.04     0.06  -0.01  -0.04    -0.02   0.00   0.01
  29   6     0.01   0.03  -0.03     0.01   0.02  -0.03    -0.00  -0.01   0.01
  30   6    -0.00   0.00   0.00    -0.00   0.00   0.00     0.00  -0.00  -0.00
  31   6     0.00   0.00   0.00     0.00   0.01   0.00    -0.00  -0.01  -0.00
  32   6     0.00   0.00  -0.00    -0.01  -0.02   0.00    -0.01  -0.03   0.01
  33   6    -0.00   0.00  -0.00     0.01  -0.01   0.00     0.00  -0.00  -0.00
  34   7    -0.00  -0.00  -0.00    -0.00  -0.00  -0.00     0.00   0.00   0.00
  35   6     0.00  -0.00  -0.00     0.00  -0.00   0.00    -0.00   0.00   0.00
  36   6    -0.00  -0.00   0.00    -0.00  -0.00   0.00     0.00   0.00  -0.00
  37   6    -0.00   0.00   0.00    -0.00   0.00   0.00     0.00  -0.00  -0.00
  38   6    -0.00  -0.00   0.00    -0.00  -0.00   0.00     0.00   0.00  -0.00
  39   6    -0.00  -0.00  -0.00    -0.00  -0.00  -0.00     0.00   0.00   0.00
  40   6     0.00  -0.00  -0.00     0.00  -0.00  -0.00     0.00  -0.00  -0.00
  41   6    -0.00  -0.00   0.00    -0.01  -0.00   0.00     0.01   0.00  -0.00
  42   6     0.00   0.00   0.00     0.00   0.00   0.00     0.00  -0.00   0.00
  43   6     0.00  -0.00   0.00     0.00  -0.00  -0.00    -0.00   0.00  -0.00
  44   6     0.00  -0.00  -0.00     0.00  -0.00  -0.00    -0.00   0.00   0.00
  45   6    -0.00  -0.00  -0.00    -0.00  -0.00  -0.01     0.01   0.00   0.01
  46   6    -0.00   0.00   0.00    -0.01   0.00   0.00     0.02  -0.01  -0.00
  47   6    -0.00   0.00   0.00    -0.00   0.00   0.00     0.00  -0.01  -0.01
  48   6     0.00   0.00   0.00     0.00   0.00   0.00    -0.01  -0.00  -0.01
  49   6     0.00  -0.00   0.00     0.00   0.00   0.00     0.00   0.00   0.00
  50   1    -0.00  -0.00  -0.00     0.00   0.07   0.02     0.00   0.17   0.05
  51   1     0.01   0.00   0.01    -0.06  -0.03  -0.08    -0.17  -0.08  -0.25
  52   1     0.01  -0.01   0.01    -0.10   0.13  -0.10    -0.32   0.43  -0.31
  53   1    -0.00  -0.00   0.00    -0.01  -0.01   0.00    -0.00  -0.01   0.00
  54   1     0.00  -0.00   0.00    -0.00   0.00  -0.00    -0.01   0.01  -0.00
  55   1     0.01  -0.01  -0.01    -0.15   0.20   0.08    -0.29   0.38   0.15
  56   1    -0.00  -0.00  -0.00     0.02   0.05   0.02     0.05   0.11   0.03
  57   1    -0.12  -0.05  -0.07     0.12   0.05   0.07    -0.06  -0.03  -0.04
  58   1    -0.12   0.14  -0.20     0.12  -0.15   0.21    -0.06   0.07  -0.09
  59   1     0.18   0.41  -0.13    -0.19  -0.44   0.14     0.08   0.18  -0.06
  60   1     0.20   0.08   0.11    -0.22  -0.09  -0.12     0.09   0.04   0.05
  61   1     0.05  -0.06   0.09    -0.06   0.07  -0.10     0.02  -0.03   0.04
  62   1     0.14  -0.02  -0.08     0.11  -0.02  -0.07    -0.04   0.01   0.02
  63   1     0.08   0.19  -0.23     0.06   0.15  -0.18    -0.02  -0.05   0.06
  64   1    -0.33   0.41  -0.14    -0.26   0.33  -0.11     0.09  -0.12   0.04
  65   1    -0.25   0.04   0.15    -0.20   0.03   0.12     0.07  -0.01  -0.04
  66   1    -0.04  -0.09   0.11    -0.03  -0.07   0.09     0.01   0.03  -0.03
  67   1     0.00  -0.00  -0.00     0.00  -0.00  -0.00    -0.01   0.01   0.00
  68   1    -0.00  -0.01  -0.00    -0.01  -0.03  -0.01     0.02   0.03   0.01
  69   1    -0.00  -0.01   0.00     0.03   0.08  -0.01     0.05   0.13  -0.02
  70   1     0.00  -0.00   0.00    -0.04   0.05  -0.01     0.00   0.00   0.00
  71   1     0.00  -0.00  -0.00     0.00  -0.01  -0.01    -0.00   0.00   0.00
  72   1     0.00   0.00  -0.00     0.01   0.00  -0.00    -0.01  -0.00   0.00
  73   1     0.00   0.00   0.00     0.01   0.01   0.00    -0.00  -0.01  -0.00
  74   1    -0.00   0.00   0.00    -0.00   0.00   0.00    -0.00   0.00   0.00
  75   1     0.00   0.00  -0.00     0.02   0.00  -0.01    -0.03  -0.00   0.01
  76   1    -0.00   0.00   0.00    -0.00   0.01   0.01     0.01  -0.01  -0.02
  77   1     0.00   0.00   0.00     0.02   0.01   0.02    -0.02  -0.01  -0.02
  78   1     0.01  -0.00  -0.00     0.03  -0.02  -0.00    -0.05   0.02   0.00
  79   1     0.00  -0.00  -0.00     0.00  -0.01  -0.01    -0.01   0.02   0.03
  80   1    -0.00  -0.00  -0.00    -0.00  -0.00  -0.00     0.02   0.01   0.02
  81   1    -0.00   0.00  -0.00    -0.00  -0.00  -0.00    -0.01  -0.00  -0.01
                    232                    233                    234
                        a                      a                      a 
 Frequencies --  3103.2383              3103.6593              3104.4520
 Red. masses --     1.8513                 1.8588                 1.8300
 Frc consts  --     0.0000                 0.0000                 0.0000
 IR Inten    --    42.5100                 4.0564                91.3601
 Raman Activ --     0.0000                 0.0000                 0.0000
 Depolar     --     0.0000                 0.0000                 0.0000
 Atom AN      X      Y      Z        X      Y      Z        X      Y      Z
   1  35     0.00  -0.00   0.00    -0.00   0.00  -0.00     0.00  -0.00   0.00
   2   6    -0.00   0.00  -0.00     0.00  -0.00   0.00    -0.00   0.00  -0.00
   3   6     0.00   0.04   0.01    -0.00  -0.01  -0.00     0.00   0.01   0.00
   4   6    -0.03  -0.01  -0.04     0.01   0.00   0.01    -0.00  -0.00  -0.00
   5   6    -0.06   0.07  -0.05     0.02  -0.02   0.02    -0.00   0.01  -0.00
   6   6     0.00   0.00   0.00    -0.00  -0.00  -0.00    -0.00  -0.00  -0.00
   7   7    -0.00  -0.00  -0.00     0.00   0.00   0.00     0.00  -0.00  -0.00
   8   6    -0.00  -0.00  -0.00    -0.00   0.00  -0.00    -0.00  -0.00  -0.00
   9   6     0.00  -0.00   0.00    -0.00  -0.00  -0.00    -0.00  -0.00   0.00
  10   6     0.00   0.01  -0.00    -0.00  -0.01   0.00    -0.03  -0.06   0.00
  11   6     0.00  -0.00   0.00    -0.01   0.01  -0.00    -0.03   0.04  -0.00
  12   6    -0.00   0.00  -0.00     0.00   0.00   0.00    -0.00   0.00  -0.00
  13   6     0.00  -0.00  -0.00    -0.00   0.00   0.00     0.01   0.00   0.00
  14   6     0.07  -0.09  -0.04    -0.02   0.03   0.01     0.01  -0.02  -0.01
  15   6    -0.01  -0.03  -0.01     0.00   0.01   0.00    -0.00  -0.00  -0.00
  16   6    -0.00   0.00   0.00     0.00  -0.00  -0.00    -0.00  -0.00  -0.00
  17   7     0.00  -0.00   0.00    -0.00   0.00  -0.00     0.00   0.00  -0.00
  18   6     0.00   0.00  -0.00    -0.00  -0.00   0.00     0.00   0.00   0.00
  19   6     0.01   0.00   0.00    -0.00  -0.00  -0.00     0.00   0.00   0.00
  20   6     0.00  -0.01   0.01    -0.00   0.00  -0.00     0.00  -0.00   0.00
  21   6    -0.01  -0.01   0.00     0.00   0.01  -0.00    -0.00  -0.01   0.00
  22   6    -0.01  -0.00  -0.00     0.00   0.00   0.00    -0.00  -0.00  -0.00
  23   6    -0.00   0.00  -0.00     0.00  -0.00   0.00    -0.00   0.00  -0.00
  24   6     0.00  -0.00  -0.00    -0.00   0.00  -0.00    -0.00   0.00   0.00
  25   6     0.00  -0.00  -0.00    -0.00   0.00   0.00     0.01  -0.00  -0.00
  26   6     0.00   0.00  -0.00    -0.00  -0.00   0.00     0.00   0.00  -0.01
  27   6    -0.01   0.01  -0.00     0.00  -0.01   0.00    -0.00   0.01  -0.00
  28   6    -0.01   0.00   0.00     0.00  -0.00  -0.00    -0.00   0.00   0.00
  29   6    -0.00  -0.00   0.00     0.00   0.00  -0.00    -0.00  -0.00   0.00
  30   6     0.00  -0.00  -0.00    -0.01   0.01   0.00    -0.04   0.05   0.02
  31   6    -0.00  -0.01  -0.00     0.02   0.04   0.01     0.09   0.21   0.07
  32   6    -0.04  -0.09   0.01     0.01   0.03  -0.00    -0.00  -0.00   0.00
  33   6     0.10  -0.13   0.02    -0.03   0.05  -0.01     0.00  -0.00   0.00
  34   7    -0.00   0.00   0.00    -0.00   0.00   0.00     0.00   0.00  -0.00
  35   6     0.00   0.00   0.00     0.00  -0.00  -0.00    -0.00   0.00   0.00
  36   6     0.00   0.00   0.00     0.01   0.01   0.00    -0.00  -0.00  -0.00
  37   6    -0.00  -0.00   0.00    -0.01   0.01   0.01     0.00  -0.00  -0.00
  38   6    -0.00   0.00   0.00    -0.01  -0.00   0.00     0.00   0.00  -0.00
  39   6    -0.00  -0.01  -0.00    -0.02  -0.02  -0.00     0.00   0.00   0.00
  40   6     0.01  -0.02  -0.01     0.03  -0.05  -0.04    -0.00   0.01   0.01
  41   6     0.08   0.01  -0.03     0.23   0.02  -0.09    -0.04  -0.00   0.01
  42   6     0.00  -0.00  -0.00     0.00  -0.00  -0.00     0.00  -0.00   0.00
  43   6    -0.00   0.00   0.00    -0.00   0.00   0.00    -0.00   0.00   0.00
  44   6    -0.00   0.00   0.00    -0.00   0.00   0.00    -0.00   0.00   0.00
  45   6     0.00   0.00   0.00    -0.00  -0.00  -0.00     0.00   0.00   0.00
  46   6     0.01  -0.00  -0.00    -0.00   0.00   0.00     0.01  -0.00  -0.00
  47   6     0.00  -0.00  -0.00    -0.00   0.00   0.00     0.00  -0.00  -0.00
  48   6    -0.00  -0.00  -0.00    -0.00  -0.00  -0.00    -0.00  -0.00  -0.00
  49   6    -0.00  -0.00  -0.00     0.00   0.00   0.01    -0.01  -0.01  -0.02
  50   1    -0.00  -0.14  -0.04     0.00   0.04   0.01    -0.00  -0.03  -0.01
  51   1     0.10   0.05   0.14    -0.03  -0.01  -0.04     0.01   0.00   0.01
  52   1     0.19  -0.26   0.19    -0.06   0.07  -0.05     0.01  -0.02   0.01
  53   1    -0.01  -0.02   0.00     0.01   0.02  -0.00     0.11   0.23  -0.02
  54   1    -0.01   0.01  -0.00     0.02  -0.03   0.00     0.11  -0.15   0.01
  55   1    -0.25   0.32   0.13     0.08  -0.11  -0.04    -0.05   0.07   0.03
  56   1     0.04   0.09   0.03    -0.01  -0.03  -0.01     0.01   0.01   0.00
  57   1    -0.02  -0.01  -0.01     0.01   0.00   0.01    -0.00  -0.00  -0.00
  58   1    -0.01   0.02  -0.02     0.01  -0.01   0.01    -0.01   0.01  -0.01
  59   1     0.02   0.04  -0.01    -0.01  -0.02   0.01     0.01   0.02  -0.01
  60   1     0.02   0.01   0.01    -0.01  -0.01  -0.01     0.01   0.01   0.01
  61   1     0.00  -0.01   0.01    -0.00   0.00  -0.00     0.00  -0.00   0.01
  62   1    -0.01   0.00   0.01     0.00  -0.00  -0.00    -0.02   0.00   0.01
  63   1    -0.01  -0.01   0.02     0.00   0.01  -0.01    -0.01  -0.01   0.02
  64   1     0.02  -0.03   0.01    -0.01   0.02  -0.01     0.02  -0.02   0.01
  65   1     0.02  -0.00  -0.01    -0.01   0.00   0.01     0.01  -0.00  -0.01
  66   1     0.00   0.01  -0.01    -0.00  -0.00   0.01     0.00   0.00  -0.00
  67   1    -0.00   0.01   0.00     0.02  -0.02  -0.01     0.11  -0.15  -0.05
  68   1     0.01   0.02   0.01    -0.06  -0.14  -0.04    -0.33  -0.76  -0.24
  69   1     0.12   0.29  -0.04    -0.04  -0.10   0.01     0.01   0.02  -0.00
  70   1    -0.33   0.46  -0.07     0.12  -0.16   0.02    -0.01   0.01  -0.00
  71   1     0.00   0.00   0.00     0.02  -0.03  -0.03    -0.00   0.01   0.01
  72   1     0.00   0.00  -0.00     0.03   0.00  -0.01    -0.01  -0.00   0.00
  73   1     0.01   0.02   0.00     0.05   0.07   0.01    -0.01  -0.02  -0.00
  74   1    -0.03   0.05   0.04    -0.08   0.16   0.12     0.01  -0.03  -0.02
  75   1    -0.28  -0.03   0.12    -0.79  -0.08   0.33     0.12   0.01  -0.05
  76   1     0.00  -0.01  -0.01     0.00  -0.00  -0.00     0.00  -0.01  -0.01
  77   1    -0.01  -0.00  -0.01     0.00   0.00   0.00    -0.01  -0.00  -0.01
  78   1    -0.02   0.01   0.00     0.00  -0.00  -0.00    -0.02   0.01   0.00
  79   1    -0.00   0.01   0.01     0.00  -0.00  -0.00    -0.00   0.01   0.01
  80   1     0.00   0.00   0.00     0.00   0.00   0.00     0.00   0.00   0.00
  81   1     0.00   0.00   0.01    -0.02  -0.01  -0.02     0.04   0.02   0.07
                    235                    236                    237
                        a                      a                      a 
 Frequencies --  3105.5294              3110.2044              3111.9484
 Red. masses --     1.8348                 1.8608                 1.8723
 Frc consts  --     0.0000                 0.0000                 0.0000
 IR Inten    --     4.3689                19.7564                 2.8547
 Raman Activ --     0.0000                 0.0000                 0.0000
 Depolar     --     0.0000                 0.0000                 0.0000
 Atom AN      X      Y      Z        X      Y      Z        X      Y      Z
   1  35    -0.00   0.00  -0.00     0.00  -0.00   0.00     0.00  -0.00   0.00
   2   6     0.01  -0.01   0.00    -0.00   0.00  -0.00    -0.01   0.01  -0.00
   3   6    -0.00   0.01   0.00     0.00   0.01   0.00     0.00   0.25   0.08
   4   6     0.00   0.00   0.00     0.00   0.00   0.00     0.05   0.02   0.07
   5   6    -0.01   0.00  -0.01     0.00  -0.00   0.00     0.02  -0.03   0.02
   6   6     0.00   0.01   0.00     0.00   0.00   0.00    -0.00  -0.00  -0.00
   7   7     0.00  -0.00  -0.00    -0.00   0.00   0.00     0.00   0.00   0.00
   8   6     0.00  -0.00   0.00    -0.00   0.00   0.00     0.00  -0.00  -0.00
   9   6    -0.00  -0.00   0.00     0.01   0.00  -0.00    -0.00  -0.00  -0.00
  10   6    -0.00  -0.01   0.00     0.11   0.23  -0.02    -0.01  -0.01   0.00
  11   6    -0.00   0.00  -0.00    -0.06   0.08  -0.01     0.00  -0.01   0.00
  12   6    -0.00   0.00   0.00    -0.00  -0.00   0.00     0.00   0.00  -0.00
  13   6     0.00   0.00   0.00     0.00   0.00   0.00    -0.00  -0.00  -0.00
  14   6     0.00  -0.00  -0.00    -0.00   0.00   0.00    -0.00   0.00   0.00
  15   6    -0.00  -0.00  -0.00     0.00   0.00   0.00     0.00   0.00   0.00
  16   6    -0.00  -0.00  -0.00    -0.00  -0.00  -0.00     0.00   0.00   0.00
  17   7     0.00   0.00  -0.00     0.00   0.00  -0.00    -0.00  -0.00  -0.00
  18   6     0.00   0.00  -0.00     0.00   0.00   0.00    -0.00  -0.00   0.00
  19   6     0.00   0.00   0.00     0.00   0.00   0.00    -0.00  -0.00  -0.00
  20   6     0.00  -0.00   0.00     0.00  -0.00   0.00    -0.00   0.00  -0.00
  21   6    -0.00  -0.00   0.00    -0.00  -0.00   0.00     0.00   0.00  -0.00
  22   6    -0.00  -0.00  -0.00    -0.00  -0.00  -0.00     0.00   0.00   0.00
  23   6    -0.00   0.00  -0.00    -0.00   0.00  -0.00     0.00  -0.00   0.00
  24   6     0.00  -0.00   0.00    -0.00   0.00  -0.00    -0.00   0.00  -0.00
  25   6     0.00  -0.00  -0.00     0.00  -0.00  -0.00    -0.00   0.00   0.00
  26   6     0.00   0.00  -0.00     0.00   0.00  -0.00    -0.00  -0.00   0.00
  27   6    -0.00   0.00  -0.00    -0.00   0.00  -0.00     0.00  -0.00   0.00
  28   6    -0.00   0.00   0.00    -0.00   0.00   0.00     0.00  -0.00  -0.00
  29   6    -0.00  -0.00   0.00    -0.00  -0.00   0.00     0.00   0.00  -0.00
  30   6    -0.00   0.00   0.00    -0.01   0.01   0.00     0.00  -0.00  -0.00
  31   6     0.01   0.02   0.01     0.02   0.04   0.01    -0.00  -0.01  -0.00
  32   6    -0.00  -0.00   0.00     0.00   0.00  -0.00     0.00   0.00  -0.00
  33   6     0.00  -0.00   0.00     0.00  -0.00   0.00    -0.00   0.01  -0.00
  34   7    -0.00   0.00  -0.00     0.00  -0.00  -0.00     0.00   0.00   0.00
  35   6     0.00  -0.00   0.00    -0.00   0.00   0.00    -0.00   0.00   0.00
  36   6    -0.00  -0.00  -0.00    -0.00  -0.00  -0.00    -0.00  -0.00  -0.00
  37   6     0.00  -0.00  -0.00     0.00  -0.00  -0.00    -0.00   0.00   0.00
  38   6     0.00   0.00  -0.00     0.00   0.00  -0.00    -0.00  -0.00   0.00
  39   6     0.00   0.00   0.00     0.00   0.00   0.00    -0.00  -0.00  -0.00
  40   6    -0.00   0.00   0.00    -0.00   0.00   0.00     0.00  -0.00  -0.00
  41   6    -0.01  -0.00   0.00    -0.01  -0.00   0.00     0.00   0.00  -0.00
  42   6    -0.00  -0.00  -0.00     0.00  -0.00   0.00    -0.00  -0.00  -0.00
  43   6     0.00  -0.00  -0.00    -0.00   0.00  -0.00     0.00  -0.00  -0.00
  44   6     0.00  -0.00  -0.00    -0.00   0.00   0.00     0.00  -0.00  -0.00
  45   6    -0.00  -0.00  -0.00     0.00   0.00   0.00    -0.00  -0.00  -0.00
  46   6    -0.00   0.00   0.00     0.00  -0.00  -0.00    -0.00   0.00   0.00
  47   6    -0.00  -0.00  -0.00     0.00  -0.00  -0.00    -0.00   0.00   0.00
  48   6    -0.00  -0.00  -0.00    -0.00  -0.00  -0.00    -0.00  -0.00  -0.00
  49   6     0.15   0.07   0.22     0.00   0.00   0.00    -0.00  -0.00  -0.01
  50   1     0.00  -0.03  -0.01    -0.00  -0.05  -0.02    -0.02  -0.86  -0.27
  51   1    -0.01  -0.01  -0.02    -0.01  -0.00  -0.01    -0.16  -0.08  -0.23
  52   1     0.02  -0.02   0.02    -0.01   0.01  -0.01    -0.07   0.10  -0.07
  53   1     0.01   0.03  -0.00    -0.37  -0.81   0.06     0.02   0.04  -0.00
  54   1     0.01  -0.01   0.00     0.18  -0.25   0.02    -0.01   0.02  -0.00
  55   1    -0.01   0.01   0.00     0.01  -0.01  -0.00     0.01  -0.02  -0.01
  56   1     0.00   0.00   0.00    -0.00  -0.00  -0.00    -0.00  -0.01  -0.00
  57   1    -0.00  -0.00  -0.00    -0.00  -0.00  -0.00     0.00   0.00   0.00
  58   1    -0.00   0.00  -0.00    -0.00   0.00  -0.00     0.00  -0.00   0.00
  59   1     0.00   0.00  -0.00     0.00   0.01  -0.00    -0.00  -0.01   0.00
  60   1     0.00   0.00   0.00     0.01   0.00   0.00    -0.00  -0.00  -0.00
  61   1     0.00  -0.00   0.00     0.00  -0.00   0.00    -0.00   0.00  -0.00
  62   1    -0.00   0.00   0.00    -0.01   0.00   0.00     0.00  -0.00  -0.00
  63   1    -0.00  -0.00   0.00    -0.00  -0.01   0.01     0.00   0.00  -0.00
  64   1     0.00  -0.00   0.00     0.01  -0.01   0.00    -0.00   0.01  -0.00
  65   1     0.00  -0.00  -0.00     0.00  -0.00  -0.00    -0.00   0.00   0.00
  66   1     0.00   0.00  -0.00     0.00   0.00  -0.00    -0.00  -0.00   0.00
  67   1     0.01  -0.01  -0.00     0.02  -0.03  -0.01    -0.00   0.01   0.00
  68   1    -0.03  -0.06  -0.02    -0.07  -0.16  -0.05     0.01   0.02   0.01
  69   1     0.00   0.00  -0.00    -0.00  -0.01   0.00    -0.01  -0.01   0.00
  70   1    -0.00   0.00   0.00    -0.00   0.01  -0.00     0.02  -0.02   0.00
  71   1    -0.00   0.00   0.00    -0.00   0.00   0.00     0.00  -0.00  -0.00
  72   1    -0.00  -0.00   0.00    -0.00  -0.00   0.00     0.00   0.00  -0.00
  73   1    -0.00  -0.00  -0.00    -0.00  -0.00  -0.00     0.00   0.00   0.00
  74   1     0.00  -0.01  -0.01     0.00  -0.01  -0.00    -0.00   0.00   0.00
  75   1     0.03   0.00  -0.01     0.02   0.00  -0.01    -0.00  -0.00   0.00
  76   1    -0.00   0.01   0.01     0.00  -0.00  -0.01    -0.00   0.00   0.00
  77   1     0.01   0.00   0.01    -0.00  -0.00  -0.01     0.00   0.00   0.00
  78   1     0.01  -0.00   0.00    -0.01   0.00   0.00     0.01  -0.00  -0.00
  79   1    -0.00   0.00   0.00    -0.00   0.00   0.00     0.00  -0.00  -0.00
  80   1     0.01   0.01   0.02     0.00   0.00   0.00     0.00   0.00   0.01
  81   1    -0.52  -0.25  -0.76    -0.01  -0.00  -0.01     0.02   0.01   0.02
