$hessian                                                                        
        0.4651411284  -0.0014532812   0.0070128851  -0.2108257261   0.0286212170
       -0.0078798489  -0.0213142844   0.0080800477   0.0038428973   0.0010101895
        0.0026618689   0.0011561558  -0.0008536457   0.0003108037   0.0000418370
        0.0003365260  -0.0006035629   0.0002601082  -0.0000154310   0.0000316845
       -0.0000032264   0.0000457649   0.0000124088   0.0000079634   0.0000314524
        0.0000232505   0.0000256878  -0.0000275040   0.0000435991  -0.0000475595
       -0.0000052529   0.0000216777  -0.0000058404  -0.0000205528   0.0000068053
       -0.0000212500  -0.0000022074  -0.0000148087   0.0000088825   0.0000053030
       -0.0000170217   0.0000037496   0.0000040605  -0.0000023608   0.0000189514
       -0.0000018059   0.0000107728   0.0000304207  -0.0001309803   0.0000298901
       -0.0000566942  -0.0000406797  -0.0000128566   0.0000152873  -0.0000085777
       -0.0000430257   0.0000358023  -0.0000026196   0.0000034431  -0.0000127658
        0.0000015965   0.0000091766  -0.0000041103  -0.0000053563   0.0000139966
       -0.0000032260  -0.0000038239   0.0000011404   0.0000041209  -0.0000010320
        0.0000073736   0.0000024665   0.0000123030   0.0000075611   0.0000171562
       -0.0000410555  -0.0000409768  -0.0000144089  -0.0000734996  -0.0000293216
       -0.0000084781  -0.0002271294   0.0001583709  -0.0000365602   0.0000518381
       -0.0002758484   0.0000863453   0.0001302549   0.0002657074  -0.0000365356
       -0.0001975553   0.0001193334  -0.0000735303  -0.0000650273  -0.0000784911
        0.0001012212   0.0000425740  -0.0000556648   0.0000538746  -0.0002278608
        0.0000260316   0.0000361072   0.0002839834  -0.0000420041  -0.0000137034
        0.0000855719  -0.0001860519   0.0001371896   0.0001931120   0.0001324446
       -0.0001489988  -0.0001610418   0.0000711662  -0.0000446777  -0.0000607964
       -0.0003220407   0.0002022971   0.0003166812   0.0003986228  -0.0002718684
       -0.0002722930   0.0000581912  -0.0000298955  -0.0000420161   0.0000697931
       -0.0000541988   0.0001361377   0.0000582019  -0.0000009092  -0.0000038217
       -0.0000339737   0.0000215811   0.0000122293   0.0000439869   0.0000134119
       -0.0000002374  -0.0000013552  -0.0000165481  -0.0000298222  -0.0000144769
        0.0000052149   0.0000210578   0.0000068509   0.0000154804  -0.0000666728
       -0.0000597794   0.0000493228   0.0000913004  -0.0000217509  -0.0000605569
        0.0007486093  -0.0004832582  -0.0033186388  -0.0252527820   0.0015972115
       -0.0074973184  -0.0495734763   0.0422743961   0.0149850491  -0.0635448588
       -0.0017435628  -0.0699478529  -0.0956743972  -0.0778604405   0.0603703501
        0.0007800415  -0.0015836385  -0.0006140359  -0.0006653612   0.0000041830
       -0.0001057619  -0.0000038095   0.0000112688  -0.0000475044   0.0000010886
       -0.0000304581   0.0000145799   0.0000028863  -0.0000121148   0.0000103436
       -0.0000088231   0.0000122076  -0.0000013636   0.0000021921  -0.0000133956
       -0.0000035922   0.0000017191   0.0000025737   0.0000103019  -0.0000075449
       -0.0000058684   0.0000030677   0.0000027350   0.0000008154  -0.0000050480
        0.0000037178   0.0000034065   0.0000068954  -0.0000018002  -0.0000158213
        0.0000002837   0.0000075748  -0.0000162964   0.0000023671   0.0000038505
        0.0000104509  -0.0000075667  -0.0000027553  -0.0000090897   0.0000067575
       -0.0000000355  -0.0000036979   0.0000042411   0.0000026854   0.0000040002
        0.0000019275  -0.0000072511  -0.0000088160  -0.0000017409   0.0000240661
        0.0000043023   0.0000015045  -0.0000094474  -0.0000251605   0.0000010386
        0.0000048840   0.0000022146  -0.0000025276   0.0000051149   0.0000039167
        0.0000017273  -0.0000059633  -0.0000006606  -0.0000042828   0.0000052502
        0.0000041965   0.0000031258  -0.0000215729  -0.0001039473   0.0000205100
       -0.0000083817  -0.0000640352   0.0000056581   0.0000091779  -0.0000168761
        0.0000021096   0.0000212213   0.0000135034  -0.0000115863   0.0000048233
        0.0000196684  -0.0000126206  -0.0000166588   0.0000091629  -0.0000027488
       -0.0000114845  -0.0000098899   0.0000148631  -0.0000515552  -0.0000480327
        0.0000075289   0.0000128647  -0.0000627481   0.0000128671   0.0000143882
        0.0000044220   0.0000073452   0.0000192207   0.0000075187  -0.0000107135
        0.0000120449   0.0000084410   0.0000031741   0.0000183271   0.0000047075
        0.0000006858   0.0000128133   0.0000109698   0.0000090788   0.0000182778
        0.0000045731   0.0000188967   0.0000323962   0.0000189613  -0.0000202651
       -0.0000162862  -0.0000177493   0.0000629632  -0.0007982197   0.0001732985
        0.0000529685   0.0006857377  -0.0000715777   0.0016119318
       -0.0014532812   0.5014417157   0.0172089842   0.0319654798  -0.0673270156
       -0.0013989827   0.0185114499  -0.0034918117  -0.0015945317   0.0023588371
        0.0031988636  -0.0054648812   0.0001173809  -0.0001368428   0.0002111110
       -0.0002484535  -0.0009082418   0.0007061872  -0.0002170971   0.0000016259
        0.0000128088   0.0000021342   0.0000602282   0.0000269418   0.0000133927
        0.0000070963  -0.0000151074   0.0000190390  -0.0000175235  -0.0000109298
       -0.0000002542   0.0000324585   0.0000094169  -0.0000078444   0.0000104830
       -0.0000005482  -0.0000047759  -0.0000096678   0.0000002722   0.0000041802
        0.0000000672  -0.0000043145   0.0000030495   0.0000096456   0.0000043582
       -0.0000045903  -0.0000260429  -0.0000219843  -0.0000419131  -0.0000127182
       -0.0000821227  -0.0000084874   0.0000063449   0.0000089538  -0.0000091368
       -0.0000066434   0.0000002810  -0.0000029260  -0.0000008445  -0.0000070713
        0.0000032894   0.0000030520   0.0000021331  -0.0000016212   0.0000045508
       -0.0000001169  -0.0000032237  -0.0000000058   0.0000001215  -0.0000012552
        0.0000011591   0.0000004737   0.0000009230  -0.0000015558   0.0000014105
       -0.0000071443  -0.0000026961  -0.0000039084   0.0000246198  -0.0000016457
       -0.0000045473  -0.0000568030  -0.0000055687  -0.0000527745   0.0000511273
       -0.0000262381   0.0000036279  -0.0000163808  -0.0000119620   0.0000131349
       -0.0000200349  -0.0000064143   0.0000050231   0.0000174231  -0.0000148225
        0.0000015420  -0.0000052605   0.0000087180  -0.0000052689  -0.0000109964
       -0.0000094783   0.0000087316   0.0000199815  -0.0000019770  -0.0000015792
        0.0000100223  -0.0000213669   0.0000165484  -0.0000068402   0.0000213964
       -0.0000145938   0.0000094396  -0.0000188276   0.0000168958  -0.0000329129
        0.0000103779  -0.0000057861   0.0000148173   0.0000159066  -0.0000152968
        0.0000190980   0.0000125703  -0.0000132372  -0.0000362515   0.0000135161
        0.0000188875   0.0002300350  -0.0001323406   0.0000057957  -0.0000270708
        0.0000563837   0.0000272550   0.0000028967  -0.0000005311   0.0000030503
        0.0000014907   0.0000057505   0.0000076648  -0.0000033909   0.0000249486
        0.0000199618  -0.0000043736   0.0000085467  -0.0000010556   0.0000049634
        0.0000098964  -0.0000305645   0.0000015591   0.0000160301  -0.0000610444
        0.0001531444   0.0037639053  -0.0041778493  -0.0084278387   0.0019569314
       -0.0010533672   0.0429337704  -0.2404076927  -0.0813624842  -0.0025082851
       -0.0451446366  -0.0111236114  -0.0826338277  -0.1505357454   0.0854439158
        0.0001800694  -0.0011544835   0.0018894618   0.0009192009  -0.0002809010
        0.0000058204   0.0000016007  -0.0000300157   0.0000040842   0.0000075579
        0.0000128117   0.0000069030   0.0000035833  -0.0000004943   0.0000076694
        0.0000010845   0.0000109765  -0.0000009182  -0.0000022699  -0.0000094029
       -0.0000038410  -0.0000019564  -0.0000018189   0.0000021447  -0.0000024114
       -0.0000042526   0.0000003333   0.0000045800   0.0000008419  -0.0000065787
       -0.0000001900   0.0000006584   0.0000031928  -0.0000077858   0.0000013354
       -0.0000063737   0.0000046436   0.0000023574   0.0000081701   0.0000007982
       -0.0000016549   0.0000009135  -0.0000002552  -0.0000024977   0.0000034842
        0.0000002928  -0.0000008960   0.0000013536  -0.0000004070   0.0000003729
        0.0000006334  -0.0000014270  -0.0000012396  -0.0000004858   0.0000010147
       -0.0000002229  -0.0000004525  -0.0000015665  -0.0000004468   0.0000004279
        0.0000008968  -0.0000008075  -0.0000013669   0.0000006926  -0.0000002940
        0.0000010374  -0.0000015131   0.0000005270  -0.0000005928  -0.0000009009
       -0.0000014783   0.0000027686   0.0000070115   0.0000034590  -0.0000084988
        0.0000055176   0.0000021540  -0.0000046184   0.0000007974   0.0000025909
        0.0000001276   0.0000018361   0.0000033539  -0.0000036208  -0.0000037421
        0.0000045387  -0.0000032067  -0.0000065892   0.0000008456   0.0000003179
       -0.0000048833  -0.0000041965   0.0000043664  -0.0000027193  -0.0000024865
        0.0000037239  -0.0000003834  -0.0000037190   0.0000064536   0.0000035398
       -0.0000036594   0.0000059086  -0.0000093645   0.0000014874   0.0000075078
        0.0000030734   0.0000071066   0.0000040486   0.0000008237  -0.0000006105
        0.0000029947   0.0000008780  -0.0000064396   0.0000015851   0.0000093132
        0.0000055663  -0.0000023402  -0.0000028707  -0.0000069603   0.0000021949
        0.0000073131  -0.0000073408   0.0000133882  -0.0005040951   0.0000865606
       -0.0001583438  -0.0013020616  -0.0010425368   0.0009522936
        0.0070128851   0.0172089842   0.5172405870  -0.0113083461  -0.0009092956
       -0.0646326263   0.0195049908  -0.0051552184  -0.0004281948   0.0004892351
       -0.0047145892  -0.0007962048   0.0000606393   0.0000867552  -0.0000064151
        0.0001310237   0.0006247620  -0.0003271816   0.0002384276  -0.0000403575
       -0.0000096608   0.0000216959  -0.0000228463  -0.0000096385  -0.0000150190
       -0.0000052861  -0.0000201984  -0.0000093460   0.0000078572  -0.0000063705
       -0.0000044140   0.0000090347  -0.0000021705  -0.0000000285  -0.0000021423
       -0.0000046125  -0.0000014000  -0.0000095262  -0.0000028750   0.0000020522
       -0.0000018248   0.0000021106  -0.0000038401   0.0000179741   0.0000078268
       -0.0000114838  -0.0000020139   0.0000229765  -0.0000149460   0.0000271323
        0.0000433891   0.0000037865  -0.0000159349  -0.0000072658   0.0000039358
        0.0000008281   0.0000054478  -0.0000009101  -0.0000045392   0.0000053480
       -0.0000025737  -0.0000023643  -0.0000021576   0.0000009768  -0.0000015814
        0.0000038969  -0.0000013240   0.0000008425   0.0000006027  -0.0000003962
        0.0000021902   0.0000020804   0.0000004441   0.0000033174   0.0000043011
       -0.0000084779   0.0000019311  -0.0000015332  -0.0000092579   0.0000300185
        0.0000075976  -0.0000736571   0.0000518716   0.0000140778   0.0000088873
       -0.0000090114  -0.0000060259   0.0000059934   0.0000071965   0.0000104992
       -0.0000300777   0.0000182051  -0.0000062215  -0.0000068232  -0.0000060328
        0.0000094796   0.0000065809  -0.0000235330   0.0000218064  -0.0000653417
        0.0000195656  -0.0000028952   0.0000745053  -0.0000068652  -0.0000023533
       -0.0000016352  -0.0000318426   0.0000260022   0.0000483143   0.0000117593
       -0.0000154394  -0.0000592567   0.0000536782  -0.0000319293   0.0000072164
       -0.0001225973   0.0000824573   0.0000916330   0.0001147685  -0.0000634018
       -0.0000874443  -0.0000047897   0.0000105027   0.0000164000   0.0000245969
       -0.0000361538  -0.0000871654   0.0000744566  -0.0000027858  -0.0000160492
       -0.0000198492  -0.0000190088  -0.0000059988   0.0000278943   0.0000465183
       -0.0000058503   0.0000190742   0.0000244142   0.0000222615   0.0000279921
        0.0000009864  -0.0000046643  -0.0000042137  -0.0000024405   0.0000119816
       -0.0000153268   0.0000065704   0.0000343479  -0.0000340192  -0.0000311912
       -0.0028941619  -0.0048679862  -0.0010422324  -0.0232592378   0.0024656905
       -0.0025011162   0.0160654889  -0.0815478083  -0.0778364318  -0.0704242320
       -0.0109972053  -0.2608052803   0.0638172942   0.0849960382  -0.1089836536
        0.0016228712   0.0008964372   0.0001797198   0.0010050164  -0.0003064315
       -0.0000347188  -0.0000160579  -0.0000304561  -0.0000012735  -0.0000058991
       -0.0000037285   0.0000062352  -0.0000051897  -0.0000077603   0.0000059507
       -0.0000053577   0.0000038472  -0.0000138670  -0.0000025852  -0.0000051586
        0.0000003466   0.0000062784   0.0000058731   0.0000042395  -0.0000004083
        0.0000000932  -0.0000000385   0.0000024527  -0.0000012255  -0.0000026502
        0.0000040881   0.0000027579   0.0000004506   0.0000030596   0.0000028027
        0.0000041151   0.0000117439  -0.0000002654   0.0000097441  -0.0000043148
       -0.0000034817  -0.0000047244   0.0000000384   0.0000042018  -0.0000031206
       -0.0000005613   0.0000010802  -0.0000014327   0.0000003312  -0.0000007976
       -0.0000006278   0.0000007245   0.0000020616   0.0000016139  -0.0000015448
        0.0000000431  -0.0000007743   0.0000022275   0.0000026017   0.0000012553
       -0.0000002043  -0.0000024425   0.0000005684  -0.0000005137  -0.0000007069
       -0.0000005311   0.0000019005   0.0000005759   0.0000008563   0.0000033321
       -0.0000004537  -0.0000002553  -0.0000110509  -0.0000070618  -0.0000073459
        0.0000030624  -0.0000084508   0.0000043074   0.0000029773  -0.0000074111
        0.0000015885   0.0000014491   0.0000002932  -0.0000016257   0.0000000127
       -0.0000013455   0.0000006543   0.0000019609   0.0000004877   0.0000004763
       -0.0000011695  -0.0000001838   0.0000017208  -0.0000114460  -0.0000126699
       -0.0000009457  -0.0000007917  -0.0000163514   0.0000035956   0.0000035431
       -0.0000004821   0.0000032785  -0.0000024318   0.0000049774   0.0000012809
        0.0000005196  -0.0000069266  -0.0000055175   0.0000047715  -0.0000065271
        0.0000000629  -0.0000026463  -0.0000001411  -0.0000052436  -0.0000022212
        0.0000044069   0.0000042281  -0.0000052615  -0.0000034698  -0.0000104518
        0.0000049327  -0.0000384249  -0.0000040132  -0.0012088260   0.0002326636
       -0.0002391402  -0.0006664505   0.0019513353   0.0001481963
       -0.2108257261   0.0319654798  -0.0113083461   0.6154880487  -0.0775082386
        0.0501145457  -0.1347630078   0.0844672383   0.0978457999  -0.0286202277
        0.0192507924   0.0201888923   0.0059977813  -0.0044939565  -0.0021006883
       -0.0018351392   0.0004872887  -0.0001850632   0.0009235221   0.0000677935
        0.0002538231  -0.0000791896   0.0001300440  -0.0000237315   0.0000493663
       -0.0001413087  -0.0001834027   0.0001138600  -0.0000613551   0.0000912280
        0.0000127808  -0.0001284928  -0.0000020509   0.0000500367  -0.0000076559
        0.0000649580  -0.0000063950   0.0000402807  -0.0000201181  -0.0000169696
        0.0000237262  -0.0000008512  -0.0000199652   0.0000406967  -0.0000363151
       -0.0000371126  -0.0000328072  -0.0000651023  -0.0004125537   0.0003074748
       -0.0000052739  -0.0000093565  -0.0000717584  -0.0000384897   0.0000212567
       -0.0000011349   0.0000140079  -0.0000108621  -0.0000296888   0.0000187549
       -0.0000235327  -0.0000252112  -0.0000051358   0.0000035763  -0.0000170803
        0.0000171752   0.0000024532   0.0000046261  -0.0000074811  -0.0000015015
        0.0000099165  -0.0000000954  -0.0000177081   0.0000028487  -0.0000018981
       -0.0000378351   0.0000153399  -0.0000193275   0.0002769274  -0.0001842028
        0.0000243014  -0.0004003528   0.0001620962  -0.0000684836   0.0003848877
       -0.0000454420  -0.0000247977  -0.0001369824  -0.0001895823   0.0000156640
       -0.0002241742   0.0000500535  -0.0000125293   0.0000881505  -0.0000651374
        0.0000081052  -0.0000067063  -0.0000490809   0.0000530479  -0.0002245361
        0.0000661470  -0.0000171126   0.0002982098   0.0000219087  -0.0000549721
       -0.0000355934  -0.0001746680   0.0001391485   0.0000773236   0.0000761060
       -0.0000711407  -0.0001477914   0.0001184144  -0.0000631428  -0.0001692329
       -0.0003173954   0.0002607821   0.0002993359   0.0003599073  -0.0001875352
       -0.0000798760   0.0000042213  -0.0000124728  -0.0002130779   0.0001398891
       -0.0000405917   0.0008026617  -0.0004246632  -0.0001343284  -0.0001062420
       -0.0000259617   0.0000340444  -0.0000062985   0.0000835509   0.0000549398
       -0.0000948485  -0.0000480256   0.0000533242   0.0001389356   0.0001156017
       -0.0000155138  -0.0000453611  -0.0000406432  -0.0000394541   0.0001598664
        0.0000468539  -0.0000743966   0.0000436190   0.0000992343   0.0001142812
       -0.0404225609  -0.0038409274  -0.0216848847  -0.1552184197  -0.0578702451
       -0.1289798047  -0.0114174226   0.0060817964   0.0036627486  -0.0150086906
        0.0000871750  -0.0059294622  -0.0257243416  -0.0009199317   0.0032581181
        0.0056936617  -0.0080658108  -0.0117642978  -0.0052513014   0.0027467455
       -0.0010230031  -0.0000929586   0.0000622360   0.0001737443   0.0000078291
       -0.0000089612  -0.0000176646  -0.0000118232   0.0000094715  -0.0000335818
        0.0000364643  -0.0000555828   0.0000140125  -0.0000135580   0.0000647417
        0.0000112657  -0.0000141655  -0.0000151666  -0.0000245545   0.0000085839
        0.0000475473  -0.0000036926  -0.0000007261  -0.0000097554   0.0000044800
       -0.0000051391  -0.0000101442  -0.0000087379   0.0000165093   0.0000303063
        0.0000424502   0.0000368360   0.0000141610   0.0000783201  -0.0000140064
        0.0000070525  -0.0000091914   0.0000013692   0.0000213161  -0.0000163451
       -0.0000008409   0.0000083959  -0.0000088410  -0.0000016974  -0.0000066298
       -0.0000007874   0.0000141584   0.0000219286   0.0000077673  -0.0000074060
       -0.0000062670  -0.0000013719   0.0000226231   0.0000173553   0.0000003484
       -0.0000036690  -0.0000080158   0.0000059497  -0.0000041144  -0.0000076223
       -0.0000023675   0.0000178189   0.0000008343   0.0000134272   0.0000135084
       -0.0000061813   0.0000087891  -0.0000273373   0.0000107364   0.0000219603
        0.0000055619   0.0000036810   0.0000343315   0.0000106515  -0.0000308787
        0.0000305966  -0.0000082766  -0.0000101571   0.0000041248   0.0000089379
       -0.0000220536   0.0000143352   0.0000266625  -0.0000052558   0.0000007751
        0.0000045886   0.0000063771  -0.0000054652  -0.0000407977  -0.0000436869
       -0.0000208436  -0.0000029534  -0.0000534927   0.0000028242   0.0000139053
        0.0000117965  -0.0000005593   0.0000255924  -0.0000178071  -0.0000579449
       -0.0000039116  -0.0000268262  -0.0000386653  -0.0000099440  -0.0000230393
       -0.0000025273  -0.0000079305  -0.0000307189   0.0000355302  -0.0000147906
        0.0000072871  -0.0000527466  -0.0000000991  -0.0000023109   0.0000339761
       -0.0001026778   0.0000046437  -0.0001699508  -0.0052111354   0.0025351309
       -0.0014328312   0.0060529894   0.0052227124   0.0092832656
        0.0286212170  -0.0673270156  -0.0009092956  -0.0775082386   0.3089811105
        0.2237295599   0.0422017995  -0.1343067817  -0.1153077451   0.0521983408
       -0.0049894241   0.0119965767  -0.0042592252  -0.0225809780  -0.0280057103
        0.0004150275  -0.0001993078  -0.0000837774  -0.0002545695  -0.0001274963
       -0.0000269383  -0.0000942133  -0.0000565190  -0.0000601404  -0.0000783256
       -0.0001526002   0.0000029315  -0.0000108050   0.0001312673   0.0000561498
       -0.0000590720  -0.0000221995  -0.0001046311  -0.0000074999   0.0000032966
       -0.0000094976  -0.0000059187  -0.0000055131   0.0000074873   0.0000014075
       -0.0000011882   0.0000017842   0.0000533739  -0.0000953393   0.0000590272
        0.0000222756   0.0001297597   0.0000281269   0.0001601330  -0.0001506780
        0.0000816820  -0.0000168731  -0.0000013297   0.0000087689  -0.0000175303
       -0.0000024604  -0.0000021525   0.0000007699   0.0000010066  -0.0000010563
        0.0000018807   0.0000027572  -0.0000012934   0.0000007912   0.0000029629
       -0.0000008314   0.0000006947   0.0000002268  -0.0000005486  -0.0000007439
        0.0000000095  -0.0000016828   0.0000021534  -0.0000023567   0.0000028581
       -0.0000018521   0.0000065089  -0.0000009943  -0.0000997614   0.0001984729
       -0.0000116885   0.0000217323  -0.0001045616   0.0000873602  -0.0000863264
        0.0000873658  -0.0000085181   0.0000027180  -0.0000320657   0.0000081138
        0.0000786473  -0.0000145542   0.0000042816  -0.0000434996   0.0000259233
       -0.0000012093   0.0000100396  -0.0000264737   0.0000213906  -0.0000051096
        0.0000151471  -0.0000072424  -0.0000138167  -0.0000205132   0.0000169400
       -0.0000003573   0.0000376782  -0.0000308164   0.0000452088  -0.0000280465
        0.0000158561  -0.0000409693   0.0000552627  -0.0000381831   0.0000849756
       -0.0000568730   0.0000199548   0.0000045570   0.0000148574  -0.0000056226
       -0.0000961691  -0.0000171935   0.0000239763   0.0001240281  -0.0000192996
       -0.0000454955  -0.0001614688   0.0000000459   0.0000678873   0.0002675425
       -0.0001400059  -0.0000299280   0.0000338708   0.0001231241   0.0000532977
       -0.0000332132  -0.0000323147  -0.0000040799   0.0000174245  -0.0000577794
       -0.0000457372  -0.0000148530   0.0000126005   0.0000083574   0.0000060797
        0.0000693189   0.0000737843  -0.0000223872  -0.0001215347  -0.0001505568
       -0.0359729905   0.0181968322   0.0141301732  -0.0160737284  -0.0937151456
       -0.0724087451   0.0283106455  -0.0069572169  -0.0007246424  -0.0007044909
        0.0006250025  -0.0001557344  -0.0181907993   0.0049635286  -0.0010652970
        0.0036616761  -0.0066861320  -0.0102461448   0.0022406547   0.0057509928
       -0.0028644553   0.0001339991   0.0000518695   0.0000110713   0.0000097705
       -0.0000097954   0.0000259593   0.0000038352  -0.0000113608   0.0000157664
        0.0000070888   0.0000026331  -0.0000166047   0.0000054910  -0.0000050963
       -0.0000008128   0.0000065797   0.0000053159   0.0000067380   0.0000019610
       -0.0000042337   0.0000011251  -0.0000001397   0.0000027558   0.0000004997
        0.0000058169   0.0000045813   0.0000031923   0.0000012756  -0.0000017135
        0.0000077621   0.0000222668   0.0000032942   0.0000169954   0.0000007914
       -0.0000064672   0.0000016771  -0.0000010183  -0.0000025043   0.0000021944
       -0.0000008039  -0.0000009247   0.0000004469   0.0000012039   0.0000004272
        0.0000007924  -0.0000011700  -0.0000016066  -0.0000005081  -0.0000015839
        0.0000015568  -0.0000002620  -0.0000017165  -0.0000003004  -0.0000008303
       -0.0000005738   0.0000008448  -0.0000003187   0.0000009899   0.0000001414
       -0.0000006889   0.0000004837  -0.0000001029  -0.0000002873   0.0000023726
       -0.0000027886   0.0000031578   0.0000160958   0.0000101232  -0.0000081455
        0.0000052595   0.0000078840  -0.0000032793  -0.0000012650   0.0000016020
       -0.0000080276   0.0000008753   0.0000008609  -0.0000014139  -0.0000015281
        0.0000018905  -0.0000032701  -0.0000034185  -0.0000003637  -0.0000005147
       -0.0000029383  -0.0000021484   0.0000014837  -0.0000014338  -0.0000002667
        0.0000007578  -0.0000021501  -0.0000025394   0.0000007701  -0.0000012131
       -0.0000046048   0.0000041639  -0.0000362783   0.0000188671   0.0000416750
       -0.0000110324   0.0000064940   0.0000183409  -0.0000031159   0.0000197214
        0.0000069811  -0.0000030178  -0.0000043875   0.0000006155  -0.0000200739
       -0.0000176289  -0.0000093603  -0.0000390673  -0.0000113107   0.0000279377
       -0.0000644559   0.0001032622   0.0000603281   0.0027397297   0.0057185820
       -0.0028640527  -0.0074827490  -0.0072567240  -0.0154879888
       -0.0078798489  -0.0013989827  -0.0646326263   0.0501145457   0.2237295599
        0.5093132484   0.0323680643  -0.0985939030  -0.1907153101   0.0696175535
       -0.0001968030   0.0254974521  -0.0019713211  -0.0275441102  -0.0502232058
       -0.0001218397  -0.0002829358  -0.0002943936  -0.0001685687  -0.0001351342
        0.0001413469  -0.0002353685  -0.0001734347  -0.0000485877  -0.0002874943
       -0.0003178992   0.0000224157  -0.0000270271   0.0002002079   0.0001544853
       -0.0001177177  -0.0000348580  -0.0001967954   0.0000052172  -0.0000004238
       -0.0000015426  -0.0000030161   0.0000038892  -0.0000000673   0.0000066453
       -0.0000011156  -0.0000009979   0.0000885765  -0.0001526133   0.0000955451
        0.0000200674   0.0002671267   0.0000933006   0.0001658178  -0.0000918413
        0.0000908728  -0.0000459961  -0.0000287509   0.0000003783  -0.0000094164
        0.0000155669   0.0000044676  -0.0000016641   0.0000003811   0.0000040035
        0.0000011798   0.0000058053  -0.0000069716   0.0000011998  -0.0000017509
        0.0000003071   0.0000043351   0.0000003164  -0.0000003804  -0.0000007659
        0.0000010582  -0.0000009957  -0.0000036437  -0.0000131841   0.0000073840
        0.0000074288   0.0000183581   0.0000123587  -0.0000211343   0.0001400802
       -0.0000043521  -0.0001259446  -0.0000002676   0.0001191634  -0.0000390641
       -0.0000484805   0.0000326012   0.0000768283   0.0000460218   0.0000132112
        0.0000056842   0.0000152391  -0.0000171248  -0.0000351734  -0.0000143544
        0.0000186477   0.0000126760  -0.0000222114   0.0000252046  -0.0000516695
        0.0000198802  -0.0000008415   0.0000543139  -0.0000132786   0.0000005633
        0.0000064253  -0.0000221467   0.0000154747   0.0000508979   0.0000093284
       -0.0000171484  -0.0000562715   0.0000505949  -0.0000322087  -0.0000153111
       -0.0001140533   0.0000790675   0.0000965567   0.0001205423  -0.0000644904
       -0.0000682693  -0.0000031436   0.0000066912   0.0000197126   0.0000218858
       -0.0000505260   0.0000693449  -0.0002656062   0.0000499763   0.0002970358
       -0.0004094332   0.0000238382   0.0000969885   0.0002529838   0.0001567218
       -0.0000978336  -0.0000767390   0.0000216986   0.0000958283  -0.0000121677
       -0.0000729224  -0.0000195174   0.0000048702  -0.0000038445   0.0000458237
        0.0000371630   0.0001303427   0.0001427577  -0.0002138885  -0.0001101594
       -0.0716689691   0.0275099572   0.0139286754  -0.0637072854  -0.0889793418
       -0.2097894162   0.0113873320  -0.0033116957  -0.0000095323  -0.0292767843
        0.0042364862  -0.0038237917   0.0155988999  -0.0024635485   0.0018247453
        0.0075093095  -0.0152234053  -0.0195297184  -0.0015633825  -0.0028475885
        0.0032926937   0.0001399808   0.0000393802   0.0000734184   0.0000192741
        0.0000048702   0.0000209200   0.0000043100  -0.0000091712   0.0000109280
        0.0000068958  -0.0000147826  -0.0000044000   0.0000087364   0.0000005077
       -0.0000022768  -0.0000006137   0.0000020653   0.0000036523  -0.0000003650
       -0.0000050917   0.0000023773  -0.0000016798   0.0000013784   0.0000024697
        0.0000013795   0.0000029965   0.0000007930  -0.0000082351  -0.0000073561
        0.0000142252   0.0000355192   0.0000012537   0.0000371278  -0.0000037187
       -0.0000062448  -0.0000095308  -0.0000001285   0.0000012700  -0.0000028753
       -0.0000010508   0.0000007672  -0.0000017897   0.0000018898   0.0000001297
        0.0000008409  -0.0000008691  -0.0000003713   0.0000008420   0.0000001597
        0.0000040144   0.0000012248  -0.0000007128  -0.0000023588  -0.0000002074
       -0.0000012871   0.0000002878   0.0000011049   0.0000001637   0.0000003802
       -0.0000014412   0.0000015930  -0.0000007177  -0.0000000001   0.0000052957
       -0.0000035102   0.0000027238  -0.0000315134   0.0000073268  -0.0000291676
        0.0000086872  -0.0000078129  -0.0000007428   0.0000030175  -0.0000040269
       -0.0000019721   0.0000017941   0.0000008712  -0.0000019413   0.0000025900
        0.0000003797  -0.0000016078   0.0000003582  -0.0000000936  -0.0000011460
       -0.0000011833  -0.0000006647   0.0000005361  -0.0000159481  -0.0000140107
       -0.0000057509  -0.0000009491  -0.0000201002  -0.0000016102   0.0000027195
       -0.0000012861  -0.0000009626  -0.0000357180   0.0000129155   0.0000319928
       -0.0000030410  -0.0000026290   0.0000087659  -0.0000004300   0.0000024739
        0.0000018326  -0.0000062264  -0.0000048847   0.0000082073  -0.0000130935
       -0.0000125605  -0.0000048218  -0.0000197305   0.0000290626   0.0000149706
       -0.0001399409   0.0001000414   0.0000537008  -0.0006999723  -0.0029372105
        0.0033053444  -0.0096047050  -0.0108556996  -0.0190546859
       -0.0213142844   0.0185114499   0.0195049908  -0.1347630078   0.0422017995
        0.0323680643   0.6468446271  -0.0894962717   0.0657704039  -0.3257266050
        0.0784000187   0.0117854933  -0.0411896546  -0.0341402866  -0.0704053695
        0.0016581978  -0.0010513809  -0.0028417098  -0.0011288592  -0.0002333408
       -0.0004414628  -0.0002653188  -0.0001290794  -0.0000859782  -0.0002733147
       -0.0002746635  -0.0003321592  -0.0000032760   0.0002049814   0.0001731703
       -0.0001138069   0.0000430235  -0.0001409666   0.0000159811   0.0000175096
        0.0000005340   0.0000002011  -0.0000151718   0.0000023868   0.0000011170
        0.0000015927   0.0000033698   0.0000965998  -0.0001341325   0.0001246544
        0.0000268172   0.0002840164   0.0002166659   0.0005799773  -0.0004908851
        0.0003463177  -0.0000123817   0.0000216852   0.0000277253  -0.0000136516
        0.0000186770  -0.0000119430   0.0000139601   0.0000093642   0.0000094637
        0.0000044142   0.0000020119  -0.0000040413   0.0000072854  -0.0000058681
       -0.0000015289  -0.0000029707  -0.0000026102  -0.0000000272  -0.0000019490
       -0.0000056264   0.0000033140   0.0000014713  -0.0000138946  -0.0000005576
        0.0000183613   0.0000312364   0.0000200796  -0.0003299884   0.0005534050