$hessian                                                                        
        0.4777234438   0.0160773941   0.0031246277  -0.1969660498   0.0550238215
       -0.0093159913  -0.0167441229   0.0097653650   0.0031638508   0.0012672110
        0.0026614214   0.0005917561  -0.0006168096   0.0003234881   0.0003692469
        0.0001234724  -0.0003904180   0.0002281472  -0.0002002003   0.0000676130
       -0.0000128859   0.0000505133  -0.0000364232  -0.0000110428   0.0000548926
       -0.0000002679   0.0000689093  -0.0000375730  -0.0000099923  -0.0001081202
       -0.0000034751   0.0000648426   0.0000054433  -0.0000205257   0.0000582405
        0.0000130775  -0.0000052851   0.0000047775  -0.0000233097  -0.0000076258
       -0.0000057886  -0.0000198117   0.0000291629  -0.0000078407   0.0000732103
       -0.0000184530  -0.0000317319  -0.0000183894  -0.0000351344   0.0000140231
       -0.0000270921   0.0000192369   0.0000486610  -0.0000058269  -0.0000039000
       -0.0000103581   0.0000111333  -0.0000214541  -0.0000143727  -0.0000207134
        0.0000049210   0.0000127137  -0.0000064017   0.0000161204   0.0000224125
        0.0000000763  -0.0000050436   0.0000038795   0.0000076015   0.0000078605
       -0.0000102520   0.0000010180   0.0000193917  -0.0000042094   0.0000209984
       -0.0000135218  -0.0000195210   0.0000022113  -0.0000219441   0.0000067676
        0.0000057769  -0.0000202310  -0.0000106437  -0.0000102486  -0.0001513067
       -0.0000746029   0.0000570687   0.0000581653   0.0000829591  -0.0000867400
        0.0000209320  -0.0000571015   0.0000227389  -0.0000045790   0.0000074047
       -0.0000092646   0.0000335152  -0.0000028829  -0.0000108701  -0.0000002830
       -0.0000231308   0.0000087330   0.0000072420   0.0000040718  -0.0000068099
       -0.0000103680  -0.0000002037  -0.0000003391   0.0000096031  -0.0000088898
       -0.0000024254  -0.0000022386  -0.0000170806   0.0000041564   0.0000309418
        0.0000316878  -0.0000313625  -0.0000343812  -0.0000111869   0.0000475112
       -0.0000180108   0.0000285790  -0.0000155070   0.0000418796   0.0000061070
       -0.0000194413  -0.0000427985   0.0000090365  -0.0000024232   0.0000445448
        0.0000104556   0.0000340055   0.0000299857   0.0000204507  -0.0000038874
        0.0000240471  -0.0000224165  -0.0000738256  -0.0000561535  -0.0000216501
        0.0000110005  -0.0000472828  -0.0000181669   0.0000108381  -0.0000169173
        0.0000282334   0.0000908915   0.0000201714  -0.0000094152  -0.0000693506
        0.0007702419  -0.0002224539  -0.0039497292  -0.0256953800   0.0066461542
       -0.0074580062  -0.0389114166  -0.0130865459   0.0032040410  -0.1141765659
       -0.0724863756  -0.0821236983  -0.0867143352  -0.0034712780   0.0916938795
        0.0008990158  -0.0014940670  -0.0007859386  -0.0005102764   0.0001873985
       -0.0001355541   0.0000010163   0.0000259466  -0.0000678929   0.0000041183
       -0.0000277070   0.0000394491   0.0000148612  -0.0000029635  -0.0000081572
       -0.0000089423  -0.0000271157   0.0000128235  -0.0000052440   0.0000032620
        0.0000169802   0.0000014850  -0.0000008093  -0.0000023392   0.0000077501
       -0.0000360226   0.0000024345  -0.0000103981   0.0000081001  -0.0000192650
       -0.0000032783   0.0000083180   0.0000325392   0.0000020685   0.0000018031
       -0.0000191480  -0.0000010568  -0.0000144780   0.0000267308   0.0000018431
        0.0000054444  -0.0000057198  -0.0000059487  -0.0000021429   0.0000099152
       -0.0000004909  -0.0000101503   0.0000092418   0.0000020471  -0.0000000134
        0.0000047438  -0.0000065362  -0.0000094739  -0.0000042081   0.0000088246
        0.0000018737   0.0000013226  -0.0000106364  -0.0000032724  -0.0000004273
        0.0000016137   0.0000013018   0.0000014219   0.0000039680   0.0000000595
        0.0000030214  -0.0000076096  -0.0000042469  -0.0000109848   0.0000001841
       -0.0000015206   0.0000031883   0.0000126019  -0.0000240167   0.0000252319
        0.0000026621   0.0000045700   0.0000182092  -0.0000063481   0.0000325675
       -0.0000005727   0.0000038742   0.0000065511  -0.0000063977  -0.0000058397
        0.0000122498  -0.0000041391  -0.0000131857   0.0000030946  -0.0000023770
       -0.0000127864  -0.0000025422  -0.0000007157  -0.0000077149  -0.0000043289
       -0.0000093518   0.0000029447  -0.0000096432  -0.0000081392   0.0000012857
       -0.0000107180   0.0000080000   0.0000112293   0.0000085616  -0.0000156084
        0.0000088918   0.0000103515   0.0000161346   0.0000119738  -0.0000038701
        0.0000127555   0.0000248859   0.0000074346   0.0000005685   0.0000151516
        0.0000041960   0.0000075589   0.0000026709   0.0000185541  -0.0000376105
       -0.0000028678  -0.0000271482   0.0000595733  -0.0008657867   0.0003730390
       -0.0000507937   0.0006538491   0.0000462131   0.0014550617
        0.0160773941   0.4885356914   0.0180263737   0.0499064080  -0.0812412015
        0.0003124664   0.0194039631  -0.0084111167  -0.0026953946   0.0019553310
        0.0029338047  -0.0052554835   0.0003462133  -0.0002925502   0.0000593903
       -0.0005606743  -0.0008969309   0.0006811682  -0.0001417202  -0.0000237109
       -0.0000294175   0.0000036877   0.0000466163   0.0000413683  -0.0000105376
        0.0000361052  -0.0000899331   0.0000436576  -0.0000017564   0.0000340853
        0.0000135371  -0.0000198794   0.0000168851   0.0000212320  -0.0000401755
       -0.0000124176  -0.0000006001  -0.0000023783   0.0000097868   0.0000361177
        0.0000202137  -0.0000041551  -0.0000242680   0.0000318473  -0.0000436692
        0.0000024311   0.0000059476   0.0000038722   0.0000142591  -0.0000590463
       -0.0000350197  -0.0000226586  -0.0000308324   0.0000103204   0.0000054249
        0.0000073116  -0.0000065665   0.0000099943   0.0000050097   0.0000101963
       -0.0000062943  -0.0000098312   0.0000025953  -0.0000084585  -0.0000115979
        0.0000023142   0.0000021486  -0.0000010982  -0.0000044807  -0.0000041681
        0.0000069172  -0.0000005977  -0.0000104993   0.0000012394  -0.0000122129
        0.0000060178   0.0000153575  -0.0000032405  -0.0000088575   0.0000239912
        0.0000095647  -0.0000212187  -0.0000449902  -0.0000861202   0.0001447501
        0.0000449592  -0.0000491337  -0.0000502465  -0.0000553675   0.0000729257
       -0.0000452082   0.0000305658   0.0000051335   0.0000272435   0.0000119514
       -0.0000047492  -0.0000405386   0.0000032009   0.0000056186   0.0000095159
        0.0000140279  -0.0000069517  -0.0000108757   0.0000010249   0.0000045886
        0.0000048984   0.0000062957  -0.0000017264  -0.0000038398  -0.0000024092
        0.0000050254   0.0000024040   0.0000256128  -0.0000101768  -0.0000364476
       -0.0000430750   0.0000379784   0.0000409399   0.0000192961  -0.0000556214
        0.0000092752  -0.0000268031   0.0000137280  -0.0000039771  -0.0000144523
        0.0000292735   0.0002909791  -0.0001337819   0.0000309956   0.0000002780
        0.0000532902   0.0000039267  -0.0000192578  -0.0000017636   0.0000014369
       -0.0000122078   0.0000240497   0.0000538872   0.0000667391   0.0000557287
        0.0000047525   0.0000061880   0.0000057194   0.0000005051  -0.0000114906
       -0.0000131056  -0.0000513641  -0.0000118249   0.0000216697  -0.0000115793
        0.0000511134   0.0046690746  -0.0037658174  -0.0030434903   0.0030398154
        0.0009173434  -0.0078947772  -0.2504612377   0.0718271762  -0.0721585974
       -0.1143105725  -0.0842705089  -0.0032193534  -0.0409070946   0.0015112339
       -0.0000210400  -0.0011777259   0.0017013479   0.0008079748  -0.0003679373
        0.0000225316  -0.0000089866  -0.0000225281   0.0000546412  -0.0000064839
        0.0000126738  -0.0000174900  -0.0000067300   0.0000077091   0.0000118068
        0.0000002482   0.0000155507  -0.0000062778  -0.0000010134  -0.0000025867
       -0.0000052693   0.0000020029  -0.0000043272   0.0000035534  -0.0000136871
        0.0000164580  -0.0000014181  -0.0000036356  -0.0000031481   0.0000069768
       -0.0000095799  -0.0000086502  -0.0000052674   0.0000006738   0.0000075841
        0.0000166865   0.0000073482   0.0000036277  -0.0000028229  -0.0000023992
       -0.0000030101   0.0000036083   0.0000033056   0.0000033973  -0.0000055509
        0.0000004240   0.0000059181  -0.0000047018  -0.0000016844  -0.0000012121
       -0.0000017062   0.0000040049   0.0000073668   0.0000037005  -0.0000031017
       -0.0000020209  -0.0000012088   0.0000077953   0.0000032069   0.0000007586
       -0.0000013817  -0.0000009331  -0.0000000027  -0.0000028226  -0.0000009403
       -0.0000008466   0.0000062833   0.0000027010   0.0000084707  -0.0000006543
       -0.0000011779  -0.0000004035  -0.0000052418   0.0000146917  -0.0000229706
       -0.0000001816  -0.0000032624  -0.0000156104   0.0000054242  -0.0000255009
        0.0000001880  -0.0000047915  -0.0000040559   0.0000041785   0.0000045826
       -0.0000103913   0.0000042282   0.0000111359  -0.0000033725   0.0000013257
        0.0000093952   0.0000025828  -0.0000005106   0.0000042983   0.0000061954
        0.0000110221  -0.0000012686   0.0000060683   0.0000096037  -0.0000003466
        0.0000075805  -0.0000054874  -0.0000080931   0.0000008078   0.0000144741
        0.0000009951  -0.0000105899  -0.0000157016  -0.0000020603  -0.0000042275
       -0.0000152393  -0.0000117756  -0.0000102496  -0.0000054748  -0.0000066402
        0.0000071813   0.0000016616  -0.0000029954   0.0000007641   0.0000122399
       -0.0000043625  -0.0000083113  -0.0000282017  -0.0004755148   0.0000712530
       -0.0001353371  -0.0013894735  -0.0011667354   0.0011649167
        0.0031246277   0.0180263737   0.5185410886  -0.0100340402   0.0010013825
       -0.0648938645   0.0187345094  -0.0096162945   0.0004840489  -0.0002915034
       -0.0053892914  -0.0007027486   0.0000229534   0.0000863518   0.0000020796
        0.0002978347   0.0006244456  -0.0002620506   0.0001494311  -0.0000711684
        0.0000121684   0.0000178142  -0.0000025319  -0.0000123928  -0.0000270491
       -0.0000195113  -0.0000486482  -0.0000176053   0.0000242527   0.0000039586
       -0.0000000423   0.0000132307  -0.0000035921   0.0000087483  -0.0000008704
        0.0000056443  -0.0000047782  -0.0000041888   0.0000009344  -0.0000035339
       -0.0000027929  -0.0000057207   0.0000008536   0.0000219614   0.0000208769
        0.0000004509   0.0000064918   0.0000445705   0.0000357168   0.0000232246
        0.0000166205   0.0000077673  -0.0000036090  -0.0000051781  -0.0000007655
        0.0000078068  -0.0000039968   0.0000040843   0.0000019197   0.0000054452
        0.0000027014   0.0000007364   0.0000008330  -0.0000022773  -0.0000027143
       -0.0000000132  -0.0000007322  -0.0000015843   0.0000005086  -0.0000014579
       -0.0000011696   0.0000015391   0.0000008678   0.0000040485   0.0000008590
        0.0000049296   0.0000019186   0.0000070024   0.0000016853   0.0000018320
       -0.0000041006   0.0000006375   0.0000377481   0.0000281675  -0.0000180871
        0.0000065445  -0.0000040322   0.0000067469  -0.0000015951   0.0000078686
        0.0000137993   0.0000104155  -0.0000078853  -0.0000165592  -0.0000086791
        0.0000061467   0.0000058647   0.0000007240  -0.0000001423  -0.0000026162
        0.0000014608   0.0000001110   0.0000032569   0.0000012533  -0.0000014850
       -0.0000025492  -0.0000011695   0.0000012503  -0.0000020842   0.0000003807
        0.0000003494  -0.0000008643  -0.0000065916   0.0000026871   0.0000056948
        0.0000077643  -0.0000068791  -0.0000064385  -0.0000044152   0.0000107000
        0.0000043236   0.0000041689   0.0000005726  -0.0000135219   0.0000054273
       -0.0000049795  -0.0001430728   0.0000373106  -0.0000180905  -0.0000141886
       -0.0000113941  -0.0000196823   0.0000048744  -0.0000173548   0.0000156857
        0.0000179055   0.0000147936   0.0000101041   0.0000311325   0.0000180380
        0.0000011197  -0.0000087641  -0.0000004425  -0.0000026271   0.0000059681
       -0.0000049940   0.0000101537   0.0000036912  -0.0000271700  -0.0000194754
       -0.0030130408  -0.0036217830  -0.0017117417  -0.0222720452   0.0074533167
       -0.0035883226   0.0014592641   0.0723843724  -0.0669596913  -0.0826155389
       -0.0841628362  -0.1427653953   0.0932642796   0.0007145639  -0.2383853428
        0.0019281310   0.0009658301   0.0001405604   0.0010756434  -0.0004009458
       -0.0001139315  -0.0000197493  -0.0000156012   0.0000027602  -0.0000015315
       -0.0000162537  -0.0000010962  -0.0000009751   0.0000021373  -0.0000015216
        0.0000005522  -0.0000033957   0.0000034353  -0.0000013432  -0.0000016683
       -0.0000034522  -0.0000008852   0.0000010307   0.0000014007   0.0000003641
       -0.0000090072   0.0000064686  -0.0000025365   0.0000094980   0.0000127546
        0.0000022697   0.0000016503  -0.0000186252   0.0000016055  -0.0000038616
       -0.0000007904   0.0000053119  -0.0000013986   0.0000050070  -0.0000031864
       -0.0000039915  -0.0000036224  -0.0000020752  -0.0000014388  -0.0000002492
        0.0000001934   0.0000001110  -0.0000003285   0.0000010075   0.0000005083
        0.0000005998  -0.0000011456  -0.0000007937   0.0000002336   0.0000008666
        0.0000017564   0.0000000271  -0.0000009632  -0.0000001750   0.0000003064
        0.0000001008  -0.0000001558   0.0000000835   0.0000007598   0.0000001276
        0.0000001571  -0.0000016719  -0.0000011996  -0.0000013333   0.0000005127
       -0.0000006845  -0.0000014035  -0.0000058028   0.0000022309  -0.0000054766
       -0.0000013028   0.0000016032  -0.0000014866  -0.0000018736   0.0000021361
        0.0000003760   0.0000003172   0.0000001040  -0.0000004338  -0.0000002951
        0.0000004807   0.0000000463  -0.0000006142  -0.0000000286   0.0000001683
        0.0000000904   0.0000002415  -0.0000002129  -0.0000004653  -0.0000009001
       -0.0000016152  -0.0000001047  -0.0000001620  -0.0000020938  -0.0000003228
       -0.0000005313  -0.0000022351  -0.0000117433   0.0000085723   0.0000102507
        0.0000017580   0.0000015172   0.0000002835   0.0000009050  -0.0000089982
       -0.0000118301  -0.0000069713   0.0000079890   0.0000000205  -0.0000064627
       -0.0000092661   0.0000182299  -0.0000021666   0.0000054863   0.0000063985
       -0.0000104034  -0.0000295115   0.0000103343  -0.0011690642   0.0003296279
       -0.0001851369  -0.0004959917   0.0016072223   0.0003319564
       -0.1969660498   0.0499064080  -0.0100340402   0.5761071901  -0.1326976602
        0.0834360714  -0.1164692861   0.0801431658   0.0820761483  -0.0173359421
        0.0208874069   0.0218956915   0.0038915110  -0.0080884540  -0.0066489269
       -0.0014801605   0.0005094667  -0.0000735378   0.0004122187   0.0000208392
        0.0002113678  -0.0000972731   0.0000666724  -0.0000456974   0.0000126121
       -0.0001346048  -0.0001609706   0.0000839156  -0.0000791329   0.0000933788
       -0.0000069485  -0.0001320001  -0.0000040325   0.0000043920  -0.0000165894
       -0.0000056347  -0.0000127749   0.0000308275   0.0000131690  -0.0000165653
        0.0000526035   0.0000453378  -0.0000015786   0.0000258778  -0.0000214524
       -0.0000231423   0.0000207050  -0.0000564779   0.0000003876   0.0000908633
        0.0000061259  -0.0000105857  -0.0000400536  -0.0000359898   0.0000244524
        0.0000107327   0.0000033434  -0.0000079627  -0.0000205218   0.0000205308
       -0.0000256945  -0.0000213874  -0.0000046697   0.0000023685  -0.0000158458
        0.0000155280   0.0000064658   0.0000035784  -0.0000077222   0.0000001426
        0.0000099386  -0.0000002130  -0.0000058042   0.0000050916  -0.0000102760
       -0.0000001361   0.0000293566  -0.0000111254   0.0000148312  -0.0000612783
        0.0000634776  -0.0000634257   0.0000094040  -0.0000542199   0.0001329784
       -0.0000218013  -0.0000235078   0.0000042260  -0.0000122418   0.0000572867
       -0.0000946713  -0.0000276566   0.0000239737   0.0000964964   0.0000310456
       -0.0000334335  -0.0000799789   0.0000038982   0.0000098013   0.0000356181
        0.0000075543  -0.0000107114  -0.0000243787   0.0000170950  -0.0000010014
       -0.0000131899   0.0000239935  -0.0000066413  -0.0000100500  -0.0000340111
        0.0000174827   0.0000137533   0.0000742041  -0.0000381356  -0.0001109947
       -0.0001133850   0.0001081349   0.0000993720   0.0000569489  -0.0001541767
        0.0000282706  -0.0000465309   0.0000076684   0.0000135497  -0.0000273870
        0.0000282366   0.0004254466  -0.0004339348  -0.0001255976  -0.0000874864
        0.0000292175   0.0000199957  -0.0000043218   0.0000456908   0.0000951453
       -0.0000652194  -0.0000318732   0.0000548466   0.0001607990   0.0001242932
       -0.0000325598  -0.0000387201  -0.0000881970  -0.0000215779   0.0001506559
        0.0000396469  -0.0000366005   0.0000281175   0.0000053244   0.0000590015
       -0.0444371156   0.0070726577  -0.0195337455  -0.1624599068  -0.0409501287
       -0.1388600549  -0.0047767977   0.0087229045  -0.0018546307  -0.0206164408
        0.0051849296  -0.0063186707  -0.0177461812   0.0088467835   0.0041735196
        0.0043559763  -0.0099705169  -0.0129439781  -0.0041986861   0.0042960577
       -0.0013230753  -0.0000463883   0.0000738063   0.0001391820   0.0000124460
       -0.0000154810  -0.0000107946  -0.0000185941   0.0000214188   0.0000029908
        0.0000107707   0.0000452947  -0.0000087215   0.0000094184  -0.0000204320
       -0.0000000237  -0.0000254756  -0.0000053816   0.0000024519  -0.0000067181
        0.0000661655   0.0000022305   0.0000452882  -0.0000561445   0.0000000287
        0.0000497103  -0.0000272647  -0.0000288433   0.0000118306   0.0000270348
        0.0000381012   0.0000334971   0.0000066495   0.0000822754  -0.0000184060
        0.0000048129  -0.0000021991   0.0000042601   0.0000188021  -0.0000129677
       -0.0000010241   0.0000088579  -0.0000084278  -0.0000018409  -0.0000053625
       -0.0000004610   0.0000138269   0.0000156681   0.0000071206  -0.0000047188
       -0.0000044604  -0.0000013340   0.0000195136   0.0000083197   0.0000003261
       -0.0000036617  -0.0000040602   0.0000019924  -0.0000039591  -0.0000037983
       -0.0000012433   0.0000166506  -0.0000013376   0.0000149586   0.0000062952
       -0.0000114081   0.0000095266  -0.0000545805   0.0000390615  -0.0000333598
        0.0000086277  -0.0000141091  -0.0000078516   0.0000034624  -0.0000252818
        0.0000115268  -0.0000111159  -0.0000050566   0.0000037558   0.0000071842
       -0.0000209658   0.0000091557   0.0000201674  -0.0000113414  -0.0000029523
        0.0000133091   0.0000090440  -0.0000088446   0.0000007859   0.0000181056
        0.0000289757  -0.0000008481   0.0000086841   0.0000277362  -0.0000028922
        0.0000163149  -0.0000067955   0.0000189299  -0.0000169640  -0.0000661955
       -0.0000158458  -0.0000192684  -0.0000362856  -0.0000129207   0.0000084882
       -0.0000123062  -0.0000183897  -0.0000331088   0.0000117792  -0.0000171858
        0.0000009717   0.0000117930   0.0000054547   0.0000067779   0.0000183643
       -0.0001076668  -0.0000038324  -0.0000912809  -0.0040702378   0.0040670180
       -0.0017169507   0.0053127630   0.0024937721   0.0075913889
        0.0550238215  -0.0812412015   0.0010013825  -0.1326976602   0.3337867032
        0.2048809439   0.0402787244  -0.1482597599  -0.1285992233   0.0511620207
       -0.0168375874   0.0074008901  -0.0079161370  -0.0189935941  -0.0264646691
        0.0005139021  -0.0002736383  -0.0000926281  -0.0002592452  -0.0000340701
        0.0000092733  -0.0001086761  -0.0000026060  -0.0000542918  -0.0000628353
       -0.0000907255  -0.0000056653  -0.0000244078   0.0001297526   0.0000254380
       -0.0000584596   0.0000397078  -0.0001012103  -0.0000089687   0.0000060780
        0.0000082787   0.0000062640  -0.0000140604  -0.0000120617   0.0000018289
       -0.0000228542  -0.0000193893   0.0000350439  -0.0000906073   0.0000546318
        0.0000473630   0.0001111708   0.0000578614  -0.0000108811  -0.0000503251
        0.0000247928   0.0000054975   0.0000407294   0.0000053666  -0.0000237575
        0.0000028389  -0.0000151965   0.0000012011   0.0000035814  -0.0000103377
        0.0000124419   0.0000130357  -0.0000002613   0.0000010626   0.0000111171
       -0.0000076187  -0.0000052996  -0.0000012047   0.0000031390   0.0000010728
       -0.0000061467  -0.0000002729   0.0000104734  -0.0000029241   0.0000090791
       -0.0000022266  -0.0000143926   0.0000093561  -0.0000007898   0.0000209967
       -0.0000230872  -0.0000086207   0.0000038317   0.0000831301  -0.0001179295
       -0.0000322144   0.0000369050   0.0000454124   0.0000514938  -0.0000413075
        0.0000563117  -0.0000088397  -0.0000105640  -0.0000489178  -0.0000201291
        0.0000164316   0.0000478656  -0.0000058934  -0.0000036080  -0.0000175290
       -0.0000054118   0.0000062984   0.0000137739  -0.0000073747  -0.0000004593
        0.0000037198  -0.0000137633   0.0000045791   0.0000080648   0.0000153514
       -0.0000094250  -0.0000065504  -0.0000424527   0.0000210531   0.0000535354
        0.0000630437  -0.0000573701  -0.0000509032  -0.0000266261   0.0000819035
       -0.0000117360   0.0000352661  -0.0000071344  -0.0000100156   0.0000201952
       -0.0000208162  -0.0002044993   0.0000660170   0.0000641950   0.0001374589
       -0.0001126292  -0.0000391127   0.0000929685   0.0000672451   0.0000153000
       -0.0000292800  -0.0000008327  -0.0000146109  -0.0000512759  -0.0001142468
       -0.0000647723  -0.0000016218   0.0000378998   0.0000050701  -0.0000167330
        0.0000823035   0.0001129387  -0.0000301288  -0.0001399323  -0.0001086285
       -0.0241174446   0.0213990072   0.0180879773  -0.0014272051  -0.0791501347
       -0.0466487781   0.0290230848  -0.0145976687   0.0030261955  -0.0136558949
        0.0058876233  -0.0006486376   0.0027715076  -0.0012545067  -0.0025173876
        0.0019032914  -0.0048471490  -0.0080119731   0.0040336298   0.0048519276
       -0.0026756448   0.0001209514   0.0000019180  -0.0000364967   0.0000097954
       -0.0000220728   0.0000404964   0.0000201369  -0.0000004675   0.0000022707
       -0.0000026316  -0.0000220511   0.0000029880  -0.0000070202   0.0000060649
        0.0000124627   0.0000165589   0.0000069175  -0.0000054106   0.0000182749
       -0.0000134143   0.0000068150  -0.0000035363   0.0000220459  -0.0000366173
       -0.0000158470  -0.0000125104   0.0000536652   0.0000012082  -0.0000173112
       -0.0000073740   0.0000155320  -0.0000049393   0.0000045372   0.0000068737
       -0.0000051245   0.0000038626  -0.0000047420  -0.0000122756   0.0000095685
       -0.0000003216  -0.0000073238   0.0000064173   0.0000027988   0.0000024329
        0.0000014059  -0.0000068574  -0.0000082406  -0.0000041531   0.0000022465
        0.0000024716  -0.0000004334  -0.0000106610  -0.0000053786  -0.0000006467
        0.0000024041   0.0000015514  -0.0000005789   0.0000038129   0.0000014963
        0.0000008208  -0.0000088179  -0.0000009929  -0.0000079994   0.0000018915
        0.0000025560   0.0000017239   0.0000202218  -0.0000153856   0.0000066025
       -0.0000012637  -0.0000016491   0.0000028743   0.0000011657   0.0000171581
       -0.0000044215   0.0000060411   0.0000036650  -0.0000027194  -0.0000043063
        0.0000121439  -0.0000047024  -0.0000121941   0.0000058918   0.0000010795
       -0.0000096257  -0.0000052239   0.0000043438  -0.0000022005  -0.0000102372
       -0.0000158356  -0.0000003627  -0.0000079275  -0.0000159880   0.0000006280
       -0.0000134133   0.0000046602  -0.0000272304   0.0000258381   0.0000527045
       -0.0000046227   0.0000112728   0.0000236397   0.0000043024  -0.0000041280
        0.0000075239   0.0000062051   0.0000239207  -0.0000060447  -0.0000079350
       -0.0000128084   0.0000044190  -0.0000203655   0.0000015325   0.0000103862
       -0.0000303549   0.0000719631   0.0000739069   0.0045176164   0.0048122850
       -0.0025090434  -0.0089034815  -0.0052616636  -0.0164469770
       -0.0093159913   0.0003124664  -0.0648938645   0.0834360714   0.2048809439
        0.5249800833   0.0181310419  -0.1018918510  -0.1971724117   0.0704360543
       -0.0121943999   0.0265804860  -0.0060796928  -0.0261164612  -0.0524497319
       -0.0001862855  -0.0002367255  -0.0002717128  -0.0001423577  -0.0001721425
        0.0001216895  -0.0003158914  -0.0000921730  -0.0000477982  -0.0002392099
       -0.0001973989  -0.0000827248  -0.0000148032   0.0001096900   0.0001516888
       -0.0000879969  -0.0000092932  -0.0001364891   0.0000056958  -0.0000024171
        0.0000038453   0.0000037783   0.0000006077  -0.0000050843  -0.0000036814
        0.0000014404   0.0000099193   0.0000290625  -0.0000948496   0.0000539943
        0.0000097903   0.0001963137   0.0001042193   0.0000618351  -0.0000369420
        0.0000579762  -0.0000247283  -0.0000035532  -0.0000138717  -0.0000096387
        0.0000155334  -0.0000030762   0.0000066475   0.0000043172   0.0000087201
       -0.0000001251   0.0000023663  -0.0000056974   0.0000006023  -0.0000044029
       -0.0000019139   0.0000015186  -0.0000011528  -0.0000021185  -0.0000012400
       -0.0000003300  -0.0000002302   0.0000003338  -0.0000032588   0.0000008958
        0.0000102086   0.0000135108   0.0000142867   0.0000040317   0.0000303192
        0.0000095700  -0.0000859206   0.0000541914   0.0000696400  -0.0000471943
       -0.0000670802   0.0000327457   0.0000861057   0.0000375963   0.0000059521
        0.0000158478  -0.0000066809  -0.0000059358  -0.0000064881  -0.0000049399
        0.0000048859  -0.0000015408   0.0000011394   0.0000019210   0.0000006860
        0.0000023520   0.0000000521   0.0000005075   0.0000012496  -0.0000001606
       -0.0000014814   0.0000009960   0.0000003501  -0.0000013537  -0.0000019667
        0.0000010753   0.0000008700   0.0000033272  -0.0000022783  -0.0000154720
       -0.0000106926   0.0000101436   0.0000133949   0.0000089725  -0.0000154204
        0.0000093322  -0.0000044092   0.0000075438  -0.0000054168   0.0000155959
       -0.0000052192   0.0000129599  -0.0002216867   0.0000734891   0.0001479623
       -0.0002855885   0.0000022669   0.0001512087   0.0000602069   0.0001259717
       -0.0000573818  -0.0000197832   0.0000499323   0.0000794450  -0.0000378877
       -0.0000918075  -0.0000179917  -0.0000063836  -0.0000027543   0.0000671753
        0.0000606764   0.0001376339   0.0000618853  -0.0002721905  -0.0000539875
       -0.0675550818   0.0385311010   0.0151443448  -0.0761676849  -0.0726214245
       -0.2163598066  -0.0092493009   0.0045083556   0.0004674895  -0.0193999403
        0.0059347140  -0.0033315615   0.0255660567  -0.0106518756   0.0004420458
        0.0052299146  -0.0158035608  -0.0201597767  -0.0019975759  -0.0023823385
        0.0030591786   0.0001349269   0.0000009215   0.0000650846   0.0000220250
        0.0000070482   0.0000135458   0.0000018612   0.0000026875   0.0000017753
        0.0000013049  -0.0000047800  -0.0000014185   0.0000013673  -0.0000002652
        0.0000044175  -0.0000008345   0.0000023864  -0.0000041644   0.0000082684
        0.0000025650  -0.0000001653   0.0000161213  -0.0000094630  -0.0000134154
        0.0000066622  -0.0000083832   0.0000271165  -0.0000011133  -0.0000080774
        0.0000078833   0.0000337293  -0.0000086589   0.0000427405  -0.0000050807
       -0.0000069767  -0.0000060182  -0.0000005842   0.0000007154  -0.0000020015
       -0.0000001474   0.0000005547  -0.0000014596   0.0000022791  -0.0000005207
        0.0000003845   0.0000008095   0.0000014191  -0.0000001389  -0.0000045157
        0.0000029461  -0.0000001055   0.0000007439   0.0000002406  -0.0000009008
       -0.0000002796  -0.0000010454   0.0000015843   0.0000008926  -0.0000004195
       -0.0000012834   0.0000011629  -0.0000014229   0.0000002720   0.0000034094
       -0.0000044938   0.0000031887  -0.0000454180   0.0000427665  -0.0000372362
        0.0000064939  -0.0000067630  -0.0000072300   0.0000051244  -0.0000026972
        0.0000000581  -0.0000005395   0.0000008004  -0.0000001826   0.0000009424
       -0.0000013806   0.0000008546   0.0000019179  -0.0000009040  -0.0000006206
        0.0000019476   0.0000005961  -0.0000014347  -0.0000001222   0.0000001293
        0.0000018603   0.0000001241  -0.0000009470   0.0000009111   0.0000012750
       -0.0000015368  -0.0000049811  -0.0000292518   0.0000215607   0.0000399327
       -0.0000082057  -0.0000067681  -0.0000024647  -0.0000053507  -0.0000050478
       -0.0000017849  -0.0000071147  -0.0000054336  -0.0000011964  -0.0000101357
       -0.0000043466   0.0000069287  -0.0000025327   0.0000280996   0.0000053345
       -0.0001139345   0.0000844894   0.0000340446  -0.0011719507  -0.0027787505
        0.0031177586  -0.0113948346  -0.0086629867  -0.0199060769
       -0.0167441229   0.0194039631   0.0187345094  -0.1164692861   0.0402787244
        0.0181310419   0.6075112236  -0.1453447634   0.0981564438  -0.3001400941
        0.1142368107   0.0094667385  -0.0446975862  -0.0226475762  -0.0673190214
        0.0012927551   0.0000705693  -0.0034235552  -0.0005950152  -0.0002283453
       -0.0002832851  -0.0002815034  -0.0000070136  -0.0000721841  -0.0001549671
       -0.0002363388  -0.0003786660   0.0000088643   0.0001737389   0.0001593925
       -0.0000765546   0.0000318463  -0.0000963649   0.0000112370   0.0000040696
        0.0000103748  -0.0000027357  -0.0000028482   0.0000048073  -0.0000018944
       -0.0000109775  -0.0000165079   0.0000331553  -0.0001150739   0.0000847154
        0.0000064795   0.0001768367   0.0001787042   0.0001178496  -0.0000459520
        0.0002216185  -0.0000311337  -0.0000222586   0.0000075615  -0.0000144037
        0.0000028225   0.0000063691   0.0000050146   0.0000038689   0.0000067807
       -0.0000001386  -0.0000011637  -0.0000007181   0.0000038611   0.0000000970
        0.0000029631   0.0000012287  -0.0000003407   0.0000021137  -0.0000021932
        0.0000001415  -0.0000003955  -0.0000064770  -0.0000049963   0.0000079116
       -0.0000026461   0.0000174517  -0.0000066861  -0.0000206683   0.0000464602