$hessian                                                                        
        0.4785412213  -0.0186606460  -0.0357823752  -0.1383222240  -0.0192805304
       -0.0567436831   0.0028450065   0.0001896570   0.0006905910  -0.0242975895
        0.0020750583  -0.0141402629  -0.0142103126  -0.0084255502  -0.0072527980
       -0.0003501079  -0.0021088029   0.0006601513  -0.0006799022  -0.0003748148
       -0.0004257738  -0.0001060989  -0.0000453458  -0.0001412274  -0.0000296730
        0.0002643319  -0.0004405113  -0.0004351022   0.0002881840   0.0001551880
        0.0000322976   0.0000517742   0.0000258348  -0.0000445903  -0.0000103768
        0.0000067495  -0.0000007369  -0.0000091228   0.0000006017  -0.0000024695
       -0.0000092489  -0.0000124553  -0.0000064463  -0.0000010126   0.0000064981
       -0.0000017830  -0.0000093271   0.0000086797   0.0000009807   0.0000039074
        0.0000054055   0.0000134205   0.0000019453   0.0000174287  -0.0000071156
       -0.0000150540   0.0000059334   0.0000305989  -0.0000174596   0.0000249466
       -0.0000048160   0.0000409358  -0.0000078225  -0.0000414786  -0.0000271494
       -0.0000155861   0.0000139687  -0.0000065437  -0.0000163271  -0.0000133736
       -0.0000109963   0.0000076164  -0.0000002148   0.0000007628   0.0000099438
        0.0000204802   0.0000201947  -0.0000004951  -0.0000068079  -0.0000062879
       -0.0000024037  -0.0000052960  -0.0000121439   0.0000017153  -0.0000013380
        0.0000036429   0.0000006645  -0.0000014500   0.0000003735   0.0000016458
       -0.0000009472   0.0000014438   0.0000021396   0.0000072445  -0.0000058489
       -0.0000052546  -0.0000064368   0.0000074449   0.0000074268   0.0000061057
        0.0000024637  -0.0000011286  -0.0000007169  -0.0000013113  -0.0000007063
        0.0000013148  -0.0000008121  -0.0000003608  -0.0000000015   0.0000007378
        0.0000003742   0.0000000566  -0.0000000198  -0.0000004226   0.0000005484
       -0.0000000143   0.0000003119   0.0000003893  -0.0000001381  -0.0000004502
        0.0000004472   0.0000006633  -0.0000004551   0.0000011659  -0.0000000172
        0.0000001241  -0.0000002732   0.0000022123   0.0000014990  -0.0000011033
       -0.0000003571  -0.0000001363  -0.0000004350   0.0000002189   0.0000002393
        0.0000013817  -0.0000020158  -0.0000019347  -0.0000013229   0.0000006033
       -0.0000004961   0.0000015692   0.0000013665  -0.0000013937  -0.0000000564
        0.0000008728  -0.0000001313   0.0000013017   0.0000001795  -0.0000005230
       -0.0000006068  -0.0000016543  -0.0000004437   0.0000018203  -0.0000007053
        0.0000007039   0.0000004750  -0.0000038127  -0.0000022310  -0.0000005007
        0.0000020116   0.0000000408   0.0000001521  -0.0000028306   0.0000003979
       -0.0000117518  -0.0000135860  -0.0000063785  -0.0000016955   0.0000031767
       -0.0000105478  -0.0842254042  -0.0836057863   0.0329706690  -0.0643069765
        0.0095191764   0.0680547985  -0.1528528284   0.1191626325   0.0097380489
        0.0003166536   0.0001814050   0.0018050297   0.0005927493  -0.0000197537
        0.0009002554   0.0004763588   0.0003768266   0.0008822996  -0.0035279822
        0.0032669983  -0.0002460611   0.0003786040  -0.0007107222  -0.0006859073
        0.0006003984  -0.0011230240  -0.0000488165   0.0000101603   0.0000109205
        0.0000914576  -0.0001089928  -0.0001460833   0.0000740503  -0.0003113249
       -0.0008255029  -0.0001443891   0.0000083080  -0.0000047007  -0.0000292160
       -0.0000014143  -0.0000091676  -0.0000139937   0.0000038669  -0.0000035460
        0.0000022630  -0.0000004150   0.0000162976   0.0000057462   0.0000049017
       -0.0000006283  -0.0000088556  -0.0000044830   0.0000002449   0.0000011940
        0.0000008950   0.0000002270   0.0000022465   0.0000010280   0.0000099725
        0.0000023926  -0.0000018803  -0.0000004618  -0.0000006537   0.0000017122
       -0.0000025621   0.0000012576   0.0000053878  -0.0000034787  -0.0000003897
        0.0000048920   0.0000011599   0.0000028224  -0.0000037658   0.0000058256
        0.0000203421   0.0000001003  -0.0000002679  -0.0000003312  -0.0000004680
       -0.0000016534   0.0000004117  -0.0000010501  -0.0000008662   0.0000004786
        0.0000006982   0.0000005081   0.0000001442   0.0000001649  -0.0000000002
       -0.0000001164   0.0000006901   0.0000003215   0.0000000742  -0.0000001179
        0.0000001201  -0.0000001213   0.0000008637   0.0000002663  -0.0000001669
       -0.0000001125   0.0000001818  -0.0000001243   0.0000008316   0.0000004995
       -0.0000002535   0.0000007376   0.0000004019   0.0000003039   0.0000007971
        0.0000002362   0.0000005243  -0.0000003253   0.0000001485   0.0000000621
        0.0000006550   0.0000001906  -0.0000000894   0.0000000653   0.0000005836
       -0.0000000489  -0.0000001789   0.0000004387  -0.0000001405   0.0000005183
       -0.0000001176  -0.0000018893  -0.0000007170   0.0000013219   0.0000008773
        0.0000006043  -0.0000012301   0.0000003545   0.0000006355  -0.0000007765
        0.0000001140   0.0000011874   0.0000004513  -0.0000001086  -0.0000003715
        0.0000012276   0.0000008618  -0.0000001033   0.0000014263   0.0000002596
        0.0000011845   0.0000000531   0.0000002584   0.0000009269  -0.0000003055
       -0.0000005543   0.0000020444   0.0000008193  -0.0000012219   0.0000016910
        0.0000006475  -0.0000013729   0.0000027414   0.0000007066  -0.0000015559
       -0.0000013136  -0.0000022287  -0.0000013555
       -0.0186606460   0.5216734234  -0.0092692669  -0.0205114117  -0.0688214858
       -0.0149041745  -0.0027609391  -0.0004463937  -0.0041426742   0.0182553563
        0.0001593786   0.0113423454  -0.0210615014  -0.0088331466  -0.0125269770
       -0.0019004202  -0.0034991518   0.0017717821  -0.0010403673  -0.0005678500
       -0.0004779880  -0.0001677934   0.0001340288  -0.0002257743  -0.0005277718
        0.0003832430  -0.0007405558  -0.0002884138  -0.0012837009   0.0001628553
        0.0000456286   0.0000567175  -0.0000349254  -0.0000218459  -0.0000133087
       -0.0000517213  -0.0000379116  -0.0000396448  -0.0000010280  -0.0000229334
       -0.0000009665  -0.0000062513   0.0000081611  -0.0000206507   0.0000211656
        0.0000095572  -0.0000114763   0.0000087528   0.0000121269   0.0000097573
        0.0000026405   0.0000108109  -0.0000047500   0.0000120235   0.0000239041
        0.0000270863  -0.0000006577  -0.0000721727  -0.0000017424  -0.0000237847
       -0.0001469837  -0.0002505161   0.0000210020   0.0001583554   0.0000807340
        0.0000921853  -0.0000157587  -0.0000169527  -0.0000334861   0.0000084381
        0.0000108627   0.0000074754  -0.0000248598  -0.0000121927  -0.0000358474
        0.0001221895   0.0000845528   0.0000257840  -0.0000336051  -0.0000174253
       -0.0000266944  -0.0000309991  -0.0000504701   0.0000059629  -0.0000108566
        0.0000052186  -0.0000063568  -0.0000028545   0.0000060477   0.0000022546
       -0.0000020079   0.0000071082   0.0000060004   0.0000286493  -0.0000188669
       -0.0000154508  -0.0000314706   0.0000202899   0.0000171147   0.0000179428
        0.0000055051  -0.0000021171  -0.0000041613  -0.0000023591  -0.0000018164
        0.0000032688  -0.0000008540  -0.0000001333   0.0000015698   0.0000024725
        0.0000018845   0.0000007513  -0.0000005353  -0.0000002921  -0.0000007687
        0.0000000293   0.0000004393  -0.0000006822  -0.0000002901   0.0000000350
       -0.0000007363   0.0000002282   0.0000000985  -0.0000013880  -0.0000015574
       -0.0000005295  -0.0000007558   0.0000051611   0.0000036924  -0.0000061931
       -0.0000031240  -0.0000018099   0.0000010175   0.0000037056   0.0000018794
       -0.0000018203  -0.0000019111  -0.0000010403  -0.0000011802  -0.0000019693
       -0.0000008504   0.0000000114   0.0000003394   0.0000005725   0.0000008423
        0.0000012595   0.0000004067   0.0000003042   0.0000010146   0.0000007657
       -0.0000005345  -0.0000030036  -0.0000033349   0.0000067144   0.0000021765
        0.0000013891  -0.0000015550  -0.0000134563  -0.0000032224   0.0000005268
       -0.0000100306  -0.0000017726  -0.0000170416  -0.0000073938   0.0000019675
       -0.0000356532  -0.0000172141   0.0000415295  -0.0000063469  -0.0000153507
       -0.0000124300  -0.0838274278  -0.2161517086   0.0649620599   0.0095869982
       -0.0473667473  -0.0279623942   0.1195316411  -0.1720131983  -0.0097248293
        0.0001088654   0.0002565400  -0.0006304318  -0.0005178801   0.0001350256
       -0.0003529491   0.0002961335   0.0003848285   0.0008737232   0.0041308596
       -0.0029842442   0.0004588951   0.0000733336   0.0003859652   0.0006147268
        0.0013147177   0.0007284450   0.0005011668   0.0000595950   0.0000032493
       -0.0000372151  -0.0002000717  -0.0003330874   0.0000179424  -0.0018029949
       -0.0017813968   0.0002386161  -0.0000053148   0.0000254693   0.0000117778
       -0.0000039603   0.0000136211  -0.0000042704   0.0000078303  -0.0000047592
        0.0000015872  -0.0000030621  -0.0000000490   0.0000043378  -0.0000102022
        0.0000125422  -0.0000086007   0.0000094330  -0.0000022501  -0.0000104005
       -0.0000004362   0.0000001992   0.0000118854  -0.0000039235   0.0000026698
       -0.0000009758   0.0000063710   0.0000024010  -0.0000093736   0.0000079231
       -0.0000030025   0.0000126662  -0.0000010070  -0.0000031729   0.0000064681
       -0.0000049497  -0.0000056133   0.0000046659  -0.0000054735   0.0000169045
        0.0000169023  -0.0000020124  -0.0000041040  -0.0000033271   0.0000004816
       -0.0000003867  -0.0000007587  -0.0000026343  -0.0000003179   0.0000020260
        0.0000007969   0.0000008334   0.0000004796  -0.0000006036  -0.0000006957
       -0.0000003314   0.0000005062   0.0000001008   0.0000004894  -0.0000012101
       -0.0000002245  -0.0000001788   0.0000003563  -0.0000002972   0.0000002694
       -0.0000011401  -0.0000003288   0.0000001484   0.0000004303  -0.0000002297
        0.0000001430   0.0000005115  -0.0000002844  -0.0000001617   0.0000004778
       -0.0000002124  -0.0000002611  -0.0000010838  -0.0000006191   0.0000002626
        0.0000005027   0.0000003831   0.0000003239  -0.0000004957   0.0000003037
        0.0000006338  -0.0000016376   0.0000002938   0.0000004686  -0.0000004652
       -0.0000016985  -0.0000007222  -0.0000009431   0.0000016020   0.0000019664
        0.0000000467  -0.0000004156  -0.0000009450  -0.0000001587   0.0000000011
       -0.0000008074   0.0000005601  -0.0000002630  -0.0000003347  -0.0000006594
        0.0000007232   0.0000017767  -0.0000009765   0.0000018664   0.0000011747
        0.0000006619  -0.0000004284   0.0000000170  -0.0000005439  -0.0000011705
       -0.0000003925   0.0000011419  -0.0000017327  -0.0000000551  -0.0000006297
        0.0000001364   0.0000002081   0.0000004039   0.0000000011  -0.0000001080
       -0.0000024667  -0.0000020668   0.0000009747
       -0.0357823752  -0.0092692669   0.5049598922  -0.0557160985  -0.0137401060
       -0.1054321791  -0.0208340627  -0.0065802414  -0.0276163958  -0.0037077991
        0.0009877921  -0.0010610777   0.0033352919  -0.0002849536   0.0040521679
        0.0004097984   0.0015144365  -0.0000336055   0.0002010966   0.0002237230
        0.0000771748  -0.0001047197  -0.0001165559   0.0001025018   0.0002124766
        0.0000233528   0.0003748136   0.0006608934   0.0006640694  -0.0008398355
        0.0000095178  -0.0000418278   0.0000152276   0.0000515131  -0.0000291495
        0.0000338540   0.0000260094   0.0000195196   0.0000160349   0.0000012239
        0.0000096350   0.0000114789  -0.0000009654  -0.0000055393  -0.0000092738
       -0.0000030733   0.0000023841  -0.0000118390  -0.0000061100  -0.0000080407
       -0.0000046540  -0.0000226671   0.0000038371  -0.0000232733   0.0000028416
       -0.0000245698   0.0000213026   0.0000454472  -0.0000165909   0.0000283324
        0.0001938043   0.0002391463  -0.0000506123  -0.0001649270  -0.0000911409
       -0.0000868661   0.0000343120   0.0000125876   0.0000219010  -0.0000215664
       -0.0000178964   0.0000048794   0.0000201313   0.0000075923   0.0000205159
       -0.0000958039  -0.0000342869  -0.0000232279   0.0000248624   0.0000053319
        0.0000202921   0.0000244875   0.0000168056   0.0000004727   0.0000080142
       -0.0000023600   0.0000070729   0.0000034722  -0.0000066085  -0.0000013870
       -0.0000011230  -0.0000066425  -0.0000023380  -0.0000227857   0.0000156065
        0.0000129958   0.0000189096  -0.0000172066  -0.0000137655  -0.0000100700
       -0.0000042288   0.0000017972   0.0000038524   0.0000025656   0.0000022457
       -0.0000016908  -0.0000000434  -0.0000001227   0.0000000055  -0.0000022130
       -0.0000015381  -0.0000015397   0.0000001615   0.0000005861   0.0000004155
        0.0000000795  -0.0000003921   0.0000007184   0.0000002645   0.0000001659
        0.0000005068  -0.0000000117   0.0000005945   0.0000037891   0.0000024929
        0.0000010060  -0.0000007313  -0.0000026964  -0.0000020122   0.0000067060
        0.0000001999  -0.0000006400  -0.0000046890  -0.0000046412  -0.0000030763
        0.0000009615   0.0000029474   0.0000013324   0.0000033388   0.0000056169
        0.0000018864   0.0000001088  -0.0000016135  -0.0000026792  -0.0000002786
       -0.0000004689  -0.0000001749  -0.0000002917   0.0000001809  -0.0000019124
        0.0000064850   0.0000014478   0.0000006690  -0.0000054338  -0.0000038516
       -0.0000034925   0.0000017570   0.0000153120   0.0000061661   0.0000075293
        0.0000067303  -0.0000031584   0.0000116803   0.0000075241  -0.0000023702
        0.0000144417  -0.0000003274  -0.0000286429   0.0000167031   0.0000255080
        0.0000094648   0.0331477043   0.0651728345  -0.0680510740   0.0676102505
       -0.0281763958  -0.2577177337   0.0098062565  -0.0100098536  -0.0446897491
        0.0008740925  -0.0009641713  -0.0066319731  -0.0009426659   0.0003518167
        0.0006963711  -0.0012078899  -0.0006518752   0.0004843329   0.0000195407
        0.0000437344   0.0004616459   0.0009330430  -0.0003419168   0.0006700491
        0.0000309431  -0.0002643598   0.0000518043   0.0000600864  -0.0000791898
        0.0000148421   0.0001230699   0.0000757413  -0.0000123181   0.0007192388
        0.0013004914   0.0002001813  -0.0000335153   0.0000124804   0.0000034820
       -0.0000024459   0.0000027479   0.0000100826  -0.0000072304   0.0000060069
       -0.0000043502   0.0000047966  -0.0000046395  -0.0000041463  -0.0000132492
       -0.0000020731   0.0000089179   0.0000075793   0.0000064085  -0.0000058503
       -0.0000013594  -0.0000007350  -0.0000070296   0.0000031142  -0.0000043317
        0.0000005970   0.0000032796   0.0000037114   0.0000003881  -0.0000070421
        0.0000036476  -0.0000077979   0.0000060323   0.0000034939  -0.0000007795
        0.0000041830   0.0000095374   0.0000009844   0.0000023904  -0.0000025310
       -0.0000081766   0.0000003292   0.0000032377  -0.0000020371  -0.0000012341
       -0.0000015479   0.0000017597   0.0000010178  -0.0000002702  -0.0000009395
        0.0000003693  -0.0000014576  -0.0000010502  -0.0000002947  -0.0000001461
        0.0000002466   0.0000001691  -0.0000003431  -0.0000000897   0.0000005684
       -0.0000000285   0.0000001954   0.0000000430  -0.0000001883   0.0000000231
        0.0000004939   0.0000000614  -0.0000000216   0.0000002674   0.0000001694
       -0.0000002418   0.0000001103   0.0000002700  -0.0000000362   0.0000001023
        0.0000003037   0.0000004727   0.0000004872   0.0000002715   0.0000002446
        0.0000002155  -0.0000003292  -0.0000000043   0.0000001501  -0.0000001830
       -0.0000003886   0.0000009797   0.0000006244   0.0000000079   0.0000002610
        0.0000007385   0.0000011890   0.0000009098  -0.0000015281  -0.0000015989
       -0.0000001011   0.0000026405  -0.0000009770  -0.0000000256   0.0000018953
       -0.0000002460  -0.0000007976   0.0000002407   0.0000001831   0.0000010169
       -0.0000009907  -0.0000018621   0.0000011490  -0.0000012232  -0.0000012085
       -0.0000012748   0.0000002055  -0.0000007515   0.0000006979   0.0000005668
       -0.0000001744  -0.0000021708   0.0000009338  -0.0000002527   0.0000022095
        0.0000008193   0.0000001016   0.0000009044  -0.0000008142  -0.0000004257
       -0.0000010567   0.0000017201  -0.0000011004
       -0.1383222240  -0.0205114117  -0.0557160985   0.4824406616   0.0133272584
        0.0117925107  -0.0748561132   0.0013602059   0.0347410888  -0.1118164521
        0.0614646205   0.0035839600  -0.0864225786  -0.0499754929   0.0115471779
       -0.0152049590  -0.0207208888   0.0034997511  -0.0010650133  -0.0021570406
       -0.0042521829  -0.0004242881  -0.0004953359  -0.0002928545   0.0026145612
       -0.0006508018  -0.0041834440   0.0049766058   0.0034893349   0.0010551480
        0.0003383521   0.0001282700  -0.0001912031   0.0001195364   0.0000993391
        0.0000757880   0.0000315172   0.0000496159   0.0000180253   0.0000323903
       -0.0000016036   0.0000010795  -0.0000135705   0.0000165738  -0.0000336416
       -0.0000122808   0.0000188957  -0.0000288164  -0.0000199071  -0.0000073072
       -0.0000139050  -0.0000305688  -0.0000044374  -0.0000462158  -0.0000171506
       -0.0000606916   0.0000842109  -0.0000307932   0.0002775623   0.0000340797
       -0.0000124623   0.0007822644   0.0001700239  -0.0004288774  -0.0001592007
       -0.0001998254   0.0000893164  -0.0000287375   0.0000602858  -0.0000268899
       -0.0000450373   0.0000189525   0.0000318160   0.0000259487   0.0000834643
       -0.0001685297  -0.0001213484  -0.0000654999   0.0000408382   0.0000238849
        0.0000592438   0.0000395011   0.0000698089  -0.0000040715   0.0000157730
       -0.0000023165   0.0000131154  -0.0000000610  -0.0000104968   0.0000019067
       -0.0000001695  -0.0000158118  -0.0000043291  -0.0000353808   0.0000285749
        0.0000189198   0.0000520167  -0.0000142760  -0.0000155031  -0.0000375813
       -0.0000056383   0.0000057942   0.0000071495   0.0000008459   0.0000013865
       -0.0000022544  -0.0000009452  -0.0000011127  -0.0000058093  -0.0000022802
       -0.0000010202  -0.0000052578   0.0000011513   0.0000022555   0.0000024767
       -0.0000005447  -0.0000008795   0.0000022029   0.0000011581   0.0000005548
        0.0000027672  -0.0000000952   0.0000007859   0.0000025941   0.0000057548
        0.0000023978   0.0000019992  -0.0000107192  -0.0000075649   0.0000058293
        0.0000074273   0.0000044552  -0.0000045216  -0.0000063085  -0.0000053153
        0.0000082682   0.0000042723   0.0000014877  -0.0000032356   0.0000011368
        0.0000023293   0.0000014686   0.0000012899   0.0000028855   0.0000015997
        0.0000010651  -0.0000020173  -0.0000004967   0.0000005494  -0.0000007094
       -0.0000068023   0.0000054925   0.0000005293  -0.0000094977  -0.0000029284
       -0.0000054088   0.0000057092   0.0000088433  -0.0000000839  -0.0000014955
        0.0000012000   0.0000034475   0.0000298286   0.0000147000  -0.0000032989
       -0.0000235464  -0.0000450462  -0.0000818769   0.0000795237   0.0000875310
       -0.0000410947  -0.0142978325  -0.0071553778  -0.0077135986   0.0056124185
        0.0014848149   0.0023373173  -0.0204778559  -0.0011464724  -0.0122992698
        0.0057160219  -0.0019712114  -0.0209399747  -0.0089369915   0.0039394391
        0.0187263596  -0.0064722788  -0.0012138828   0.0153662455  -0.0190451848
        0.0173879899  -0.0010300535  -0.0085359502   0.0095558296   0.0034994993
        0.0068114681  -0.0077439706  -0.0011825505  -0.0004632969   0.0004545374
        0.0012786370  -0.0005221115  -0.0009091029   0.0000465592  -0.0013149794
        0.0010747701   0.0002267065  -0.0000376614  -0.0000251978  -0.0000257282
        0.0000045596  -0.0000124164   0.0000125262  -0.0000226162   0.0000025797
       -0.0000136267   0.0000074291   0.0000048450   0.0000062283   0.0000122013
       -0.0000075086   0.0000107031  -0.0000078608   0.0000017464   0.0000132853
       -0.0000146435  -0.0000032326  -0.0000252945   0.0000085790  -0.0000014932
        0.0000070372  -0.0000078220  -0.0000026311   0.0000137430  -0.0000152050
        0.0000035725  -0.0000200104   0.0000103957  -0.0000052861  -0.0000099806
        0.0000019418   0.0000417290   0.0000120410  -0.0000114681  -0.0000067905
        0.0000282898   0.0000019633  -0.0000025981   0.0000005138  -0.0000015765
       -0.0000004629   0.0000026420   0.0000029361   0.0000013867  -0.0000033635
       -0.0000005655  -0.0000009197   0.0000009343   0.0000020958   0.0000025167
        0.0000028204  -0.0000012745  -0.0000000237   0.0000001536   0.0000047343
        0.0000002691   0.0000014040  -0.0000006403   0.0000007032  -0.0000006571
        0.0000045939   0.0000010024  -0.0000002038  -0.0000005999   0.0000019382
       -0.0000006948  -0.0000006947   0.0000010470   0.0000009953  -0.0000007593
        0.0000008780   0.0000014991   0.0000042196   0.0000023425   0.0000001838
       -0.0000011908  -0.0000000872   0.0000012569   0.0000004448  -0.0000009701
       -0.0000017139   0.0000056596  -0.0000007523  -0.0000015219   0.0000023607
        0.0000045040  -0.0000063962   0.0000013521  -0.0000032253  -0.0000036473
       -0.0000003450   0.0000015181   0.0000009324   0.0000000220   0.0000021860
       -0.0000003556   0.0000038459   0.0000029598  -0.0000007512   0.0000014776
       -0.0000008250  -0.0000040646   0.0000010892  -0.0000022262  -0.0000032793
        0.0000041976   0.0000022986  -0.0000002683   0.0000004926   0.0000026758
       -0.0000052964   0.0000029039   0.0000032032   0.0000038441   0.0000051648
       -0.0000061387  -0.0000022843  -0.0000012448  -0.0000009030  -0.0000010031
       -0.0000074531  -0.0000074099   0.0000041625
       -0.0192805304  -0.0688214858  -0.0137401060   0.0133272584   0.4709194955
        0.0027741810   0.0040650397  -0.0609304878  -0.0136192118   0.0544492415
       -0.1287712502  -0.0056680022  -0.0467920888  -0.1444399974   0.0291137116
       -0.0126852687  -0.0128442674  -0.0025857962  -0.0017784121   0.0028980939
        0.0003459998  -0.0003274019  -0.0008722456   0.0006521300  -0.0009275552
        0.0017412950   0.0040176833  -0.0051944334  -0.0177744761   0.0108229298
       -0.0004764933  -0.0002324410   0.0000685175   0.0001036013  -0.0000215786
        0.0000742772   0.0000817768   0.0000728858   0.0000022852  -0.0000123595
        0.0000060278   0.0000092138  -0.0000144803   0.0000018154  -0.0000275151
       -0.0000113610   0.0000048088  -0.0000244301  -0.0000160908   0.0000014197
       -0.0000150675  -0.0000731730   0.0000346592  -0.0000560515  -0.0000134728
       -0.0001617704   0.0000691478   0.0001603043  -0.0002084446  -0.0001067508
        0.0005344713   0.0001966904  -0.0003778502  -0.0001521928  -0.0001700029
       -0.0001281982   0.0000345984   0.0000199388  -0.0000035797  -0.0000525447
       -0.0000291995   0.0000187395   0.0000224882  -0.0000175517   0.0000078785
       -0.0002131006  -0.0000398526  -0.0000173940   0.0000647137   0.0000082259
        0.0000287113   0.0000603774   0.0000226550  -0.0000025422   0.0000216802
       -0.0000077894   0.0000203779   0.0000058136  -0.0000135054   0.0000012319
        0.0000005502  -0.0000226045  -0.0000053704  -0.0000581726   0.0000385694
        0.0000312839   0.0000579822  -0.0000511876  -0.0000367758  -0.0000361692
       -0.0000120979   0.0000044463   0.0000089294   0.0000038903   0.0000052851
       -0.0000061359   0.0000026522   0.0000025816  -0.0000003277  -0.0000054089
       -0.0000038900  -0.0000004547   0.0000030666   0.0000011988   0.0000025669
        0.0000008318   0.0000001413   0.0000027448   0.0000023330  -0.0000006101
        0.0000018930   0.0000013617   0.0000020279   0.0000068157   0.0000048068
        0.0000017207  -0.0000016717  -0.0000097295  -0.0000070462   0.0000170928
        0.0000047614   0.0000008838  -0.0000026215  -0.0000057814  -0.0000042507
        0.0000054782   0.0000065250   0.0000014836   0.0000081728   0.0000087343
       -0.0000031171   0.0000016483  -0.0000013772  -0.0000083440   0.0000013057
        0.0000005652  -0.0000031287   0.0000026414  -0.0000005884  -0.0000066210
        0.0000037840   0.0000069643   0.0000068530  -0.0000057868  -0.0000090234
       -0.0000050008   0.0000060698   0.0000451881   0.0000166934   0.0000220051
        0.0000182293  -0.0000089259   0.0000297165   0.0000098115  -0.0000034317
        0.0000704887   0.0000272473  -0.0000188651  -0.0000329089   0.0000067936
        0.0000329323  -0.0223077501  -0.0092200628  -0.0138285766  -0.0024911096
       -0.0010671080  -0.0032991550   0.0177904634   0.0034430988   0.0120781249
        0.0011606414  -0.0008328789  -0.0049038950   0.0092100675  -0.0035172475
       -0.0213208479  -0.0096531405  -0.0002511241   0.0233470557  -0.0000929043
        0.0020419568   0.0013656235   0.0038887691  -0.0040542772  -0.0030116453
        0.0157595326  -0.0265295562  -0.0003833037   0.0015681871  -0.0004617985
        0.0000518651  -0.0000531225  -0.0000954866   0.0001770481   0.0002034305
       -0.0000617746  -0.0018640763  -0.0000461841  -0.0000233624  -0.0000065449
        0.0000076398   0.0000043325   0.0000145627  -0.0000219885   0.0000023345
       -0.0000157066   0.0000074766  -0.0000011423   0.0000111209   0.0000027541
       -0.0000124087   0.0000141212   0.0000043280   0.0000004909  -0.0000029444
       -0.0000132760  -0.0000041102  -0.0000218424   0.0000074424  -0.0000016137
        0.0000093978  -0.0000039309   0.0000022229   0.0000054193  -0.0000168601
        0.0000035870  -0.0000184483   0.0000108287  -0.0000096746  -0.0000058863
        0.0000256106   0.0000003001   0.0000024236  -0.0000005000  -0.0000253614
        0.0000082541  -0.0000095686  -0.0000008552  -0.0000021053  -0.0000037594
       -0.0000031549   0.0000061146   0.0000026927   0.0000009099  -0.0000029282
        0.0000010650  -0.0000025076  -0.0000001802   0.0000011534   0.0000004966
        0.0000018719   0.0000004900  -0.0000002782   0.0000004673   0.0000030661
        0.0000009824   0.0000009904   0.0000006976  -0.0000005750   0.0000003004
        0.0000030290   0.0000024318  -0.0000004164   0.0000011675   0.0000009411
       -0.0000007004   0.0000009192   0.0000028016   0.0000003638   0.0000001906
        0.0000024701   0.0000021430   0.0000026733   0.0000027843   0.0000012603
        0.0000000470   0.0000007316   0.0000018829   0.0000028842   0.0000004694
       -0.0000029227   0.0000044233   0.0000011447  -0.0000031352   0.0000009223
        0.0000029684   0.0000004123   0.0000037672  -0.0000018442  -0.0000070538
        0.0000026937   0.0000039421  -0.0000015701   0.0000021385   0.0000043491
       -0.0000005292   0.0000007910   0.0000033141  -0.0000015075   0.0000038371
        0.0000008714  -0.0000064290   0.0000050211  -0.0000013825  -0.0000066243
        0.0000005155   0.0000025071  -0.0000041923   0.0000023938   0.0000020336
       -0.0000012376  -0.0000017157   0.0000025423  -0.0000033226   0.0000050445
        0.0000000748  -0.0000026039   0.0000032859  -0.0000066265  -0.0000005569
       -0.0000023134   0.0000029242  -0.0000166104
       -0.0567436831  -0.0149041745  -0.1054321791   0.0117925107   0.0027741810
        0.4683560012   0.0370487807  -0.0071129431  -0.1661704561   0.0047458109
       -0.0081194679  -0.0611378234   0.0090768974   0.0263279823  -0.0686914296
       -0.0032248023  -0.0105620166   0.0044555966  -0.0046539073  -0.0000807648
        0.0008020207  -0.0005054109   0.0004409818  -0.0004532218  -0.0040917669
        0.0041602388  -0.0003160199   0.0083708574   0.0194894966  -0.0070223051
        0.0003463066   0.0006825935   0.0002146673   0.0000478708   0.0000888616
       -0.0000696775  -0.0000231960  -0.0000651493   0.0000010749   0.0000110011
        0.0000174615   0.0000279722   0.0000032564   0.0000127326  -0.0000107356
       -0.0000038344   0.0000168013  -0.0000111387  -0.0000073134  -0.0000094285
        0.0000026425   0.0000242981  -0.0000033619   0.0000542030   0.0000339949
        0.0000566719  -0.0000605303   0.0002283408   0.0000404801  -0.0002347451
        0.0002033319  -0.0002483164  -0.0005312869   0.0000988665  -0.0000353574
        0.0000363379   0.0000268566   0.0000306685   0.0000218144  -0.0000299601
        0.0000129778   0.0000011324   0.0000171483   0.0000106259  -0.0000424372
       -0.0000254483   0.0000093415   0.0000362385   0.0000079783  -0.0000055676
       -0.0000255194   0.0000050504  -0.0000079841  -0.0000098780   0.0000007569
       -0.0000009587  -0.0000014632   0.0000046098  -0.0000035638  -0.0000031600
       -0.0000011689  -0.0000001337  -0.0000023831  -0.0000120652   0.0000068203
        0.0000102044   0.0000014874  -0.0000144258  -0.0000118086   0.0000028093
       -0.0000035871   0.0000004014   0.0000006209   0.0000031596   0.0000015133
       -0.0000017453  -0.0000002679  -0.0000008278   0.0000004033  -0.0000019438
       -0.0000013551  -0.0000015517  -0.0000007445   0.0000010206  -0.0000016294
       -0.0000000171  -0.0000003445  -0.0000007063  -0.0000005131   0.0000007508
       -0.0000010437  -0.0000006281   0.0000002328   0.0000023734   0.0000014729
        0.0000006967  -0.0000020935   0.0000004995   0.0000004520   0.0000054930
       -0.0000040433  -0.0000031833  -0.0000055497  -0.0000015364  -0.0000001973
       -0.0000020461   0.0000014203   0.0000015670   0.0000042150   0.0000053427
        0.0000044063   0.0000000452  -0.0000018742  -0.0000008006  -0.0000017791
       -0.0000018327   0.0000022365  -0.0000019442   0.0000003826   0.0000000367
        0.0000086137  -0.0000026789  -0.0000009958  -0.0000040604  -0.0000020208
       -0.0000006510   0.0000004568   0.0000139263   0.0000083266   0.0000080506
        0.0000020108  -0.0000041496  -0.0000093079   0.0000010909  -0.0000049703
        0.0000361375   0.0000331534   0.0000262939  -0.0000127901   0.0000030988
        0.0000075355   0.0051709707   0.0008307712   0.0042182671  -0.0216081800
       -0.0070369101  -0.0217906590  -0.0011462137   0.0011789135  -0.0002201146