166
 energy: -249.299229819362 gnorm: 0.000081585452 xtb: 6.7.1 (edcfbbe)
N           11.51528157465551       -2.43715004922971       -4.05741549827919
C           10.81746145773244       -1.91189612788468       -3.30133075438918
C            9.94961846334622       -1.31143713931572       -2.39629290353326
C            8.57554850022571       -1.50005185156157       -2.50890830931705
C            7.67454293592519       -0.88745270023545       -1.66055608992758
N            6.30671943004467       -1.10505133212749       -1.82492900787157
C            5.70543793707171       -2.35711720118237       -1.79656345634672
C            6.28443437240542       -3.61649197205858       -1.82172686539185
C            5.44870038320186       -4.71589790601680       -1.72900751796363
C            4.06978464878076       -4.57094403963541       -1.60550082758228
C            3.48882985094999       -3.31724793493776       -1.54965469223914
C            4.30777446009352       -2.20167658190637       -1.63828214947094
C            4.05859115813731       -0.78974390444486       -1.55899400916600
C            2.93197583268705       -0.03992398023680       -1.29230420501567
C            3.03382127229701        1.35114913803782       -1.22627576766262
C            1.88234375914828        2.14827909315219       -0.80559420982204
C            1.67017397313151        3.44652397438666       -1.26622519261141
C            0.56826058189472        4.17966450806903       -0.86618746332340
C           -0.36884070469580        3.64466805022776        0.00796156799030
C           -1.64805437247319        4.34856943849717        0.43628689960453
C           -2.78838513263542        3.47978799688913       -0.08197744318542
C           -3.95834575015841        3.20679930480799        0.61318506088729
C           -4.96358196552280        2.43352037305355        0.05735184670637
C           -4.81598429227154        1.90336091796080       -1.21770446078196
N           -5.81297451627047        1.11171125891865       -1.80331066751424
C           -5.57876384337540       -0.06291678186115       -2.48966001250009
C           -4.42550294600499       -0.83272661432585       -2.54655448940907
C           -4.45769942839650       -1.98255206775876       -3.31182193245324
C           -5.60555817434764       -2.36487765091724       -4.00078809399576
C           -6.76687837059730       -1.62213352829966       -3.91565684561249
C           -6.76214603335486       -0.46762460324844       -3.14647521083831
C           -7.75915810948288        0.51654075473270       -2.82720808764744
C           -9.09262791493360        0.66976852950895       -3.17642217932596
C           -9.77900569212706        1.77073704178098       -2.70155373972731
C           -9.14636440420797        2.71818457250825       -1.90131574888129
C           -7.81828998342871        2.58848961136086       -1.54218302333679
C           -7.13081745994534        1.47344563573178       -1.99715524373753
C           -3.65366166659672        2.18185169554418       -1.93243576149811
C           -2.66598213463462        2.96025863298692       -1.37074139801669
C           -1.60725937683761        4.51394811145979        1.97791364450880
C           -2.00953192186024        5.91012487201233        2.45631407208053
C           -3.27022553168296        6.41037667339855        1.76059361898629
C           -3.09793881176067        6.42245940899597        0.23260813072225
C           -1.80708141259960        5.73449963429789       -0.21216251448393
C           -0.14433267779355        2.35515923111110        0.48998533693883
C            0.95363447259242        1.62308040752479        0.09878865082381
C            4.25752707105701        1.96327679538345       -1.55193316003411
C            5.39396655429308        1.23146380869007       -1.81653268415897
C            5.31627783993905       -0.15444400117459       -1.72389474692739
C            8.17853821087881       -0.02517622751352       -0.59786758245381
N            7.30622179515802        0.61604716122138        0.28182132656786
C            7.23440529343585        1.99376154940087        0.44604293688579
C            8.10507178490302        2.98170444838929        0.01307530124902
C            7.76456980167911        4.29990258116152        0.26283936570626
C            6.58151930397796        4.63217993847672        0.91668884147468
C            5.69516254214748        3.65261095954773        1.32595245939094
C            6.01774370465478        2.32513413837701        1.08884763218276
C            5.33257148322014        1.08697761858459        1.33379919499043
C            4.08694591688656        0.77702957955435        1.84041206263750
C            3.69985473823150       -0.56022371472895        1.93535734933566
C            2.36367846232900       -0.92341852218526        2.40529304871203
C            1.65875974359249       -0.12187864038606        3.30309484318417
C            0.42673947825572       -0.50613636623859        3.79536373077196
C           -0.14660324905390       -1.72151874445515        3.43827090644650
C           -1.42366689476355       -2.27311895261022        4.05002773400760
C           -2.50175651532774       -2.28542778601998        2.97252798703116
C           -2.75705865621870       -1.11822252416548        2.25495828580273
C           -3.81067329616921       -1.02981675646028        1.36491166209538
C           -4.64983782752656       -2.12341744828399        1.17176724937219
N           -5.79461945860016       -2.03740534608966        0.36576029238151
C           -6.82172544740334       -1.13229287053664        0.55117501087647
C           -6.89819220595233       -0.04973366406445        1.41494390250214
C           -8.06978467565606        0.68428094867167        1.42798829353651
C           -9.14917299529158        0.34633379551158        0.61621591952617
C           -9.09142858702910       -0.75191887663340       -0.21859818410156
C           -7.92424115747634       -1.50138205546439       -0.25272051198016
C           -7.54049583757181       -2.70044570897575       -0.94390068540242
C           -8.18995775366285       -3.53239916548989       -1.84442490193880
C           -7.51962630845933       -4.64135960686636       -2.32173008836024
C           -6.21154998533856       -4.91222131342138       -1.92782643589038
C           -5.54408271882537       -4.09709462918020       -1.03437097688043
C           -6.22405781033912       -2.99931083717048       -0.52693085144270
C           -4.36851379489928       -3.31115842130727        1.83703524194143
C           -3.30702487626029       -3.38877469906676        2.71727614468083
C           -1.14380368029477       -3.67924059185067        4.61565782719186
C           -0.16549330991609       -3.62594126657038        5.78439562005115
C           -0.79101329373268       -2.84403655012920        6.93257096259060
C           -1.10803394157298       -1.42819522832905        6.46837661286262
C           -1.98637954456020       -1.42947742778186        5.21603351117056
C            0.50872197460914       -2.47100478123172        2.46123976958160
C            1.73287512963066       -2.08751738992702        1.95720065716418
C            4.62128561645558       -1.56676648674356        1.58811553139928
C            5.85816123357628       -1.27699751440648        1.05832318832435
C            6.18561888214356        0.05972921374581        0.85563642736345
C            9.54106375488139        0.16043726615030       -0.47581748933297
C           10.45494802498790       -0.46047240356858       -1.32219612844534
C           11.82068318051578       -0.28164084452437       -1.13440056281905
N           12.94917845513435       -0.10155629347327       -0.96503976379095
H            8.20261527528201       -2.10659481322667       -3.32246462487844
H            7.35251503884147       -3.74654644115966       -1.90083608235532
H            5.87782955575887       -5.70599190561783       -1.75145414961875
H            3.44968126165571       -5.45272707211546       -1.54277065143559
H            2.42099426675594       -3.20271692427174       -1.43747459026420
H            1.98205454872806       -0.52808933328563       -1.13887117045904
H            2.35578015276859        3.88280226182289       -1.97704909748423
H            0.44317625237333        5.17389363611215       -1.26509055099659
H           -4.11275205639514        3.59350136382480        1.60802793333352
H           -5.86213800470290        2.22568719358976        0.61745212319151
H           -3.53317318779187       -0.54741716337459       -2.00908011969759
H           -3.57220780228779       -2.59690734485470       -3.37859889391332
H           -5.58748307384848       -3.26391228942748       -4.59764222730320
H           -7.66090593308040       -1.93108492532264       -4.43473602273324
H           -9.57794614444900       -0.05704383552565       -3.81015858881367
H          -10.81873589184358        1.90722933359412       -2.95927667895697
H           -9.70455029122386        3.57624474390498       -1.55704440876313
H           -7.33285503346325        3.33848322939612       -0.93684090268518
H           -3.54116682460808        1.79977756299036       -2.93602061880276
H           -1.77812686476806        3.16967946585322       -1.94853748966869
H           -2.24589235298744        3.76800984696419        2.45092146811464
H           -0.58884388188148        4.31867803084533        2.32268393054286
H           -2.17232038923665        5.88174891727521        3.53610732199155
H           -1.19448223632472        6.61232975430363        2.27331394719247
H           -4.10807948138124        5.76886001886555        2.03664489762216
H           -3.50499445933305        7.41313284887775        2.12148618452518
H           -3.08061150591925        7.44966065282710       -0.13607460735351
H           -3.94698235132373        5.92409698005118       -0.23884804639201
H           -0.95234694699047        6.35595905156394        0.05724947349071
H           -1.82482955647599        5.63145308263961       -1.29876341317203
H           -0.85372035208508        1.91626939726028        1.17713823799774
H            1.10232161093381        0.63671982268640        0.51149322823578
H            4.32607616583760        3.03982255732843       -1.55605185858005
H            6.32250101060982        1.72469812485607       -2.06245079320554
H            9.01670824643174        2.74200508179294       -0.51176881938687
H            8.43041624344140        5.08527006270683       -0.06096563884239
H            6.35118150679917        5.67180538725525        1.09536482325971
H            4.76549054928843        3.91015349499743        1.81032526109260
H            3.41136096175436        1.57025087089625        2.12006546256220
H            2.09266221782103        0.80239331065085        3.65378539544732
H           -0.07550800816086        0.16192187086486        4.47628593508941
H           -2.11970314856038       -0.25763471530974        2.39973649360130
H           -3.98860524185930       -0.11256439990206        0.82229413756156
H           -6.07717728748487        0.19679581180492        2.07178859486486
H           -8.15547366170254        1.53294966580055        2.09152971750824
H          -10.04624041266348        0.94525173829060        0.65345437317791
H           -9.93756104720182       -1.02928492473446       -0.82771375913491
H           -9.19871019381887       -3.31329938409731       -2.15982115281426
H           -8.00912089140369       -5.30630289283796       -3.01758489491823
H           -5.70733800275478       -5.77821143303139       -2.33062071381215
H           -4.52522625689917       -4.30547265081050       -0.74472707533259
H           -5.01005951580025       -4.16718380138618        1.68989728262613
H           -3.13675644239279       -4.32722008743334        3.21840422078158
H           -0.75623360731179       -4.33604615624157        3.83677713542684
H           -2.07742778115046       -4.10445207214284        4.98873599060237
H            0.76547483262532       -3.14763943099549        5.47228880758882
H            0.06970909729822       -4.64223280584916        6.10737110778132
H           -0.11058408723459       -2.80992828566192        7.78544651161735
H           -1.70772082385179       -3.34397722404018        7.25508314694181
H           -1.62829167041143       -0.88298417449359        7.25968531566634
H           -0.16605224382460       -0.91496956617025        6.27534232709817
H           -2.96046409075590       -1.85327119644659        5.47730592460105
H           -2.16553826187262       -0.40466359304724        4.88535849590921
H            0.05185609567537       -3.37588623432881        2.08744503607174
H            2.20784097335827       -2.69235437541278        1.19881298831296
H            4.35798475002969       -2.59985565242428        1.75391968678744
H            6.54947497609319       -2.06678751866878        0.80406161460445
H            9.91823156768800        0.76703750425660        0.33571034027230
