$hessian                                                                        
        0.4807300276  -0.0239901967  -0.0162282538  -0.1572716342  -0.0521511375
       -0.0381213596  -0.0282430803  -0.0097073709  -0.0034089631  -0.0036122290
        0.0011043582   0.0027941797  -0.0011277311  -0.0005094230  -0.0004096058
       -0.0000093839   0.0000248928  -0.0000396800  -0.0000053987  -0.0000128050
        0.0000273997  -0.0000131624  -0.0000312137   0.0000074895   0.0000649693
        0.0000101490   0.0000106278  -0.0000004155   0.0000149524  -0.0000262007
       -0.0000086746  -0.0000053118   0.0000131304   0.0000011580   0.0000082722
       -0.0000042132   0.0000132034  -0.0000006839   0.0000019656  -0.0000118253
       -0.0000099104   0.0000056394  -0.0000081556   0.0000069725  -0.0000022577
        0.0000009374   0.0000272337  -0.0000196521   0.0001090515  -0.0000390311
       -0.0000034879  -0.0002899343  -0.0001321293   0.0001000029   0.0001004650
       -0.0000938920  -0.0001047638  -0.0002961950   0.0002278788   0.0001081920
       -0.0000403153  -0.0000490865  -0.0002336852   0.0003946275   0.0001092054
       -0.0000091316  -0.0001630194  -0.0000953731   0.0000600222   0.0000117398
        0.0000402846   0.0000019285  -0.0000390579   0.0000033535  -0.0000720604
        0.0002135236  -0.0002076207   0.0002025233  -0.0000579992   0.0001061855
       -0.0000860299   0.0000896360  -0.0000295712   0.0000213072  -0.0001900208
       -0.0002544904  -0.0004525557   0.0000694666   0.0000648944   0.0000448249
        0.0000922937  -0.0000094391   0.0000115308  -0.0000861080  -0.0000264940
       -0.0000177238  -0.1849480821   0.0551534134   0.1042096288  -0.0462223114
        0.0270947072  -0.0014458710  -0.0507879777   0.0106368956  -0.0395903759
       -0.0003053730  -0.0023745053  -0.0000003702  -0.0091006883  -0.0043180109
       -0.0063019554   0.0006514668  -0.0007713084  -0.0006219075   0.0007488582
       -0.0001382393  -0.0007733850  -0.0000609577   0.0001663173   0.0000088577
        0.0000288431  -0.0000455760   0.0002041514  -0.0003106164   0.0000854274
        0.0002290765   0.0000221926  -0.0000859345  -0.0000615833   0.0000033908
        0.0000544388  -0.0000038950  -0.0000327779  -0.0000007018  -0.0000224977
       -0.0000076219   0.0000154466   0.0000146412   0.0000243150  -0.0000122052
        0.0000030650  -0.0000055456   0.0000040539  -0.0000045405   0.0000079918
        0.0000057863   0.0000009623   0.0000084305   0.0000034803  -0.0000069262
        0.0000018614   0.0000000410   0.0000010380  -0.0000032867   0.0000023447
        0.0000002059  -0.0000001257   0.0000078402  -0.0000010296  -0.0000105564
        0.0000222386  -0.0000037010   0.0000047488   0.0000764370   0.0000426696
       -0.0000008671  -0.0000048886   0.0000040714   0.0000153821   0.0000146998
       -0.0000158463  -0.0000064690  -0.0000164944  -0.0000005464  -0.0000209330
        0.0000091109  -0.0000063032  -0.0000178067   0.0000106767  -0.0000051225
        0.0000126470  -0.0000113862  -0.0000035737  -0.0001000603   0.0000043600
       -0.0000137445  -0.0000048302   0.0000180820  -0.0000063327
       -0.0239901967   0.5074603758  -0.0074701518  -0.0520553612  -0.0961992082
       -0.0194176372   0.0030458587   0.0028080457   0.0019056056   0.0011291494
        0.0000776184  -0.0007212285   0.0002897562   0.0002779843   0.0000109224
        0.0000426288  -0.0000340118  -0.0000130720  -0.0000145264  -0.0000045702
       -0.0000101835  -0.0000021176   0.0000004360   0.0000108212  -0.0001129742
       -0.0001212709   0.0000719389  -0.0000291353   0.0001076222  -0.0000653638
       -0.0000014947  -0.0000379827   0.0000176258  -0.0000017815   0.0000500479
       -0.0000325241  -0.0000075057  -0.0000169463   0.0000089721   0.0000308804
       -0.0000182526   0.0000203398  -0.0000567182   0.0000316021  -0.0000203575
        0.0002024026   0.0000300633  -0.0000314821  -0.0000824627   0.0000384481
        0.0000786684   0.0001279761   0.0000778435  -0.0002159877   0.0001774964
       -0.0000342713   0.0004998744  -0.0006814283   0.0006896961  -0.0006016828
        0.0002737281  -0.0001421261   0.0001687506  -0.0002432737   0.0004078718
       -0.0001320782  -0.0000066066  -0.0000830978   0.0000336997  -0.0000201944
        0.0000472997  -0.0000269268  -0.0000442458  -0.0003358199   0.0001115241
        0.0002958364   0.0001104513  -0.0000232743  -0.0000257915  -0.0001386095
        0.0000092816  -0.0000074384   0.0000252154   0.0000050058  -0.0002405071
       -0.0006811602  -0.0004625796   0.0001099167   0.0001153187  -0.0002043936
       -0.0001510741  -0.0000962120   0.0000392574   0.0001417149   0.0000372777
       -0.0000046658   0.0552623870  -0.0649093587  -0.0387657114   0.0269104961
       -0.2764293352   0.0198717358   0.0107479363  -0.0581298447   0.0538411950
       -0.0266740458  -0.0190021272  -0.0101687534   0.0043040883   0.0033611486
        0.0015559550   0.0011576140   0.0008489664  -0.0000382486   0.0000999759
        0.0000803459   0.0000369450   0.0001179441   0.0001598605   0.0000071589
       -0.0000539427  -0.0000611809   0.0000585986   0.0001073836   0.0000004808
       -0.0000018209  -0.0000571368   0.0000127995   0.0000380506   0.0000147857
        0.0000099106   0.0000009781  -0.0000260804  -0.0000095103   0.0000233309
        0.0000034140   0.0000066269  -0.0000047188   0.0000026499  -0.0000016714
        0.0000139303  -0.0000042452   0.0000044221   0.0000033301   0.0000076056
       -0.0000038419  -0.0000077697  -0.0000055511  -0.0000053436   0.0000051275
       -0.0000037813  -0.0000061903   0.0000042633  -0.0000026211  -0.0000023391
        0.0000010737  -0.0000022602  -0.0000228952   0.0000070304   0.0000199969
       -0.0000881039   0.0000126765  -0.0000146861  -0.0001469353  -0.0001725997
       -0.0000027522  -0.0000147989  -0.0000115171  -0.0000158334   0.0000045774
        0.0000254622   0.0000113845  -0.0000102719   0.0000001582  -0.0000162225
        0.0000116595  -0.0000045663  -0.0000026092   0.0000026064  -0.0000020951
        0.0000011589  -0.0000015456   0.0000022193   0.0000156123  -0.0000814576
        0.0001130689   0.0000048246  -0.0000263313   0.0000168142
       -0.0162282538  -0.0074701518   0.5198345846  -0.0371695538  -0.0190030795
       -0.0805388540   0.0128200289   0.0060266548   0.0040479108   0.0025164698
       -0.0006168435  -0.0014101977   0.0007342156   0.0002678007   0.0003085934
        0.0000161619  -0.0000275962   0.0000583459  -0.0000008998  -0.0000054657
       -0.0000044182   0.0000138507   0.0000029684   0.0000197292  -0.0001021015
       -0.0000179861  -0.0000174000  -0.0000275002  -0.0000043050   0.0000233184
       -0.0000031698   0.0000100482  -0.0000149090   0.0000015508  -0.0000073267
        0.0000010956   0.0000007171  -0.0000082168   0.0000027185  -0.0000138184
        0.0000192244  -0.0000169446  -0.0000173192   0.0000179327  -0.0000126218
       -0.0001006508  -0.0000638564   0.0000410388   0.0000844734   0.0000406396
       -0.0001095458  -0.0001117648  -0.0001139476   0.0001464380  -0.0002151249
        0.0000030384  -0.0002638486   0.0002375198  -0.0005721284   0.0003282230
        0.0000308308   0.0000478545  -0.0003176578  -0.0001223171  -0.0001425088
        0.0001690633   0.0001263650   0.0000863391  -0.0000766076   0.0000033303
        0.0000001203   0.0000293618   0.0001254218   0.0001406951  -0.0002553565
       -0.0003766387  -0.0005325628   0.0001705523   0.0001249246   0.0002664173
        0.0000151621  -0.0000691693   0.0000202193  -0.0000131475  -0.0001489497
        0.0003322452  -0.0001251409   0.0000293803  -0.0000265272   0.0001285292
        0.0000796844   0.0000159810  -0.0000200519   0.0000938034   0.0000345124
       -0.0000384818   0.1039673616  -0.0384989076  -0.1196786927  -0.0016232971
        0.0195867095  -0.0467815337  -0.0398381471   0.0529307711  -0.2645262746
       -0.0000541165  -0.0005560818   0.0009083552  -0.0264068875  -0.0130593734
       -0.0130087945   0.0001217807   0.0004385025   0.0003429833   0.0011146497
        0.0002550856   0.0007428977  -0.0000146135   0.0000617190  -0.0000391872
        0.0001439218  -0.0000486676   0.0001001451   0.0002442177  -0.0000294415
       -0.0001055563  -0.0000577326   0.0000304418   0.0000512281  -0.0000015947
       -0.0000103710   0.0000057681  -0.0000066126  -0.0000063512   0.0000252146
        0.0000083216   0.0000061338  -0.0000073173  -0.0000133139   0.0000038261
       -0.0000044515  -0.0000018277   0.0000061260  -0.0000093453   0.0000030194
        0.0000015124  -0.0000022700   0.0000021783   0.0000006166   0.0000081873
        0.0000018104   0.0000013410   0.0000014349   0.0000046133  -0.0000000654
        0.0000027475   0.0000019672   0.0000011531   0.0000018380  -0.0000001945
        0.0000315825  -0.0000247772   0.0000165271   0.0001239827  -0.0000037519
        0.0000011808   0.0000002699  -0.0000005238  -0.0000155985   0.0000083125
       -0.0000161226   0.0000050925  -0.0000025605   0.0000062211  -0.0000088519
        0.0000026722  -0.0000091984   0.0000131503   0.0000209940   0.0000107252
        0.0000304929  -0.0000170856  -0.0000018569   0.0000002980  -0.0000236695
       -0.0000670658   0.0000307079   0.0000206338  -0.0000105077
       -0.1572716342  -0.0520553612  -0.0371695538   0.4581205328  -0.0091123235
        0.0134623318  -0.1370657903   0.0288496182   0.0597005319  -0.0270313253
        0.0034197282   0.0126031871  -0.0039876452  -0.0018264972  -0.0017066380
       -0.0000319276   0.0000524815  -0.0000941869   0.0000061736  -0.0000300559
        0.0000627449   0.0000119396  -0.0000004166   0.0000074611  -0.0000059791
        0.0000214645  -0.0000480504   0.0000324985  -0.0000345427   0.0000252015
        0.0000021375  -0.0000025947   0.0000107931  -0.0000139415  -0.0000141846
        0.0000075025   0.0000118361   0.0000163919  -0.0000146993   0.0000048441
       -0.0000139257   0.0000055820   0.0000046844  -0.0000124945   0.0000066168
       -0.0000519595  -0.0000221260  -0.0000212396  -0.0000212311   0.0000031259
       -0.0000651013   0.0002817729   0.0000761231  -0.0000894269  -0.0003047691
        0.0000890109   0.0001540574   0.0001778421  -0.0002645661  -0.0000758367
       -0.0000844753   0.0000081611   0.0000663475  -0.0000534830  -0.0001209475
        0.0000009027   0.0000462608   0.0000482825  -0.0000153321   0.0000023394
       -0.0000275957   0.0000105463   0.0000108179   0.0000730532  -0.0000204694
       -0.0000569823  -0.0000480022  -0.0000848292   0.0000237137  -0.0000040768
        0.0000531140  -0.0000214227   0.0000118140  -0.0000124261  -0.0000296437
        0.0002036845   0.0001022102   0.0000645459  -0.0000485162  -0.0000144764
       -0.0000431062  -0.0000960610  -0.0000653488  -0.0001009835   0.0000048097
        0.0000003634  -0.0253548473  -0.0112837723  -0.0062366761   0.0001770030
       -0.0030104231  -0.0000463237  -0.0081364972  -0.0033390757  -0.0065199432
       -0.0453357879   0.0304299123  -0.0022932322  -0.0489901476   0.0125897691
       -0.0394841762  -0.0062592142   0.0050166119   0.0045464219   0.0009456543
       -0.0006393078   0.0013767360   0.0008277977   0.0007091118   0.0004102336
        0.0006683889   0.0003302711   0.0008149796  -0.0011725843   0.0002077657
        0.0006758159  -0.0000029848  -0.0002602443  -0.0001465901  -0.0000295029
        0.0000629499   0.0000217213  -0.0000580586   0.0000167139   0.0000774818
       -0.0000115241   0.0000244525   0.0000154646   0.0000648945  -0.0000343918
        0.0000036988  -0.0000122568   0.0000106603   0.0000050984   0.0000146449
       -0.0000143328  -0.0000053470   0.0000065396   0.0000106137  -0.0000059527
        0.0000069775   0.0000037355  -0.0000000722  -0.0000020118  -0.0000006317
        0.0000040055  -0.0000048158   0.0000098589   0.0000033300   0.0000115059
       -0.0000013996   0.0000324443   0.0000162773  -0.0000381017  -0.0000376329
       -0.0000061639  -0.0000000657   0.0000028000  -0.0000061308   0.0000024612
       -0.0000034914   0.0000029429  -0.0000058241  -0.0000043032  -0.0000091240
       -0.0000028596  -0.0000102592  -0.0000003208   0.0000147006   0.0000008893
        0.0000045952  -0.0000097499  -0.0000002012   0.0000141239   0.0000283388
       -0.0000042768   0.0000049871   0.0000287918   0.0000254776
       -0.0521511375  -0.0961992082  -0.0190030795  -0.0091123235   0.5233050917
       -0.0173286230   0.0283917470  -0.0768113163  -0.0186965422  -0.0085428091
        0.0025180411   0.0056961312  -0.0020403045  -0.0006523371  -0.0006388580
       -0.0001639691   0.0001434978  -0.0000915407   0.0000185732  -0.0000041394
        0.0000526858   0.0000007700   0.0000263375  -0.0000189329  -0.0000587064
       -0.0000129976   0.0000105499  -0.0000349774  -0.0000375566   0.0000363448
        0.0000078418   0.0000306728  -0.0000165802   0.0000180692  -0.0000239392
        0.0000180308  -0.0000030567  -0.0000014984   0.0000063467  -0.0000014461
        0.0000296566  -0.0000199696  -0.0000452960   0.0000203695  -0.0000072277
       -0.0000285520  -0.0000156479   0.0000135537   0.0001032695   0.0000698375
       -0.0000250417   0.0000107869  -0.0000639783   0.0000051240  -0.0000168253
       -0.0000500376   0.0000237981  -0.0001002840  -0.0000744757   0.0000242797
        0.0001399346   0.0000022942  -0.0000284762  -0.0001425705  -0.0000082996
       -0.0000066254   0.0000735394   0.0000359387  -0.0000144615  -0.0000081741
       -0.0000166801   0.0000042567   0.0000405547  -0.0000342738   0.0000169893
       -0.0002020350   0.0002427141  -0.0001379957   0.0000227309  -0.0001802023
        0.0000733674  -0.0000250246   0.0000389899  -0.0000058449   0.0001923073
       -0.0000494821   0.0001588843   0.0000010379   0.0000035420   0.0000640858
        0.0000502800   0.0000566228  -0.0000068886   0.0000177507  -0.0000659474
        0.0000325134   0.0055579173   0.0033997417   0.0022611453  -0.0267885685
       -0.0198082714  -0.0103019874   0.0044129591   0.0033594009   0.0006127970
        0.0310705852  -0.2664702280   0.0116855696   0.0125486034  -0.0636726161
        0.0582761593   0.0246370092  -0.0126248675  -0.0186072914  -0.0062417722
        0.0027013940   0.0052095589  -0.0011268428   0.0004330021   0.0003447275
        0.0001286166   0.0001508185   0.0002257138  -0.0006232588   0.0002386612
        0.0002849672  -0.0000226312   0.0000419481  -0.0000112779  -0.0000487844
       -0.0000303808  -0.0000409282   0.0001474296   0.0000494044  -0.0000129119
       -0.0000182659  -0.0000214694   0.0000194448   0.0000095132  -0.0000031962
       -0.0000083774   0.0000223221  -0.0000024637   0.0000063900  -0.0000134182
        0.0000118703   0.0000043778   0.0000011361  -0.0000102422   0.0000009407
       -0.0000067632   0.0000008904  -0.0000034937   0.0000062043   0.0000037662
       -0.0000044992   0.0000038786  -0.0000023455  -0.0000090616  -0.0000143215
       -0.0000051628  -0.0000267483  -0.0000134003   0.0000208283  -0.0000378666
       -0.0000038717   0.0000039439   0.0000042777   0.0000051076   0.0000036434
       -0.0000050049  -0.0000056052  -0.0000001947  -0.0000070196   0.0000008923
       -0.0000058100   0.0000123967   0.0000044198  -0.0000010547  -0.0000018471
        0.0000055048   0.0000086398  -0.0000131266  -0.0000315431   0.0000143917
       -0.0000438152  -0.0000147535  -0.0000056310  -0.0000034634
       -0.0381213596  -0.0194176372  -0.0805388540   0.0134623318  -0.0173286230
        0.5113954657   0.0587392083  -0.0188594012  -0.1121390475  -0.0037264902
        0.0021088591   0.0042272627  -0.0018577533  -0.0006755332  -0.0001920627
        0.0000453252   0.0001624290  -0.0000136492   0.0000677822  -0.0000318268
        0.0000898039  -0.0000491891  -0.0000165530   0.0000026006  -0.0001117714
        0.0000563113  -0.0000095576  -0.0000006570  -0.0000362347   0.0000319450
        0.0000048116   0.0000046341  -0.0000008407   0.0000155094  -0.0000001450
        0.0000015864  -0.0000044281  -0.0000167753   0.0000089603  -0.0000062882
       -0.0000500806   0.0000242084   0.0000308729   0.0000164993  -0.0000005425
        0.0000730426   0.0000459185  -0.0000055888   0.0000082038  -0.0000383166
        0.0000845665  -0.0000991307  -0.0000389474  -0.0000433692   0.0000802628
        0.0000071570   0.0000949043  -0.0002747454  -0.0000075447  -0.0000526860
        0.0001945869   0.0000520975  -0.0000214976  -0.0002053721  -0.0000717093
        0.0000434742   0.0001132159   0.0000892431  -0.0000620641   0.0000057798
       -0.0000482435   0.0000297387   0.0000913845   0.0000799955  -0.0000221734
       -0.0001180354   0.0000092994  -0.0000225373   0.0000971632  -0.0000812683
        0.0000243171  -0.0000615194   0.0000214888   0.0000047312   0.0001358896
       -0.0000250089  -0.0000712139   0.0000739950   0.0000620829  -0.0000264808
        0.0000185394  -0.0000061939  -0.0000368505   0.0000247215   0.0000630743
       -0.0000882084   0.0139616719   0.0069416615   0.0047029144   0.0012804348
       -0.0005652939   0.0007700864  -0.0260072191  -0.0132098264  -0.0131715774
       -0.0019311121   0.0116499503  -0.0470555241  -0.0389657099   0.0583193912
       -0.2449020780   0.0021442447  -0.0024750546  -0.0005332040   0.0235387332
       -0.0066124546  -0.0236975037  -0.0004181222   0.0001039340   0.0002263905
       -0.0015207556  -0.0000829825   0.0007496616  -0.0006194555   0.0000865450
        0.0001688709   0.0000235928   0.0000898445  -0.0000562876   0.0000871326
       -0.0000174794  -0.0000074556  -0.0001251796  -0.0001076246   0.0001448437
       -0.0000106054  -0.0000330136   0.0000223256   0.0000097088   0.0000039408
       -0.0000481895   0.0000177679  -0.0000121216   0.0000258088  -0.0000050045
        0.0000157725   0.0000189744  -0.0000047640  -0.0000081961   0.0000006634
       -0.0000130102   0.0000000701  -0.0000013567  -0.0000098926   0.0000150379
       -0.0000094852   0.0000172911   0.0000103212  -0.0000077024   0.0000026596
        0.0000069612  -0.0000270223  -0.0000089635  -0.0000419232  -0.0000179608
       -0.0000062696   0.0000025734   0.0000038044  -0.0000105770  -0.0000058752
       -0.0000041759   0.0000035955   0.0000005417  -0.0000005683  -0.0000064249
       -0.0000020903  -0.0000031930  -0.0000035009   0.0000097195   0.0000037768
       -0.0000014223  -0.0000029178  -0.0000099110  -0.0000653979  -0.0000394404
       -0.0000173532   0.0000006673  -0.0000690181   0.0000160871
       -0.0282430803   0.0030458587   0.0128200289  -0.1370657903   0.0283917470
        0.0587392083   0.4588767289  -0.0111449068   0.0141799732  -0.1507811481
       -0.0453660940  -0.0408574527  -0.0275988377  -0.0068415216  -0.0034986920
        0.0001778622  -0.0002623568  -0.0002277071   0.0000619069   0.0000692820
       -0.0000834021   0.0000599874   0.0000086416  -0.0000033005   0.0000520338
        0.0000005229  -0.0000851918   0.0000681900  -0.0000777344   0.0000430412
       -0.0000048892  -0.0000038693   0.0000037591  -0.0000130068  -0.0000136867
        0.0000060524   0.0000059730   0.0000132250  -0.0000145918   0.0000076102
       -0.0000306323   0.0000151260   0.0000573895   0.0000124858  -0.0000248737
       -0.0001062188  -0.0000254684   0.0000894110  -0.0000972187  -0.0000063801
       -0.0000643032  -0.0000305810  -0.0000218939  -0.0000805616   0.0000871356
        0.0000445213  -0.0000340623   0.0000473340  -0.0000134061   0.0000220922
       -0.0000279335   0.0000122821  -0.0000286932   0.0000235149  -0.0000000146
        0.0000196609  -0.0000016817  -0.0000005839  -0.0000061664   0.0000049996
        0.0000007652   0.0000075584   0.0000135977   0.0000021678  -0.0000357299
        0.0000140387  -0.0000659336   0.0000466467  -0.0000006043   0.0000378090
       -0.0000099994   0.0000040362  -0.0000023974   0.0000040261  -0.0000352235
        0.0000527954   0.0000200911  -0.0000889609  -0.0001621213   0.0000169956
       -0.0000628750   0.0000071889   0.0000760501  -0.0000503100   0.0000754073
        0.0000627465  -0.0049061493  -0.0022828610  -0.0010476301   0.0009516940
        0.0008418284   0.0002656331   0.0008541522   0.0004116235   0.0008577483
       -0.0068201089   0.0052563995   0.0050192378   0.0012051211  -0.0010541033
        0.0013380525  -0.0438784158   0.0230208031  -0.0009757162  -0.0487709616
        0.0133171629  -0.0403695562  -0.0010128090  -0.0031778249  -0.0003036098
       -0.0093978459  -0.0034512537  -0.0073991278  -0.0040317249   0.0004386171
        0.0024845040   0.0008933636  -0.0011806667  -0.0008125785  -0.0003092898
       -0.0001017162   0.0000427116  -0.0002510119   0.0000837577  -0.0001598646
        0.0000162011   0.0000145089  -0.0000189491  -0.0000205008  -0.0000168199
        0.0000293735   0.0000008629   0.0000080550  -0.0000070743  -0.0000048397
        0.0000051153   0.0000118523   0.0000040923   0.0000027605  -0.0000056885
        0.0000029468   0.0000046290   0.0000005516  -0.0000043820   0.0000053192
        0.0000001710   0.0000015206   0.0000198640  -0.0000060719   0.0000397661
        0.0000239042  -0.0000123073   0.0000082386   0.0000196695   0.0000103102
       -0.0000012200  -0.0000017847  -0.0000025605  -0.0000026215   0.0000064046
       -0.0000029343   0.0000006080  -0.0000020738  -0.0000009513  -0.0000033253
        0.0000015529  -0.0000056619   0.0000008333   0.0000026913  -0.0000016541
        0.0000093030  -0.0000060884   0.0000017246   0.0000302583   0.0000105231
       -0.0000067799   0.0000422657   0.0000443039  -0.0000408943
       -0.0097073709   0.0028080457   0.0060266548   0.0288496182  -0.0768113163
       -0.0188594012  -0.0111449068   0.5227775993  -0.0172862675  -0.0468128462
       -0.0911967888  -0.0180537345   0.0038148293   0.0022872825   0.0022114007
        0.0001212486  -0.0000055099   0.0002780405  -0.0000899119   0.0000403011
       -0.0000723402   0.0000398009   0.0000863063  -0.0000622425  -0.0000592217
       -0.0001585283   0.0001185793  -0.0000653333   0.0001494648  -0.0001548793
        0.0000652409  -0.0000233108  -0.0000016046   0.0000177075   0.0000567601
       -0.0000264941  -0.0000677225  -0.0000431463   0.0000315286   0.0000659645
        0.0000202267   0.0000254509   0.0000173909  -0.0000420992   0.0000514626
        0.0002510345   0.0000177307   0.0000823872  -0.0001672191  -0.0000033445
        0.0002123719  -0.0001982182  -0.0000455172  -0.0001312402   0.0002761906
       -0.0000754232   0.0002024587  -0.0004315707   0.0003105837  -0.0001484028
        0.0002007763  -0.0000321093  -0.0000017562  -0.0001115124   0.0001322259
       -0.0000012406   0.0000318482  -0.0000194106  -0.0000114214  -0.0000106776
        0.0000127607  -0.0000039723   0.0000341492  -0.0001365507   0.0000194008
       -0.0000002487   0.0002263780  -0.0000301524  -0.0000075392  -0.0001639514
        0.0000287532   0.0000024833   0.0000173270   0.0000096368   0.0000895480
       -0.0003081732   0.0000398486   0.0000822053   0.0000566236  -0.0003804441
       -0.0002117206  -0.0000891424  -0.0003767742   0.0001882800   0.0001352066
       -0.0002272143  -0.0030339191  -0.0006540519  -0.0004934978  -0.0012082449
        0.0005280757   0.0005178396   0.0002202987   0.0002406507   0.0002881473
        0.0248396841  -0.0124497373  -0.0183952933  -0.0058089303   0.0026916312
        0.0046729340   0.0231035160  -0.2686726614   0.0026843784   0.0138621181
       -0.0678032587   0.0669744835  -0.0266230127  -0.0181467782  -0.0117289448
        0.0062802292   0.0041456149   0.0026125656   0.0021303645   0.0000755230
       -0.0008656371   0.0016864817   0.0008536822  -0.0000266071  -0.0000094738
       -0.0000420699  -0.0000864927  -0.0003965660  -0.0000956236   0.0003172818
        0.0000119110  -0.0000194643  -0.0000299888  -0.0000058491   0.0000074446
        0.0000478181  -0.0000042641  -0.0000146137   0.0000367998  -0.0000052190
       -0.0000159996  -0.0000111984  -0.0000352439  -0.0000238257   0.0000136545
       -0.0000233470  -0.0000042331  -0.0000002077  -0.0000038954   0.0000015594
       -0.0000084104  -0.0000129655  -0.0000594866   0.0000135680  -0.0000156095
       -0.0001544583  -0.0000285132  -0.0000731294  -0.0000565802  -0.0000670002
       -0.0000004692  -0.0000065575  -0.0000075269  -0.0000031308   0.0000046680
        0.0000077489   0.0000028618  -0.0000025137   0.0000003327   0.0000007938
       -0.0000032160   0.0000069049  -0.0000036653  -0.0000021770  -0.0000035623
        0.0000063311   0.0000021605  -0.0000027223   0.0000811221  -0.0000951444
        0.0000028326  -0.0000210737  -0.0002090594   0.0000499210
       -0.0034089631   0.0019056056   0.0040479108   0.0597005319  -0.0186965422
       -0.1121390475   0.0141799732  -0.0172862675   0.5158264522  -0.0398271691
       -0.0176327266  -0.0828324721   0.0123891539   0.0053590774   0.0055945829
       -0.0000553450  -0.0002939671   0.0002892079   0.0000499338   0.0000921382
       -0.0000781241   0.0000077204   0.0000138674   0.0000494058  -0.0002167279
       -0.0000706793   0.0000846385  -0.0000035320   0.0000088106  -0.0000115041
       -0.0000217537  -0.0000217217  -0.0000103825  -0.0000102671   0.0000399159
       -0.0000291902  -0.0000219676  -0.0000145065   0.0000081768   0.0000225349
       -0.0000356189   0.0000117704  -0.0000502977   0.0000444528  -0.0000690236
       -0.0000823857  -0.0001085248  -0.0000286002   0.0000916482   0.0000242259
       -0.0000737184  -0.0002081556  -0.0001266257  -0.0000668785   0.0001954754
        0.0000340133  -0.0000921034  -0.0001162022  -0.0000775510   0.0001069144
        0.0000618146   0.0000564346  -0.0001149960  -0.0000208910  -0.0000192570
        0.0000689180   0.0000293068   0.0000206407  -0.0000329904   0.0000051209
       -0.0000033417   0.0000166930   0.0000877487   0.0000461465  -0.0000794857
       -0.0001167697  -0.0001409370   0.0001360776   0.0000490725   0.0000845362
       -0.0000490367  -0.0000189379  -0.0000027256   0.0000072901   0.0001310770
        0.0000965193  -0.0000427499   0.0000308624  -0.0000999803  -0.0000215939
        0.0000499761  -0.0003660716  -0.0001556068   0.0002764017   0.0000282323
       -0.0002155710  -0.0023087439  -0.0008044910   0.0002617847  -0.0004340683
        0.0001049439   0.0001883060  -0.0013219269  -0.0001192407   0.0009253419
        0.0015582280  -0.0022258231  -0.0003219646   0.0233695213  -0.0068591396
       -0.0234983146  -0.0010431494   0.0035023953  -0.0463037501  -0.0406399504
        0.0661379601  -0.2447861215  -0.0009130285  -0.0017656975   0.0002690709
       -0.0262381519  -0.0114677542  -0.0152237548   0.0033034517  -0.0005360554
       -0.0009138148   0.0003230475   0.0006813074   0.0005415539   0.0000532250
        0.0000601976  -0.0000480308   0.0011594040   0.0002703121  -0.0007706160
        0.0000794376  -0.0000055099  -0.0000673998  -0.0000702867   0.0000312018
       -0.0000370398   0.0000047705  -0.0000011835  -0.0000715630  -0.0000236656
        0.0000327429  -0.0000062251  -0.0000036822  -0.0000024537   0.0000167797
       -0.0000041949   0.0000009213   0.0000034325  -0.0000030046   0.0000046113
        0.0000021763   0.0000078496   0.0000057036  -0.0000014273   0.0000009725
        0.0000220841  -0.0000670066  -0.0000085072   0.0000484049   0.0000151947
       -0.0000008718   0.0000007422  -0.0000026669  -0.0000046114   0.0000050892
       -0.0000056827   0.0000030021   0.0000014188   0.0000015938  -0.0000021535
        0.0000068446  -0.0000035385   0.0000042256  -0.0000000455   0.0000031663
        0.0000099559  -0.0000045231  -0.0000025690  -0.0000969429  -0.0000640965
       -0.0000620723   0.0000608613   0.0000815600  -0.0001398063
       -0.0036122290   0.0011291494   0.0025164698  -0.0270313253  -0.0085428091
       -0.0037264902  -0.1507811481  -0.0468128462  -0.0398271691   0.4533413179
       -0.0094119964   0.0092103553  -0.1410824976   0.0268178780   0.0533607678
       -0.0023729313  -0.0008873560   0.0066720847   0.0004658625  -0.0003374706
       -0.0001202584  -0.0000345132   0.0000473671   0.0001711545  -0.0001898877
       -0.0000929376  -0.0001047309  -0.0000364574  -0.0000188541   0.0000085160
        0.0000055480  -0.0000370793  -0.0000123492  -0.0000132473  -0.0000102876
        0.0000040630  -0.0000344888  -0.0000019829  -0.0000108249   0.0000408957
       -0.0000056796   0.0000046479  -0.0000023750  -0.0000073155  -0.0000081733
        0.0000707264  -0.0000592419   0.0000587503  -0.0000207596   0.0000085382
        0.0000859199  -0.0001113425  -0.0000111602  -0.0000201765   0.0000884421
        0.0000054026   0.0000326576  -0.0000982672   0.0000170918  -0.0000109154
        0.0000621298   0.0000067042  -0.0000276388  -0.0000603190   0.0000015776
        0.0000180195   0.0000245799   0.0000186098  -0.0000142087   0.0000025521
       -0.0000098929   0.0000093517   0.0000205049  -0.0000001332  -0.0000202623
       -0.0000419977   0.0000008264   0.0000132440   0.0000193302  -0.0000098188
        0.0000019070  -0.0000110618   0.0000042929   0.0000019507   0.0000652248
       -0.0000087047   0.0000187406  -0.0000723859   0.0000232398   0.0000370071
       -0.0000219435   0.0000876037   0.0000294380   0.0002314379   0.0000899083
       -0.0000735282  -0.0011570060  -0.0006169659  -0.0003151070  -0.0000840670
        0.0002039514   0.0000279555   0.0000110393  -0.0000132204   0.0002543536
        0.0006641696  -0.0005612141  -0.0005287298   0.0008619833  -0.0002258982
       -0.0010274790  -0.0016373959  -0.0032392117  -0.0005707871  -0.0084528877
       -0.0028298494  -0.0064131099  -0.0441568496   0.0218702061  -0.0008936253
       -0.0464679591   0.0124828137  -0.0347360731  -0.0266648115   0.0069736852
        0.0141999257  -0.0026769861   0.0037271124   0.0028975701   0.0003479600
        0.0002592429  -0.0006322448   0.0002542597   0.0000301596  -0.0005872483
        0.0000726244   0.0000849636   0.0000702247   0.0001735589  -0.0001100998
        0.0000142419  -0.0000084405   0.0000369919   0.0000323818   0.0000550391