 Entering Gaussian System
 *********************************************
 Gaussian 98:
 frequency output generated by the xtb code
 *********************************************
                         Standard orientation:
 --------------------------------------------------------------------
  Center     Atomic     Atomic              Coordinates (Angstroms)
  Number     Number      Type              X           Y           Z
 --------------------------------------------------------------------
    1          6             0       -0.503290    4.740884    1.364972
    2          6             0       -0.968569    3.476509    2.101619
    3          6             0        0.027506    3.130068    3.214283
    4          6             0       -1.173411    2.320552    1.164723
    5          6             0       -2.454398    1.880019    0.835796
    6          6             0       -2.692203    0.806593    0.014480
    7          6             0       -4.108975    0.491043   -0.415057
    8          6             0       -5.074325    0.436417    0.775122
    9          6             0       -4.628795    1.520062   -1.428047
   10          6             0       -1.565602    0.023388   -0.518468
   11          6             0       -1.767060   -1.362129   -0.780367
   12          6             0       -1.119543   -2.096247   -1.800125
   13          6             0       -1.352523   -3.442331   -1.979455
   14          6             0       -2.233950   -4.133583   -1.161167
   15          6             0       -2.892016   -3.439864   -0.151717
   16          6             0       -2.673318   -2.096582    0.030611
   17          6             0       -0.238821    0.731934   -0.640287
   18          6             0       -0.125752    1.628860   -1.912644
   19          6             0       -1.171819    2.738379   -1.964485
   20          6             0       -0.174851    0.841990   -3.217066
   21         15             0        1.169330   -0.603642   -0.710905
   22          6             0        2.751362    0.450241   -0.826574
   23          6             0        3.514821    0.845384    0.435549
   24          6             0        4.697272    1.740870    0.062747
   25          6             0        5.640292    1.019237   -0.894118
   26          6             0        4.890165    0.590167   -2.150828
   27          6             0        3.696014   -0.285764   -1.784487
   28          6             0        1.336392   -1.262919    1.054938
   29          6             0        0.040593   -1.703866    1.727207
   30          6             0        0.338671   -2.236461    3.127565
   31          6             0        1.280001   -3.433872    3.050015
   32          6             0        2.568276   -3.047378    2.331134
   33          6             0        2.260099   -2.480482    0.948407
   34          6             0        0.013956    1.623510    0.600224
   35          1             0       -0.377873    5.559253    2.070749
   36          1             0       -1.236803    5.040862    0.619503
   37          1             0        0.448972    4.571738    0.867154
   38          1             0       -1.933584    3.702976    2.570044
   39          1             0        1.028726    2.996982    2.811502
   40          1             0        0.061410    3.932442    3.948168
   41          1             0       -0.270804    2.214121    3.720025
   42          1             0       -3.290568    2.448259    1.219018
   43          1             0       -4.118716   -0.483575   -0.911118
   44          1             0       -4.678082   -0.181369    1.577679
   45          1             0       -6.026928    0.016728    0.458416
   46          1             0       -5.260430    1.430731    1.173189
   47          1             0       -5.681279    1.334999   -1.634207
   48          1             0       -4.085701    1.445937   -2.367657
   49          1             0       -4.525248    2.531563   -1.041004
   50          1             0       -0.481952   -1.592812   -2.503182
   51          1             0       -0.844850   -3.962422   -2.779631
   52          1             0       -2.408626   -5.188997   -1.306253
   53          1             0       -3.572834   -3.963195    0.505292
   54          1             0       -3.140875   -1.598162    0.865100
   55          1             0        0.848308    2.128543   -1.870011
   56          1             0       -0.961729    3.390286   -2.811458
   57          1             0       -2.164921    2.322764   -2.088042
   58          1             0       -1.161638    3.338866   -1.060781
   59          1             0       -0.033226    1.518723   -4.058454
   60          1             0       -1.137688    0.350625   -3.332622
   61          1             0        0.620550    0.098520   -3.247726
   62          1             0        2.456069    1.375348   -1.332838
   63          1             0        3.900073   -0.041972    0.940854
   64          1             0        2.869296    1.385381    1.131073
   65          1             0        5.236009    2.030535    0.968299
   66          1             0        4.329176    2.654375   -0.412024
   67          1             0        6.474227    1.672514   -1.159938
   68          1             0        6.051797    0.136458   -0.398764
   69          1             0        4.538605    1.477507   -2.683695
   70          1             0        5.560329    0.044256   -2.818428
   71          1             0        3.151820   -0.566722   -2.690019
   72          1             0        4.053757   -1.207390   -1.320151
   73          1             0        1.820013   -0.516521    1.693657
   74          1             0       -0.670848   -0.878503    1.792428
   75          1             0       -0.421995   -2.497409    1.139658
   76          1             0        0.798322   -1.449438    3.732184
   77          1             0       -0.594741   -2.527881    3.614010
   78          1             0        1.507040   -3.800084    4.053838
   79          1             0        0.788500   -4.240077    2.500794
   80          1             0        3.219876   -3.919196    2.237776
   81          1             0        3.100242   -2.295608    2.920989
   82          1             0        1.767935   -3.242358    0.338271
   83          1             0        3.192744   -2.211433    0.448094
   84          1             0        0.420936    0.987625    1.392254
   85          1             0        0.789518    2.356089    0.358209
 --------------------------------------------------------------------
     1 basis functions        1 primitive gaussians
     1 alpha electrons        1 beta electrons
 
 Harmonic frequencies (cm**-1), IR intensities (km*mol⁻¹),
 Raman scattering activities (A**4/amu), Raman depolarization ratios,
 reduced masses (AMU), force constants (mDyne/A) and normal coordinates:
                      1                      2                      3
                        a                      a                      a 
 Frequencies --    13.1911                24.5142                28.4748
 Red. masses --     9.9206                 9.3781                 8.8063
 Frc consts  --     0.0000                 0.0000                 0.0000
 IR Inten    --     0.1045                 0.0352                 0.6374
 Raman Activ --     0.0000                 0.0000                 0.0000
 Depolar     --     0.0000                 0.0000                 0.0000
 Atom AN      X      Y      Z        X      Y      Z        X      Y      Z
   1   6    -0.07   0.01  -0.02    -0.23   0.10  -0.27     0.51  -0.02  -0.20
   2   6    -0.03   0.02   0.02     0.07   0.08  -0.10     0.04   0.16  -0.19
   3   6    -0.01   0.07   0.01     0.32   0.29  -0.26    -0.31   0.04   0.08
   4   6    -0.02  -0.00   0.04     0.05   0.02  -0.01     0.01   0.09  -0.10
   5   6    -0.01  -0.04   0.06     0.04  -0.00   0.04     0.01   0.06  -0.04
   6   6     0.00  -0.03   0.06     0.02  -0.01   0.06    -0.00   0.01   0.03
   7   6    -0.01  -0.06   0.10     0.00  -0.01   0.12    -0.02  -0.01   0.10
   8   6     0.05  -0.16   0.14     0.07  -0.06   0.18     0.04  -0.03   0.15
   9   6    -0.09  -0.02   0.18    -0.06   0.03   0.19    -0.09  -0.02   0.13
  10   6     0.01   0.01   0.00     0.00  -0.01   0.02    -0.02  -0.01   0.02
  11   6     0.03   0.02  -0.08    -0.01  -0.01  -0.01    -0.03  -0.00   0.01
  12   6     0.01   0.10  -0.15    -0.00   0.01  -0.02    -0.03   0.01  -0.01
  13   6     0.02   0.11  -0.24    -0.01   0.02  -0.05    -0.04   0.02  -0.04
  14   6     0.06   0.04  -0.25    -0.03   0.00  -0.08    -0.04   0.01  -0.05
  15   6     0.08  -0.04  -0.18    -0.02  -0.02  -0.06    -0.03  -0.01  -0.02
  16   6     0.07  -0.05  -0.10    -0.01  -0.02  -0.02    -0.02  -0.02   0.00
  17   6     0.01   0.02   0.03     0.00  -0.02  -0.01    -0.01  -0.02   0.00
  18   6     0.04   0.07   0.06    -0.01  -0.04  -0.02    -0.00  -0.02   0.00
  19   6    -0.09  -0.06  -0.00    -0.06  -0.09  -0.06    -0.07  -0.09  -0.07
  20   6     0.27   0.12   0.02     0.06  -0.04  -0.02     0.13  -0.02  -0.00
  21  15    -0.05  -0.03   0.06     0.02  -0.01   0.01    -0.01  -0.03   0.01
  22   6    -0.00  -0.08  -0.07    -0.00   0.03   0.08    -0.02   0.01   0.03
  23   6    -0.02   0.05  -0.10    -0.02  -0.04   0.11    -0.05   0.03   0.04
  24   6    -0.00  -0.00  -0.19    -0.03  -0.00   0.18    -0.07   0.07   0.06
  25   6     0.00  -0.12  -0.09    -0.01   0.07   0.14    -0.04   0.11   0.06
  26   6     0.02  -0.26  -0.05     0.01   0.13   0.11    -0.01   0.08   0.06
  27   6     0.00  -0.21   0.03     0.02   0.09   0.05     0.02   0.03   0.04
  28   6    -0.01   0.05   0.06    -0.02  -0.05  -0.01     0.00  -0.03   0.00
  29   6    -0.03   0.07   0.05    -0.03  -0.04  -0.02     0.01  -0.10  -0.03
  30   6    -0.06   0.11   0.07    -0.04  -0.10  -0.04    -0.00  -0.13  -0.04
  31   6    -0.06   0.11   0.13    -0.07  -0.12  -0.08     0.04  -0.09  -0.06
  32   6    -0.04   0.09   0.15    -0.06  -0.12  -0.07     0.04  -0.02  -0.02
  33   6    -0.01   0.05   0.12    -0.04  -0.07  -0.05     0.05   0.01  -0.01
  34   6    -0.01   0.01   0.05     0.03  -0.00  -0.02    -0.01  -0.03   0.01
  35   1    -0.02   0.01  -0.01    -0.05   0.04  -0.10     0.15   0.01  -0.07
  36   1    -0.02  -0.01  -0.00    -0.12  -0.01  -0.04     0.22   0.02  -0.12
  37   1    -0.02   0.01  -0.01    -0.09   0.05  -0.13     0.17  -0.08   0.02
  38   1    -0.01   0.00   0.01     0.04  -0.00   0.02    -0.01   0.12  -0.13
  39   1    -0.00   0.02   0.00     0.08   0.12  -0.13    -0.07  -0.07   0.10
  40   1    -0.01   0.02  -0.00     0.10   0.10  -0.09    -0.08   0.03   0.00
  41   1     0.00   0.02   0.01     0.16   0.08  -0.04    -0.19   0.05   0.03
  42   1    -0.01  -0.02   0.02     0.02   0.00   0.02     0.00   0.02  -0.02
  43   1     0.00  -0.01   0.01    -0.01   0.00   0.03    -0.01  -0.00   0.03
  44   1     0.03  -0.06   0.02     0.03  -0.02   0.04     0.03  -0.01   0.04
  45   1     0.01  -0.05   0.05     0.02  -0.02   0.06     0.01  -0.01   0.06
  46   1     0.01  -0.05   0.06     0.02  -0.02   0.06     0.02  -0.01   0.05
  47   1    -0.03  -0.01   0.07    -0.02   0.01   0.08    -0.03  -0.01   0.06
  48   1    -0.04   0.01   0.04    -0.04   0.01   0.04    -0.04  -0.00   0.03
  49   1    -0.02  -0.01   0.07    -0.01   0.00   0.06    -0.02  -0.00   0.04
  50   1    -0.01   0.05  -0.04     0.00   0.01   0.00    -0.01   0.01   0.00
  51   1     0.00   0.05  -0.08    -0.00   0.01  -0.02    -0.01   0.01  -0.01
  52   1     0.02   0.01  -0.09    -0.01   0.00  -0.03    -0.02   0.00  -0.02
  53   1     0.03  -0.03  -0.06    -0.01  -0.01  -0.02    -0.01  -0.01  -0.01
  54   1     0.02  -0.03  -0.01    -0.00  -0.01  -0.00    -0.00  -0.01   0.01
  55   1    -0.01   0.05   0.06    -0.01   0.00  -0.00    -0.01   0.01   0.02
  56   1    -0.03  -0.00   0.01    -0.02  -0.02  -0.02    -0.02  -0.02  -0.02
  57   1    -0.01  -0.05  -0.03    -0.01  -0.04  -0.02    -0.01  -0.05  -0.03
  58   1    -0.07  -0.02   0.01    -0.03  -0.02  -0.02    -0.05  -0.02  -0.02
  59   1     0.11   0.05   0.02     0.02  -0.01  -0.00     0.05  -0.00   0.00
  60   1     0.09   0.03  -0.04     0.02  -0.02  -0.02     0.04  -0.01  -0.02
  61   1     0.09   0.04   0.03     0.02  -0.01   0.00     0.04  -0.00   0.02
  62   1     0.01  -0.04  -0.06    -0.00   0.02   0.04    -0.01   0.00   0.01
  63   1    -0.01   0.03   0.00    -0.00  -0.02   0.02    -0.01   0.01   0.01
  64   1    -0.01   0.04  -0.05    -0.01  -0.03   0.04    -0.02   0.00   0.01
  65   1    -0.00   0.03  -0.06    -0.01  -0.01   0.06    -0.03   0.03   0.02
  66   1     0.00  -0.01  -0.09    -0.01   0.01   0.07    -0.03   0.02   0.02
  67   1     0.00  -0.05  -0.05    -0.00   0.03   0.06    -0.02   0.04   0.02
  68   1    -0.00  -0.02   0.00     0.00   0.01   0.03    -0.00   0.04   0.02
  69   1     0.01  -0.09  -0.05     0.00   0.05   0.05    -0.01   0.02   0.01
  70   1     0.01  -0.10   0.01     0.01   0.05   0.03     0.01   0.03   0.02
  71   1     0.00  -0.09   0.02     0.01   0.04   0.01     0.01   0.00   0.01
  72   1    -0.00  -0.04   0.04     0.01   0.02   0.00     0.01   0.01   0.01
  73   1    -0.01   0.02   0.01    -0.00  -0.02   0.00    -0.01  -0.01   0.01
  74   1    -0.01   0.02   0.00    -0.00  -0.01   0.00    -0.01  -0.03  -0.01
  75   1    -0.00   0.02   0.02    -0.01  -0.00  -0.01     0.01  -0.03  -0.02
  76   1    -0.02   0.04   0.02    -0.00  -0.04  -0.00    -0.01  -0.04  -0.00
  77   1    -0.02   0.04   0.02    -0.01  -0.03  -0.01    -0.00  -0.05  -0.02
  78   1    -0.02   0.04   0.04    -0.02  -0.05  -0.03     0.01  -0.03  -0.02
  79   1    -0.01   0.03   0.04    -0.02  -0.02  -0.03     0.03  -0.03  -0.03
  80   1    -0.01   0.03   0.05    -0.02  -0.04  -0.03     0.02   0.00  -0.01
  81   1    -0.02   0.03   0.04    -0.01  -0.04  -0.01    -0.00  -0.00   0.00
  82   1     0.00   0.01   0.04    -0.02  -0.01  -0.02     0.03   0.00  -0.01
  83   1     0.00   0.01   0.04    -0.01  -0.02  -0.01     0.01   0.02   0.01
  84   1    -0.00   0.00   0.01     0.01   0.00  -0.01    -0.04  -0.02   0.01
  85   1    -0.00   0.01   0.02     0.01  -0.00  -0.01     0.02  -0.03   0.01
                      4                      5                      6
                        a                      a                      a 
 Frequencies --    39.3636                44.8778                51.8176
 Red. masses --     9.7312                10.1220                 9.6402
 Frc consts  --     0.0000                 0.0000                 0.0000
 IR Inten    --     0.1554                 0.0489                 0.5661
 Raman Activ --     0.0000                 0.0000                 0.0000
 Depolar     --     0.0000                 0.0000                 0.0000
 Atom AN      X      Y      Z        X      Y      Z        X      Y      Z
   1   6     0.20  -0.06   0.09    -0.06   0.08  -0.09     0.03  -0.02   0.08
   2   6     0.09  -0.06   0.01    -0.12   0.13  -0.06     0.05  -0.05   0.05
   3   6     0.02  -0.18   0.03    -0.20   0.17   0.02     0.09  -0.10   0.00
   4   6     0.06  -0.01  -0.05    -0.07   0.07  -0.01     0.02  -0.00   0.00
   5   6     0.06  -0.04   0.01    -0.06   0.04  -0.02     0.01   0.02   0.00
   6   6     0.03  -0.04   0.02    -0.03   0.02   0.00    -0.01   0.04  -0.02
   7   6     0.01  -0.04   0.08    -0.02  -0.03  -0.00    -0.02   0.06   0.00
   8   6     0.08  -0.11   0.13    -0.03  -0.04  -0.01     0.01   0.03   0.02
   9   6    -0.06   0.00   0.16    -0.04  -0.06  -0.03    -0.04   0.09   0.05
  10   6     0.02  -0.03  -0.03    -0.02   0.05   0.01    -0.02   0.04  -0.04
  11   6     0.04  -0.02  -0.05     0.04   0.04   0.01    -0.00   0.04  -0.01
  12   6     0.07  -0.02  -0.03     0.07   0.07   0.02     0.04   0.02   0.04
  13   6     0.11  -0.02  -0.03     0.21   0.03   0.09     0.18  -0.03   0.16
  14   6     0.11  -0.05  -0.04     0.30  -0.02   0.14     0.26  -0.04   0.24
  15   6     0.08  -0.06  -0.06     0.22  -0.03   0.10     0.16  -0.01   0.15
  16   6     0.05  -0.05  -0.06     0.09  -0.00   0.04     0.03   0.03   0.03
  17   6    -0.00  -0.00  -0.09    -0.02   0.07   0.04    -0.01   0.02  -0.04
  18   6    -0.05  -0.05  -0.13     0.00   0.09   0.06     0.01   0.02  -0.04
  19   6    -0.02  -0.01  -0.07    -0.03   0.06   0.03    -0.04  -0.02  -0.07
  20   6    -0.18  -0.07  -0.11     0.07   0.12   0.04     0.10   0.02  -0.04
  21  15     0.02   0.04  -0.08    -0.06   0.09   0.04    -0.05  -0.01  -0.06
  22   6    -0.00   0.06   0.03    -0.01   0.02   0.02    -0.02  -0.04  -0.06
  23   6     0.03  -0.08   0.05     0.08  -0.16   0.01    -0.13   0.18  -0.07
  24   6     0.06  -0.08   0.12     0.16  -0.25   0.04    -0.18   0.23  -0.13
  25   6     0.02  -0.01   0.04     0.05  -0.27  -0.06    -0.06   0.15   0.05
  26   6    -0.01   0.14   0.01    -0.06  -0.05  -0.08     0.06  -0.14   0.08
  27   6    -0.03   0.14  -0.06    -0.13   0.04  -0.11     0.10  -0.16   0.14
  28   6    -0.07   0.04  -0.03    -0.03  -0.00   0.00    -0.03  -0.02  -0.03
  29   6    -0.09   0.20   0.04    -0.02   0.02   0.04    -0.04   0.04  -0.03
  30   6    -0.07   0.29   0.07     0.03  -0.06   0.00    -0.07  -0.04  -0.06
  31   6    -0.20   0.19   0.11    -0.04  -0.10  -0.10    -0.18  -0.12  -0.14
  32   6    -0.19  -0.01   0.01    -0.06  -0.13  -0.14    -0.15  -0.17  -0.11
  33   6    -0.20  -0.07  -0.01    -0.09  -0.04  -0.10    -0.09  -0.06  -0.07
  34   6     0.05   0.05  -0.14    -0.05   0.04   0.06     0.01   0.02  -0.05
  35   1     0.05  -0.03   0.04    -0.02   0.03  -0.04     0.01  -0.01   0.03
  36   1     0.08   0.00   0.01    -0.01   0.02  -0.04     0.01  -0.00   0.03
  37   1     0.07  -0.02   0.05    -0.01   0.01  -0.01     0.01   0.00   0.02
  38   1     0.02  -0.01  -0.01    -0.04   0.05  -0.04     0.02  -0.02   0.03
  39   1     0.01  -0.06   0.02    -0.05   0.04   0.03     0.02  -0.02  -0.01
  40   1     0.01  -0.07   0.02    -0.06   0.06  -0.01     0.03  -0.04   0.01
  41   1    -0.02  -0.06  -0.01    -0.07   0.06   0.02     0.03  -0.03  -0.01
  42   1     0.02  -0.02   0.02    -0.02   0.01  -0.01     0.01   0.01   0.01
  43   1     0.00  -0.01   0.01     0.00  -0.01   0.00    -0.01   0.02  -0.01
  44   1     0.04  -0.04   0.02    -0.01  -0.01  -0.00     0.01   0.01   0.00
  45   1     0.02  -0.03   0.05    -0.01  -0.02  -0.00     0.00   0.01   0.01
  46   1     0.03  -0.04   0.05    -0.01  -0.01  -0.00     0.00   0.01   0.01
  47   1    -0.02  -0.00   0.06    -0.01  -0.03  -0.01    -0.02   0.03   0.03
  48   1    -0.03   0.02   0.04    -0.00  -0.02  -0.00    -0.02   0.03   0.01
  49   1    -0.02  -0.01   0.06    -0.03  -0.02  -0.01    -0.00   0.02   0.02
  50   1     0.02  -0.00  -0.01    -0.00   0.03  -0.01    -0.01   0.01  -0.01
  51   1     0.04  -0.00  -0.01     0.07   0.01   0.03     0.07  -0.01   0.06
  52   1     0.04  -0.01  -0.01     0.12  -0.01   0.06     0.11  -0.02   0.10
  53   1     0.03  -0.02  -0.02     0.08  -0.02   0.04     0.06  -0.00   0.05
  54   1     0.01  -0.02  -0.02     0.01  -0.00   0.00    -0.01   0.02  -0.01
  55   1    -0.01  -0.03  -0.06    -0.00   0.03   0.03    -0.00   0.02   0.00
  56   1    -0.02  -0.01  -0.03    -0.01   0.02   0.01    -0.01  -0.00  -0.02
  57   1    -0.01   0.01   0.01    -0.00   0.01  -0.00    -0.00  -0.02  -0.03
  58   1     0.02   0.00  -0.02    -0.02   0.02   0.01    -0.03  -0.01  -0.02
  59   1    -0.08  -0.03  -0.04     0.03   0.04   0.02     0.04   0.01  -0.01
  60   1    -0.06  -0.02  -0.00     0.02   0.03  -0.00     0.03   0.00  -0.03
  61   1    -0.05  -0.02  -0.05     0.02   0.03   0.02     0.03   0.01   0.00
  62   1    -0.00   0.03   0.04     0.00   0.02   0.04     0.00  -0.04  -0.07
  63   1     0.00  -0.04  -0.01     0.00  -0.07  -0.02    -0.03   0.08   0.02
  64   1     0.02  -0.04   0.03     0.05  -0.04   0.02    -0.06   0.06  -0.05
  65   1     0.02  -0.05   0.04     0.07  -0.11   0.01    -0.08   0.12  -0.04
  66   1     0.02  -0.01   0.06     0.07  -0.05   0.04    -0.07   0.03  -0.09
  67   1     0.01  -0.00   0.03     0.03  -0.10  -0.01    -0.03   0.05  -0.00
  68   1     0.00  -0.02  -0.02    -0.01  -0.11  -0.05    -0.00   0.08   0.07
  69   1     0.00   0.06   0.03     0.00   0.01   0.01     0.01  -0.08  -0.03
  70   1    -0.01   0.06  -0.02    -0.04  -0.01  -0.05     0.04  -0.06   0.07
  71   1    -0.01   0.07  -0.02    -0.06   0.06  -0.03     0.05  -0.11   0.04
  72   1    -0.02   0.02  -0.05    -0.06  -0.01  -0.07     0.04  -0.01   0.10
  73   1     0.01  -0.00  -0.02     0.01  -0.01   0.00     0.01  -0.01  -0.01
  74   1    -0.01   0.08   0.00     0.00   0.01   0.03     0.00   0.02   0.00
  75   1    -0.05   0.06   0.04    -0.02   0.02   0.01    -0.03   0.03  -0.02
  76   1     0.01   0.09  -0.01     0.03  -0.03   0.00     0.00  -0.03  -0.01
  77   1    -0.02   0.12   0.04     0.01  -0.01   0.01    -0.03   0.01  -0.02
  78   1    -0.05   0.07   0.04    -0.00  -0.05  -0.04    -0.06  -0.06  -0.05
  79   1    -0.09   0.06   0.06    -0.03  -0.01  -0.04    -0.07  -0.01  -0.06
  80   1    -0.09  -0.03   0.01    -0.03  -0.05  -0.06    -0.06  -0.06  -0.05
  81   1    -0.02  -0.01  -0.02     0.00  -0.06  -0.04    -0.03  -0.07  -0.02
  82   1    -0.09  -0.02   0.02    -0.05   0.01  -0.03    -0.03   0.00  -0.04
  83   1    -0.06  -0.05  -0.02    -0.03  -0.02  -0.04    -0.02  -0.02  -0.01
  84   1     0.05   0.03  -0.05    -0.03   0.01   0.02     0.02   0.01  -0.02
  85   1    -0.00   0.02  -0.06    -0.00   0.01   0.03    -0.01   0.01  -0.02
                      7                      8                      9
                        a                      a                      a 
 Frequencies --    59.1761                66.1856                71.7717
 Red. masses --    10.1803                 9.1429                 9.8360
 Frc consts  --     0.0000                 0.0000                 0.0000
 IR Inten    --     0.0982                 0.5485                 0.0244
 Raman Activ --     0.0000                 0.0000                 0.0000
 Depolar     --     0.0000                 0.0000                 0.0000
 Atom AN      X      Y      Z        X      Y      Z        X      Y      Z
   1   6     0.01  -0.02   0.01     0.01  -0.05   0.05     0.01  -0.05   0.04
   2   6     0.02  -0.02   0.03     0.04  -0.07   0.03     0.04  -0.07   0.03
   3   6     0.03   0.00   0.02     0.11  -0.11  -0.04     0.09  -0.10  -0.02
   4   6     0.03  -0.02   0.03    -0.01  -0.02  -0.01    -0.01  -0.03   0.01
   5   6     0.03   0.00  -0.00    -0.02   0.03  -0.03    -0.02   0.01  -0.01
   6   6     0.03   0.01  -0.02    -0.05   0.06  -0.06    -0.04   0.04  -0.03
   7   6     0.04   0.03  -0.06    -0.07   0.15  -0.06    -0.04   0.02  -0.01
   8   6    -0.00   0.07  -0.09    -0.01  -0.05  -0.02    -0.04   0.12  -0.01
   9   6     0.08   0.01  -0.10    -0.12   0.35   0.17    -0.03  -0.06  -0.10
  10   6     0.03  -0.00   0.01    -0.07   0.02  -0.06    -0.04   0.04  -0.05
  11   6     0.02  -0.00   0.00    -0.07   0.03  -0.06    -0.04   0.03  -0.01
  12   6     0.03   0.00   0.01     0.05   0.00   0.03    -0.11   0.05  -0.06
  13   6     0.02   0.00  -0.01     0.18  -0.03   0.12    -0.08   0.04  -0.03
  14   6     0.00   0.01  -0.02     0.19  -0.04   0.12     0.01   0.03   0.06
  15   6    -0.01   0.01  -0.03     0.02  -0.00  -0.01     0.07   0.02   0.10
  16   6     0.00   0.00  -0.02    -0.10   0.03  -0.10     0.03   0.03   0.06
  17   6     0.05  -0.03   0.05    -0.04  -0.02  -0.04    -0.03   0.00  -0.04
  18   6     0.10  -0.02   0.06     0.01  -0.03  -0.03     0.03   0.06   0.00
  19   6     0.03  -0.09  -0.04    -0.03  -0.07  -0.09    -0.11  -0.08  -0.11
  20   6     0.28  -0.02   0.05     0.11  -0.03  -0.04     0.33   0.10  -0.04
  21  15     0.02  -0.11   0.16    -0.04  -0.05   0.01    -0.13  -0.07  -0.12
  22   6    -0.02  -0.04   0.05    -0.04  -0.00   0.02    -0.06  -0.05   0.00
  23   6     0.09  -0.10  -0.00    -0.00  -0.09   0.02    -0.11  -0.11   0.05
  24   6    -0.06   0.07  -0.09     0.02  -0.11   0.05    -0.11  -0.07   0.15
  25   6    -0.11   0.29  -0.31    -0.03  -0.07  -0.03    -0.06  -0.01   0.15
  26   6    -0.25   0.27  -0.23    -0.08   0.06  -0.04    -0.01   0.05   0.10
  27   6    -0.07   0.09  -0.10    -0.09   0.06  -0.07    -0.01   0.01   0.01
  28   6    -0.01  -0.04   0.11    -0.04   0.00   0.01    -0.06  -0.08  -0.10
  29   6    -0.03   0.03   0.11    -0.04  -0.16  -0.10     0.02  -0.03   0.07
  30   6    -0.06  -0.01   0.10    -0.12  -0.13  -0.08     0.23   0.15   0.10
  31   6    -0.14  -0.08   0.07     0.10   0.03   0.04     0.25   0.16   0.13
  32   6    -0.12  -0.15   0.07     0.11   0.24   0.17     0.13   0.05  -0.14
  33   6    -0.08  -0.09   0.09     0.14   0.13   0.12    -0.10  -0.11  -0.15
  34   6     0.03  -0.03   0.06    -0.03  -0.04  -0.03    -0.02  -0.05  -0.00
  35   1     0.00  -0.00  -0.00     0.01  -0.02   0.02     0.01  -0.02   0.01
  36   1     0.00  -0.01   0.00    -0.01  -0.01   0.03    -0.01  -0.01   0.02
  37   1     0.00  -0.01   0.00    -0.01  -0.01  -0.00    -0.00  -0.01  -0.00
  38   1     0.01  -0.01   0.01     0.02  -0.02   0.03     0.02  -0.02   0.02
  39   1     0.01   0.00   0.01     0.02  -0.03  -0.03     0.02  -0.02  -0.02
  40   1     0.01   0.00   0.00     0.04  -0.04  -0.00     0.03  -0.04   0.00
  41   1     0.01   0.00   0.01     0.04  -0.04  -0.02     0.03  -0.03  -0.01
  42   1     0.01   0.00  -0.01    -0.00   0.01  -0.01    -0.00   0.01   0.00
  43   1     0.01   0.01  -0.01    -0.03   0.07  -0.07    -0.01  -0.01   0.02
  44   1    -0.01   0.03  -0.02     0.00  -0.06  -0.04    -0.01   0.05   0.01
  45   1     0.00   0.02  -0.03    -0.01   0.01  -0.02    -0.01   0.02   0.01
  46   1    -0.00   0.02  -0.03     0.01  -0.03   0.05    -0.02   0.04  -0.03
  47   1     0.02   0.01  -0.03    -0.04   0.13   0.07    -0.01  -0.02  -0.02
  48   1     0.02  -0.01  -0.03    -0.07   0.14   0.03    -0.02  -0.05  -0.03
  49   1     0.04   0.01  -0.04    -0.01   0.08   0.10     0.00  -0.01  -0.05
  50   1     0.01   0.00   0.01     0.01   0.00   0.00    -0.05   0.02  -0.04
  51   1     0.01   0.00  -0.00     0.08  -0.02   0.06    -0.04   0.01  -0.02
  52   1    -0.00   0.00  -0.01     0.09  -0.02   0.06     0.01   0.01   0.03
  53   1    -0.01   0.00  -0.01    -0.00  -0.00  -0.01     0.04   0.00   0.05
  54   1    -0.00   0.00  -0.01    -0.06   0.01  -0.05     0.02   0.01   0.02
  55   1     0.02   0.02   0.04    -0.00   0.00   0.00    -0.01   0.05   0.05
  56   1     0.02  -0.02  -0.00    -0.00  -0.02  -0.02    -0.02  -0.01  -0.01
  57   1     0.02  -0.05  -0.04    -0.00  -0.03  -0.04    -0.01  -0.06  -0.08
  58   1    -0.03  -0.03  -0.01    -0.03  -0.02  -0.03    -0.09  -0.04  -0.02
  59   1     0.11  -0.00   0.02     0.05  -0.01  -0.01     0.15   0.04   0.00
  60   1     0.09  -0.01  -0.02     0.03  -0.01  -0.03     0.11   0.03  -0.08
  61   1     0.08  -0.00   0.04     0.03  -0.01   0.01     0.10   0.03   0.03
  62   1    -0.03  -0.00   0.04    -0.02   0.01   0.03    -0.01  -0.01   0.01
  63   1     0.07  -0.03  -0.04    -0.01  -0.04  -0.01    -0.03  -0.04   0.00
  64   1     0.04  -0.06   0.04     0.01  -0.03   0.02    -0.04  -0.05   0.02
  65   1     0.02   0.01  -0.04     0.02  -0.06   0.02    -0.04  -0.03   0.05
  66   1    -0.07   0.02   0.02     0.01  -0.02   0.04    -0.03  -0.01   0.05
  67   1    -0.08   0.13  -0.12    -0.00  -0.02   0.00    -0.02   0.01   0.06
  68   1     0.03   0.09  -0.13    -0.02  -0.04  -0.03    -0.02  -0.01   0.03
  69   1    -0.13   0.07  -0.03    -0.02   0.03   0.01    -0.00   0.02   0.04
  70   1    -0.08   0.12  -0.11    -0.03   0.03  -0.03     0.01   0.03   0.03
  71   1    -0.05   0.01  -0.01    -0.04   0.04  -0.02     0.01   0.01  -0.01
  72   1     0.03   0.04  -0.05    -0.03   0.00  -0.05    -0.00  -0.00  -0.01
  73   1     0.01  -0.02   0.03    -0.05   0.02   0.02     0.01  -0.03  -0.04
  74   1     0.00   0.02   0.04    -0.04  -0.07  -0.05     0.00  -0.01   0.02
  75   1    -0.02   0.02   0.03     0.03  -0.06  -0.05    -0.01  -0.03   0.06
  76   1     0.00  -0.02   0.03    -0.09  -0.02  -0.00     0.09   0.07  -0.02
  77   1    -0.02   0.01   0.03    -0.04  -0.09  -0.06     0.09   0.06   0.08
  78   1    -0.05  -0.03   0.02     0.02   0.03   0.02     0.12   0.10   0.05
  79   1    -0.06  -0.01   0.01     0.09  -0.02   0.00     0.05   0.02   0.10
  80   1    -0.05  -0.06   0.01     0.08   0.10   0.08     0.03   0.01  -0.04
  81   1    -0.02  -0.06   0.03    -0.03   0.10   0.06     0.07   0.03  -0.09
  82   1    -0.04  -0.01   0.02     0.08   0.01   0.03    -0.07  -0.05   0.00
  83   1    -0.02  -0.04   0.03     0.04   0.07   0.05    -0.05  -0.05  -0.10
  84   1     0.00  -0.01   0.02    -0.02  -0.02  -0.01    -0.01  -0.03  -0.01
  85   1     0.01  -0.01   0.02    -0.00  -0.02  -0.00    -0.00  -0.02   0.01
                     10                     11                     12
                        a                      a                      a 
 Frequencies --    75.2660                81.3215                99.3500
 Red. masses --     9.9522                 8.6265                10.5410
 Frc consts  --     0.0000                 0.0000                 0.0000
 IR Inten    --     0.0178                 0.5301                 0.2837
 Raman Activ --     0.0000                 0.0000                 0.0000
 Depolar     --     0.0000                 0.0000                 0.0000
 Atom AN      X      Y      Z        X      Y      Z        X      Y      Z
   1   6    -0.15   0.01   0.15    -0.04   0.01  -0.10     0.01   0.03   0.06
   2   6    -0.11  -0.05   0.07    -0.07   0.05  -0.06     0.01   0.01   0.02
   3   6    -0.14  -0.08   0.09    -0.13   0.12   0.01     0.02  -0.04  -0.01
   4   6    -0.04   0.00  -0.01    -0.02  -0.01  -0.00    -0.01   0.05  -0.02
   5   6    -0.02  -0.01  -0.04    -0.01  -0.01  -0.03    -0.01   0.05  -0.01
   6   6     0.01   0.00  -0.06     0.01   0.00  -0.05    -0.04   0.03   0.02
   7   6     0.01  -0.01  -0.05     0.02   0.07  -0.15    -0.06   0.09   0.03
   8   6     0.06  -0.19  -0.01     0.01  -0.30  -0.17    -0.05   0.25   0.04
   9   6    -0.11   0.09   0.12    -0.02   0.38   0.18     0.00   0.05  -0.04
  10   6     0.04   0.01  -0.02     0.01  -0.01  -0.01    -0.05  -0.01   0.05
  11   6     0.02   0.00   0.04     0.01  -0.01  -0.01    -0.02   0.00  -0.00
  12   6    -0.01  -0.08   0.08     0.02  -0.03   0.00     0.15   0.03   0.07
  13   6    -0.16  -0.05   0.08     0.00  -0.03   0.01     0.22   0.04  -0.01
  14   6    -0.25   0.04   0.06    -0.03  -0.01  -0.00     0.08  -0.01  -0.19
  15   6    -0.17   0.11   0.07    -0.04   0.01  -0.03    -0.09  -0.04  -0.28
  16   6    -0.03   0.08   0.07    -0.02   0.01  -0.04    -0.13  -0.05  -0.16
  17   6     0.03   0.03  -0.02     0.02  -0.02   0.03    -0.06  -0.00  -0.00
  18   6     0.04  -0.04  -0.07     0.04  -0.00   0.04    -0.08  -0.11  -0.08
  19   6    -0.11  -0.19  -0.23     0.15   0.10   0.10    -0.08  -0.11  -0.13
  20   6     0.28  -0.12  -0.02    -0.12   0.01   0.04    -0.10  -0.18  -0.03
  21  15     0.11   0.12   0.03    -0.02  -0.07  -0.00    -0.05   0.04   0.19
  22   6     0.06   0.09  -0.01     0.01  -0.08   0.01    -0.04   0.04   0.07
  23   6     0.09   0.06  -0.02    -0.01  -0.03   0.01    -0.01   0.09   0.03
  24   6     0.15  -0.02  -0.00    -0.08   0.05  -0.02     0.01   0.02  -0.04
  25   6     0.11  -0.09   0.01    -0.04   0.09  -0.02    -0.02  -0.08  -0.01
  26   6     0.09  -0.00  -0.01    -0.02  -0.02   0.01    -0.05  -0.10   0.02
  27   6     0.03   0.07  -0.03     0.04  -0.09   0.05    -0.09  -0.03   0.07
  28   6     0.08   0.08   0.02     0.00  -0.08  -0.02     0.02   0.04   0.12
  29   6     0.06   0.13   0.02     0.05   0.01   0.12     0.07   0.05   0.23
  30   6     0.05   0.02  -0.02     0.20   0.10   0.12     0.22  -0.06   0.16
  31   6    -0.05  -0.06  -0.12     0.13   0.05   0.10     0.16  -0.10  -0.02
  32   6    -0.02  -0.10  -0.09     0.06  -0.10  -0.11     0.11  -0.10  -0.11
  33   6     0.02   0.04  -0.04    -0.09  -0.14  -0.09    -0.01   0.03  -0.03
  34   6    -0.00   0.09  -0.05    -0.00  -0.03   0.05    -0.02   0.07  -0.07
  35   1    -0.08   0.00   0.05    -0.02   0.01  -0.04    -0.01   0.01   0.02
  36   1    -0.03  -0.01   0.03    -0.00  -0.00  -0.04     0.01   0.01   0.01
  37   1    -0.03   0.03   0.07    -0.01  -0.00  -0.02     0.01   0.02   0.02
  38   1    -0.04  -0.03   0.01    -0.03   0.02  -0.04     0.00   0.00   0.01
  39   1    -0.03  -0.00   0.03    -0.03   0.02   0.02     0.00  -0.01  -0.01
  40   1    -0.06  -0.03   0.04    -0.04   0.05  -0.01     0.01  -0.02   0.01
  41   1    -0.04  -0.03   0.01    -0.05   0.05   0.02     0.01  -0.02  -0.01
  42   1    -0.01  -0.01  -0.01    -0.01  -0.00  -0.02    -0.00   0.02  -0.01
  43   1     0.01   0.01  -0.05     0.02   0.06  -0.12    -0.04   0.02   0.03
  44   1     0.04  -0.07  -0.02    -0.01  -0.18  -0.11    -0.02   0.09   0.03
  45   1     0.02  -0.07  -0.00    -0.00  -0.04  -0.10    -0.02   0.07   0.03
  46   1     0.00  -0.07   0.02     0.02  -0.12   0.05    -0.01   0.08  -0.02
  47   1    -0.04   0.03   0.06    -0.01   0.13   0.04    -0.01   0.04   0.01
  48   1    -0.06   0.05   0.01    -0.01   0.20   0.04    -0.01  -0.03  -0.02
  49   1    -0.02   0.01   0.06    -0.01   0.08   0.14     0.03   0.02  -0.04
  50   1     0.02  -0.04   0.03     0.01  -0.01  -0.00     0.06   0.02   0.05
  51   1    -0.06  -0.03   0.03     0.00  -0.01   0.01     0.11   0.02   0.02
  52   1    -0.11   0.02   0.01    -0.01  -0.00   0.00     0.03   0.00  -0.08
  53   1    -0.06   0.05   0.02    -0.02   0.01  -0.01    -0.06  -0.02  -0.12
  54   1     0.01   0.04   0.02    -0.01   0.01  -0.02    -0.07  -0.03  -0.06
  55   1    -0.01   0.03   0.00     0.02  -0.03  -0.00    -0.02  -0.03  -0.04
  56   1    -0.04  -0.06  -0.07     0.05   0.03   0.03    -0.03  -0.05  -0.05
  57   1    -0.01  -0.10  -0.09     0.03   0.06   0.04    -0.02  -0.04  -0.03
  58   1    -0.08  -0.04  -0.07     0.07   0.03   0.03    -0.02  -0.02  -0.05
  59   1     0.10  -0.05  -0.01    -0.05   0.00   0.01    -0.05  -0.06  -0.02
  60   1     0.09  -0.06  -0.04    -0.04   0.01   0.04    -0.02  -0.06   0.01
  61   1     0.09  -0.02   0.04    -0.04  -0.01  -0.01    -0.02  -0.04  -0.01
  62   1     0.02   0.03   0.00     0.01  -0.03  -0.01    -0.01   0.00   0.01
  63   1     0.01   0.01  -0.00     0.02  -0.00   0.00    -0.01   0.03   0.02
  64   1     0.03   0.03  -0.01    -0.01  -0.02   0.00     0.00   0.04   0.00
  65   1     0.05  -0.02   0.00    -0.02   0.03  -0.01     0.01   0.02  -0.02
  66   1     0.06   0.00  -0.00    -0.04   0.00  -0.01     0.01   0.00  -0.03
  67   1     0.05  -0.04   0.01    -0.03   0.05  -0.02     0.00  -0.04  -0.01
  68   1     0.01  -0.04   0.00     0.02   0.04   0.00    -0.02  -0.02   0.01
  69   1     0.05   0.01   0.00    -0.02  -0.02  -0.01    -0.00  -0.03  -0.01
  70   1     0.02  -0.01  -0.00     0.01  -0.00   0.01    -0.03  -0.05   0.01
  71   1     0.01   0.04  -0.01     0.02  -0.05   0.02    -0.03  -0.01   0.03
  72   1    -0.01   0.01  -0.02     0.03  -0.01   0.03    -0.03  -0.01   0.03
  73   1     0.03   0.01   0.01     0.03  -0.03  -0.02     0.02   0.01   0.03
  74   1     0.03   0.05   0.02     0.02   0.01   0.04     0.03   0.02   0.10
  75   1     0.00   0.05  -0.00    -0.01  -0.00   0.06    -0.01   0.03   0.06
  76   1     0.04  -0.02   0.01     0.09   0.04   0.00     0.10  -0.03   0.04
  77   1     0.01   0.02  -0.00     0.07   0.05   0.08     0.08  -0.01   0.07
  78   1    -0.02  -0.05  -0.05     0.07   0.03   0.03     0.07  -0.05  -0.02
  79   1    -0.04   0.01  -0.06     0.00   0.01   0.07     0.02  -0.01  -0.01
  80   1    -0.03  -0.04  -0.05    -0.01  -0.05  -0.04     0.02  -0.03  -0.07
  81   1     0.01  -0.05  -0.01     0.06  -0.03  -0.06     0.06  -0.05  -0.03
  82   1    -0.00   0.03  -0.03    -0.06  -0.04   0.00    -0.03   0.02  -0.01
  83   1     0.01   0.01  -0.00    -0.04  -0.06  -0.06    -0.02   0.01  -0.03
  84   1     0.03   0.04  -0.02    -0.01  -0.01   0.02     0.02   0.04  -0.02
  85   1    -0.02   0.05  -0.03     0.01  -0.01   0.02    -0.02   0.03  -0.05
                     13                     14                     15
                        a                      a                      a 
 Frequencies --   104.4427               118.6301               134.0741
 Red. masses --    10.2213                 9.6227                 9.1801
 Frc consts  --     0.0000                 0.0000                 0.0000
 IR Inten    --     0.4794                 0.5204                 0.4004
 Raman Activ --     0.0000                 0.0000                 0.0000
 Depolar     --     0.0000                 0.0000                 0.0000
 Atom AN      X      Y      Z        X      Y      Z        X      Y      Z
   1   6     0.07  -0.15  -0.19     0.27  -0.12  -0.12     0.08   0.01   0.00
   2   6     0.02  -0.02   0.00     0.17  -0.02  -0.02     0.05  -0.02  -0.05
   3   6     0.00   0.12   0.06     0.27  -0.10  -0.14     0.15  -0.18  -0.18
   4   6    -0.01  -0.14   0.15    -0.03  -0.03   0.03    -0.06   0.06  -0.11
   5   6    -0.01  -0.13   0.17    -0.04  -0.03   0.08    -0.07   0.16  -0.24
   6   6    -0.03  -0.07   0.08    -0.03  -0.01   0.04    -0.06   0.09  -0.15
   7   6    -0.03   0.06  -0.01     0.03  -0.05  -0.13    -0.06  -0.06  -0.04
   8   6    -0.12   0.15  -0.08    -0.13  -0.27  -0.28     0.08  -0.13   0.07
   9   6     0.11   0.12  -0.03     0.06   0.02  -0.09    -0.32  -0.20  -0.05
  10   6    -0.03  -0.08   0.06    -0.02   0.01   0.04    -0.04   0.01  -0.02
  11   6    -0.05  -0.06   0.03     0.01   0.00   0.05    -0.03   0.01   0.03
  12   6     0.07  -0.08   0.11    -0.06   0.04  -0.02     0.09  -0.03   0.13
  13   6     0.12  -0.09   0.12    -0.09   0.06  -0.07     0.11  -0.03   0.15
  14   6     0.01  -0.08   0.01    -0.02   0.03  -0.02    -0.06   0.01   0.01
  15   6    -0.15  -0.05  -0.11     0.08  -0.02   0.08    -0.19   0.05  -0.11
  16   6    -0.17  -0.05  -0.09     0.08  -0.03   0.10    -0.14   0.04  -0.07
  17   6    -0.03  -0.06   0.08    -0.04   0.02   0.00    -0.01  -0.01   0.04
  18   6    -0.07   0.01   0.14    -0.07   0.04   0.01     0.01   0.10   0.13
  19   6    -0.20  -0.11   0.12    -0.12  -0.01   0.02     0.02   0.11   0.15
  20   6     0.09   0.05   0.11    -0.01   0.06  -0.00     0.04   0.15   0.09
  21  15     0.10   0.07  -0.13    -0.05   0.09   0.13     0.05   0.05   0.02
  22   6     0.04   0.10  -0.08    -0.07   0.11   0.02     0.05   0.02   0.03
  23   6     0.03   0.09  -0.07    -0.05   0.13   0.01     0.08   0.03   0.01
  24   6     0.09   0.03  -0.03     0.03   0.02  -0.01     0.07   0.02  -0.03
  25   6     0.09  -0.04   0.03    -0.02  -0.11   0.04     0.06   0.03  -0.05
  26   6     0.12   0.01  -0.01    -0.04  -0.02   0.02     0.03  -0.02  -0.02
  27   6     0.05   0.08  -0.06    -0.12   0.08  -0.00     0.04  -0.01   0.04
  28   6     0.05  -0.01  -0.11     0.01   0.11   0.12     0.01  -0.02  -0.00
  29   6     0.02   0.07  -0.12     0.02   0.10   0.13     0.00  -0.01   0.01
  30   6    -0.02   0.18  -0.08     0.03  -0.05   0.08     0.03   0.04   0.02
  31   6    -0.08   0.13   0.02    -0.03  -0.09  -0.07     0.00   0.02   0.04
  32   6    -0.06  -0.01  -0.03    -0.01  -0.03  -0.00    -0.01  -0.05  -0.02
  33   6    -0.02  -0.06  -0.06     0.01   0.12   0.05    -0.03  -0.04  -0.02
  34   6    -0.02  -0.13   0.13    -0.04  -0.00  -0.01    -0.06  -0.11   0.10
  35   1     0.04  -0.02  -0.09     0.14  -0.03  -0.05     0.10  -0.03   0.02
  36   1     0.02  -0.06  -0.06     0.06  -0.00  -0.01    -0.01   0.06   0.06
  37   1     0.01  -0.08  -0.06     0.05  -0.08  -0.07    -0.01  -0.02  -0.06
  38   1     0.01   0.02  -0.01     0.07   0.03   0.02     0.03   0.00   0.02
  39   1    -0.00  -0.01   0.02     0.06  -0.05  -0.07     0.03  -0.03  -0.08
  40   1     0.02   0.07  -0.03     0.12  -0.03  -0.04     0.06  -0.08  -0.02
  41   1    -0.01   0.06   0.06     0.08  -0.02  -0.03     0.06  -0.07  -0.08
  42   1    -0.00  -0.04   0.06    -0.01  -0.01   0.03    -0.02   0.07  -0.10
  43   1    -0.03   0.02  -0.01     0.05  -0.00  -0.07     0.00  -0.02  -0.00
  44   1    -0.06   0.04  -0.01    -0.09  -0.15  -0.11     0.09   0.02   0.03
  45   1    -0.04   0.06  -0.04    -0.04  -0.03  -0.15     0.04  -0.11   0.07
  46   1    -0.03   0.05  -0.03    -0.02  -0.10  -0.01    -0.03  -0.03  -0.01
  47   1     0.02   0.08   0.01     0.02  -0.00  -0.05    -0.07  -0.15  -0.02
  48   1     0.01  -0.01  -0.02     0.04   0.03  -0.02    -0.08  -0.01  -0.01
  49   1     0.09   0.03  -0.02    -0.00  -0.00   0.00    -0.18  -0.05  -0.01
  50   1     0.03  -0.02   0.05    -0.02   0.02  -0.01     0.04  -0.01   0.05
  51   1     0.07  -0.03   0.06    -0.05   0.03  -0.04     0.07  -0.02   0.07
  52   1     0.01  -0.02   0.00    -0.01   0.01  -0.02    -0.02   0.01  -0.00
  53   1    -0.08  -0.01  -0.06     0.04  -0.02   0.04    -0.09   0.03  -0.06
  54   1    -0.08  -0.01  -0.04     0.04  -0.01   0.04    -0.06   0.01  -0.03
  55   1    -0.04   0.04   0.06    -0.03   0.02   0.01     0.00   0.03   0.05
  56   1    -0.05  -0.00   0.06    -0.03   0.01   0.01    -0.00   0.02   0.04
  57   1    -0.04  -0.07  -0.02    -0.03  -0.02  -0.01    -0.00   0.04   0.06
  58   1    -0.11  -0.06   0.05    -0.05  -0.01   0.01     0.02   0.04   0.04
  59   1     0.02   0.03   0.04     0.01   0.02   0.00     0.01   0.05   0.03
  60   1     0.04  -0.01   0.01    -0.00   0.02  -0.01     0.02   0.03   0.02
  61   1     0.05   0.04   0.04    -0.00   0.02   0.01     0.02   0.05   0.02
  62   1     0.01   0.03  -0.03    -0.03   0.03   0.01     0.02   0.00   0.00
  63   1    -0.01   0.02  -0.02    -0.03   0.04   0.02     0.03   0.01   0.00
  64   1     0.01   0.04  -0.03    -0.01   0.06  -0.01     0.03   0.01   0.01
  65   1     0.02   0.01  -0.00     0.01   0.00  -0.00     0.03   0.01  -0.01
  66   1     0.04   0.01  -0.02     0.03   0.01  -0.02     0.02   0.01  -0.01
  67   1     0.04  -0.03   0.02     0.02  -0.06   0.02     0.01   0.01  -0.03
  68   1     0.00  -0.02   0.02    -0.05  -0.05   0.02     0.03   0.01  -0.01
  69   1     0.06   0.01  -0.00     0.01   0.01   0.01     0.00  -0.01  -0.01
  70   1     0.03  -0.01   0.01    -0.03  -0.02   0.01     0.00  -0.01  -0.01
  71   1     0.02   0.04  -0.03    -0.04   0.05  -0.00     0.01  -0.02   0.02
  72   1    -0.01   0.02  -0.02    -0.06   0.01  -0.01     0.02   0.00   0.02
  73   1     0.02  -0.01  -0.03     0.01   0.03   0.03     0.01  -0.01   0.00
  74   1     0.00   0.02  -0.06     0.01   0.03   0.06    -0.01  -0.01  -0.00
  75   1     0.01   0.01  -0.02    -0.01   0.05   0.02     0.00  -0.01   0.01
  76   1     0.00   0.06  -0.04     0.03  -0.04   0.04     0.02   0.02  -0.01
  77   1    -0.01   0.08  -0.02     0.01  -0.01   0.02     0.01   0.02   0.02
  78   1    -0.03   0.06   0.01    -0.02  -0.07  -0.03     0.01   0.02   0.01
  79   1    -0.04   0.03   0.03    -0.02   0.00  -0.06    -0.01   0.00   0.03
  80   1    -0.04  -0.02   0.01    -0.01  -0.01  -0.03    -0.02  -0.02  -0.01
  81   1     0.00  -0.00  -0.02    -0.00  -0.03   0.03     0.01  -0.02  -0.01
  82   1    -0.01  -0.02  -0.01     0.01   0.05  -0.01    -0.02  -0.01  -0.00
  83   1     0.00  -0.04  -0.02     0.01   0.05   0.03    -0.01  -0.02  -0.01
  84   1    -0.01  -0.04   0.03    -0.00  -0.00  -0.01    -0.08  -0.05   0.04
  85   1    -0.00  -0.04   0.04    -0.02   0.00  -0.00     0.02  -0.06   0.07
                     16                     17                     18
                        a                      a                      a 
 Frequencies --   150.3432               159.9469               162.6021
 Red. masses --    10.2493                 9.8132                 9.2504
 Frc consts  --     0.0000                 0.0000                 0.0000
 IR Inten    --     0.0580                 1.1028                 0.6485
 Raman Activ --     0.0000                 0.0000                 0.0000
 Depolar     --     0.0000                 0.0000                 0.0000
 Atom AN      X      Y      Z        X      Y      Z        X      Y      Z
   1   6     0.07   0.01   0.01    -0.01  -0.21  -0.19    -0.04  -0.06  -0.05
   2   6     0.05   0.04   0.05    -0.04  -0.11  -0.05    -0.00  -0.05  -0.01
   3   6     0.05   0.09   0.07    -0.03  -0.08  -0.04    -0.04   0.05   0.05
   4   6     0.05   0.01   0.08    -0.07  -0.15   0.03     0.07  -0.07   0.01
   5   6     0.06  -0.09   0.17    -0.06  -0.21   0.13     0.09  -0.06  -0.06
   6   6     0.09  -0.05   0.10    -0.07  -0.11   0.01     0.10  -0.01  -0.12
   7   6     0.13  -0.13   0.02    -0.12  -0.03   0.11     0.08   0.01  -0.04
   8   6     0.03  -0.22  -0.06    -0.09   0.12   0.15     0.23   0.05   0.09
   9   6     0.15  -0.17  -0.03    -0.02   0.01   0.10     0.01   0.02   0.01
  10   6     0.09   0.04   0.01    -0.06   0.00  -0.17     0.09  -0.02  -0.12
  11   6     0.12   0.04   0.01    -0.05  -0.01  -0.13     0.09  -0.03  -0.10
  12   6     0.20  -0.05   0.12    -0.05  -0.07  -0.09     0.07  -0.13  -0.05
  13   6     0.15  -0.05   0.18    -0.05  -0.09   0.02     0.01  -0.13   0.04
  14   6    -0.09   0.06   0.02    -0.03  -0.04   0.08    -0.06  -0.04   0.05
  15   6    -0.19   0.15  -0.11    -0.03   0.03   0.04    -0.06   0.06  -0.02
  16   6    -0.03   0.12  -0.07    -0.04   0.04  -0.07     0.04   0.05  -0.08
  17   6     0.04   0.10  -0.03    -0.05   0.01  -0.10     0.08  -0.01  -0.03
  18   6     0.03   0.06  -0.05     0.12   0.04  -0.05     0.06   0.07   0.03
  19   6    -0.02   0.02  -0.07     0.28   0.19  -0.02     0.07   0.09   0.10
  20   6     0.05   0.00  -0.02     0.09   0.10  -0.09     0.04   0.11   0.01
  21  15    -0.12   0.08  -0.03    -0.01   0.07   0.06    -0.05  -0.09   0.02
  22   6    -0.04  -0.06   0.05     0.06  -0.01   0.11    -0.17   0.09  -0.12
  23   6    -0.04  -0.06   0.05     0.11  -0.01   0.08    -0.25   0.12  -0.09
  24   6    -0.08  -0.03   0.01     0.10  -0.00   0.02    -0.18   0.03  -0.03
  25   6    -0.10   0.01  -0.04     0.06   0.05  -0.07    -0.16  -0.18   0.15
  26   6    -0.12  -0.07  -0.01    -0.02  -0.01  -0.00    -0.06   0.03   0.02
  27   6    -0.06  -0.10   0.07     0.04  -0.05   0.12    -0.21   0.15  -0.19
  28   6    -0.18   0.01  -0.05    -0.04   0.14   0.07     0.03   0.02   0.07
  29   6    -0.15  -0.06  -0.03    -0.02   0.13   0.11     0.04   0.04   0.10
  30   6    -0.08  -0.07  -0.05     0.05  -0.01   0.05     0.05  -0.01   0.08
  31   6     0.09   0.05  -0.05     0.02  -0.02  -0.12    -0.03  -0.06   0.01
  32   6     0.02   0.18  -0.11     0.02   0.07  -0.07    -0.00  -0.06   0.06
  33   6    -0.14   0.06  -0.11    -0.02   0.17  -0.01     0.04   0.03   0.08
  34   6     0.06   0.12  -0.04    -0.07  -0.05  -0.06     0.08  -0.06   0.02
  35   1    -0.00   0.02  -0.01     0.03  -0.04  -0.08    -0.03  -0.01  -0.02
  36   1     0.03  -0.01  -0.02    -0.02  -0.07  -0.05    -0.01  -0.03  -0.02
  37   1     0.03   0.01   0.03    -0.02  -0.09  -0.07    -0.00  -0.01  -0.00
  38   1     0.01   0.02   0.01    -0.01  -0.01  -0.01    -0.01  -0.02  -0.02
  39   1     0.01   0.01   0.02    -0.02  -0.06  -0.02    -0.01   0.01   0.03
  40   1     0.02   0.04   0.00     0.02  -0.00  -0.04    -0.02   0.03  -0.00
  41   1     0.01   0.04   0.04    -0.03  -0.00   0.02    -0.01   0.02   0.03
  42   1     0.01  -0.05   0.08    -0.02  -0.09   0.08     0.02  -0.02  -0.02
  43   1     0.06  -0.03  -0.00    -0.07  -0.01   0.04     0.01   0.00  -0.01
  44   1     0.01  -0.05  -0.01    -0.02   0.07   0.06     0.15   0.13   0.07
  45   1     0.03  -0.10  -0.04    -0.03   0.02   0.07     0.09  -0.10   0.10
  46   1    -0.03  -0.07  -0.02    -0.03   0.05   0.00    -0.01   0.03  -0.06
  47   1     0.05  -0.06  -0.03    -0.00   0.02   0.00    -0.00   0.01   0.04
  48   1     0.07  -0.05   0.00     0.02   0.00   0.04    -0.02   0.00  -0.01
  49   1     0.02  -0.04  -0.01     0.00  -0.00   0.04     0.02   0.01  -0.00
  50   1     0.08  -0.04   0.04    -0.01  -0.03  -0.03     0.03  -0.06  -0.02
  51   1     0.08  -0.04   0.09    -0.01  -0.05   0.02     0.00  -0.06   0.03
  52   1    -0.05   0.02   0.00    -0.00  -0.02   0.05    -0.03  -0.01   0.03
  53   1    -0.11   0.07  -0.06    -0.00   0.02   0.03    -0.03   0.04  -0.00
  54   1    -0.01   0.04  -0.03    -0.01   0.03  -0.03     0.02   0.03  -0.03
  55   1     0.00   0.03  -0.02     0.05  -0.03   0.00     0.01   0.03   0.01
  56   1    -0.01   0.01  -0.02     0.13   0.08   0.02     0.02   0.04   0.04
  57   1     0.00  -0.01  -0.03     0.07   0.10  -0.05     0.02   0.03   0.03
  58   1    -0.02   0.00  -0.02     0.08   0.02   0.02     0.03   0.01   0.04
  59   1    -0.01  -0.01  -0.02     0.06   0.03  -0.02     0.00   0.03   0.00
  60   1     0.03  -0.03   0.01     0.02   0.05  -0.04     0.01   0.03   0.01
  61   1     0.03   0.02  -0.00     0.01   0.01  -0.02     0.01   0.03  -0.00
  62   1     0.00  -0.02   0.01     0.03   0.00   0.03    -0.07   0.02  -0.03
  63   1    -0.01  -0.02   0.01     0.04  -0.00   0.02    -0.09   0.04  -0.00
  64   1    -0.01  -0.02   0.02     0.04   0.00   0.03    -0.09   0.05  -0.05
  65   1    -0.01  -0.01  -0.00     0.05  -0.01  -0.00    -0.07   0.02   0.00
  66   1    -0.04  -0.01   0.01     0.02   0.00   0.02    -0.01   0.00  -0.05
  67   1    -0.04   0.02  -0.03    -0.00   0.03  -0.04     0.01  -0.11   0.09
  68   1    -0.01   0.01  -0.01     0.05   0.02  -0.03    -0.14  -0.08   0.06
  69   1    -0.05  -0.03  -0.01    -0.03  -0.01  -0.00     0.04   0.04   0.02
  70   1    -0.03  -0.02  -0.00    -0.01   0.00  -0.01    -0.02   0.00   0.01
  71   1    -0.02  -0.05   0.03     0.00  -0.04   0.05    -0.06   0.11  -0.08
  72   1    -0.00  -0.02   0.03     0.03   0.00   0.05    -0.11   0.00  -0.10
  73   1    -0.06  -0.00  -0.01    -0.01   0.04   0.02     0.01   0.01   0.01
  74   1    -0.05  -0.02   0.00     0.00   0.04   0.06     0.02   0.02   0.04
  75   1    -0.04  -0.02  -0.01    -0.02   0.06   0.02    -0.00   0.02   0.03
  76   1    -0.06  -0.01  -0.01     0.03  -0.02   0.03     0.03  -0.02   0.03
  77   1    -0.01  -0.06  -0.02     0.02  -0.01   0.02     0.01   0.01   0.03
  78   1     0.05   0.04  -0.01     0.00  -0.05  -0.05    -0.02  -0.04  -0.00
  79   1     0.05  -0.01   0.00     0.00   0.02  -0.07    -0.02   0.00  -0.02
  80   1     0.04   0.07  -0.02     0.01   0.03  -0.04    -0.01  -0.02   0.00
  81   1    -0.02   0.08  -0.05     0.00   0.01  -0.00     0.00  -0.03   0.03
  82   1    -0.05  -0.00  -0.00    -0.01   0.06  -0.02     0.02   0.02   0.00
  83   1    -0.06   0.02  -0.07    -0.01   0.07  -0.00     0.02   0.02   0.04
  84   1     0.05   0.04  -0.02    -0.00  -0.02  -0.03     0.02  -0.02   0.00
  85   1    -0.01   0.05  -0.03    -0.03  -0.00  -0.01     0.02  -0.01   0.01
                     19                     20                     21
                        a                      a                      a 
 Frequencies --   167.2347               179.8150               182.8820
 Red. masses --     8.3470                 9.5711                 9.8679
 Frc consts  --     0.0000                 0.0000                 0.0000
 IR Inten    --     0.5769                 0.6786                 0.2657
 Raman Activ --     0.0000                 0.0000                 0.0000
 Depolar     --     0.0000                 0.0000                 0.0000
 Atom AN      X      Y      Z        X      Y      Z        X      Y      Z
   1   6     0.00   0.18   0.14     0.01  -0.10  -0.06    -0.01  -0.04  -0.03
   2   6    -0.01   0.08  -0.04     0.01  -0.03   0.06    -0.00  -0.02   0.01
   3   6     0.01  -0.07  -0.10     0.02   0.06   0.08    -0.00  -0.01   0.01
   4   6    -0.02   0.14  -0.11    -0.04  -0.06   0.10     0.00  -0.03   0.01
   5   6    -0.01   0.08  -0.06    -0.08  -0.03   0.17     0.01  -0.01  -0.02
   6   6    -0.01  -0.08   0.14    -0.10   0.06   0.07     0.01  -0.01  -0.02
   7   6    -0.01  -0.06   0.13    -0.09  -0.05   0.06     0.00   0.01   0.01
   8   6    -0.11  -0.01   0.04    -0.17  -0.13  -0.01     0.04   0.03   0.04
   9   6     0.19  -0.02   0.08    -0.14  -0.16  -0.02     0.02   0.02   0.02
  10   6    -0.03  -0.09   0.11    -0.08   0.13  -0.01     0.01  -0.00  -0.03
  11   6    -0.04  -0.09   0.08    -0.08   0.15   0.00     0.02  -0.01  -0.02
  12   6    -0.01  -0.07   0.08     0.01   0.19   0.04    -0.01  -0.02  -0.04
  13   6     0.03  -0.07   0.03     0.10   0.17   0.06    -0.07  -0.01  -0.05
  14   6    -0.01  -0.11  -0.04     0.06   0.17   0.01    -0.02  -0.01  -0.00
  15   6    -0.06  -0.14  -0.06    -0.05   0.15  -0.05     0.07  -0.01   0.06
  16   6    -0.06  -0.15   0.02    -0.09   0.14  -0.02     0.07  -0.01   0.03
  17   6    -0.04  -0.05   0.05    -0.02   0.01  -0.02    -0.01   0.01  -0.01
  18   6     0.13  -0.05   0.06     0.10  -0.09  -0.09     0.04  -0.02  -0.03
  19   6     0.32   0.12  -0.05     0.24   0.04  -0.13     0.11   0.03  -0.08
  20   6     0.23  -0.05   0.05     0.02  -0.13  -0.07     0.03  -0.06  -0.01
  21  15    -0.05   0.02  -0.04     0.03  -0.08  -0.01     0.06   0.16   0.05
  22   6    -0.06   0.04  -0.06    -0.02   0.01  -0.10    -0.04   0.25   0.17
  23   6    -0.10   0.05  -0.04    -0.06   0.01  -0.08     0.07   0.35   0.08
  24   6    -0.08   0.02  -0.02    -0.06   0.02  -0.02     0.17   0.15  -0.14
  25   6    -0.07  -0.06   0.06    -0.01  -0.03   0.06     0.04  -0.10  -0.09
  26   6    -0.02   0.02   0.00     0.06   0.04  -0.00    -0.08  -0.06  -0.03
  27   6    -0.08   0.06  -0.09    -0.01   0.07  -0.13    -0.16   0.14   0.13
  28   6    -0.00   0.05  -0.04     0.15  -0.10  -0.02    -0.10  -0.17  -0.05
  29   6    -0.01   0.05  -0.06     0.11  -0.06  -0.06    -0.10  -0.24  -0.08
  30   6    -0.00   0.08  -0.06     0.04   0.04  -0.01    -0.10  -0.09  -0.02
  31   6    -0.03   0.06  -0.08    -0.03  -0.02   0.11     0.08   0.03   0.21
  32   6    -0.02   0.03  -0.07     0.01  -0.15   0.11    -0.02  -0.04  -0.02
  33   6     0.00   0.06  -0.06     0.13  -0.14   0.07    -0.16  -0.22  -0.07
  34   6    -0.04  -0.01   0.03    -0.03   0.05  -0.04    -0.01  -0.03   0.01
  35   1     0.02   0.02   0.08    -0.03   0.00  -0.05    -0.01  -0.01  -0.01
  36   1    -0.01   0.10   0.07     0.02  -0.07  -0.05    -0.01  -0.02  -0.01
  37   1    -0.01   0.06   0.01     0.02  -0.03   0.02    -0.00  -0.01  -0.01
  38   1     0.00   0.01  -0.00     0.01   0.01   0.02    -0.00  -0.01   0.00
  39   1     0.01   0.02  -0.03    -0.00  -0.03   0.02    -0.00  -0.02  -0.00
  40   1    -0.02  -0.06   0.02     0.04   0.06  -0.02     0.01   0.00  -0.01
  41   1     0.02  -0.06  -0.08    -0.01   0.05   0.07    -0.01   0.00   0.01
  42   1    -0.00   0.04  -0.04    -0.02  -0.02   0.09     0.00  -0.00  -0.01
  43   1    -0.01  -0.02   0.04     0.01  -0.02   0.02    -0.01   0.00   0.00
  44   1    -0.15  -0.17  -0.06    -0.07  -0.05  -0.00     0.02   0.01   0.01
  45   1    -0.09   0.19  -0.06    -0.04  -0.04  -0.03     0.01   0.01   0.02
  46   1     0.12  -0.03   0.14    -0.07  -0.04   0.01     0.02   0.01   0.01
  47   1     0.07  -0.00  -0.05    -0.01  -0.14  -0.09     0.01   0.01   0.00
  48   1     0.12   0.01   0.06     0.04   0.01   0.04     0.01   0.01   0.01
  49   1     0.03  -0.01   0.04    -0.16  -0.04   0.02     0.01   0.00   0.01
  50   1    -0.00  -0.01   0.03    -0.00   0.06   0.01     0.00  -0.01  -0.01
  51   1     0.02  -0.01   0.01     0.05   0.05   0.03    -0.04  -0.00  -0.03
  52   1    -0.00  -0.03  -0.03     0.03   0.05   0.00    -0.01  -0.00  -0.00
  53   1    -0.03  -0.05  -0.03    -0.02   0.04  -0.03     0.04  -0.01   0.03
  54   1    -0.03  -0.06   0.01    -0.03   0.04  -0.01     0.03   0.00   0.01
  55   1     0.05  -0.05   0.05     0.04  -0.06  -0.03     0.02  -0.02  -0.01
  56   1     0.15   0.02  -0.01     0.09  -0.01  -0.05     0.06   0.01  -0.02
  57   1     0.07   0.09  -0.04     0.05   0.05  -0.02     0.03   0.03  -0.04
  58   1     0.10   0.03  -0.01     0.10   0.02  -0.05     0.03   0.01  -0.02
  59   1     0.12  -0.02   0.02     0.03  -0.05  -0.02     0.02  -0.03  -0.01
  60   1     0.06   0.01  -0.03    -0.01  -0.01  -0.02     0.00  -0.01  -0.00
  61   1     0.05  -0.04   0.05    -0.02  -0.06  -0.01     0.00  -0.02   0.00
  62   1    -0.01   0.01  -0.02    -0.01   0.00  -0.02    -0.02   0.06   0.04
  63   1    -0.04   0.02  -0.00    -0.02   0.01  -0.02    -0.01   0.11   0.06
  64   1    -0.04   0.02  -0.02    -0.03   0.00  -0.03     0.05   0.15   0.01
  65   1    -0.03   0.01  -0.00    -0.03   0.02   0.00     0.08   0.06  -0.06
  66   1    -0.01   0.00  -0.02    -0.01   0.00  -0.02     0.08   0.03  -0.08
  67   1     0.00  -0.04   0.03     0.02  -0.03   0.04     0.04  -0.08  -0.04
  68   1    -0.06  -0.03   0.02    -0.04  -0.02   0.03    -0.03  -0.04  -0.01
  69   1     0.02   0.02   0.00     0.04   0.02   0.00     0.00  -0.01  -0.02
  70   1    -0.00   0.00   0.01     0.02   0.01   0.01    -0.06  -0.06  -0.01
  71   1    -0.02   0.05  -0.03     0.00   0.06  -0.05    -0.08   0.04   0.06
  72   1    -0.04   0.00  -0.04    -0.02   0.00  -0.06    -0.07   0.04   0.04
  73   1    -0.00   0.02  -0.01     0.04  -0.03  -0.00    -0.02  -0.07   0.00
  74   1    -0.01   0.01  -0.02     0.04  -0.01  -0.04    -0.05  -0.09  -0.05
  75   1     0.00   0.01  -0.01     0.04  -0.03  -0.01     0.00  -0.10  -0.01
  76   1     0.01   0.02  -0.02     0.02   0.02  -0.02    -0.07   0.01  -0.02
  77   1     0.00   0.03  -0.01     0.00   0.04  -0.00    -0.02  -0.05  -0.01
  78   1    -0.01   0.01  -0.02    -0.02   0.01   0.04     0.06   0.10   0.08
  79   1    -0.01   0.02  -0.03    -0.02  -0.01   0.05     0.04  -0.06   0.14
  80   1    -0.01   0.01  -0.02    -0.02  -0.06   0.04    -0.01  -0.01   0.01
  81   1    -0.00   0.00  -0.02     0.02  -0.06   0.03     0.01   0.01  -0.06
  82   1     0.00   0.02  -0.02     0.04  -0.04   0.01    -0.08  -0.08   0.02
  83   1     0.00   0.02  -0.01     0.05  -0.05   0.04    -0.06  -0.09  -0.06
  84   1    -0.05  -0.01   0.03     0.03   0.02  -0.02    -0.01  -0.02  -0.00
  85   1     0.02  -0.03   0.02    -0.04   0.04  -0.02     0.00  -0.01   0.01
                     22                     23                     24
                        a                      a                      a 
 Frequencies --   189.0361               199.1825               208.6597
 Red. masses --     7.3814                 5.2518                 9.1752
 Frc consts  --     0.0000                 0.0000                 0.0000
 IR Inten    --     1.0434                 0.4071                 0.1125
 Raman Activ --     0.0000                 0.0000                 0.0000
 Depolar     --     0.0000                 0.0000                 0.0000
 Atom AN      X      Y      Z        X      Y      Z        X      Y      Z
   1   6    -0.04   0.07   0.01    -0.03  -0.16  -0.06     0.01   0.03   0.00
   2   6    -0.04   0.01  -0.10     0.04  -0.10   0.10    -0.01   0.02  -0.03
   3   6    -0.08  -0.10  -0.11     0.04   0.12   0.16    -0.02  -0.03  -0.04
   4   6     0.01   0.03  -0.13     0.08  -0.12   0.11    -0.00   0.02  -0.03
   5   6     0.02  -0.09   0.03     0.07   0.08  -0.15     0.01  -0.03   0.02
   6   6    -0.00  -0.10   0.05     0.02   0.08  -0.13     0.01  -0.03   0.00
   7   6    -0.04  -0.06   0.10    -0.01   0.04  -0.04     0.01  -0.02   0.01
   8   6    -0.10   0.06   0.05     0.12   0.08   0.06     0.00  -0.00   0.01
   9   6     0.09  -0.04   0.04    -0.21  -0.11  -0.09     0.04  -0.01   0.01
  10   6     0.03   0.03  -0.10     0.02   0.01  -0.03     0.02   0.01  -0.05
  11   6     0.07   0.04  -0.09     0.02   0.01  -0.05     0.03   0.02  -0.08
  12   6     0.08  -0.04  -0.03     0.02  -0.02  -0.03     0.02  -0.02  -0.05
  13   6     0.04  -0.04   0.08    -0.00  -0.02  -0.02     0.00  -0.03   0.01
  14   6    -0.06   0.06   0.07    -0.00   0.00  -0.00    -0.02   0.02   0.03
  15   6    -0.07   0.15  -0.00     0.03   0.02   0.00    -0.00   0.06   0.01
  16   6     0.03   0.13  -0.06     0.04   0.02  -0.03     0.02   0.06  -0.05
  17   6     0.02   0.05  -0.10     0.04  -0.02   0.04     0.01   0.01   0.00
  18   6    -0.07   0.13  -0.06     0.01  -0.02   0.04    -0.01   0.01   0.00
  19   6    -0.20   0.03   0.07    -0.01  -0.05   0.02    -0.05  -0.03   0.02
  20   6    -0.04   0.25  -0.13    -0.02  -0.10   0.08    -0.02   0.02  -0.00
  21  15     0.05  -0.05   0.01    -0.02   0.01   0.01     0.02   0.04  -0.01
  22   6     0.02  -0.00  -0.04    -0.02   0.01   0.04    -0.08   0.03   0.20
  23   6     0.02   0.01  -0.04    -0.01   0.01   0.04    -0.06   0.02   0.19
  24   6     0.03   0.01  -0.02    -0.01  -0.00   0.01    -0.02  -0.07   0.10
  25   6     0.05   0.01   0.01    -0.04  -0.01  -0.01    -0.17  -0.06  -0.08
  26   6     0.07   0.03  -0.01    -0.06  -0.02   0.01    -0.30  -0.08   0.01
  27   6     0.05   0.03  -0.05    -0.04  -0.02   0.05    -0.17  -0.12   0.25
  28   6     0.02  -0.09   0.05    -0.03   0.06  -0.00     0.22  -0.03  -0.09
  29   6     0.03  -0.10   0.08    -0.03   0.07   0.00     0.17  -0.01  -0.22
  30   6     0.02  -0.10   0.09    -0.01   0.03  -0.02     0.10   0.24  -0.13
  31   6     0.02  -0.10   0.15    -0.00   0.04  -0.09    -0.10   0.09  -0.04
  32   6     0.00  -0.11   0.12     0.00   0.08  -0.06     0.02  -0.16   0.02
  33   6     0.00  -0.12   0.10    -0.02   0.08  -0.04     0.29   0.00   0.01
  34   6     0.02   0.04  -0.11     0.08  -0.08   0.08     0.01   0.02  -0.01
  35   1     0.01  -0.00   0.03    -0.10   0.01  -0.06     0.04  -0.01   0.01
  36   1    -0.02   0.05   0.02     0.02  -0.13  -0.08    -0.01   0.04   0.03
  37   1    -0.02   0.03  -0.02     0.03  -0.03   0.06    -0.02  -0.00  -0.03
  38   1    -0.02  -0.01  -0.03     0.01  -0.03   0.02    -0.00   0.01  -0.01
  39   1    -0.01   0.02  -0.02     0.00  -0.04   0.05     0.00   0.03  -0.01
  40   1    -0.05  -0.07   0.01     0.05   0.10  -0.03    -0.03  -0.03   0.02
  41   1    -0.01  -0.07  -0.09    -0.01   0.09   0.13     0.01  -0.03  -0.05
  42   1     0.01  -0.04   0.03     0.03   0.06  -0.07    -0.00  -0.02   0.01
  43   1    -0.04  -0.02   0.04    -0.01  -0.00   0.01    -0.00  -0.00   0.00
  44   1    -0.19  -0.22  -0.09    -0.11  -0.27  -0.14    -0.01  -0.01  -0.00
  45   1    -0.13   0.31  -0.07    -0.10   0.36  -0.04    -0.00   0.01  -0.00
  46   1     0.21  -0.01   0.19     0.33  -0.02   0.25     0.01  -0.00   0.01
  47   1     0.02   0.02   0.01    -0.03  -0.13  -0.07     0.00   0.02   0.02
  48   1     0.03  -0.04   0.02    -0.02   0.02  -0.01    -0.00  -0.02  -0.01
  49   1     0.06  -0.01  -0.00    -0.18  -0.02  -0.02     0.04  -0.00  -0.01
  50   1     0.03  -0.03  -0.01     0.01  -0.02  -0.01     0.01  -0.02  -0.02
  51   1     0.02  -0.04   0.05    -0.00  -0.01  -0.00    -0.00  -0.02   0.01
  52   1    -0.03   0.02   0.03    -0.01   0.00   0.00    -0.01   0.00   0.02
  53   1    -0.04   0.06  -0.00     0.01   0.01   0.01    -0.00   0.03   0.01
  54   1     0.03   0.06  -0.02     0.02   0.01  -0.00     0.02   0.03  -0.01
  55   1    -0.03   0.06  -0.01     0.00  -0.00  -0.00    -0.01   0.01  -0.00
  56   1    -0.08   0.04   0.04    -0.05  -0.06  -0.04    -0.02   0.00   0.01
  57   1    -0.04  -0.02   0.00    -0.01  -0.02   0.07    -0.01  -0.02  -0.00
  58   1    -0.08  -0.02   0.04     0.04   0.03  -0.03    -0.03  -0.02   0.01
  59   1    -0.04   0.10  -0.02    -0.02  -0.04   0.01    -0.02   0.01  -0.00
  60   1     0.00   0.05  -0.04    -0.01  -0.03   0.04     0.00  -0.01   0.01
  61   1     0.00   0.09  -0.06    -0.00  -0.02   0.03     0.00   0.02  -0.01
  62   1    -0.01  -0.00  -0.01    -0.00   0.00   0.01     0.00   0.01   0.04
  63   1     0.01   0.00  -0.01    -0.00   0.00   0.01    -0.02   0.01   0.06
  64   1     0.00  -0.00  -0.01     0.00   0.01   0.01     0.00   0.03   0.05
  65   1    -0.00   0.01  -0.00     0.00  -0.00  -0.00     0.04  -0.05   0.01
  66   1     0.01   0.00  -0.01    -0.00  -0.00   0.01    -0.00  -0.00   0.06
  67   1     0.02   0.00   0.01    -0.01  -0.01  -0.01    -0.06  -0.01  -0.05
  68   1     0.01   0.00   0.01    -0.01  -0.00  -0.00    -0.02  -0.02  -0.04
  69   1     0.03   0.01  -0.00    -0.02  -0.01   0.00    -0.13  -0.03   0.02
  70   1     0.02   0.01   0.00    -0.02  -0.01  -0.00    -0.10  -0.01  -0.02
  71   1     0.02   0.02  -0.02    -0.02  -0.01   0.02    -0.07  -0.09   0.10
  72   1     0.01   0.00  -0.02    -0.01  -0.00   0.02    -0.02  -0.00   0.11
  73   1     0.01  -0.02   0.01    -0.00   0.01  -0.00     0.04   0.00  -0.02
  74   1     0.01  -0.03   0.03    -0.00   0.02   0.01     0.04  -0.01  -0.13
  75   1     0.01  -0.03   0.02    -0.01   0.03  -0.00     0.08  -0.04  -0.05
  76   1    -0.00  -0.03   0.03     0.00   0.00  -0.00     0.08   0.08  -0.09
  77   1     0.00  -0.03   0.02     0.00   0.00  -0.00     0.03   0.14  -0.01
  78   1     0.01  -0.01   0.05    -0.00  -0.01  -0.03    -0.06   0.02  -0.01
  79   1     0.01  -0.04   0.06     0.00   0.02  -0.04    -0.06   0.05  -0.01
  80   1     0.00  -0.03   0.03     0.01   0.03  -0.02    -0.05  -0.09   0.00
  81   1     0.00  -0.03   0.03    -0.01   0.03  -0.01     0.04  -0.09   0.03
  82   1    -0.00  -0.04   0.04    -0.00   0.02  -0.01     0.13   0.01  -0.06
  83   1     0.00  -0.04   0.03    -0.01   0.03  -0.02     0.12   0.02   0.08
  84   1     0.00   0.01  -0.03     0.03  -0.03   0.01     0.00   0.01  -0.00
  85   1     0.01   0.01  -0.03     0.02  -0.02   0.02     0.00   0.01  -0.01
                     25                     26                     27
                        a                      a                      a 
 Frequencies --   216.7831               218.2074               228.6211
 Red. masses --     5.0116                 9.0246                 3.2444
 Frc consts  --     0.0000                 0.0000                 0.0000
 IR Inten    --     0.0647                 0.3004                 3.1959
 Raman Activ --     0.0000                 0.0000                 0.0000
 Depolar     --     0.0000                 0.0000                 0.0000
 Atom AN      X      Y      Z        X      Y      Z        X      Y      Z
   1   6    -0.03  -0.16  -0.17    -0.09  -0.15  -0.12     0.04   0.02   0.05
   2   6    -0.07  -0.04  -0.01    -0.03  -0.11  -0.01     0.02   0.04   0.08
   3   6    -0.11  -0.11   0.00    -0.05  -0.08  -0.00     0.04   0.10   0.09
   4   6    -0.06  -0.05   0.03     0.00  -0.09  -0.01     0.01   0.03   0.07
   5   6    -0.05  -0.02   0.01    -0.01   0.04  -0.09     0.00   0.07  -0.05
   6   6    -0.01  -0.01  -0.02    -0.02   0.03  -0.06     0.02   0.04  -0.02
   7   6    -0.01   0.01   0.01    -0.01   0.03  -0.04     0.03  -0.01  -0.00
   8   6     0.03   0.08   0.04     0.07   0.06   0.03     0.07  -0.07   0.02
   9   6     0.01   0.04   0.03    -0.02   0.08   0.01     0.01  -0.07  -0.04
  10   6     0.05   0.05   0.02     0.01  -0.01   0.11    -0.02   0.01  -0.02
  11   6     0.14   0.05   0.04     0.10  -0.06   0.35    -0.06   0.02  -0.12
  12   6     0.15   0.05   0.05     0.17   0.07   0.32    -0.08  -0.03  -0.11
  13   6     0.04   0.09  -0.02     0.08   0.13   0.05    -0.03  -0.05  -0.02
  14   6    -0.03   0.13  -0.06    -0.08   0.08  -0.17     0.03  -0.05   0.05
  15   6     0.07   0.11   0.02    -0.00  -0.08  -0.00    -0.00   0.00  -0.01
  16   6     0.15   0.08   0.07     0.12  -0.14   0.30    -0.05   0.03  -0.11
  17   6     0.05   0.04   0.06    -0.01  -0.00  -0.08    -0.03   0.02   0.04
  18   6     0.04  -0.03   0.03    -0.03   0.05  -0.07    -0.05  -0.01   0.02
  19   6     0.03  -0.05  -0.04     0.04   0.11  -0.08     0.01   0.04  -0.15
  20   6    -0.03  -0.20   0.14    -0.01   0.19  -0.16    -0.12  -0.08   0.06
  21  15    -0.00   0.02   0.01     0.01  -0.01  -0.08    -0.03   0.03   0.03
  22   6    -0.00  -0.03  -0.04    -0.02  -0.01   0.01     0.01  -0.01  -0.02
  23   6    -0.03  -0.06  -0.03    -0.03  -0.03   0.02     0.02  -0.03  -0.02
  24   6    -0.07  -0.00  -0.01    -0.04  -0.03   0.02     0.00   0.00  -0.00
  25   6    -0.03   0.00   0.03    -0.05  -0.01  -0.01     0.02   0.02   0.01
  26   6     0.02  -0.02  -0.00    -0.05  -0.02  -0.00     0.04  -0.00   0.00
  27   6    -0.01  -0.01  -0.07    -0.03  -0.04   0.02     0.02   0.01  -0.02
  28   6    -0.02   0.02  -0.01     0.01  -0.02  -0.03     0.01   0.00   0.02
  29   6    -0.03   0.01  -0.03     0.02  -0.02  -0.03     0.01  -0.00   0.02
  30   6    -0.04   0.00  -0.03    -0.01   0.00  -0.01     0.01  -0.00   0.02
  31   6     0.00   0.03  -0.03    -0.04  -0.01  -0.01     0.01  -0.01   0.02
  32   6    -0.01   0.05  -0.04    -0.02   0.00   0.04     0.00  -0.02   0.01
  33   6    -0.04   0.01  -0.04     0.04  -0.00   0.02     0.01  -0.00   0.02
  34   6    -0.02  -0.01   0.09     0.01  -0.01  -0.08    -0.02  -0.00   0.06
  35   1     0.37  -0.12  -0.03    -0.10  -0.00  -0.07     0.12  -0.02   0.03
  36   1    -0.19   0.14   0.20    -0.01  -0.11  -0.08    -0.03   0.06   0.08
  37   1    -0.20  -0.19  -0.37     0.00  -0.03   0.02    -0.04  -0.04  -0.07
  38   1    -0.02   0.01  -0.00    -0.01  -0.03  -0.01     0.01   0.01   0.02
  39   1    -0.00   0.11   0.03    -0.02  -0.09  -0.00     0.02   0.06   0.03
  40   1    -0.14  -0.12   0.10     0.03   0.01  -0.04    -0.02   0.03   0.03
  41   1     0.04  -0.12  -0.12    -0.05   0.01   0.04     0.04   0.02   0.02
  42   1    -0.01  -0.01   0.00     0.00   0.03  -0.03    -0.00   0.03  -0.03
  43   1    -0.02  -0.00   0.01    -0.01   0.01  -0.01     0.02  -0.01   0.00
  44   1    -0.01  -0.00  -0.00     0.03   0.01  -0.00     0.02  -0.05  -0.02
  45   1    -0.01   0.06   0.02     0.01   0.03   0.03     0.01   0.01   0.01
  46   1     0.05   0.02   0.03     0.04   0.02   0.02     0.05  -0.03   0.04
  47   1    -0.01   0.04   0.03    -0.01   0.05   0.03     0.00  -0.02  -0.01
  48   1    -0.02  -0.01  -0.01    -0.03   0.01  -0.01     0.00  -0.04  -0.01
  49   1     0.04   0.01   0.00     0.03   0.02   0.01     0.01  -0.01  -0.03
  50   1     0.05   0.00   0.02     0.04   0.06   0.11    -0.01  -0.02  -0.03
  51   1    -0.00   0.02  -0.01     0.02   0.07  -0.01    -0.01  -0.02   0.00
  52   1    -0.04   0.05  -0.04    -0.07   0.04  -0.13     0.03  -0.02   0.04
  53   1     0.02   0.03   0.01    -0.02  -0.05  -0.04     0.01   0.01   0.01
  54   1     0.06   0.03   0.03     0.03  -0.06   0.10    -0.01   0.01  -0.03
  55   1     0.01  -0.01  -0.02    -0.00   0.00  -0.00    -0.01  -0.02   0.01
  56   1    -0.02  -0.06  -0.05     0.14   0.14   0.09     0.31   0.26   0.22
  57   1     0.01  -0.03   0.04     0.02   0.06  -0.22     0.05   0.04  -0.54
  58   1     0.03   0.03  -0.04    -0.11  -0.08   0.05    -0.34  -0.25   0.13
  59   1    -0.05  -0.09   0.01    -0.03   0.09  -0.02    -0.12  -0.02   0.00
  60   1    -0.00  -0.08   0.09     0.01   0.04  -0.06    -0.02  -0.07   0.08
  61   1     0.01  -0.04   0.04     0.01   0.07  -0.08     0.00   0.02  -0.02
  62   1    -0.00  -0.00  -0.01     0.00  -0.00   0.00     0.00   0.00  -0.00
  63   1     0.00  -0.02  -0.02    -0.01  -0.01   0.00     0.01  -0.01  -0.01
  64   1    -0.02  -0.03  -0.00    -0.01  -0.01   0.01     0.01  -0.02   0.00
  65   1    -0.03   0.01  -0.00    -0.00  -0.01   0.00    -0.00   0.00   0.00
  66   1    -0.03  -0.01  -0.01    -0.01  -0.00   0.01    -0.00  -0.00  -0.00
  67   1    -0.01   0.00   0.01    -0.02   0.00  -0.01     0.00   0.01   0.00
  68   1    -0.01   0.00   0.02    -0.01   0.00  -0.01     0.01   0.01   0.00
  69   1     0.02  -0.01  -0.01    -0.02  -0.01  -0.00     0.02  -0.00  -0.01
  70   1     0.02  -0.01   0.01    -0.01  -0.00  -0.00     0.01  -0.00   0.01
  71   1     0.00   0.02  -0.03    -0.01  -0.02   0.01     0.01   0.01  -0.01
  72   1    -0.01  -0.01  -0.03    -0.00  -0.01   0.01     0.00  -0.00  -0.01
  73   1    -0.00  -0.00   0.00    -0.00   0.00  -0.01     0.00  -0.00   0.01
  74   1    -0.01  -0.00  -0.01     0.00  -0.01  -0.01     0.00  -0.00   0.00
  75   1    -0.00   0.00  -0.01     0.01  -0.01  -0.00     0.00   0.00   0.00
  76   1    -0.02   0.00  -0.00     0.00  -0.00  -0.00     0.01  -0.00   0.00
  77   1    -0.01  -0.01  -0.02    -0.01   0.01  -0.01     0.00   0.00   0.01
  78   1     0.00   0.01  -0.01    -0.02  -0.01  -0.00     0.00  -0.00   0.01
  79   1     0.01   0.00  -0.00    -0.01   0.00  -0.01    -0.00  -0.00   0.01
  80   1     0.00   0.02  -0.01    -0.00   0.00   0.02    -0.00  -0.01  -0.00
  81   1    -0.01   0.02  -0.02    -0.02   0.00   0.02     0.01  -0.01   0.01
  82   1    -0.02   0.00  -0.00     0.02  -0.00  -0.00     0.00   0.00   0.00
  83   1    -0.02  -0.00  -0.02     0.02   0.00   0.02     0.00  -0.00   0.01
  84   1    -0.02  -0.01   0.03     0.03  -0.00  -0.03    -0.01  -0.01   0.01
  85   1     0.00  -0.00   0.05    -0.01   0.01  -0.03     0.00  -0.01   0.02
                     28                     29                     30
                        a                      a                      a 
 Frequencies --   234.1223               243.3239               245.0107
 Red. masses --     6.2369                 6.3887                 3.8833
 Frc consts  --     0.0000                 0.0000                 0.0000
 IR Inten    --     0.1718                 0.4939                 0.5305
 Raman Activ --     0.0000                 0.0000                 0.0000
 Depolar     --     0.0000                 0.0000                 0.0000
 Atom AN      X      Y      Z        X      Y      Z        X      Y      Z
   1   6     0.02  -0.02   0.00    -0.02   0.01   0.01    -0.02   0.03   0.08
   2   6     0.05  -0.01   0.03    -0.01   0.01   0.01     0.00   0.03   0.11
   3   6    -0.06   0.20   0.20     0.00  -0.04  -0.02     0.01   0.08   0.12
   4   6     0.13  -0.05   0.04    -0.03   0.02   0.00    -0.01   0.05   0.06
   5   6     0.10   0.01   0.04    -0.03   0.03  -0.02     0.01   0.06  -0.02
   6   6     0.03   0.06  -0.01     0.00  -0.00   0.01     0.03   0.02   0.00
   7   6     0.04   0.04  -0.04     0.01  -0.01   0.01     0.04   0.01  -0.01
   8   6     0.05  -0.04  -0.04     0.02  -0.01   0.02     0.07  -0.01   0.00
   9   6    -0.07  -0.04  -0.06     0.05   0.00   0.01     0.04   0.00  -0.02
  10   6    -0.03  -0.04   0.04     0.01   0.01   0.01    -0.01  -0.03  -0.01
  11   6    -0.14  -0.04   0.09     0.02   0.02  -0.01    -0.02  -0.06   0.01
  12   6    -0.14   0.03   0.05     0.02   0.01  -0.01    -0.04  -0.08   0.00
  13   6    -0.01   0.01   0.03     0.02   0.01   0.00    -0.02  -0.09   0.01
  14   6     0.05  -0.07   0.02     0.00   0.03  -0.00    -0.02  -0.11  -0.00
  15   6    -0.08  -0.12  -0.03     0.00   0.03  -0.01    -0.03  -0.09  -0.02
  16   6    -0.16  -0.10   0.02     0.02   0.03  -0.00    -0.02  -0.09  -0.01
  17   6    -0.01  -0.06  -0.08     0.01   0.01   0.02    -0.06   0.06  -0.07
  18   6    -0.02  -0.03  -0.08     0.00   0.00   0.02    -0.05   0.07  -0.08
  19   6     0.00   0.00   0.03     0.01   0.01  -0.02    -0.04   0.09  -0.13
  20   6     0.05   0.18  -0.22    -0.02  -0.07   0.06     0.03   0.10  -0.11
  21  15     0.02  -0.08  -0.06    -0.03  -0.06  -0.05    -0.03   0.08  -0.00
  22   6    -0.01   0.02   0.02     0.01  -0.06  -0.18     0.00   0.01   0.01
  23   6    -0.02   0.12   0.01    -0.22   0.26  -0.14     0.05  -0.08   0.01
  24   6     0.09  -0.01   0.02     0.18  -0.13   0.12    -0.03   0.01  -0.00
  25   6     0.02  -0.04  -0.03     0.03  -0.11  -0.04     0.01   0.05   0.00
  26   6    -0.06   0.06  -0.01    -0.13   0.28  -0.06     0.04  -0.06   0.01
  27   6     0.03  -0.01   0.08     0.23  -0.14   0.09    -0.02   0.01  -0.02
  28   6    -0.02  -0.02  -0.01    -0.04  -0.00   0.00     0.03  -0.01   0.01
  29   6    -0.00   0.03   0.05    -0.02  -0.02   0.04     0.03  -0.06  -0.01
  30   6     0.01  -0.03   0.03     0.01  -0.03   0.03     0.03   0.00   0.02
  31   6     0.01  -0.03  -0.02     0.00  -0.03   0.02    -0.01  -0.03   0.06
  32   6     0.01   0.03   0.03    -0.01  -0.01   0.01    -0.01  -0.08   0.04
  33   6    -0.01  -0.01   0.02    -0.03   0.00   0.01     0.06  -0.00   0.04
  34   6     0.10   0.02  -0.12    -0.03  -0.01   0.03    -0.05   0.06  -0.05
  35   1     0.18  -0.05   0.02     0.04  -0.01   0.01     0.27  -0.06   0.05
  36   1    -0.08   0.09   0.13    -0.03   0.02   0.03    -0.15   0.16   0.22
  37   1    -0.08  -0.06  -0.15    -0.03  -0.01  -0.04    -0.15  -0.08  -0.22
  38   1    -0.00  -0.02  -0.02     0.00   0.01   0.01     0.01   0.02   0.04
  39   1     0.05   0.33   0.14    -0.03  -0.15  -0.03    -0.06  -0.32  -0.01
  40   1    -0.27  -0.03   0.17     0.11   0.04  -0.07     0.26   0.19  -0.16
  41   1     0.13  -0.07  -0.09    -0.08   0.06   0.08    -0.19   0.22   0.27
  42   1     0.04   0.01   0.02    -0.01   0.01  -0.01    -0.00   0.01  -0.02
  43   1     0.03   0.01  -0.01     0.00  -0.00   0.00     0.02   0.00  -0.00
  44   1     0.02  -0.02  -0.02     0.00  -0.01   0.00     0.02  -0.02  -0.01
  45   1     0.02  -0.01  -0.02     0.00   0.00   0.01     0.01   0.01   0.00
  46   1     0.01  -0.02   0.00     0.01  -0.00   0.01     0.03  -0.01   0.02
  47   1     0.01  -0.11  -0.09     0.01   0.03   0.02     0.01  -0.00  -0.01
  48   1     0.04   0.07   0.01    -0.00  -0.02  -0.00     0.01  -0.00  -0.01
  49   1    -0.15  -0.01   0.02     0.05   0.00  -0.01     0.01   0.00  -0.01
  50   1    -0.06   0.04   0.02     0.01  -0.00  -0.01    -0.01  -0.02  -0.00
  51   1     0.01   0.02   0.01     0.01   0.00   0.00    -0.00  -0.02   0.00
  52   1     0.05  -0.03   0.01    -0.00   0.01  -0.00    -0.00  -0.03  -0.00
  53   1    -0.03  -0.05  -0.02    -0.00   0.01  -0.00    -0.01  -0.02  -0.01
  54   1    -0.07  -0.05   0.00     0.01   0.01  -0.00    -0.01  -0.03  -0.00
  55   1    -0.00  -0.01  -0.01     0.00   0.00   0.00    -0.01   0.02  -0.01
  56   1    -0.03  -0.01  -0.01     0.01  -0.00  -0.01    -0.07  -0.05  -0.11
  57   1    -0.01   0.01   0.05     0.00   0.01  -0.01    -0.02   0.03   0.07
  58   1     0.04   0.01   0.00     0.00   0.01  -0.01     0.06   0.10  -0.09
  59   1     0.08   0.09  -0.02    -0.03  -0.03   0.00     0.06   0.03  -0.02
  60   1     0.00   0.09  -0.13    -0.00  -0.03   0.04    -0.00   0.06  -0.07
  61   1    -0.02   0.02  -0.07     0.00  -0.01   0.02    -0.01   0.01  -0.01
  62   1    -0.01  -0.01  -0.01     0.00  -0.06  -0.13     0.01   0.01   0.02
  63   1    -0.04   0.04   0.04    -0.18   0.09   0.08     0.03  -0.03  -0.03
  64   1    -0.00   0.07  -0.02    -0.09   0.18  -0.15     0.02  -0.05   0.03
  65   1     0.03  -0.03   0.01     0.06  -0.17   0.08    -0.01   0.02  -0.00
  66   1     0.06   0.02   0.02     0.16   0.04   0.11    -0.03  -0.01  -0.00
  67   1     0.02  -0.02  -0.01     0.04  -0.05   0.03    -0.01   0.03  -0.01
  68   1    -0.01  -0.03  -0.02    -0.03  -0.09  -0.08     0.03   0.03   0.01
  69   1    -0.05   0.03   0.03    -0.15   0.11   0.11     0.03  -0.03  -0.03
  70   1    -0.03   0.04  -0.04    -0.05   0.21  -0.14     0.02  -0.04   0.03
  71   1     0.01  -0.04   0.04     0.10  -0.19   0.05    -0.01   0.03  -0.01
  72   1     0.03   0.02   0.05     0.18   0.05   0.12    -0.03  -0.01  -0.02
  73   1     0.00   0.00  -0.01    -0.02   0.01  -0.00    -0.00  -0.00   0.01
  74   1     0.01   0.02   0.03    -0.01  -0.01   0.02    -0.00  -0.03  -0.02
  75   1    -0.02   0.02   0.01    -0.01  -0.01   0.01     0.02  -0.03   0.00
  76   1     0.01  -0.02   0.02     0.01  -0.01   0.01     0.02   0.01  -0.01
  77   1     0.00  -0.01   0.01     0.00  -0.01   0.01     0.01   0.02   0.01
  78   1    -0.00  -0.03  -0.01     0.01  -0.01   0.01    -0.00   0.00   0.02
  79   1     0.01  -0.00  -0.02    -0.00  -0.01   0.01    -0.01  -0.01   0.03
  80   1     0.02   0.02   0.02    -0.00  -0.00  -0.01    -0.02  -0.03   0.00
  81   1    -0.01   0.02   0.01    -0.00  -0.00   0.00     0.01  -0.04   0.02
  82   1    -0.00  -0.01   0.01    -0.01   0.00   0.00     0.03   0.00  -0.01
  83   1    -0.01  -0.00  -0.00    -0.01   0.00   0.00     0.03   0.01   0.04
  84   1     0.08   0.03  -0.05    -0.02  -0.01   0.01    -0.01   0.00  -0.02
  85   1     0.00   0.02  -0.07    -0.00  -0.00   0.02    -0.01   0.01  -0.02
                     31                     32                     33
                        a                      a                      a 
 Frequencies --   253.9281               260.7620               269.1760
[...]
  17   6    -0.00  -0.00  -0.00     0.00   0.00  -0.00    -0.00  -0.00   0.00
  18   6    -0.00  -0.00   0.00    -0.00  -0.00   0.00     0.00  -0.00  -0.00
  19   6     0.00   0.00   0.00     0.00   0.00   0.00    -0.00  -0.01  -0.01
  20   6     0.00  -0.00   0.00    -0.00   0.00   0.00    -0.00  -0.00   0.00
  21  15    -0.00  -0.00  -0.00    -0.00  -0.00  -0.00    -0.00   0.00  -0.00
  22   6     0.00  -0.00   0.00     0.00  -0.00   0.00    -0.00   0.00  -0.00
  23   6     0.00  -0.00  -0.00     0.00  -0.00  -0.00    -0.00   0.00   0.00
  24   6    -0.00  -0.00  -0.00    -0.00  -0.00  -0.00    -0.00  -0.00  -0.00
  25   6    -0.00  -0.00   0.00    -0.00   0.00  -0.00    -0.00  -0.00  -0.00
  26   6    -0.00  -0.00   0.00    -0.00   0.00   0.00    -0.00   0.00   0.00
  27   6    -0.00   0.00  -0.00     0.00   0.00   0.00    -0.00   0.00  -0.00
  28   6    -0.00  -0.00  -0.00    -0.00  -0.00  -0.00     0.00   0.00   0.00
  29   6    -0.00  -0.00  -0.00    -0.00  -0.00  -0.00    -0.00   0.00  -0.00
  30   6    -0.00  -0.00  -0.00     0.00   0.00  -0.00     0.00   0.00  -0.00
  31   6    -0.00   0.00  -0.00     0.00   0.00   0.00     0.00   0.00  -0.00
  32   6    -0.00  -0.00  -0.00     0.00   0.00   0.00    -0.00   0.00  -0.00
  33   6    -0.00  -0.00   0.00     0.00   0.00  -0.00     0.00   0.00   0.00
  34   6    -0.00  -0.00  -0.00     0.00  -0.00  -0.00    -0.00   0.00   0.00
  35   1    -0.00   0.00   0.00    -0.00   0.00   0.00     0.00   0.00   0.00
  36   1     0.00  -0.00   0.00     0.00  -0.00   0.00    -0.01   0.00  -0.01
  37   1     0.01  -0.00  -0.01     0.01  -0.00  -0.01    -0.02   0.00   0.01
  38   1     0.00  -0.00  -0.00     0.01  -0.00  -0.00    -0.02   0.01   0.01
  39   1     0.03  -0.00  -0.01     0.01  -0.00  -0.00    -0.03   0.00   0.01
  40   1    -0.00   0.01   0.01    -0.00  -0.00   0.00     0.00   0.01   0.01
  41   1    -0.01  -0.02   0.01    -0.00   0.00  -0.00    -0.00  -0.01   0.00
  42   1     0.13  -0.08  -0.06     0.29  -0.20  -0.13    -0.67   0.45   0.31
  43   1     0.00   0.04   0.02     0.00  -0.01  -0.00     0.00   0.01   0.01
  44   1     0.15  -0.22   0.25    -0.01   0.01  -0.01     0.01  -0.02   0.02
  45   1    -0.29  -0.15  -0.12    -0.00   0.00   0.00    -0.01  -0.01  -0.01
  46   1    -0.12   0.75   0.28     0.01  -0.07  -0.03    -0.02   0.14   0.05
  47   1    -0.07  -0.02  -0.02    -0.00  -0.00  -0.00    -0.00  -0.00  -0.00
  48   1    -0.03   0.00   0.05     0.00   0.00  -0.00    -0.01  -0.00   0.01
  49   1     0.02   0.14   0.05    -0.00  -0.02  -0.01     0.00   0.04   0.02
  50   1    -0.00  -0.00   0.00    -0.00  -0.00   0.00    -0.00  -0.00   0.00
  51   1    -0.00   0.00   0.00     0.07  -0.07  -0.11     0.02  -0.02  -0.03
  52   1     0.00   0.00   0.00     0.05   0.28   0.04     0.02   0.12   0.02
  53   1    -0.00  -0.00   0.00    -0.51  -0.39   0.49    -0.23  -0.17   0.22
  54   1     0.00  -0.00  -0.00     0.06  -0.07  -0.11     0.02  -0.03  -0.04
  55   1     0.00   0.00   0.00     0.00   0.00  -0.00    -0.00  -0.00   0.00
  56   1     0.00   0.00   0.00     0.00   0.00  -0.00    -0.00  -0.00  -0.00
  57   1    -0.00  -0.00  -0.00    -0.00  -0.00   0.00     0.00  -0.00  -0.00
  58   1    -0.00  -0.00  -0.01    -0.00  -0.01  -0.01     0.00   0.03   0.05
  59   1     0.00   0.00  -0.00     0.00   0.00  -0.00     0.00   0.00  -0.00
  60   1    -0.00  -0.00  -0.00    -0.00  -0.00   0.00     0.00   0.00   0.00
  61   1     0.00  -0.00   0.00     0.00  -0.00  -0.00    -0.00   0.00   0.00
  62   1    -0.00   0.00  -0.00    -0.00   0.00  -0.00     0.00  -0.00   0.00
  63   1     0.00  -0.00   0.00     0.00  -0.00   0.00     0.00  -0.00   0.00
  64   1    -0.00   0.00   0.00    -0.00   0.00   0.00     0.00  -0.00  -0.00
  65   1     0.00   0.00   0.00     0.00   0.00   0.00     0.00   0.00   0.00
  66   1    -0.00   0.00  -0.00    -0.00   0.00  -0.00    -0.00   0.00  -0.00
  67   1     0.00   0.00  -0.00     0.00   0.00  -0.00     0.00   0.00  -0.00
  68   1     0.00  -0.00   0.00     0.00  -0.00   0.00     0.00  -0.00   0.00
  69   1    -0.00   0.00  -0.00    -0.00   0.00  -0.00    -0.00   0.00  -0.00
  70   1     0.00  -0.00  -0.00     0.00  -0.00  -0.00     0.00  -0.00  -0.00
  71   1     0.00   0.00   0.00    -0.00  -0.00  -0.00     0.00   0.00   0.00
  72   1    -0.00  -0.00   0.00     0.00  -0.00   0.00     0.00  -0.00   0.00
  73   1     0.00   0.00   0.00     0.00   0.00   0.00    -0.00  -0.00  -0.00
  74   1     0.00  -0.00  -0.00     0.00  -0.00  -0.00     0.00  -0.00  -0.00
  75   1     0.00   0.00   0.00     0.00   0.00   0.00     0.00   0.00   0.00
  76   1     0.00   0.00   0.00    -0.00  -0.00  -0.00     0.00  -0.00  -0.00
  77   1    -0.00  -0.00   0.00    -0.00  -0.00   0.00    -0.00  -0.00   0.00
  78   1     0.00  -0.00   0.00     0.00  -0.00   0.00     0.00  -0.00   0.00
  79   1     0.00   0.00   0.00    -0.00  -0.00  -0.00    -0.00  -0.00  -0.00
  80   1     0.00  -0.00  -0.00     0.00  -0.00   0.00     0.00  -0.00  -0.00
  81   1     0.00   0.00   0.00    -0.00  -0.00  -0.00     0.00   0.00   0.00
  82   1     0.00   0.00   0.00     0.00   0.00   0.00    -0.00  -0.00  -0.00
  83   1     0.00   0.00  -0.00    -0.00  -0.00   0.00    -0.00  -0.00   0.00
  84   1     0.00  -0.00   0.00     0.00  -0.00   0.00    -0.00   0.00  -0.00
  85   1     0.00   0.00  -0.00     0.00   0.00  -0.00    -0.00  -0.00   0.00
                    244                    245                    246
                        a                      a                      a 
 Frequencies --  3066.3217              3068.1533              3088.5942
 Red. masses --     1.7012                 1.8007                 1.8764
 Frc consts  --     0.0000                 0.0000                 0.0000
 IR Inten    --     6.1293                40.5590                97.3055
 Raman Activ --     0.0000                 0.0000                 0.0000
 Depolar     --     0.0000                 0.0000                 0.0000
 Atom AN      X      Y      Z        X      Y      Z        X      Y      Z
   1   6     0.00   0.00  -0.01     0.00   0.00  -0.00     0.00  -0.00   0.00
   2   6    -0.00   0.00   0.00    -0.00   0.00   0.00     0.00  -0.00  -0.00
   3   6     0.00   0.00   0.00     0.00   0.00   0.00    -0.00  -0.00  -0.00
   4   6    -0.00   0.00   0.00    -0.00   0.00   0.00    -0.00  -0.00  -0.00
   5   6    -0.01   0.01   0.01    -0.00   0.00   0.00     0.00  -0.00  -0.00
   6   6    -0.00  -0.00  -0.00    -0.00  -0.00  -0.00     0.00  -0.00  -0.00
   7   6    -0.00  -0.00  -0.00    -0.00  -0.00  -0.00    -0.00  -0.00  -0.00
   8   6    -0.00   0.00   0.00    -0.00   0.00   0.00     0.00  -0.00   0.00
   9   6    -0.00  -0.00   0.00    -0.00   0.00  -0.00     0.00  -0.00  -0.00
  10   6     0.00  -0.00  -0.00     0.00  -0.00  -0.00    -0.00  -0.00  -0.00
  11   6     0.00   0.00   0.00    -0.00   0.00   0.00     0.00   0.00   0.00
  12   6     0.00   0.00  -0.00    -0.00  -0.01   0.01     0.00   0.00  -0.01
  13   6    -0.00   0.01   0.01     0.12  -0.12  -0.19    -0.04   0.05   0.07
  14   6    -0.00  -0.00  -0.00     0.01   0.06   0.01     0.04   0.25   0.03
  15   6    -0.00  -0.00   0.00     0.04   0.04  -0.04     0.04   0.03  -0.04
  16   6    -0.00   0.00   0.00    -0.01   0.01   0.01    -0.02   0.02   0.03
  17   6     0.00  -0.00  -0.00    -0.00   0.00   0.00     0.00   0.00  -0.00
  18   6    -0.00  -0.01  -0.01    -0.00  -0.00  -0.00     0.00  -0.00   0.00
  19   6    -0.02  -0.15  -0.20    -0.00  -0.01  -0.01     0.00   0.00   0.00
  20   6    -0.01  -0.00  -0.00    -0.00  -0.00  -0.00     0.00  -0.00   0.00
  21  15    -0.00  -0.00  -0.00     0.00  -0.00  -0.00    -0.00  -0.00  -0.00
  22   6    -0.00   0.00  -0.00    -0.00  -0.00  -0.00     0.00  -0.00   0.00
  23   6     0.00  -0.00  -0.00     0.00  -0.00  -0.00     0.00   0.00  -0.00
  24   6     0.00  -0.00   0.00     0.00  -0.00   0.00    -0.00  -0.00  -0.00
  25   6    -0.00  -0.00   0.00     0.00  -0.00   0.00    -0.00  -0.00   0.00
  26   6     0.00  -0.00  -0.00     0.00  -0.00  -0.00    -0.00   0.00   0.00
  27   6    -0.00  -0.00  -0.00    -0.00  -0.00  -0.00    -0.00   0.00   0.00
  28   6    -0.00  -0.00  -0.00    -0.00  -0.00  -0.00    -0.00   0.00   0.00
  29   6     0.00   0.00   0.00     0.00  -0.00  -0.00    -0.00  -0.00  -0.00
  30   6     0.00  -0.00  -0.00     0.00   0.00  -0.00     0.00  -0.00  -0.00
  31   6     0.00   0.00  -0.00     0.00   0.00   0.00     0.00   0.00  -0.00
  32   6    -0.00  -0.00  -0.00     0.00  -0.00  -0.00    -0.00   0.00   0.00
  33   6    -0.00   0.00   0.00     0.00  -0.00  -0.00    -0.00  -0.00  -0.00
  34   6    -0.00  -0.00  -0.00     0.00   0.00  -0.00     0.00  -0.00   0.00
  35   1    -0.00  -0.02  -0.01    -0.00  -0.00  -0.00     0.00   0.00   0.00
  36   1     0.03  -0.01   0.02     0.00  -0.00   0.00    -0.00   0.00  -0.00
  37   1    -0.03   0.01   0.02    -0.00   0.00   0.00     0.00  -0.00  -0.00
  38   1     0.00  -0.00  -0.00     0.00  -0.00  -0.00    -0.00   0.00   0.00
  39   1    -0.00   0.00   0.00    -0.00   0.00   0.00     0.00  -0.00  -0.00
  40   1     0.00  -0.00  -0.00    -0.00  -0.00  -0.00     0.00   0.00   0.00
  41   1    -0.00  -0.00   0.00     0.00   0.00  -0.00    -0.00  -0.00   0.00
  42   1     0.05  -0.03  -0.02     0.01  -0.01  -0.01    -0.01   0.00   0.00
  43   1     0.00   0.00   0.00     0.00   0.00   0.00     0.00   0.00   0.00
  44   1    -0.00   0.00  -0.00    -0.00   0.00  -0.00    -0.00   0.00  -0.00
  45   1     0.00   0.00   0.00    -0.00   0.00   0.00    -0.00  -0.00  -0.00
  46   1     0.00  -0.00  -0.00     0.00  -0.00  -0.00    -0.00   0.00   0.00
  47   1     0.01   0.00   0.00     0.00   0.00   0.00    -0.00  -0.00  -0.00
  48   1     0.00  -0.00  -0.01    -0.00   0.00   0.00     0.00   0.00   0.00
  49   1    -0.00   0.01   0.00    -0.00  -0.00  -0.00     0.00   0.00   0.00
  50   1    -0.00  -0.00   0.00     0.04   0.03  -0.04    -0.02  -0.02   0.02
  51   1     0.02  -0.02  -0.03    -0.42   0.43   0.66     0.14  -0.15  -0.23
  52   1     0.00   0.00   0.00    -0.04  -0.25  -0.03    -0.14  -0.85  -0.12
  53   1     0.01   0.01  -0.01    -0.14  -0.11   0.14    -0.14  -0.11   0.13
  54   1     0.00  -0.00  -0.00     0.03  -0.03  -0.04     0.07  -0.07  -0.12
  55   1     0.01   0.01   0.00     0.00   0.00   0.00    -0.00  -0.00  -0.00
  56   1     0.01   0.01  -0.07    -0.00  -0.00  -0.00     0.00   0.00  -0.00
  57   1     0.03  -0.00  -0.03     0.00  -0.00  -0.00    -0.01  -0.01  -0.00
  58   1     0.02   0.52   0.81     0.00   0.02   0.03     0.00  -0.00  -0.00
  59   1    -0.00  -0.01   0.02    -0.00  -0.00   0.00     0.00   0.00  -0.00
  60   1     0.04   0.02   0.00     0.00   0.00   0.00    -0.00  -0.00   0.00
  61   1     0.00  -0.01  -0.00    -0.00  -0.00  -0.00    -0.00   0.00   0.00
  62   1     0.00  -0.00  -0.00     0.00   0.00  -0.00    -0.00   0.00  -0.00
  63   1    -0.00   0.00  -0.00    -0.00   0.00  -0.00     0.00  -0.00   0.00
  64   1    -0.00   0.00   0.00    -0.00   0.00   0.00    -0.00   0.00   0.00
  65   1     0.00   0.00   0.00    -0.00  -0.00  -0.00     0.00   0.00   0.00
  66   1    -0.00   0.00  -0.00    -0.00   0.00  -0.00    -0.00   0.00  -0.00
  67   1     0.00   0.00  -0.00    -0.00  -0.00   0.00     0.00   0.00  -0.00
  68   1    -0.00   0.00  -0.00    -0.00   0.00  -0.00     0.00  -0.00   0.00
  69   1     0.00  -0.00  -0.00     0.00   0.00  -0.00    -0.00   0.00  -0.00
  70   1    -0.00   0.00   0.00    -0.00   0.00   0.00     0.00  -0.00  -0.00
  71   1     0.00   0.00   0.00     0.00   0.00   0.00    -0.00  -0.00  -0.00
  72   1    -0.00   0.00  -0.00    -0.00   0.00  -0.00     0.00  -0.00   0.00
  73   1     0.00   0.00   0.00     0.00   0.00   0.00    -0.00  -0.00  -0.00
  74   1    -0.00   0.00   0.00    -0.00   0.00   0.00     0.00  -0.00  -0.00
  75   1    -0.00  -0.00  -0.00     0.00   0.00   0.00     0.00   0.01   0.00
  76   1     0.00   0.00   0.00    -0.00  -0.00  -0.00     0.00   0.00   0.00
  77   1    -0.00  -0.00   0.00    -0.00  -0.00   0.00    -0.00  -0.00   0.00
  78   1     0.00  -0.00   0.00    -0.00  -0.00   0.00     0.00  -0.00   0.00
  79   1    -0.00  -0.00  -0.00     0.00  -0.00  -0.00    -0.00  -0.00  -0.00
  80   1     0.00  -0.00  -0.00    -0.00   0.00   0.00     0.00  -0.00  -0.00
  81   1     0.00   0.00   0.00     0.00   0.00   0.00    -0.00  -0.00  -0.00
  82   1    -0.00  -0.00  -0.00     0.00   0.00  -0.00     0.00   0.00   0.00
  83   1     0.00   0.00  -0.00    -0.00  -0.00   0.00     0.00  -0.00  -0.00
  84   1    -0.00   0.00  -0.00     0.00   0.00   0.00    -0.00   0.00  -0.00
  85   1     0.00   0.00  -0.00    -0.00  -0.00   0.00    -0.00  -0.00  -0.00
                    247                    248                    249
                        a                      a                      a 
 Frequencies --  3094.5573              3103.2019              3153.5404
 Red. masses --     1.6704                 1.8334                 1.8118
 Frc consts  --     0.0000                 0.0000                 0.0000
 IR Inten    --     3.7200                24.0283                 9.3408
 Raman Activ --     0.0000                 0.0000                 0.0000
 Depolar     --     0.0000                 0.0000                 0.0000
 Atom AN      X      Y      Z        X      Y      Z        X      Y      Z
   1   6    -0.00  -0.00   0.00    -0.00   0.00  -0.00     0.00   0.00   0.00
   2   6    -0.00   0.00   0.00    -0.00   0.00   0.00    -0.00   0.00   0.00
   3   6    -0.00  -0.00   0.00    -0.00  -0.00   0.00    -0.00   0.00   0.00
   4   6    -0.00  -0.00  -0.00     0.00   0.00   0.00    -0.00  -0.00  -0.00
   5   6     0.00   0.00   0.00     0.00  -0.00  -0.00    -0.00   0.00   0.00
   6   6     0.00   0.00   0.00    -0.00  -0.00  -0.00    -0.00   0.00  -0.00
   7   6     0.00   0.00   0.00    -0.00  -0.00  -0.00     0.00  -0.00   0.00
   8   6     0.00  -0.00   0.00     0.00  -0.00   0.00     0.00  -0.00  -0.00
   9   6    -0.00  -0.01   0.00    -0.00  -0.00  -0.00    -0.00  -0.00   0.00
  10   6     0.00   0.00   0.00     0.00   0.00  -0.00    -0.00  -0.00   0.00
  11   6     0.00   0.00   0.00    -0.00   0.01   0.00    -0.00  -0.01   0.00
  12   6     0.00  -0.00  -0.00    -0.00  -0.00   0.00    -0.16  -0.13   0.18
  13   6    -0.00   0.00   0.00     0.00  -0.00  -0.01    -0.01   0.01   0.02
  14   6     0.00   0.00   0.00    -0.00  -0.03  -0.01     0.00   0.00  -0.00
  15   6     0.00   0.00  -0.00    -0.04  -0.03   0.04     0.00   0.00   0.00
  16   6    -0.00   0.00   0.00    -0.11   0.13   0.20     0.00   0.00  -0.00
  17   6    -0.00  -0.00   0.00    -0.00  -0.00   0.00     0.00   0.00   0.00
  18   6    -0.01  -0.00  -0.00     0.00   0.00  -0.00     0.00   0.00  -0.00
  19   6    -0.23  -0.09  -0.03     0.00   0.00   0.00     0.00   0.00   0.00
  20   6    -0.01  -0.00  -0.00     0.00   0.00  -0.00    -0.00  -0.00  -0.00
  21  15    -0.00  -0.00   0.00     0.00   0.00   0.00    -0.00   0.00   0.00
  22   6     0.00  -0.00   0.00    -0.00  -0.00  -0.00    -0.00   0.00  -0.00
  23   6     0.00  -0.00   0.00    -0.00   0.00   0.00    -0.00  -0.00  -0.00
  24   6     0.00  -0.00   0.00     0.00   0.00   0.00    -0.00   0.00  -0.00
  25   6     0.00  -0.00   0.00     0.00   0.00  -0.00     0.00   0.00  -0.00
  26   6     0.00  -0.00   0.00     0.00   0.00  -0.00    -0.00   0.00  -0.00
  27   6     0.00  -0.00   0.00     0.00  -0.00  -0.00     0.00   0.00   0.00
  28   6    -0.00  -0.00  -0.00    -0.00  -0.00   0.00    -0.00  -0.00  -0.00
  29   6    -0.00  -0.00  -0.00    -0.00   0.00  -0.00    -0.00   0.00   0.00
  30   6    -0.00  -0.00   0.00    -0.00  -0.00   0.00    -0.00  -0.00   0.00
  31   6    -0.00  -0.00  -0.00    -0.00  -0.00  -0.00    -0.00  -0.00  -0.00
  32   6     0.00  -0.00  -0.00    -0.00   0.00   0.00    -0.00  -0.00  -0.00
  33   6    -0.00  -0.00  -0.00    -0.00   0.00   0.00    -0.00  -0.00   0.00
  34   6    -0.00  -0.00  -0.00    -0.00  -0.00   0.00     0.00  -0.00   0.00
  35   1     0.00   0.00   0.00    -0.00   0.00  -0.00    -0.00  -0.00  -0.00
  36   1    -0.01   0.00  -0.00     0.00  -0.00   0.00    -0.00   0.00  -0.00
  37   1     0.01  -0.00  -0.00     0.00  -0.00  -0.00     0.00  -0.00  -0.00
  38   1     0.00  -0.00  -0.00     0.00  -0.00  -0.00     0.00  -0.00  -0.00
  39   1     0.00  -0.00  -0.00     0.00  -0.00  -0.00     0.00  -0.00  -0.00
  40   1     0.00   0.00   0.00    -0.00  -0.00  -0.00     0.00  -0.00  -0.00
  41   1     0.00   0.00  -0.00     0.00   0.00  -0.00    -0.00  -0.00   0.00
  42   1     0.00  -0.00  -0.00    -0.00   0.00   0.00     0.00  -0.00  -0.00
  43   1    -0.00  -0.00  -0.00     0.00   0.01   0.01     0.00  -0.00   0.00
  44   1    -0.00   0.00  -0.00    -0.01   0.02  -0.02    -0.00   0.00  -0.00
  45   1    -0.00  -0.00  -0.00     0.00  -0.00   0.00     0.00   0.00   0.00
  46   1     0.00   0.00   0.00     0.00   0.00   0.00    -0.00   0.00   0.00
  47   1    -0.01  -0.00  -0.00     0.00   0.00   0.00     0.00   0.00   0.00
  48   1     0.00  -0.01  -0.01    -0.00   0.00   0.00     0.00   0.00  -0.00
  49   1     0.00   0.02   0.01     0.00   0.00   0.00     0.00   0.00   0.00
  50   1    -0.00   0.00   0.00     0.01   0.01  -0.01     0.57   0.46  -0.62
  51   1     0.00  -0.00  -0.00    -0.01   0.01   0.01     0.03  -0.03  -0.05
  52   1    -0.00  -0.01  -0.00     0.02   0.11   0.02    -0.00  -0.01  -0.00
  53   1    -0.00  -0.00   0.00     0.12   0.09  -0.11     0.00   0.00  -0.00
  54   1     0.00  -0.00  -0.01     0.41  -0.44  -0.72    -0.00   0.00   0.01
  55   1     0.02   0.01   0.00    -0.00  -0.00  -0.00    -0.00  -0.00   0.00
  56   1    -0.03  -0.03   0.02     0.00   0.00  -0.00    -0.00  -0.00   0.00
  57   1     0.88   0.38   0.11    -0.01  -0.00  -0.00    -0.00  -0.00  -0.00
  58   1    -0.03  -0.04  -0.04     0.00  -0.00  -0.00    -0.00  -0.00  -0.00
  59   1    -0.00  -0.01   0.01    -0.00  -0.00   0.00    -0.00  -0.01   0.01
  60   1     0.03   0.02   0.00    -0.00  -0.00  -0.00     0.01  -0.00   0.00
  61   1     0.01  -0.01  -0.00     0.00  -0.00  -0.00    -0.00  -0.01   0.00
  62   1    -0.00   0.00  -0.00     0.00   0.00  -0.00     0.00  -0.00   0.00
  63   1    -0.00   0.00  -0.00    -0.00   0.00  -0.00     0.00  -0.00   0.00
  64   1    -0.00   0.00   0.00     0.00  -0.00  -0.00    -0.00   0.00   0.00
  65   1    -0.00  -0.00  -0.00    -0.00  -0.00  -0.00    -0.00  -0.00  -0.00
  66   1    -0.00   0.00  -0.00     0.00  -0.00   0.00     0.00  -0.00   0.00
  67   1     0.00   0.00   0.00    -0.00  -0.00   0.00    -0.00  -0.00   0.00
  68   1    -0.00   0.00  -0.00    -0.00   0.00  -0.00     0.00  -0.00   0.00
  69   1    -0.00   0.00  -0.00     0.00  -0.00   0.00     0.00  -0.00   0.00
  70   1    -0.00   0.00   0.00    -0.00   0.00   0.00    -0.00   0.00   0.00
  71   1    -0.00  -0.00  -0.00     0.00   0.00   0.00    -0.00   0.00  -0.00
  72   1    -0.00   0.00  -0.00    -0.00   0.00  -0.00     0.00  -0.00   0.00
  73   1     0.00   0.00   0.00     0.00   0.00  -0.00     0.00   0.00  -0.00
  74   1     0.00  -0.00  -0.00     0.01  -0.01  -0.00     0.00  -0.00  -0.00
  75   1     0.00   0.00   0.00     0.00   0.01   0.01    -0.00   0.00   0.00
  76   1    -0.00  -0.00  -0.00     0.00   0.00   0.00     0.00   0.00   0.00
  77   1     0.00   0.00  -0.00     0.00   0.00  -0.00     0.00   0.00  -0.00
  78   1     0.00   0.00  -0.00     0.00   0.00  -0.00    -0.00   0.00  -0.00
  79   1     0.00   0.00   0.00     0.00   0.00   0.00     0.00   0.00   0.00
  80   1    -0.00   0.00   0.00     0.00  -0.00  -0.00     0.00  -0.00  -0.00
  81   1    -0.00   0.00   0.00    -0.00  -0.00  -0.00     0.00   0.00   0.00
  82   1     0.00   0.00   0.00    -0.00  -0.00  -0.00    -0.00  -0.00   0.00
  83   1     0.00  -0.00  -0.00     0.00   0.00  -0.00     0.00   0.00  -0.00
  84   1     0.00  -0.00   0.00    -0.00  -0.00  -0.00    -0.00   0.00  -0.00
  85   1     0.00   0.00  -0.00     0.00   0.00  -0.00    -0.00  -0.00   0.00
