$hessian                                                                        
        1.0178641522   0.5237021882   0.1380855053  -0.9781603865  -0.4921746938
       -0.1297973066  -0.0403135135  -0.0350521083  -0.0092569299   0.0099894070
       -0.0001605980   0.0000522267  -0.0038571779  -0.0042342508  -0.0010237213
        0.0042160891   0.0029867053   0.0006931049  -0.0054720881  -0.0051196683
       -0.0013277161  -0.0015236944   0.0107643225   0.0027894931  -0.0015194514
       -0.0002847766  -0.0000681347   0.0013884006   0.0002570412   0.0000328714
       -0.0025700835  -0.0009947653  -0.0002357981   0.0011932407   0.0012039294
        0.0002071275  -0.0012074797   0.0005782185   0.0003395204   0.0008264988
       -0.0004844299  -0.0002909616  -0.0006244592  -0.0000634916   0.0000591743
        0.0002501529  -0.0002207777  -0.0002165561  -0.0002982422  -0.0001971756
       -0.0000922933   0.0007559664   0.0001220694  -0.0001606443  -0.0006682404
       -0.0001423300   0.0001553963   0.0001196415   0.0001474183   0.0001750927
       -0.0000394300  -0.0000651668  -0.0000156841   0.0000134717   0.0000591056
        0.0000149516  -0.0000103741  -0.0000000680  -0.0000025690   0.0000282049
        0.0000052190   0.0000243652  -0.0000230727  -0.0000437360  -0.0000178741
        0.0000708399  -0.0000847323  -0.0001914971  -0.0000426819   0.0000542329
        0.0000257451   0.0000237530  -0.0000534860  -0.0000234460  -0.0000133675
       -0.0000118561   0.0000085466   0.0000213680   0.0000152855  -0.0000243797
       -0.0000107020   0.0000337893   0.0000247509  -0.0002715441   0.0001162724
        0.0002072115   0.0002262822   0.0003224692   0.0000951813  -0.0000892537
       -0.0001251878  -0.0000107565   0.0004163805   0.0001072327   0.0001060931
       -0.0002879739   0.0000434921  -0.0000295335   0.0001099017  -0.0001641434
       -0.0000658960  -0.0001535068  -0.0000671039  -0.0001238601   0.0005158447
       -0.0000875770   0.0001104181  -0.0004644384   0.0001580242  -0.0000952336
        0.0000281683   0.0000281470   0.0001207221  -0.0000029437  -0.0000202203
       -0.0000140671   0.0000146562  -0.0000221846   0.0000125917  -0.0000063480
        0.0000153259  -0.0000058731   0.0000237235   0.0000323495   0.0000179112
       -0.0000123326  -0.0000454065  -0.0000130980   0.0000979383  -0.0001521237
       -0.0001385253  -0.0000311304   0.0000564905   0.0000180597  -0.0000003382
       -0.0000529942  -0.0000128540  -0.0000084438  -0.0000008167  -0.0000021393
        0.0000181376  -0.0000147223  -0.0000263271  -0.0000420002   0.0000327531
        0.0000097627  -0.0001717114   0.0001280297   0.0000629040   0.0001266014
        0.0001143160   0.0000975555  -0.0004594596  -0.0001441076  -0.0001062626
        0.0003240292  -0.0004850285  -0.0000813959   0.0000542591   0.0003462637
        0.0000417001  -0.0000113709  -0.0007685913  -0.0001912550   0.0000261464
        0.0000513263  -0.0000148591  -0.0000465892  -0.0000439944   0.0000531945
        0.0000227378   0.0000279948  -0.0000090960  -0.0000292848   0.0000330494
        0.0000197805  -0.0000024347   0.0000189685  -0.0000116313   0.0000034002
       -0.0000260348  -0.0000008343  -0.0000138205  -0.0000203437  -0.0000148568
       -0.0000225528  -0.0000003714  -0.0000140482  -0.0000050602   0.0000013535
        0.0000072529  -0.0000135203  -0.0000127376   0.0000187842  -0.0000004045
        0.0000201140  -0.0000050567  -0.0000229052   0.0000134039   0.0000164380
       -0.0000260143  -0.0000058649   0.0000186102  -0.0000074547  -0.0000134060
       -0.0000091142  -0.0000340853  -0.0000316565  -0.0000062855   0.0000197034
       -0.0000236764  -0.0000048269   0.0000048935   0.0000154219   0.0000188983
       -0.0000381352   0.0000148414   0.0000130093  -0.0000099634   0.0000165909
        0.0000040062  -0.0000236702   0.0000050870  -0.0000181504  -0.0000174688
       -0.0000115863  -0.0000142915   0.0000026019  -0.0000059433   0.0000094558
       -0.0000181576   0.0000038313  -0.0000153553  -0.0000024286  -0.0000158066
        0.0000068506  -0.0000012906   0.0000260993  -0.0000003270  -0.0000176222
        0.0000165421   0.0000118010  -0.0000190246  -0.0000033427   0.0000096605
        0.0000001729   0.0000021285  -0.0000038434  -0.0000214408  -0.0000244173
       -0.0000142071   0.0000138288  -0.0000176546   0.0000236901  -0.0000475012
        0.0000670384  -0.0000252033  -0.0000025240   0.0000306726   0.0000251610
        0.5237021882   0.2890645937   0.0722192219  -0.4934555607  -0.2896063261
       -0.0684347683  -0.0295950278   0.0002649696  -0.0039875833   0.0020338558
       -0.0037409067  -0.0016489212  -0.0033484890  -0.0017449598   0.0003492245
        0.0017459858   0.0016542985   0.0004041797  -0.0014433414  -0.0000840556
        0.0002354742   0.0018149379   0.0050029985   0.0012158543   0.0004871252
       -0.0001795803   0.0000673972  -0.0002606292  -0.0002176428  -0.0001649233
       -0.0013396970  -0.0003399111  -0.0002810399   0.0006379618   0.0006261482
        0.0000925854  -0.0006240339   0.0003024151   0.0002048040   0.0004171196
       -0.0002545049  -0.0001559283  -0.0003279425  -0.0000320388   0.0000362320
        0.0001263762  -0.0001159136  -0.0001162616  -0.0001540464  -0.0000995136
       -0.0000483607   0.0003891577   0.0000636573  -0.0000806524  -0.0003403086
       -0.0000617346   0.0000839501   0.0000567974   0.0000652312   0.0000866413
       -0.0000182071  -0.0000317629  -0.0000067000   0.0000072813   0.0000281056
        0.0000068805  -0.0000053909   0.0000013606  -0.0000012922   0.0000147346
        0.0000011417   0.0000115039  -0.0000093002  -0.0000211061  -0.0000094000
        0.0000401601  -0.0000480642  -0.0000996812  -0.0000225408   0.0000284449
        0.0000145051   0.0000129922  -0.0000298663  -0.0000125779  -0.0000066091
       -0.0000047303   0.0000049727   0.0000118232   0.0000060941  -0.0000133007
       -0.0000067517   0.0000183050   0.0000137153  -0.0001389238   0.0000629197
        0.0001063987   0.0001176331   0.0001678550   0.0000466019  -0.0000249547
       -0.0000707795  -0.0000192330   0.0002441314   0.0000726865   0.0000669119
       -0.0001548642   0.0000330887  -0.0000124259   0.0000552180  -0.0000878295
       -0.0000416517  -0.0000783790  -0.0000323339  -0.0000671033   0.0002586238
       -0.0000436213   0.0000587633  -0.0002296762   0.0000935224  -0.0000419462
        0.0000081773   0.0000059622   0.0000567337   0.0000029980  -0.0000092617
       -0.0000050670   0.0000066240  -0.0000125010   0.0000047008  -0.0000024427
        0.0000082405  -0.0000026155   0.0000125012   0.0000145391   0.0000085546
       -0.0000055583  -0.0000195196  -0.0000060381   0.0000546106  -0.0000886510
       -0.0000744486  -0.0000202498   0.0000283729   0.0000123704   0.0000002336
       -0.0000300255  -0.0000066744  -0.0000031569   0.0000021737  -0.0000003811
        0.0000091768  -0.0000099355  -0.0000140263  -0.0000223495   0.0000178094
        0.0000050220  -0.0000901115   0.0000684622   0.0000325308   0.0000700834
        0.0000640256   0.0000496189  -0.0002470873  -0.0000561349  -0.0000623941
        0.0001346532  -0.0003831724  -0.0000765931  -0.0001093370  -0.0000835435
        0.0000339568  -0.0001707264  -0.0003747243  -0.0001104709   0.0000177554
        0.0000278767  -0.0000102238  -0.0000201296  -0.0000187263   0.0000301742
        0.0000123476   0.0000129928  -0.0000019052  -0.0000148790   0.0000164953
        0.0000108086  -0.0000015596   0.0000088723  -0.0000064574   0.0000022915
       -0.0000115611  -0.0000001113  -0.0000062051  -0.0000095115  -0.0000068837
       -0.0000115889   0.0000001451  -0.0000067670  -0.0000033069   0.0000017655
        0.0000040686  -0.0000063537  -0.0000074208   0.0000092360  -0.0000002008
        0.0000129817  -0.0000020586  -0.0000117370   0.0000076874   0.0000091719
       -0.0000123879  -0.0000024229   0.0000096135  -0.0000026350  -0.0000057637
       -0.0000048228  -0.0000158062  -0.0000164927  -0.0000030909   0.0000115676
       -0.0000133484  -0.0000024437   0.0000020008   0.0000083197   0.0000158771
       -0.0000201509   0.0000076625   0.0000086494  -0.0000060404   0.0000104380
        0.0000019791  -0.0000121783   0.0000031781  -0.0000089169  -0.0000083794
       -0.0000053498  -0.0000067105   0.0000017204  -0.0000018605   0.0000052360
       -0.0000091085   0.0000002736  -0.0000072351   0.0000017089  -0.0000083928
        0.0000014295  -0.0000004544   0.0000177647   0.0000003276  -0.0000091302
        0.0000099203   0.0000065840  -0.0000085367  -0.0000011759   0.0000048777
        0.0000015336   0.0000023033  -0.0000018580  -0.0000100851  -0.0000144914
       -0.0000076131   0.0000086711  -0.0000135364   0.0000104397  -0.0000379631
        0.0000484880  -0.0000116945  -0.0000482483   0.0000801190   0.0000334742
        0.1380855053   0.0722192219   0.0341853928  -0.1301215172  -0.0684280732
       -0.0480962408  -0.0078081587  -0.0039434229   0.0142116395   0.0005619923
       -0.0017691506   0.0024141424  -0.0008426890   0.0002850563  -0.0028782395
        0.0005100057   0.0004726977   0.0000507783  -0.0003972386   0.0002831594
       -0.0009627705   0.0004931005   0.0012034275   0.0006692191   0.0000635648
        0.0000935994  -0.0003947398  -0.0000331117  -0.0001647300   0.0003084364
       -0.0003927747  -0.0002782720   0.0007049221   0.0001876169   0.0001563489
        0.0000818799  -0.0001850595   0.0001221412  -0.0000441712   0.0001027268
       -0.0000803375  -0.0000337810  -0.0000828045  -0.0000076303   0.0000015946
        0.0000303336  -0.0000354944  -0.0000329863  -0.0000393351  -0.0000265142
       -0.0000074384   0.0000995999   0.0000176921  -0.0000245989  -0.0000862632
       -0.0000136706   0.0000286720   0.0000118284   0.0000111724   0.0000177511
       -0.0000081457  -0.0000070255  -0.0000012802   0.0000016529   0.0000075384
        0.0000023243  -0.0000006852  -0.0000009762  -0.0000003827   0.0000013944
       -0.0000015304   0.0000013028  -0.0000012544  -0.0000027272  -0.0000012975
        0.0000097834  -0.0000109462  -0.0000283378  -0.0000047993   0.0000081888
        0.0000048245   0.0000046962  -0.0000077703  -0.0000037747  -0.0000026597
       -0.0000010787   0.0000023099   0.0000010823   0.0000019381  -0.0000020511
       -0.0000014018   0.0000022522   0.0000035595  -0.0000356194   0.0000122989
        0.0000275500   0.0000282575   0.0000429380   0.0000095646  -0.0000088100
       -0.0000416078   0.0000540361   0.0000664255   0.0000251865   0.0000130209
       -0.0000452840   0.0000116936  -0.0000016380   0.0000181490  -0.0000303313
       -0.0000156588  -0.0000258824  -0.0000088358  -0.0000153335   0.0000714016
       -0.0000089276   0.0000138496  -0.0000632529   0.0000247327  -0.0000038322
        0.0000018091   0.0000006641   0.0000103875   0.0000010307  -0.0000025915
       -0.0000001628   0.0000020964  -0.0000013952   0.0000014654  -0.0000005875
        0.0000006945  -0.0000009170   0.0000031018   0.0000039222   0.0000026490
       -0.0000033704  -0.0000032127  -0.0000010808   0.0000149094  -0.0000213368
       -0.0000215096  -0.0000022130   0.0000074467   0.0000039119   0.0000019344
       -0.0000078891  -0.0000013487  -0.0000018360   0.0000006244   0.0000010316
        0.0000022317  -0.0000031870  -0.0000034132  -0.0000043304   0.0000045463
        0.0000015237  -0.0000216034   0.0000154434   0.0000110778   0.0000224520
        0.0000103437   0.0000111820  -0.0000763642  -0.0000270323   0.0000134653
        0.0000478298  -0.0001040385  -0.0000139115  -0.0000498983   0.0000534129
       -0.0003074828  -0.0000433850  -0.0001174863   0.0000299748   0.0000038098
        0.0000045859   0.0000091557  -0.0000031853  -0.0000035215  -0.0000001481
        0.0000021223   0.0000065981   0.0000004186  -0.0000076033   0.0000048702
        0.0000045614   0.0000007097   0.0000020827  -0.0000020090   0.0000003856
       -0.0000028107  -0.0000011041  -0.0000005705  -0.0000011453  -0.0000026282
       -0.0000009945   0.0000002685  -0.0000024006  -0.0000003035  -0.0000002534
       -0.0000004641  -0.0000024181  -0.0000013205   0.0000015436  -0.0000013272
        0.0000028575  -0.0000017372  -0.0000049326   0.0000016414   0.0000014146
       -0.0000049074  -0.0000009916   0.0000012658  -0.0000022145  -0.0000018132
       -0.0000023424  -0.0000030884  -0.0000032859   0.0000009497   0.0000034448
       -0.0000003825   0.0000027496  -0.0000012940   0.0000050878   0.0000069752
       -0.0000068365   0.0000035339   0.0000029066   0.0000001475   0.0000016587
       -0.0000004157  -0.0000006398   0.0000004430  -0.0000026934   0.0000001799
       -0.0000005248  -0.0000021530   0.0000014310  -0.0000005971  -0.0000000238
       -0.0000011439   0.0000004765  -0.0000025528  -0.0000009241  -0.0000019384
        0.0000004794  -0.0000004519   0.0000037754  -0.0000006221  -0.0000032590
        0.0000026646   0.0000011181  -0.0000034702  -0.0000002450   0.0000005498
       -0.0000007868  -0.0000000558  -0.0000015599   0.0000005035  -0.0000018946
        0.0000003950   0.0000023599   0.0000016689   0.0000057471  -0.0000067074
        0.0000125283  -0.0000095117  -0.0000142125   0.0000248785  -0.0000029243
       -0.9781603865  -0.4934555607  -0.1301215172   1.2424674777   0.5966107317
        0.1572794510  -0.1967730175  -0.0784153563  -0.0204800378  -0.0670347531
       -0.0055892362  -0.0017147338   0.0015873255   0.0112121785   0.0027048484
       -0.0070992224  -0.0038781817  -0.0008380384   0.0105126791   0.0055979206
        0.0014532468  -0.0072136425  -0.0335501118  -0.0087220332  -0.0000200666
        0.0020102352   0.0005209154  -0.0015199601  -0.0004840921  -0.0000632044
        0.0047977529   0.0017937862   0.0004260494  -0.0020373692  -0.0021035105
       -0.0003634391   0.0020675950  -0.0010003281  -0.0005763399  -0.0014513149
        0.0008538054   0.0004973305   0.0010362289   0.0000865556  -0.0000910344
       -0.0003977052   0.0003578258   0.0003418486   0.0004964259   0.0003215372
        0.0001590207  -0.0012013472  -0.0001934412   0.0002537854   0.0010405772
        0.0002138912  -0.0002447874  -0.0001852740  -0.0002333879  -0.0002831535
        0.0000607778   0.0000984868   0.0000230978  -0.0000220024  -0.0000858789
       -0.0000219256   0.0000198319   0.0000023340   0.0000059044  -0.0000428726
       -0.0000096096  -0.0000386536   0.0000348037   0.0000722466   0.0000299483
       -0.0001180571   0.0001422463   0.0003098211   0.0000731565  -0.0000860493
       -0.0000459070  -0.0000381060   0.0000859529   0.0000387012   0.0000237840
        0.0000135249  -0.0000151736  -0.0000291075  -0.0000223716   0.0000363615
        0.0000190683  -0.0000515934  -0.0000404043   0.0004350052  -0.0001940300
       -0.0003499244  -0.0003472065  -0.0005215140  -0.0001430565   0.0000869032
        0.0001315755  -0.0000143952  -0.0006443001  -0.0001823056  -0.0001386166
        0.0004011187  -0.0000633462   0.0000274515  -0.0001418167   0.0002329176
        0.0000949628   0.0002220904   0.0001027505   0.0001938462  -0.0007463699
        0.0001247774  -0.0001622907   0.0006643739  -0.0002428186   0.0001317647
       -0.0000360599  -0.0000372612  -0.0001759701  -0.0000004198   0.0000298401
        0.0000167118  -0.0000170439   0.0000290104  -0.0000167036   0.0000138514
       -0.0000181567   0.0000126310  -0.0000395393  -0.0000444637  -0.0000299136
        0.0000183003   0.0000602547   0.0000208763  -0.0001483444   0.0002395504
        0.0002161654   0.0000511507  -0.0000779344  -0.0000290259  -0.0000017566
        0.0000769477   0.0000209107   0.0000178750  -0.0000057889   0.0000006115
       -0.0000211341   0.0000291916   0.0000413365   0.0000635557  -0.0000501038
       -0.0000124785   0.0002762861  -0.0001967774  -0.0000993865  -0.0001913642
       -0.0001615607  -0.0001276267   0.0006262566   0.0002040413   0.0001473718
       -0.0003381713   0.0006752242   0.0001119542  -0.0012658010  -0.0017525665
       -0.0003752160  -0.0003873985   0.0015578775   0.0003768655  -0.0000461601
       -0.0000642977   0.0000254855   0.0000639078   0.0000648355  -0.0000914058
       -0.0000380191  -0.0000474793   0.0000013299   0.0000438491  -0.0000549517
       -0.0000335486   0.0000047368  -0.0000287746   0.0000179184  -0.0000032792
        0.0000376133   0.0000005476   0.0000198369   0.0000298309   0.0000210363
        0.0000343074   0.0000012998   0.0000201852   0.0000111431  -0.0000024363
       -0.0000120948   0.0000229847   0.0000198465  -0.0000289801   0.0000034934
       -0.0000339136   0.0000071415   0.0000369760  -0.0000196700  -0.0000248090
        0.0000397447   0.0000077182  -0.0000271984   0.0000123720   0.0000191370
        0.0000146717   0.0000500443   0.0000508607   0.0000119603  -0.0000262763
        0.0000399193   0.0000141128   0.0000043087  -0.0000261475  -0.0000414545
        0.0000579263  -0.0000204763  -0.0000230283   0.0000183338  -0.0000258743
       -0.0000048262   0.0000359692  -0.0000054359   0.0000263102   0.0000266934
        0.0000162655   0.0000202608  -0.0000020980   0.0000070908  -0.0000149457
        0.0000307423  -0.0000009167   0.0000222555   0.0000035322   0.0000220036
       -0.0000084026   0.0000066178  -0.0000401801   0.0000010487   0.0000281334
       -0.0000236463  -0.0000161012   0.0000288150   0.0000049854  -0.0000128475
        0.0000027827  -0.0000039810   0.0000054763   0.0000287123   0.0000389954
        0.0000222290  -0.0000216758   0.0000308990  -0.0000270769   0.0000589876
       -0.0001124521   0.0000369781   0.0000192368  -0.0001405482  -0.0000610315
       -0.4921746938  -0.2896063261  -0.0684280732   0.5966107317   0.4134844128
        0.0899928961  -0.0829119827  -0.1043425286  -0.0134354863  -0.0043302053
        0.0145027956   0.0053816756   0.0084883529   0.0037134436  -0.0024789359
       -0.0023762610  -0.0027943586  -0.0005373897   0.0007741024  -0.0065354768
       -0.0031606662  -0.0258063926  -0.0291572864  -0.0081280421  -0.0020085635
        0.0002356464  -0.0000146332   0.0002869539  -0.0001787914   0.0000941262
        0.0024812271   0.0004478815   0.0009125497  -0.0009855223  -0.0010835760
       -0.0001539408   0.0010267938  -0.0004873328  -0.0004020698  -0.0007071299
        0.0003744187   0.0002365490   0.0005053979   0.0000478891  -0.0000564710
       -0.0002374011   0.0002102329   0.0002274161   0.0002663850   0.0001773470
        0.0000838755  -0.0006791732  -0.0001108233   0.0001435770   0.0006087175
        0.0001191465  -0.0001465367  -0.0001046697  -0.0001220541  -0.0001614867
        0.0000362844   0.0000516672   0.0000156695  -0.0000199515  -0.0000506843
       -0.0000152523   0.0000115124   0.0000053885   0.0000050217  -0.0000216195
       -0.0000090030  -0.0000208983   0.0000140609   0.0000378024   0.0000137809
       -0.0000722243   0.0000792801   0.0001790061   0.0000430208  -0.0000475134
       -0.0000300087  -0.0000288319   0.0000522656   0.0000280011   0.0000146937
        0.0000031153  -0.0000113442  -0.0000154817  -0.0000076364   0.0000196376
        0.0000089832  -0.0000270788  -0.0000199184   0.0002417205  -0.0001124099
       -0.0001851085  -0.0002236002  -0.0002993389  -0.0001024787   0.0001095262
        0.0001475317   0.0000750578  -0.0003125907  -0.0000338556  -0.0000588870
        0.0001678342  -0.0000343534   0.0000094150  -0.0001113678   0.0001478845
        0.0000824169   0.0001333847   0.0000543063   0.0001020421  -0.0004416946
        0.0000759425  -0.0000924118   0.0004050520  -0.0001522331   0.0000776642
       -0.0000183424  -0.0000085225  -0.0000994395  -0.0000043616   0.0000141625
        0.0000058897  -0.0000073928   0.0000139815  -0.0000069831   0.0000092572
       -0.0000077522   0.0000095063  -0.0000305997  -0.0000271765  -0.0000233264
        0.0000116898   0.0000332204   0.0000152656  -0.0000878159   0.0001376727
        0.0001277694   0.0000309938  -0.0000448215  -0.0000195430  -0.0000046331
        0.0000467035   0.0000133030   0.0000108642  -0.0000073879  -0.0000017702
       -0.0000121313   0.0000214854   0.0000244469   0.0000370317  -0.0000295544
       -0.0000066733   0.0001383937  -0.0001091788  -0.0000542644  -0.0001181879
       -0.0001075418  -0.0001075349   0.0003303212   0.0000279872   0.0000875745
        0.0000103404   0.0004835449   0.0000908733   0.0003133492   0.0002579596
       -0.0002631767   0.0003600960   0.0006846364   0.0002449890  -0.0000149817
        0.0000077191   0.0000408625   0.0000203513   0.0000435912  -0.0000497575
       -0.0000251669  -0.0000299725  -0.0000082556   0.0000291762  -0.0000296376
       -0.0000232393   0.0000022180  -0.0000149629   0.0000100350  -0.0000017310
        0.0000213899   0.0000005489   0.0000111211   0.0000164424   0.0000115266
        0.0000193354   0.0000005904   0.0000111519   0.0000072824  -0.0000023038
       -0.0000064384   0.0000130010   0.0000111197  -0.0000169373   0.0000017654
       -0.0000213196   0.0000033700   0.0000206283  -0.0000114871  -0.0000147154
        0.0000215710   0.0000037558  -0.0000158637   0.0000060199   0.0000107714
        0.0000078177   0.0000323456   0.0000278990   0.0000082056  -0.0000134004
        0.0000274930   0.0000174969   0.0000024410  -0.0000194925  -0.0000348367
        0.0000380020  -0.0000121200  -0.0000159764   0.0000108254  -0.0000171549
       -0.0000023798   0.0000203429  -0.0000036669   0.0000148176   0.0000149477
        0.0000083494   0.0000112330  -0.0000012942   0.0000035312  -0.0000083246
        0.0000182739  -0.0000004546   0.0000126564   0.0000003776   0.0000130911
       -0.0000037607   0.0000029828  -0.0000259928   0.0000001355   0.0000148992
       -0.0000138428  -0.0000093190   0.0000149694   0.0000023392  -0.0000073384
        0.0000001255  -0.0000028581   0.0000028561   0.0000215989   0.0000215721
        0.0000170505  -0.0000168183   0.0000232142  -0.0000064212   0.0000455081
       -0.0000795411   0.0000162826   0.0000490320  -0.0001132178  -0.0000397276
       -0.1297973066  -0.0684347683  -0.0480962408   0.1572794510   0.0899928961
        0.0950511839  -0.0217913584  -0.0135997736  -0.0563061479  -0.0011457373
        0.0057039888  -0.0053212137   0.0020524408  -0.0023730257   0.0123414525
       -0.0007878883  -0.0006426662  -0.0005440640   0.0003970090  -0.0033567406
        0.0049550029  -0.0068087742  -0.0080383802  -0.0001484120  -0.0005212353
       -0.0000129865   0.0002762268   0.0000682168   0.0000670989  -0.0003946559
        0.0007992793   0.0008299156  -0.0028895050  -0.0003724769  -0.0002910733
       -0.0002169263   0.0003500921  -0.0002863510   0.0003199768  -0.0001515160
        0.0001579002   0.0000379367   0.0001465413   0.0000216724   0.0000194227
       -0.0000420531   0.0000493573   0.0000423081   0.0000503249   0.0000366511
        0.0000128366  -0.0001537368  -0.0000235649   0.0000401836   0.0001263476
        0.0000241550  -0.0000365923  -0.0000160052  -0.0000212817  -0.0000292892
        0.0000098770   0.0000134106   0.0000019266   0.0000012172  -0.0000121076
       -0.0000019704  -0.0000001391  -0.0000032489  -0.0000014364  -0.0000080987
        0.0000008792  -0.0000058973   0.0000048192   0.0000099967   0.0000039828
       -0.0000096239   0.0000164429   0.0000353463   0.0000067586  -0.0000127335
       -0.0000048671  -0.0000007493   0.0000114984   0.0000004085   0.0000008042
        0.0000057540   0.0000000488  -0.0000074284  -0.0000046867   0.0000075959
        0.0000039052  -0.0000096119  -0.0000079201   0.0000560635  -0.0000144106
       -0.0000391103  -0.0000334695  -0.0000729679  -0.0000171470  -0.0000085154
        0.0001177131  -0.0002112720  -0.0001223110  -0.0000330847  -0.0000296871
        0.0000988645  -0.0000270484   0.0000267553  -0.0000280782   0.0000480066
        0.0000204207   0.0000413990   0.0000175646   0.0000321527  -0.0001311000
        0.0000181289  -0.0000284155   0.0001074047  -0.0000374461   0.0000158779
       -0.0000014781  -0.0000034620  -0.0000203631   0.0000019098   0.0000060445
        0.0000043686  -0.0000052094   0.0000079791  -0.0000044157  -0.0000013448
       -0.0000060264  -0.0000022016  -0.0000001727  -0.0000078513  -0.0000000938
        0.0000049441   0.0000097940   0.0000023045  -0.0000215207   0.0000327360
        0.0000342282   0.0000059417  -0.0000170092  -0.0000057526   0.0000041013
        0.0000139659   0.0000006584  -0.0000000055   0.0000042310   0.0000017298
       -0.0000066730  -0.0000002973   0.0000060106   0.0000126308  -0.0000086928
       -0.0000053925   0.0000393243  -0.0000261259  -0.0000177815  -0.0000256734
       -0.0000250307  -0.0000162799   0.0001333864   0.0000587446  -0.0000902520
       -0.0001067743   0.0001785697   0.0000670651   0.0001883664  -0.0002674218
        0.0014128606   0.0000208832   0.0002593264  -0.0002076896   0.0000028909
        0.0000320544  -0.0000519201  -0.0000005175   0.0000050151   0.0000093925
       -0.0000059726  -0.0000088251   0.0000014017   0.0000088630  -0.0000070347
       -0.0000063682  -0.0000010119  -0.0000042253   0.0000024491  -0.0000018919
        0.0000058774   0.0000003254   0.0000025278   0.0000049428   0.0000037886
        0.0000047460  -0.0000007502   0.0000031118   0.0000006500  -0.0000008555
       -0.0000010291   0.0000033113   0.0000023398  -0.0000030016  -0.0000003394
       -0.0000050480   0.0000026910   0.0000063416  -0.0000040485  -0.0000037160
        0.0000071816   0.0000021698  -0.0000043778   0.0000014998   0.0000043986
        0.0000030731   0.0000071360   0.0000065775  -0.0000010010  -0.0000031284
        0.0000017900   0.0000001316  -0.0000008567  -0.0000071816  -0.0000088691
        0.0000092451  -0.0000049327  -0.0000042080   0.0000010706  -0.0000041145
       -0.0000010737   0.0000047421  -0.0000017227   0.0000042405   0.0000033666
        0.0000032731   0.0000037543  -0.0000020607   0.0000019838  -0.0000018910
        0.0000027055  -0.0000012040   0.0000034812   0.0000003053   0.0000044977
       -0.0000004235  -0.0000004121  -0.0000070370   0.0000009112   0.0000052525
       -0.0000050044  -0.0000029126   0.0000057810   0.0000017309  -0.0000017466
        0.0000001614   0.0000002547   0.0000021194   0.0000017792   0.0000041539
        0.0000014107  -0.0000039456   0.0000003165  -0.0000068208   0.0000131100
       -0.0000220607   0.0000201849   0.0000216192  -0.0000418766  -0.0000323874
       -0.0403135135  -0.0295950278  -0.0078081587  -0.1967730175  -0.0829119827
       -0.0217913584   0.6317531853   0.0214745867   0.0064703006  -0.2117830830
        0.1206015727   0.0309456346  -0.1072692221  -0.0270724835  -0.0071204347
        0.0001864319   0.0293745810   0.0074161425   0.0021169988  -0.0359861501
       -0.0093809954  -0.0639969330  -0.0130848509  -0.0032672680  -0.0070999596
        0.0257620572   0.0067939062  -0.0015485089  -0.0018012425  -0.0004906776
       -0.0072402108  -0.0000175088   0.0000369889   0.0019672041   0.0025462206
        0.0004741431  -0.0021135947   0.0011321309   0.0005980056   0.0011043191
       -0.0008927107  -0.0006784941  -0.0010350636  -0.0001679804   0.0001247888
        0.0003398613  -0.0004353424  -0.0003115872  -0.0004677090  -0.0002536518
       -0.0001636493   0.0010963643   0.0001598539  -0.0002407468  -0.0009551469
       -0.0001191005   0.0002294335   0.0001457692   0.0001493227   0.0002666977
       -0.0000402108  -0.0000771630  -0.0000164768   0.0000321124   0.0000610649
        0.0000170376  -0.0000290502  -0.0000099538  -0.0000173037   0.0000318017
        0.0000068957   0.0000238393  -0.0000040776  -0.0000698502  -0.0000279222
        0.0001503798  -0.0001922785  -0.0003068280  -0.0000900847   0.0000777839
        0.0000576852   0.0000374963  -0.0000899629  -0.0000354769  -0.0000261378
        0.0000112224   0.0000218872   0.0000180513  -0.0000024855  -0.0000282354
       -0.0000310129   0.0000444526   0.0000398769  -0.0004504128   0.0001951609
        0.0003450395   0.0003188981   0.0005126428   0.0001362750   0.0005819619
       -0.0009319807  -0.0000609241  -0.0008890081  -0.0012343810  -0.0004084078
        0.0007531192   0.0000391192   0.0000302923  -0.0002044111   0.0002835951
        0.0000382482   0.0001468711   0.0000345805   0.0000912223  -0.0001501802
        0.0000166903  -0.0000042543   0.0001118206   0.0001201667   0.0000352877
       -0.0000498608  -0.0000684920  -0.0000481824   0.0000185981   0.0000204776
        0.0000228696  -0.0000140943  -0.0000022283  -0.0000151740  -0.0000072568
        0.0000067620  -0.0000130977   0.0000297739  -0.0000154109   0.0000139713
        0.0000555254  -0.0000095707   0.0000148484   0.0000267378  -0.0001042840
       -0.0000486257   0.0000032302   0.0000073084   0.0000234156   0.0000051440
       -0.0000231066  -0.0000103864  -0.0000020064   0.0000240195   0.0000039262
       -0.0000183612  -0.0000341846  -0.0000157584  -0.0000446016  -0.0000011269
       -0.0000174846   0.0001493324  -0.0000745784  -0.0000118027  -0.0002250418
       -0.0001379453  -0.0002869405   0.0022122434   0.0013537708   0.0006884843
       -0.0033470001   0.0019053461   0.0003311894   0.0062425921  -0.0065509933
       -0.0019078019  -0.0030432826  -0.0046865618  -0.0011608176   0.0000421746
        0.0000993155  -0.0000181563  -0.0000466379  -0.0000211644   0.0001122010
        0.0000703750   0.0000339469  -0.0000082108  -0.0000438226   0.0000320909
        0.0000470980  -0.0000047127   0.0000276776  -0.0000180799  -0.0000003566
       -0.0000238795  -0.0000023305  -0.0000145001  -0.0000189079  -0.0000160178
       -0.0000320908   0.0000013950  -0.0000141069  -0.0000202844   0.0000132121
        0.0000146298   0.0000040693  -0.0000298915   0.0000174386   0.0000033451
        0.0000461874   0.0000065334  -0.0000262814   0.0000162344   0.0000205987
       -0.0000248492  -0.0000012084   0.0000192304  -0.0000008069  -0.0000094628
       -0.0000156927  -0.0000397054  -0.0000547280  -0.0000123504   0.0000577055
       -0.0000342886   0.0000171345  -0.0000163987  -0.0000228291   0.0000372074