$hessian                                                                        
        0.6118044751   0.0229310724   0.1436007189  -0.0862095708  -0.0630825855
       -0.0170812724  -0.0086827399  -0.0214573860  -0.0024236007   0.0093186075
        0.0056208470   0.0076023037  -0.0053540359  -0.0032903086  -0.0011577845
        0.0018813584  -0.0011447295   0.0005423596  -0.0007349034  -0.0001498112
       -0.0000499827   0.0000094145   0.0001105251   0.0002989577  -0.0010572108
       -0.0002395375  -0.0001191110   0.0007645226   0.0006679891   0.0001137146
        0.0000753975  -0.0000739504   0.0000390638   0.0004149705  -0.0001447782
        0.0002045983  -0.0003003676  -0.0000502029  -0.0000742606  -0.0001152726
       -0.0000454443  -0.0000823149  -0.0008627016   0.0004368351  -0.0005478017
       -0.0006468611  -0.0008926071   0.0002958764  -0.0001216003  -0.0000672860
        0.0000784273  -0.0002700269  -0.0000995044  -0.0000380075   0.0002900017
        0.0003811253  -0.0000514037   0.0000172224   0.0001235405  -0.0000460612
        0.0010735127  -0.0002330476   0.0000983957   0.0007910071  -0.0001340872
       -0.0004329245  -0.0009832098   0.0009534094  -0.0000287886   0.0007919630
       -0.0008854888  -0.0009158212  -0.0013397999  -0.0004875882   0.0004197361
        0.0000141907   0.0004440017   0.0002873964   0.0002704041   0.0001351606
       -0.0000640797   0.0000484178   0.0004058983  -0.0001654946  -0.0002078039
       -0.0004447404   0.0003665257   0.0004432765  -0.0003072768  -0.0002282926
        0.0001844409  -0.0003827399  -0.0000250159   0.0001124160   0.0002375229
       -0.0002195619  -0.0000545741  -0.0001656486   0.0001053145  -0.0000781677
       -0.0000268355   0.0000592667  -0.0001146965  -0.0000741523   0.0001479206
        0.0001443619   0.0006145015   0.0001073851  -0.0900283412  -0.0100686753
       -0.0353483205  -0.1825466084   0.1361302963  -0.0226587256  -0.2482205961
       -0.0865024381  -0.0680041177   0.0019239472   0.0225263457   0.0008349826
       -0.0038044791  -0.0026752643  -0.0051954117   0.0004181291   0.0000030442
       -0.0000324301  -0.0000425054   0.0000566963  -0.0000855238  -0.0000185024
        0.0000424813  -0.0000377057  -0.0000130007   0.0000228662   0.0000210888
        0.0000063128   0.0000150023   0.0000021013   0.0000111728  -0.0000159672
       -0.0000152118  -0.0000083108   0.0000272492   0.0000292102   0.0000188827
       -0.0000169687  -0.0000181663  -0.0000022276  -0.0000291396  -0.0000236154
        0.0000162957  -0.0000491616  -0.0000034936  -0.0000149152   0.0000199689
       -0.0000834443  -0.0001503320  -0.0000436291   0.0000558534   0.0000094444
       -0.0000080193  -0.0000305243  -0.0000416759  -0.0000040971  -0.0000258426
       -0.0000022613   0.0000150849   0.0000086909  -0.0000094457  -0.0000145930
        0.0000000341   0.0000061152   0.0000099945   0.0000015083   0.0000057004
        0.0000040772  -0.0000028067   0.0000224808   0.0000448025  -0.0000384081
        0.0011483028   0.0013273519   0.0000338972
        0.0229310724   0.5677331129   0.0468904325   0.0097255501  -0.2677413005
       -0.0121096031  -0.0592178469  -0.0452478828  -0.0210702301   0.0009842345
       -0.0059602015  -0.0011812709   0.0090574656   0.0098967426   0.0024722408
       -0.0092128129   0.0030291483  -0.0005520185   0.0069582166   0.0106748761
        0.0028536319  -0.0073336821  -0.0080764146  -0.0024116307   0.0045774224
        0.0015568817   0.0003565645   0.0011448248  -0.0012049724   0.0003003739
       -0.0000186096   0.0006859809  -0.0004109910   0.0006139599  -0.0004023998
        0.0004959859  -0.0007938283   0.0003245220  -0.0004112920  -0.0001601332
       -0.0007230371   0.0002843423  -0.0012039747   0.0012532661  -0.0011983323
       -0.0007385870  -0.0017615764   0.0009148818  -0.0004083934   0.0004849672
       -0.0002985966  -0.0005300254  -0.0006577526   0.0001718161   0.0003548317
        0.0007305250  -0.0002656138   0.0002386618  -0.0005781494   0.0004541465
        0.0004188842   0.0014651769  -0.0001708527   0.0048203568  -0.0021507600
        0.0019907693  -0.0028144201  -0.0113342472  -0.0042183123  -0.0027219297
        0.0021459213   0.0006340472   0.0011044620   0.0013015833   0.0004253859
        0.0001797602  -0.0004671524  -0.0005368681  -0.0006206966   0.0005966767
        0.0003189976   0.0003820322  -0.0012047045  -0.0000098881   0.0005433118
        0.0006623659  -0.0005214896  -0.0000899877  -0.0013225502   0.0005788922
        0.0008311511   0.0009601478  -0.0010726762  -0.0001324740  -0.0007751698
        0.0003627604   0.0006379428   0.0001515717  -0.0006240409  -0.0004082414
        0.0001244268   0.0004815657   0.0001872713   0.0001610420  -0.0002014676
       -0.0012062219   0.0000949523   0.0001125779   0.0418107400   0.0339778721
        0.0162730233   0.0464849909  -0.1640499468  -0.0013488775  -0.0865680788
       -0.0798322872  -0.0287899345   0.0010090856  -0.0218099554  -0.0036631039
       -0.0012152971   0.0008303512   0.0014730383  -0.0005944826  -0.0000508601
       -0.0001971056  -0.0000059824  -0.0001011452   0.0002536629   0.0000258170
        0.0000172734  -0.0000532901   0.0000035246   0.0000001737   0.0000641328
       -0.0000103784  -0.0000151535   0.0000131667  -0.0000308785  -0.0000456691
       -0.0000220891  -0.0000563389   0.0000006440   0.0000298033  -0.0000118455
       -0.0000055576  -0.0000262817  -0.0000014206   0.0000007228  -0.0000614125
        0.0000193523  -0.0000200789   0.0000180958  -0.0000709598   0.0000410483
       -0.0001145628  -0.0000903193  -0.0000200866   0.0000231416   0.0001348959
        0.0000524569  -0.0001816252   0.0000535739   0.0000004475  -0.0000544600
        0.0000758625  -0.0000025711   0.0000036833   0.0000148093  -0.0000365314
       -0.0000188447  -0.0000061925  -0.0000352373  -0.0000009322   0.0000106919
       -0.0000109994   0.0000728122  -0.0000287130   0.0000190396  -0.0000968900
        0.0209679964  -0.0233295665   0.0035706114
        0.1436007189   0.0468904325   0.1266372141  -0.0131250001  -0.0359059690
       -0.0465511782  -0.0088691204  -0.0108142874   0.0004593662   0.0106312455
        0.0023091575  -0.0019962864  -0.0022907352  -0.0003622154  -0.0016830660
       -0.0002190576   0.0012077222  -0.0014365863   0.0008910504   0.0009963225
       -0.0000027911  -0.0016774690  -0.0005523355  -0.0009601549   0.0006369043
        0.0000446533   0.0000503078   0.0002525939   0.0000732415   0.0002529284
        0.0001449280   0.0000919001  -0.0000278254   0.0001290215  -0.0002423687
        0.0001296270  -0.0000305389  -0.0001220705   0.0000355339  -0.0001108498
        0.0001655016  -0.0001893601  -0.0004715652   0.0000122709  -0.0001646319
       -0.0005055702  -0.0003103292   0.0000431031  -0.0000038614  -0.0002797444
        0.0002006712  -0.0000430062   0.0001408289  -0.0000891599  -0.0000188040
        0.0003269939  -0.0000791828   0.0002102184   0.0000609807   0.0000980715
        0.0005220756   0.0000301131   0.0000042690   0.0010917518  -0.0005570036
        0.0002513338  -0.0009986300  -0.0000622239   0.0010103168   0.0003771818
       -0.0004742471  -0.0013519878  -0.0007419700  -0.0002434719   0.0004969728
        0.0001722766   0.0001584228  -0.0000599239   0.0000050664   0.0001488822
        0.0000679244   0.0000077882   0.0001221728  -0.0000721056  -0.0001127000
       -0.0001508631   0.0001778486   0.0002951377  -0.0002210468  -0.0000804676
        0.0002022195  -0.0000775757  -0.0001140872   0.0000427148   0.0001272125
       -0.0000931790  -0.0000203363  -0.0000860571   0.0000121279  -0.0000557754
        0.0000294659   0.0000668755  -0.0000475415  -0.0000948368   0.0000862047
       -0.0001964240   0.0006795042  -0.0000530195  -0.0321638425  -0.0039369188
        0.0086127886  -0.0268740207   0.0267597160  -0.0546018064  -0.0687157658
       -0.0281864122  -0.0444385611  -0.0001577968   0.0055012173   0.0028423374
       -0.0026218171  -0.0004939578   0.0060175320   0.0001100518  -0.0002399236
        0.0003063097  -0.0000333707  -0.0002285730   0.0006072305   0.0000091268
        0.0000235889  -0.0000030240  -0.0000076913   0.0000109453  -0.0000134616
       -0.0000023302  -0.0000039461   0.0000008965   0.0000088897  -0.0000081564
       -0.0000192342   0.0000049754   0.0000138553   0.0000284993   0.0000102395
       -0.0000003110  -0.0000191870   0.0000061564  -0.0000088336   0.0000171216
        0.0000394616  -0.0000224446  -0.0000211076  -0.0000372667   0.0000360409
       -0.0001199080  -0.0000808694   0.0000307601  -0.0000149778  -0.0000001401
       -0.0000023725   0.0000339874  -0.0000232793   0.0000186764   0.0000020998
        0.0000145839   0.0000276218   0.0000213766   0.0000032712   0.0000137537
       -0.0000028272  -0.0000067452   0.0000020724  -0.0000255460   0.0000090731
       -0.0000006195  -0.0000131423   0.0000148833   0.0000049118  -0.0000400000
        0.0008202847  -0.0023698239   0.0057669006
       -0.0862095708   0.0097255501  -0.0131250001   0.6360366618  -0.0166551391
        0.1612535367  -0.3155174785  -0.1139388211  -0.0896712274  -0.0578960778
        0.0295545659  -0.0163811615  -0.0006981191  -0.0008514867  -0.0006652358
        0.0033798642  -0.0017305236   0.0000099812  -0.0044508325  -0.0075444260
       -0.0019531754   0.0061778930   0.0054840513   0.0016141528  -0.0039536422
       -0.0012546137  -0.0002431674  -0.0010787562   0.0013076012  -0.0004276483
        0.0000183692  -0.0006920866   0.0004274322  -0.0005554382   0.0004742307
       -0.0005088062   0.0007421431  -0.0002696312   0.0003825504   0.0001915298
        0.0006943553  -0.0002609797   0.0010958787  -0.0012616153   0.0011371670
        0.0006262799   0.0017227137  -0.0008787031   0.0004110880  -0.0004255169
        0.0002677033   0.0004860850   0.0005746573  -0.0001304190  -0.0002883798
       -0.0007756453   0.0002973310  -0.0002833366   0.0005452630  -0.0004635403
       -0.0003902907  -0.0014652522   0.0003181143  -0.0040708725   0.0022656780
       -0.0012920681   0.0017751760   0.0070318046   0.0034234752   0.0021023754
       -0.0013402773  -0.0007554913  -0.0009653353  -0.0009811097   0.0002940768
       -0.0000464846   0.0005190766   0.0002680912   0.0003270723  -0.0003211668
       -0.0000853542  -0.0001224687   0.0005675382  -0.0000021936  -0.0002575392
       -0.0002847371   0.0002519027   0.0000640840   0.0005466959  -0.0002586340
       -0.0006616412  -0.0002916546   0.0006907941   0.0000071399   0.0002777726
       -0.0001170058  -0.0003326528   0.0000237110   0.0003111969   0.0002976119
       -0.0000087950  -0.0003767050  -0.0000637641  -0.0000636369   0.0000934823
        0.0009488994  -0.0002174114  -0.0000583490  -0.0067460957  -0.0222096774
       -0.0051032730   0.0256154247   0.0167006364   0.0116011492  -0.0052258966
       -0.0250058510  -0.0044196597  -0.1811640450   0.1195794068  -0.0386112563
       -0.0072708846  -0.0041277162  -0.0043999717   0.0000526785   0.0000146210
        0.0000754816  -0.0000199103   0.0000173885  -0.0002622388  -0.0000638152
        0.0000021455   0.0000224792   0.0000047299  -0.0000077199  -0.0000417126
        0.0000284954   0.0000518355  -0.0000127429   0.0000233279   0.0000031805
        0.0000317939   0.0000404872  -0.0000052934  -0.0000544379   0.0000340926
       -0.0000178021   0.0000496733  -0.0000170645   0.0000046877   0.0000292777
       -0.0000554855  -0.0000256730   0.0000161763   0.0000479569   0.0000398647
        0.0001289410  -0.0000214797   0.0000125792  -0.0000143288   0.0000419484
       -0.0000045878  -0.0000248392  -0.0000414557   0.0000106968   0.0000325105
       -0.0000608752   0.0000316413  -0.0000156876  -0.0000122339   0.0000124885
        0.0000209516   0.0000153327   0.0000358368   0.0000064315  -0.0000040917
       -0.0000102906  -0.0000315878   0.0000407621  -0.0000226388   0.0000387523
       -0.0020873733   0.0039785217  -0.0024480044
       -0.0630825855  -0.2677413005  -0.0359059690  -0.0166551391   0.5959137917
        0.0218425468  -0.0599399363  -0.1075818050  -0.0211354716   0.0024301641
        0.0142950504   0.0033580625   0.0000115739  -0.0104911943  -0.0002810511
        0.0080744070  -0.0013805304  -0.0002546001  -0.0061583857  -0.0113629427
       -0.0029744452   0.0073107122   0.0086311318   0.0024253411  -0.0036747424
       -0.0012900872  -0.0002916239  -0.0019308743   0.0005189796  -0.0004291874
       -0.0000727849  -0.0006050874   0.0003772456  -0.0010320481   0.0006202741
       -0.0007372030   0.0010354101  -0.0001938813   0.0004444447   0.0002949863
        0.0006122615  -0.0001172194   0.0021533621  -0.0015795757   0.0017010850
        0.0014742797   0.0025932763  -0.0011560534   0.0004931017  -0.0002610933
        0.0001287399   0.0007631377   0.0006460216  -0.0000860420  -0.0006075942
       -0.0011662911   0.0003530257  -0.0003224056   0.0004051930  -0.0003970331
       -0.0015158573  -0.0012440342   0.0000705912  -0.0052431365   0.0023144846
       -0.0016345116   0.0039517849   0.0103997593   0.0046901030   0.0015332231
       -0.0018472282  -0.0006860203  -0.0002395537  -0.0010794302  -0.0005478021
       -0.0001735569  -0.0000163610   0.0003660006   0.0004459841  -0.0007203267
       -0.0003214531  -0.0003383840   0.0007717428   0.0001673898  -0.0002703277
       -0.0002028103   0.0001104350  -0.0004769776   0.0016522713  -0.0002037157
       -0.0012352660  -0.0004351593   0.0012608699   0.0000025135   0.0004726904
       -0.0000934038  -0.0005025182   0.0000417666   0.0004638660   0.0004923999
        0.0000103728  -0.0005734885  -0.0000381631  -0.0001237513   0.0000258274
        0.0011119435  -0.0002320055  -0.0003127833  -0.0290589752  -0.0108627687
       -0.0096062473   0.0691071955  -0.0473593877   0.0171936256  -0.0030826680
       -0.0109445529  -0.0015547327   0.1180393945  -0.1462761225   0.0352194175
       -0.0275714286  -0.0138468934  -0.0107989318   0.0003661105   0.0000828404
        0.0002144409   0.0001325174   0.0000083369  -0.0001431652  -0.0000201628
       -0.0000554822   0.0000650274   0.0000113886  -0.0000187920  -0.0000825401
        0.0000036754   0.0000150499  -0.0000226428   0.0000200904   0.0000501710
        0.0000398983   0.0000619255  -0.0000212545  -0.0000766088   0.0000023547
        0.0000124545   0.0000524310  -0.0000100309   0.0000298612   0.0000645360
       -0.0000505157   0.0000523938  -0.0000065057   0.0000880064   0.0000064922
        0.0002076074   0.0001966086   0.0000805033  -0.0001027425  -0.0000801411
        0.0000122473   0.0001387242  -0.0000021694   0.0000359471   0.0000497652
       -0.0000615685  -0.0000023109  -0.0000532574   0.0000159357   0.0000052340
        0.0000226207   0.0000103841  -0.0000039449  -0.0000036492  -0.0000173576
       -0.0000327802  -0.0000618219   0.0000667880  -0.0000619668   0.0000670519
        0.0037638962  -0.0012494472  -0.0004687976
       -0.0170812724  -0.0121096031  -0.0465511782   0.1612535367   0.0218425468
        0.1570862301  -0.0865793025  -0.0360342798  -0.0699584883  -0.0203355307
        0.0068099396  -0.0041894860  -0.0004308827  -0.0002791697   0.0034460950
        0.0007251580  -0.0005132185   0.0001324054  -0.0017658385  -0.0033136648
       -0.0006870991   0.0028375200   0.0025473877   0.0009505328  -0.0015945031
       -0.0005042936  -0.0002094889  -0.0006588360   0.0003257027  -0.0002188536
       -0.0001088575  -0.0002826153   0.0001548212  -0.0003170937   0.0003340226
       -0.0002736513   0.0003019247  -0.0000083665   0.0001121242   0.0001591679
        0.0001303649   0.0000301196   0.0007607937  -0.0004948362   0.0005585289
        0.0005362925   0.0008528493  -0.0003784512   0.0001832260   0.0000001129
       -0.0000027246   0.0002405967   0.0001437075  -0.0000041111  -0.0001421518
       -0.0004815714   0.0001815537  -0.0002013050   0.0001712639  -0.0002052296
       -0.0004469306  -0.0006044701   0.0000520811  -0.0018958772   0.0009514995
       -0.0004330647   0.0013882481   0.0027677695   0.0007353207   0.0005749256
        0.0000098119   0.0007650998   0.0002309058  -0.0002713205  -0.0004823305
       -0.0002323698  -0.0000224474  -0.0000339545   0.0001587061  -0.0002553398
       -0.0001505500  -0.0000912046   0.0002125453   0.0000612309  -0.0000670939
       -0.0000737023   0.0000610362  -0.0000945898   0.0005594183  -0.0001459680
       -0.0004442513  -0.0001775024   0.0004059373   0.0000207641   0.0001245359
       -0.0000498507  -0.0001910853   0.0000478404   0.0001841252   0.0001829048
       -0.0000789555  -0.0001794123  -0.0000332261   0.0000716981   0.0000059008
        0.0004580519  -0.0006044104  -0.0000043589  -0.0020862620  -0.0039962984
       -0.0069921875   0.0106708672  -0.0008808651   0.0060055815  -0.0013589219
       -0.0081679822  -0.0016074768  -0.0395967136   0.0326707008  -0.0440125872
       -0.0029391633  -0.0015412603  -0.0000073236   0.0000693247  -0.0000012693
       -0.0000718229  -0.0000197490   0.0000178524  -0.0001863407  -0.0000224954
       -0.0000022851   0.0000177278   0.0000042324  -0.0000067656  -0.0000012115
        0.0000089208   0.0000168132   0.0000005443  -0.0000023229   0.0000119592
        0.0000258405   0.0000117914  -0.0000086585  -0.0000282094   0.0000069088
       -0.0000091741   0.0000101723  -0.0000088478   0.0000054367  -0.0000026986
       -0.0000226695  -0.0000021880  -0.0000050092   0.0000487068  -0.0000108696
        0.0000854279   0.0000147758   0.0000083322   0.0000212607  -0.0000046003
       -0.0000008797   0.0000126493  -0.0000236236  -0.0000099103   0.0000214813
       -0.0000323037   0.0000105231   0.0000078248  -0.0000115198   0.0000129260
        0.0000300984   0.0000051521   0.0000149453   0.0000238771  -0.0000082896
        0.0000057555  -0.0000012014   0.0000043538  -0.0000098126   0.0000238829
       -0.0020080719   0.0000797252   0.0058648088
       -0.0086827399  -0.0592178469  -0.0088691204  -0.3155174785  -0.0599399363
       -0.0865793025   0.5854338074   0.0652555029   0.1541103086  -0.1323913546
        0.0569912428  -0.0230886556  -0.0476371427   0.0162330515  -0.0122320468
       -0.0031983859  -0.0016979090  -0.0032429691   0.0034522313   0.0121001545
        0.0024950596  -0.0095234796  -0.0086470897  -0.0030961341   0.0058344901
        0.0018304922   0.0004931271   0.0025181257  -0.0014194116   0.0008130842
        0.0002902292   0.0011172286  -0.0006453326   0.0011918015  -0.0011515214
        0.0011008447  -0.0012028593   0.0001042564  -0.0004592250  -0.0005744654
       -0.0006676868   0.0000235451  -0.0026924957   0.0020314403  -0.0021289309
       -0.0018905481  -0.0033446923   0.0014385880  -0.0006939466   0.0000748956
       -0.0000466033  -0.0009104765  -0.0006267723  -0.0000057658   0.0005247070
        0.0017887368  -0.0006360468   0.0007433952  -0.0006901621   0.0007453376
        0.0018283054   0.0021782473  -0.0002438940   0.0055783967  -0.0032189967
        0.0017121262  -0.0016374413  -0.0058893646  -0.0025917501  -0.0031218478
        0.0000961637  -0.0019781325  -0.0004803595   0.0005455434  -0.0002129800
        0.0002345876  -0.0002837215  -0.0000448349  -0.0001219246   0.0007921334
       -0.0000425025   0.0001673753  -0.0002264512  -0.0002605025   0.0000367061
       -0.0002848678   0.0001763500   0.0007108148  -0.0011170226  -0.0000010329
        0.0009777951   0.0000158649  -0.0008721554   0.0002530677  -0.0001095814
       -0.0002199928   0.0003042098  -0.0002592891  -0.0002524270  -0.0005443632
       -0.0001114936   0.0006854706  -0.0001068071   0.0002884940   0.0000776588
       -0.0013411577   0.0008131755   0.0001479245   0.0112620750   0.0379088075
        0.0038912508  -0.0167653540   0.0000158655  -0.0088564452   0.0012937451
       -0.0010860701   0.0003792336  -0.0250152204  -0.0051856984  -0.0093922373
       -0.0466790944  -0.0447565654  -0.0047621538   0.0001526372  -0.0002596754
        0.0000616481  -0.0004348815  -0.0003080277   0.0008301221   0.0000132527
        0.0000325078  -0.0000820958  -0.0000476624   0.0000805326   0.0000516155
       -0.0000193901  -0.0000283336   0.0000083320   0.0000159495  -0.0000172156
       -0.0000642572  -0.0000360822   0.0000683150   0.0001240521  -0.0000007366
       -0.0000152576  -0.0000822104   0.0000211351  -0.0000800411  -0.0000364841
        0.0000954966  -0.0000539377  -0.0000176172  -0.0000759742   0.0000329569
       -0.0002197358  -0.0002957859   0.0001188077  -0.0000491471  -0.0000904830
       -0.0000261140   0.0000779487  -0.0000702951  -0.0000100851  -0.0000281520
        0.0000679592   0.0000295107   0.0000878467   0.0000071928   0.0000095487
        0.0000057227  -0.0000011282  -0.0000106722  -0.0000334284   0.0000633020
        0.0000360310   0.0000025865   0.0000239550   0.0000463590  -0.0001592938
       -0.0012953841   0.0001056445   0.0019938117
       -0.0214573860  -0.0452478828  -0.0108142874  -0.1139388211  -0.1075818050
       -0.0360342798   0.0652555029   0.6186178185   0.0269430331   0.0891531285
       -0.1326084647   0.0244445086   0.0137924811   0.0098546322   0.0042813197
       -0.0079020026   0.0040082448  -0.0027469122   0.0027905259   0.0023484375
        0.0005950605  -0.0019869360  -0.0013845668  -0.0009960752   0.0019853962
        0.0004089629   0.0001124476  -0.0007613407  -0.0007638130  -0.0001475895
        0.0000305043   0.0000758716  -0.0000074266  -0.0004211382   0.0000555746
       -0.0001647374   0.0004026737  -0.0000699818   0.0001725607   0.0000824609
        0.0002700557  -0.0000529525   0.0007280502  -0.0007039571   0.0006241080
        0.0003928788   0.0010344740  -0.0004046993   0.0001906073  -0.0001911410
        0.0000857489   0.0003208533   0.0002662089  -0.0000428360  -0.0003615318
       -0.0002941619   0.0000141143   0.0001202729  -0.0000503010   0.0000557246
       -0.0010202773   0.0002634163  -0.0000473684   0.0010704153  -0.0006736805
        0.0007109847  -0.0021016512  -0.0038395097  -0.0001868160  -0.0022104782
       -0.0003798595  -0.0005776287   0.0016992230   0.0003774011  -0.0004593905
       -0.0001209995  -0.0000419781  -0.0008574814  -0.0003806789  -0.0002987616
        0.0003103914  -0.0000066448  -0.0006723190   0.0002192052   0.0003522179
        0.0006477468  -0.0005050748  -0.0004111779   0.0001194367   0.0003359789
        0.0001726325   0.0005186020  -0.0001943576  -0.0001290090  -0.0004620789
        0.0003820153   0.0002867761   0.0002403035  -0.0003085079  -0.0000613397
        0.0003801260   0.0000933491   0.0001205786  -0.0002984917   0.0002371377
       -0.0004448389   0.0005121783  -0.0005418776   0.0153659692  -0.0555262615
        0.0005328793  -0.0152944729   0.0075466895  -0.0054593521  -0.0010260019
       -0.0060959094  -0.0006102165   0.0179980059   0.0050470581   0.0044207389
       -0.0414382078  -0.2956671359  -0.0045053960  -0.0002126088  -0.0006922633
       -0.0000851004  -0.0002007228  -0.0001851892   0.0006042637   0.0000213673
       -0.0000127086   0.0000408431   0.0000054567  -0.0000331217  -0.0000164246
       -0.0000288239  -0.0000434213   0.0000155203  -0.0000133327   0.0000304521
        0.0000229304   0.0000075079  -0.0000400313  -0.0000218917  -0.0000399673
        0.0000279097  -0.0000060494   0.0000133926   0.0000269142   0.0000320600
        0.0000495094   0.0000597142  -0.0000068158  -0.0000836351  -0.0000507298
       -0.0000526903   0.0001816297  -0.0000329546   0.0001980688  -0.0000896731
       -0.0000055625   0.0000925291   0.0000836718  -0.0000176628   0.0000127068
        0.0000035890  -0.0000275706  -0.0000204888  -0.0000016007   0.0000294684
       -0.0000195191  -0.0000238034  -0.0000037729  -0.0000326694  -0.0000107608
        0.0000075847  -0.0000018759  -0.0000824112  -0.0000493807  -0.0000166507
       -0.0004150044   0.0012711482   0.0003552109
       -0.0024236007  -0.0210702301   0.0004593662  -0.0896712274  -0.0211354716
       -0.0699584883   0.1541103086   0.0269430331   0.1477548156  -0.0341041385
        0.0122873077  -0.0584309829  -0.0083159751   0.0084568836  -0.0010247254
       -0.0024895277  -0.0029493943   0.0048691492   0.0002645971   0.0028779869
        0.0015726306  -0.0012061664  -0.0023157621   0.0001875806   0.0010025012
        0.0005354335   0.0000331556   0.0004691534  -0.0003466306  -0.0001263742
       -0.0000231987   0.0001465538  -0.0000934718   0.0001826416  -0.0000936453
        0.0001754936  -0.0002208869   0.0000615402  -0.0001145597  -0.0000531128
       -0.0001636372   0.0000887462  -0.0003341901   0.0003447554  -0.0003397963
       -0.0001340372  -0.0004460744   0.0002409905  -0.0001252478   0.0001254917
       -0.0001048934  -0.0001539329  -0.0001824432   0.0000434119   0.0001241278
        0.0001676781  -0.0000993859   0.0000270795  -0.0001597071   0.0000543699
       -0.0000384579   0.0004685815  -0.0000317080   0.0006987526  -0.0005595065
        0.0005685497   0.0013485629  -0.0033213294  -0.0033019902  -0.0038280170
       -0.0010917634  -0.0007491791   0.0008542044   0.0005735611  -0.0009134627
       -0.0001489312  -0.0006827063  -0.0007380175  -0.0003768850   0.0002631495
       -0.0000712101   0.0001509724  -0.0005831298   0.0000302639   0.0002705652
        0.0002770759  -0.0003243070  -0.0003973739  -0.0002802778   0.0002650225
        0.0006421113   0.0003766276  -0.0005515244   0.0000366023  -0.0001658224
       -0.0000061767   0.0002591610  -0.0000091410  -0.0002301443  -0.0003344385
       -0.0000628725   0.0003437073   0.0000678310   0.0000842890  -0.0000504863
       -0.0007744331   0.0008679872  -0.0001528857   0.0056099322   0.0102592225
        0.0098014755  -0.0082098123  -0.0008240581  -0.0025905673  -0.0004378834
       -0.0008561771   0.0039001092  -0.0075477381  -0.0012802093  -0.0010111307
       -0.0046473175  -0.0069049066  -0.0272023808   0.0001767479   0.0000175495
       -0.0004886666  -0.0001302170   0.0003593691  -0.0009923646   0.0000025006
       -0.0000066658  -0.0000349652  -0.0000065336  -0.0000019436   0.0000101000
       -0.0000014943  -0.0000181155  -0.0000125846  -0.0000063897   0.0000042739
       -0.0000017653  -0.0000128253   0.0000030603   0.0000081241  -0.0000130563
        0.0000069023  -0.0000003446   0.0000052498  -0.0000074304  -0.0000061923
       -0.0000123041   0.0000068648   0.0000236006   0.0000419771  -0.0000195697
        0.0000680553  -0.0000075417   0.0000090915   0.0000299771   0.0000167099
        0.0000275820   0.0000136035   0.0000427127   0.0000072954   0.0000017102
        0.0000557421  -0.0000045713  -0.0000099189  -0.0000140113  -0.0000191391
       -0.0000049953  -0.0000097259  -0.0000280533   0.0000121874   0.0000078836
       -0.0000181334   0.0000288598  -0.0000880153  -0.0000194451   0.0000064076
       -0.0001699838   0.0000688162  -0.0008218173
        0.0093186075   0.0009842345   0.0106312455  -0.0578960778   0.0024301641
       -0.0203355307  -0.1323913546   0.0891531285  -0.0341041385   0.5643995194
        0.0044665808   0.1376471448  -0.2390485712  -0.0521720709  -0.0686043780
       -0.0471876791   0.0085318043  -0.0080447437  -0.0026453563  -0.0096595392
       -0.0010539630   0.0137695941   0.0103011352   0.0043948166  -0.0093611219
       -0.0028185131  -0.0009345265  -0.0044268133   0.0025406116  -0.0015848729
       -0.0007181343  -0.0021418925   0.0011581852  -0.0018783732   0.0023205720
       -0.0020005448   0.0017975835   0.0000474414   0.0005685081   0.0011520887
        0.0007534630   0.0002402188   0.0047226339  -0.0032545619   0.0035049046
        0.0034208295   0.0056154929  -0.0022622575   0.0011756708   0.0003408322
       -0.0001740266   0.0014067392   0.0007046727   0.0001801491  -0.0006426958
       -0.0032951362   0.0012903354  -0.0015089457   0.0012751178  -0.0014493950
       -0.0033009915  -0.0039062849   0.0005447968  -0.0053000038   0.0060801213
       -0.0018570961  -0.0073581505  -0.0119596625  -0.0044146022   0.0017543701
        0.0000325928   0.0020750352   0.0018854105  -0.0001825110  -0.0007398296
       -0.0000230784  -0.0005598255   0.0003365754  -0.0001925244  -0.0010177343
        0.0000577589  -0.0003812135  -0.0003124615   0.0006109034   0.0004051029
        0.0012016375  -0.0008410497  -0.0014553474   0.0017391765   0.0005298923
       -0.0015201561   0.0007149166   0.0010204568  -0.0005937495  -0.0003582826
        0.0005769740  -0.0001208490   0.0006060199   0.0000493885   0.0006024435
        0.0004161704  -0.0010147432   0.0002487467  -0.0003021629  -0.0001714706
        0.0017999728  -0.0008411360   0.0001049497  -0.0535593322  -0.0077871380
       -0.0010334456  -0.0323209069  -0.0353535787  -0.0053498779   0.0008135800
        0.0008920369  -0.0024954326  -0.0030510776  -0.0013069709  -0.0039985665
       -0.0000221519  -0.0014828189   0.0061831769   0.0006541207  -0.0001364337
       -0.0005284196  -0.0005907878  -0.0000228640  -0.0010762620  -0.0000615547
       -0.0000561234   0.0000838124   0.0000800695  -0.0001532450  -0.0000646995
        0.0000325686   0.0000490828  -0.0000306469  -0.0000583701   0.0000221768
        0.0001061785   0.0000325632  -0.0001197841  -0.0002415438  -0.0000050431
        0.0000164088   0.0001492315  -0.0000473419   0.0001413477   0.0000356597
       -0.0001923429   0.0000194098   0.0001181593   0.0003005644   0.0002737255
        0.0003751178   0.0006880448   0.0000660973  -0.0007138412   0.0001536582
        0.0000530229  -0.0001477939   0.0000942820   0.0000283468   0.0000356077
       -0.0000461175  -0.0001124611  -0.0001464891   0.0000404509  -0.0000591857
       -0.0000555083   0.0000491262  -0.0000678581   0.0000671355  -0.0001065929
       -0.0001150009   0.0000429594  -0.0000304155  -0.0000687167   0.0002075989
       -0.0027551191  -0.0021935869  -0.0074571810
        0.0056208470  -0.0059602015   0.0023091575   0.0295545659   0.0142950504
        0.0068099396   0.0569912428  -0.1326084647   0.0122873077   0.0044665808
        0.5010290360   0.0483037211  -0.0468765480  -0.0852580804  -0.0234280203