54
 energy: -89.428399393023 gnorm: 0.000057000991 xtb: 6.7.1 (edcfbbe)
N           -5.90009441896047        1.82188268991479        0.82892620758644
C           -4.91633192385577        1.28275918745027        0.58943243566061
C           -3.69654498545547        0.63590295827582        0.29286514758449
C           -2.48829432371989        1.25643967027121        0.58879195038538
C           -1.27488196830863        0.63459287311910        0.31232875988143
N           -0.08599251533555        1.26538523789615        0.66215010196987
C            0.97573154949846        0.67669872625332        1.33417680408237
C            1.02859035645501       -0.53864649857862        1.99777363343447
C            2.21642235407936       -0.88404305130254        2.61567535235058
C            3.31722755060905       -0.03253595330211        2.59621536861248
C            3.24750292098683        1.20632011595472        1.98807315086740
C            2.06529378554912        1.57244406941223        1.35993823134976
C            1.63345052115305        2.76561476334920        0.68224246197229
C            2.25769476957421        3.96940790798434        0.38526293593809
C            1.54844852521780        4.92910324494889       -0.31115043892522
C            0.23895579836012        4.69435641987637       -0.72058392622699
C           -0.40256843722591        3.50180209361865       -0.43694113479112
C            0.29889344077205        2.54440302243947        0.27914154270991
C           -1.27329944108689       -0.63876953106269       -0.31067040425930
N           -0.08285149484579       -1.26597448444799       -0.66165332956940
C            0.97639306101268       -0.67396759687026       -1.33467535776065
C            1.02476324502746        0.54151641488497       -1.99835958414162
C            2.21091722640678        0.89067982575886       -2.61735811145572
C            3.31443309083613        0.04266746244369       -2.59889956826651
C            3.24919468787525       -1.19641092452749       -1.99070710726296
C            2.06873416297391       -1.56628711105698       -1.36147825557276
C            1.64124070248431       -2.76083267880095       -0.68344293902707
C            2.26948354526527       -3.96271890521797       -0.38717822655960
C            1.56384007224474       -4.92469347189092        0.30974902832979
C            0.25402420743285       -4.69403551541390        0.72046414998498
C           -0.39145149541726       -3.50343372356516        0.43757803458665
C            0.30637147955448       -2.54380477500809       -0.27907640385840
C           -2.48513661790462       -1.26414939355528       -0.58607651968646
C           -3.69493095557250       -0.64707554571842       -0.28920847285209
C           -4.91311282319729       -1.29732199337034       -0.58492163032363
N           -5.89560167821350       -1.83913198589968       -0.82364930668429
H           -2.49151210033802        2.22000889510507        1.07595768624440
H            0.17317412070272       -1.19460290414387        2.04948767793877
H            2.28584810157837       -1.83282156962775        3.12645836453979
H            4.23031376423374       -0.33964435307816        3.08379511672688
H            4.08947749375705        1.88117759076750        2.00524356243173
H            3.27792420571327        4.14518209197689        0.69001213522229
H            2.01473904191776        5.87325355006934       -0.54999337538523
H           -0.28919060325925        5.45690239762285       -1.27360151309465
H           -1.41348576971044        3.33030459638298       -0.77634606234335
H            0.16721132935995        1.19473904058723       -2.04930408774352
H            2.27684369072283        1.83963731486091       -3.12827102998978
H            4.22609442525720        0.35268010232217       -3.08730841849393
H            4.09332949555872       -1.86854703855994       -2.00866423462684
H            3.28997887854965       -4.13531703037395       -0.69284996662846
H            2.03326623876950       -5.86743065047820        0.54801647994498
H           -0.27124088041151       -5.45828190245400        1.27387919591849
H           -1.40257150390340       -3.33510551978967        0.77797239629577
H           -2.48597667350116       -2.22774009246824       -1.07321285521351
