92
 energy: -139.041384132649 gnorm: 0.000037166714 xtb: 6.7.1 (edcfbbe)
C           -8.36525534568172       -7.24926050862695        0.49401732514360
C           -8.20218272791078       -6.61482479379185       -0.72656391641521
C           -7.49459034851102       -5.42955246504921       -0.80614789744241
C           -6.93205325765098       -4.85919545912813        0.33449951956252
C           -6.17331922483174       -3.60272036059008        0.24944041844987
C           -6.60981125082326       -2.55477875869998       -0.55995868745077
C           -5.89669334367573       -1.37732775258489       -0.64719137865495
C           -4.71653618077755       -1.20986795503835        0.07759431574815
N           -3.99078184432556       -0.01527049783213       -0.01127549660099
C           -4.67539438121845        1.20422026225393       -0.09156594999983
C           -4.20795620087757        2.23201433063620       -0.91085229244539
C           -4.88614464572620        3.43092647065713       -0.98350789495248
C           -6.04940474240129        3.64638740553355       -0.24575993562801
C           -6.76658219147755        4.92754381565066       -0.32293069218604
C           -7.29455632913614        5.51750857910080        0.82416065218538
C           -7.96637471289442        6.72384168950094        0.75155292432920
C           -8.12673948807277        7.36039476883412       -0.46829331027300
C           -7.60824010060259        6.78263090951277       -1.61558345978238
C           -6.93217624387159        5.57858240917250       -1.54406846079705
C           -6.51363509401057        2.61342480530110        0.56740382759377
C           -5.84115842421216        1.41170719925256        0.64592370630618
C           -2.59539698321342       -0.03915528989951       -0.01617406047790
C           -1.90179150074928       -1.08758517967998       -0.62444588953665
C           -0.52357776883286       -1.11303912858580       -0.61712995436327
C            0.21284202759904       -0.08662924988592       -0.02574211049515
C            1.67967227286474       -0.11063386785568       -0.02812530245245
C            2.37531324258411       -1.29647280110272        0.20816151576028
C            3.75480613164347       -1.32259176663316        0.21154806387106
C            4.48604226514365       -0.15940346707427       -0.02681367089493
C            5.95234941282742       -0.14572855774833       -0.02930366019935
C            6.72062767395263       -1.28216794467385       -0.28561701166889
C            8.10681007759617       -1.13891284032117       -0.25778458098719
C            9.02231840823676       -2.26158446916707       -0.50468199719837
C           10.28458139885375       -2.25347748396834        0.08696611237301
C           11.16331154429406       -3.29902700050840       -0.12230454519415
C           10.79780813086198       -4.36196684603337       -0.93321297602718
C            9.55036450837123       -4.37195107166131       -1.53609816105158
C            8.66532890925320       -3.33073421120380       -1.32382709187914
N            8.66749362112239        0.03858528790228        0.01551256721607
C            7.86385279622990        1.07445139422650        0.23323354618267
C            8.49118925889379        2.36924434098090        0.51964604914214
C            9.87338852095736        2.51880303803186        0.42102776680623
C           10.46144824680846        3.73888969232303        0.69583419674362
C            9.67893045257412        4.82048567177189        1.06991775156370
C            8.30333202639369        4.67869351621544        1.16839775616082
C            7.71014839080798        3.46086139091650        0.89514628758115
N            6.53684914022405        1.02765535193428        0.21463752411416
C            3.79223523087869        1.02918556935571       -0.25785151421564
C            2.41430615342075        1.05327751604291       -0.25877861016561
C           -0.48447899529943        0.96400410519756        0.57070431472366
C           -1.86250652426087        0.98510402419407        0.58726641388678
C           -4.27690812138925       -2.25253026972740        0.89354940713315
C           -4.99571575586765       -3.42691439145022        0.97497623073354
C           -7.10197799433247       -5.50741744910422        1.55660961830090
C           -7.81350432363411       -6.69039784984045        1.63514675316464
H           -8.91959011416795       -8.17453961822569        0.55554199394843
H           -8.62695159559121       -7.04739384342640       -1.62134831288666
H           -7.35707856998559       -4.95006467546413       -1.76474995831982
H           -7.52754444020443       -2.66004346310162       -1.11990138527434
H           -6.24922287593510       -0.57612662203206       -1.28059459018825
H           -3.30895648532589        2.08217404636305       -1.49106208075747
H           -4.50027857223921        4.21953433889657       -1.61291256757758
H           -7.15870403419644        5.03550082590974        1.78172490742743
H           -8.36502970706542        7.17127945665867        1.65102620015788
H           -8.65327974697478        8.30208825539664       -0.52459151384558
H           -7.73324476390262        7.27233567780788       -2.57095575412577
H           -6.54458571597707        5.12625900983241       -2.44564679373322
H           -7.42115036912341        2.74982649019702        1.13723436188673
H           -6.21460799415403        0.62268746479967        1.28255735169947
H           -2.45405895423285       -1.88036243433085       -1.10763219612084
H           -0.00709494052789       -1.92480016832349       -1.10821762183254
H            1.82530369442931       -2.20266919020815        0.41640110266373
H            4.26396996725722       -2.24999170014970        0.42943604808053
H            6.26312365117952       -2.23403145046788       -0.49502869849165
H           10.55449283954314       -1.41848097101660        0.71541499100541
H           12.13640769918129       -3.28520289605758        0.34641592909878
H           11.48481734111858       -5.17874565412622       -1.09882975215181
H            9.26635030580304       -5.19327474578699       -2.17782201555670
H            7.70432359607334       -3.33844932169648       -1.81717382835075
H           10.46771790958936        1.66838003357620        0.12442582056218
H           11.53333766663012        3.84904324599238        0.61759177634440
H           10.14075166152048        5.77323132888512        1.28453156709474
H            7.69285939105390        5.52080040020480        1.46054465067489
H            6.64158925075733        3.33233107600573        0.97214834376529
H            4.36022770431160        1.92776437810745       -0.44456860707307
H            1.89552740258156        1.97912393794411       -0.45967603818410
H            0.06266769005703        1.75733870705638        1.05843834097082
H           -2.38429436362134        1.79565213848010        1.07472743173890
H           -3.36756690573601       -2.13319661105047        1.46467172499083
H           -4.63078332542209       -4.22777091072331        1.60145063945505
H           -6.68863913743554       -5.06948709226301        2.45383439472327
H           -7.94070995539805       -7.17802130071391        2.59131008284167
