126
 energy: -186.471413285278 gnorm: 0.000200452297 xtb: 6.7.1 (edcfbbe)
C            7.11526663525465        8.18713072266736       -0.11012969461416
C            5.57633541452072        8.17271037979271       -0.05088967509443
C            5.03250787650655        9.61247501085181        0.00598582047628
C            5.04943723613743        7.50313993750148       -1.30437101126087
C            5.34666694007686        8.04239250512387       -2.54812702055787
C            4.89450324750657        7.46917469815173       -3.72247598112155
C            4.12273302293431        6.32059059051318       -3.66558241213046
C            3.81191210394261        5.76291434354146       -2.44530265475588
C            4.26547481226752        6.34268866368190       -1.25393213132943
N            3.93465113347705        5.76035891838567       -0.04728721727292
C            3.13515542609653        4.57992669167955       -0.04524112368850
C            3.74459098781072        3.32538701889343       -0.05470575727379
C            2.97533717338650        2.18644280431812       -0.04970334191728
C            1.57378367338325        2.27155479461258       -0.03600000544190
C            0.76692315927618        1.08337989318232       -0.02697738495390
N            1.35617086045839       -0.10666261795594       -0.02551944047268
C            0.59300722373543       -1.19201273015734       -0.00886268447881
C            1.21082632893814       -2.48931826111426       -0.00340707673634
C            0.42594182375695       -3.65305746347421        0.02240429050074
C            1.01646209114131       -4.89484144051904        0.03044585203421
C            2.40568092030766       -5.00675748476222        0.01172581984627
N            3.01760214475636       -6.29441929933356        0.02110683894765
C            3.35777150035571       -6.86453350144901        1.23110130611821
C            3.09233838264179       -6.17031104858711        2.41803551499929
C            3.42106542971878       -6.71078861859017        3.64137547408958
C            4.02139145782672       -7.95719016776697        3.70584833470295
C            4.28233743443221       -8.64656275529311        2.53590091310898
C            3.96232486589827       -8.12742071318023        1.28923738856562
C            4.26921532641539       -8.93032485243332        0.04090320221889
C            3.50699092358780      -10.26656769115058        0.11467289975732
C            5.78670295263085       -9.18601391644786       -0.02086984933818
C            3.84885271858552       -8.20012490253361       -1.21896953144461
C            4.05649303693227       -8.79123578285016       -2.45733577177276
C            3.69477342268759       -8.16730067489585       -3.63715572081852
C            3.10851437650825       -6.91338987596201       -3.59144809537572
C            2.88985207066953       -6.30238996173710       -2.37670398965088
C            3.25220385383887       -6.93275169796784       -1.17982013840041
C            3.19749686685194       -3.85891284560005       -0.01541726973780
C            2.60888034565163       -2.61688109501636       -0.02243872178998
N           -0.76570295257299       -1.11547910662157        0.00499563551708
C           -1.29949087852152        0.09748628713915       -0.00285289427926
C           -2.75485325574049        0.21017130606854        0.00725960345861
C           -3.36338699514925        1.46615460969755       -0.01628856648304
C           -4.73748341417418        1.57459983292759       -0.00665597193193
C           -5.52359008078065        0.42650826110853        0.02848533443341
N           -6.94371359653326        0.53748881498264        0.04075745080316
C           -7.59202056849027        0.69816804945622        1.25064501046331
C           -6.84431659576777        0.74182156321826        2.43294039287172
C           -7.46135165092256        0.90422456175829        3.65407909470472
C           -8.83892878688895        1.02409737931388        3.71981464431365
C           -9.58047561753073        0.97518230676717        2.55378517226783
C           -8.98647953960328        0.81282494677368        1.30993797393268
C           -9.85263901234888        0.75929986190899        0.06679175904799
C          -10.82128429082431       -0.43117930602533        0.19326850798296
C          -10.64084391738508        2.07763627154359       -0.04338703152448
C           -9.02648680286883        0.58177339750669       -1.19195561521448
C           -9.65995953305105        0.51643802420800       -2.42515547865962
C           -8.95486860309888        0.36162795248137       -3.60447144047514
C           -7.57406339285418        0.27155004332187       -3.56337390630324
C           -6.91829985068538        0.33230270470950       -2.35317871758256
C           -7.62997716226783        0.48305470058688       -1.15754309530687
C           -4.92484208386592       -0.82970514397690        0.05231892381828
C           -3.55046744230434       -0.93615098557355        0.04086771515170
N           -0.58767499373246        1.21413694212533       -0.01809163337995
C            0.97367766295537        3.54102779571364       -0.02843921512292
C            1.74482815695979        4.67931140486392       -0.03239612482679
C            4.35454801597180        6.28571380688145        1.15786843343350
C            3.98183744280332        5.65458667075056        2.35119153620861
C            4.38602417013642        6.15245599272790        3.56998640079662
C            5.17092144089411        7.29226856321775        3.62344280383892
C            5.53829858525282        7.91956931564172        2.44716081895682
C            5.14569652599445        7.44141631683009        1.20485860188376
H            7.46425133434617        8.71724049453909       -0.99186508654219
H            7.53238694023753        8.67342009126685        0.76725191672767
H            7.49338855903632        7.16733249213308       -0.15021089094526
H            5.40161702949749       10.13186150172649        0.88587821201857
H            5.33338370585063       10.17560653036859       -0.87297171491285
H            3.94506391397581        9.59569790453480        0.04780099433734
H            5.94901014597432        8.93615755745738       -2.60968879183731
H            5.14406264115803        7.91520343337879       -4.67308355856351
H            3.76272420848375        5.85816669566559       -4.57224462565325
H            3.21201631667111        4.86742649399852       -2.40156908708434
H            4.82343690692163        3.26480411136663       -0.06501218497472
H            3.43142111917394        1.20918110625703       -0.05623976399329
H           -0.64753187083938       -3.54963641455542        0.03685864448967
H            0.41613069945126       -5.79314608625148        0.05113298553620
H            2.62378602172633       -5.19990407425439        2.36860277300465
H            3.20836718431529       -6.15883070315142        4.54447408362308
H            4.28385931478563       -8.39042432328463        4.65889711077686
H            4.74914975211180       -9.61762786693130        2.60331989278238
H            3.79334964748089      -10.82778614845726        0.99970266423113
H            2.43569121128211      -10.07946759540852        0.15813981824696
H            3.71311761505605      -10.87911168097693       -0.75856632472812
H            6.12564380572632       -9.72232845610933        0.86101406379575
H            6.04541822520578       -9.77363997179074       -0.89722534063430
H            6.31969219807678       -8.23849637398513       -0.07287430203297
H            4.51397012071620       -9.76763338122054       -2.51014822807726
H            3.87050890291286       -8.65594901799785       -4.58331866424640
H            2.82154297212155       -6.41032062474647       -4.50252137555632
H            2.43439155934699       -5.32513336158941       -2.34178146567555
H            4.27305524137511       -3.96203689586155       -0.03006710934398
H            3.20710926609013       -1.71976487279244       -0.04302298809097
H           -2.73691618447314        2.34378564480017       -0.04317102791048
H           -5.21676019611536        2.54258784664427       -0.02470193191470
H           -5.77075762681968        0.64567502030295        2.38531277795953
H           -6.86553597235712        0.93624100937020        4.55380860486058
H           -9.33333976480843        1.15247678692318        4.67054595977567
H          -10.65398407450784        1.06633370852443        2.62189302011536
H          -11.47113407949705       -0.49624555945783       -0.67492867474428
H          -10.25835862369653       -1.35942589048289        0.27141760770537
H          -11.44378245557002       -0.33221385485571        1.07814063803623
H           -9.95096272501509        2.91465250683575       -0.13326172400254
H          -11.28758377135126        2.07116539703921       -0.91626230345614
H          -11.25837755846520        2.23514300979175        0.83642385563715
H          -10.73597807967996        0.58831678889776       -2.47400826449587
H           -9.47960381177461        0.31395815019652       -4.54638260767836
H           -7.00582545286492        0.15430013744043       -4.47380163185714
H           -5.84190908226570        0.26426115598200       -2.32455866885480
H           -5.54831901826268       -1.71152887173591        0.07879969035137
H           -3.06769919184773       -1.90053772734990        0.05898053523875
H           -0.10312579166081        3.60104788387810       -0.01768242506206
H            1.28702189640095        5.65816319645404       -0.02547534661630
H            3.36969706196067        4.76730355541985        2.31027860753906
H            4.08803726123227        5.65055547476036        4.47815764920673
H            5.49411574304698        7.69107969187961        4.57284941965910
H            6.14898032437729        8.80784302655256        2.50599412761164
