$hessian                                                                        
        0.2072821309   0.2348746754  -0.1005416285  -0.1735522780  -0.1935172862
        0.0827009397  -0.0452531437  -0.0462573135   0.0203702265  -0.0042411718
        0.0047355725   0.0009087858  -0.0048786825   0.0003680505  -0.0001524979
        0.0068513759  -0.0000371501  -0.0013793581  -0.0057549147  -0.0003928063
        0.0011192505   0.0009102436   0.0016691072   0.0004448432  -0.0003665554
       -0.0002874606  -0.0002907973   0.0001397772   0.0000950180   0.0002457917
       -0.0000747859  -0.0000679881  -0.0000116627   0.0001775106   0.0001213354
       -0.0000320072  -0.0001618376  -0.0002582093  -0.0002611090   0.0008191618
       -0.0016614346  -0.0006176242  -0.0001322208   0.0002601181   0.0002973680
        0.0001899189  -0.0001102265  -0.0000354110  -0.0000380498   0.0000499971
        0.0000641202   0.0000496952  -0.0000410527  -0.0002456743  -0.0002457160
        0.0002986849   0.0003341287  -0.0022326707  -0.0022678372  -0.0023199431
        0.0041515634  -0.0061476722   0.0005933631   0.0172850767   0.0040653099
        0.0012202305  -0.0019939177   0.0022819953  -0.0000976483   0.0009094401
       -0.0014581329  -0.0003421573  -0.0000625254   0.0004882214  -0.0005585511
        0.0003072019  -0.0002645094  -0.0006991292  -0.0004465123  -0.0000173585
       -0.0003144106   0.0002615860   0.0000947313   0.0001137253   0.0001223740
        0.0000661547  -0.0000127042  -0.0000499356  -0.0000521918  -0.0000245957
        0.0001144632  -0.0000052377   0.0000215914  -0.0000824065   0.0000930249
       -0.0001307201   0.0001300870  -0.0002077666   0.0000908272   0.0000141534
        0.0001577490   0.0000033331  -0.0000032522  -0.0000064151  -0.0000203749
       -0.0000172933   0.0000075530  -0.0000051203   0.0000421534  -0.0000329727
        0.0000140933   0.0000108424  -0.0000166374   0.0000214903  -0.0000576492
       -0.0000487678   0.0000100037  -0.0000745904   0.0001426889  -0.0000248325
        0.0000535106  -0.0000449886   0.0001071139   0.0000411614  -0.0000562466
        0.0000282182   0.0000074247  -0.0000728598  -0.0000063392   0.0000192510
        0.0000172104   0.0000105789   0.0000393152   0.0000026622   0.0000057832
        0.0001848540  -0.0001227308   0.0000250625  -0.0001806874  -0.0000174242
        0.0000205037  -0.0005624068   0.0032877314  -0.0010714702   0.0000510191
       -0.0000563167   0.0004654123  -0.0008521268  -0.0002567362   0.0001189398
        0.0000593339  -0.0000262732   0.0001177203  -0.0000158012  -0.0000329038
       -0.0001092124  -0.0000572546  -0.0000531466  -0.0000393485  -0.0000867013
       -0.0000612399   0.0000275404  -0.0000242178   0.0000870649   0.0000304396
       -0.0000181310  -0.0000829694  -0.0000436867  -0.0000826067   0.0000641277
       -0.0000090551  -0.0000461195   0.0000454878   0.0000538125   0.0000128303
        0.0000366600   0.0001065374   0.0000477086  -0.0000024438  -0.0001265891
       -0.0001028333   0.0000790685  -0.0000498174   0.0002583703  -0.0000603124
        0.0006087678   0.0011778455   0.0001247777  -0.0004340138   0.0002027036
       -0.0000508429   0.0001772247   0.0000483439   0.0001347311   0.0000400923
       -0.0000210275   0.0000088172   0.0000262284  -0.0000220864   0.0000221258
       -0.0000089707   0.0000036959   0.0000105150   0.0000085221  -0.0000023635
       -0.0000042619  -0.0000045781  -0.0000069755   0.0000077970  -0.0000073741
       -0.0000021352   0.0000406877   0.0000050527   0.0000231201   0.0000511063
       -0.0000233231  -0.0000531322   0.0000563846  -0.0000886380   0.0000166330
        0.0000245718  -0.0000572987  -0.0000071962   0.0000177264  -0.0000111075
       -0.0000138772  -0.0000002071  -0.0000097878  -0.0000167207  -0.0000167101
       -0.0000198776  -0.0000331378   0.0000566653   0.0000058586  -0.0000705602
       -0.0000283717  -0.0000585621  -0.0000176682   0.0001575062  -0.0002665141
        0.2348746754   0.5236766842  -0.2044313144  -0.1907526580  -0.4392289829
        0.1548162278  -0.0459804830  -0.0151687684   0.0110457387   0.0025278873
        0.0065403452  -0.0003555823  -0.0052277718   0.0021810395   0.0010662518
        0.0087644185   0.0004708278  -0.0011597654  -0.0069198214  -0.0002714276
        0.0011076627   0.0009456268   0.0019059306   0.0003365767  -0.0005072083
       -0.0003115651  -0.0001917697   0.0001479744   0.0000840521   0.0002898003
       -0.0000341588  -0.0000381472  -0.0000508588   0.0002467939   0.0001605421
       -0.0000549451  -0.0000779464  -0.0002876584  -0.0003525824   0.0009516718
       -0.0019649068  -0.0005805822  -0.0000489911   0.0003323661   0.0003378594
        0.0002555390  -0.0001254380  -0.0000313641  -0.0000294634   0.0000546950
        0.0000700881   0.0000626518  -0.0000200344  -0.0002993919  -0.0003706231
        0.0004052113   0.0003024414  -0.0049527751  -0.0023408131  -0.0012661581
        0.0088162981  -0.0070014790  -0.0000596181  -0.0030366746  -0.0658883718
        0.0344288418  -0.0068730223   0.0002869295   0.0016490440  -0.0002710833
       -0.0001869531   0.0012804848  -0.0006878108   0.0008909033  -0.0002236349
        0.0004874391  -0.0031824177   0.0036232343   0.0013234077   0.0014091197
       -0.0027486512   0.0004300160  -0.0008242317   0.0017562648  -0.0006744299
       -0.0002815986   0.0001354906   0.0001824933   0.0001382339  -0.0004320555
       -0.0001961595  -0.0001630896  -0.0002629750   0.0006746580   0.0002307832
        0.0000351944  -0.0005956173  -0.0002910255  -0.0000299656   0.0000667089
        0.0001872133   0.0002172903  -0.0000265615  -0.0000644304  -0.0000570528
       -0.0000199879   0.0000340785   0.0000023140   0.0000270980  -0.0000210588
        0.0000062634   0.0000408652  -0.0000235396   0.0000358505  -0.0000580669
       -0.0000888083  -0.0000267628   0.0000933042   0.0001012958  -0.0002096289
       -0.0000307804  -0.0000050818   0.0001442947   0.0000717729  -0.0001064999
        0.0000069657   0.0000134281  -0.0000699726  -0.0000069921   0.0000537766
        0.0000335622  -0.0000000895  -0.0000089144   0.0000438997   0.0000347378
       -0.0002139457  -0.0000358469   0.0003026456   0.0001555072  -0.0001336363
        0.0003985183   0.0074505656  -0.0022555690  -0.0000957662   0.0002824430
        0.0000497079   0.0004858653  -0.0004022351  -0.0001252763   0.0002647954
        0.0000478715  -0.0000825485   0.0000663042  -0.0000277394  -0.0000664381
       -0.0001341181  -0.0000659545  -0.0000683853  -0.0000461194  -0.0001001978
       -0.0000783389   0.0000407207  -0.0000478953   0.0000936673   0.0000377525
       -0.0000393159  -0.0001289218  -0.0000358268  -0.0001085227   0.0000669823
       -0.0000017279  -0.0000592892   0.0000466957   0.0000721600   0.0000081433
        0.0000443089   0.0001517657   0.0000335357  -0.0000291014  -0.0000587452
       -0.0004413441   0.0001021141  -0.0002649397  -0.0003901936   0.0015033866
        0.0007340677   0.0003508794   0.0001050439  -0.0007828545   0.0001778875
       -0.0000903118  -0.0000111380  -0.0000598854  -0.0002708886  -0.0002381229
        0.0000331032   0.0000335894   0.0000606475  -0.0000782262  -0.0000079011
        0.0000299031   0.0000200831   0.0000317592   0.0000112148   0.0000103676
       -0.0000075217   0.0000008800  -0.0000047008  -0.0000003992  -0.0000099555
       -0.0000122426   0.0000438473  -0.0000024610   0.0000110367   0.0000577195
       -0.0000150461  -0.0000497533   0.0000070403  -0.0000726007   0.0000000620
        0.0000404035  -0.0000452076  -0.0000186302   0.0000235546  -0.0000036549
       -0.0000241185  -0.0000071671  -0.0000074755  -0.0000066766  -0.0000194630
       -0.0000304846  -0.0000595664   0.0000497193  -0.0000382533   0.0000883575
        0.0001253374   0.0000521249  -0.0001369055  -0.0002285752  -0.0007120449
       -0.1005416285  -0.2044313144   0.1043297165   0.0846676898   0.1557565070
       -0.1164254325   0.0163474494   0.0130758202   0.0105257489   0.0017822911
       -0.0020410992   0.0022977886   0.0008049222   0.0007150542  -0.0009123433
       -0.0020104084  -0.0000679832   0.0002245860   0.0014901634  -0.0000270889
       -0.0000191538  -0.0002026248  -0.0003984851  -0.0000734550   0.0000943540
        0.0000639718   0.0000185530   0.0000070743   0.0000117700  -0.0000784637
       -0.0000369329  -0.0000230439   0.0000378829  -0.0000663536  -0.0000437768
        0.0000258299   0.0000387346   0.0000864171   0.0000946989  -0.0001784018
        0.0003437471   0.0000737856  -0.0000046239  -0.0000924231  -0.0000689014
       -0.0000619136   0.0000231391  -0.0000230501   0.0000106690   0.0000056145
        0.0000156475   0.0000139312  -0.0000049143   0.0000676873   0.0001106747
       -0.0000702158  -0.0000710942   0.0005426562   0.0007315778  -0.0003150392
       -0.0020532125   0.0018672447  -0.0003142740  -0.0001253989   0.0341648511
        0.0016973713   0.0039274414  -0.0003777567  -0.0009913455  -0.0005518066
       -0.0000891160  -0.0014703002   0.0003175327  -0.0003561452   0.0001547761
       -0.0017333089   0.0003340427  -0.0021168549  -0.0005569300  -0.0008540492
        0.0010982713  -0.0001188841   0.0003658429  -0.0006336972   0.0003101578
        0.0001763012  -0.0000218121  -0.0001259279  -0.0000584473   0.0002123457
        0.0001167573   0.0000872356   0.0001606912  -0.0003738598  -0.0001043405
       -0.0000376398   0.0003374962   0.0000886559   0.0000331080  -0.0000286016
       -0.0000582918  -0.0001078604   0.0000071007   0.0000337976   0.0000258345
        0.0000080430  -0.0000123779   0.0000079199  -0.0000022041   0.0000004447
        0.0000080028  -0.0000199559   0.0000082582  -0.0000057762   0.0000199156
        0.0000309464   0.0000200599  -0.0000733688   0.0000045628   0.0001057855
        0.0000316339  -0.0000038972  -0.0000375573  -0.0000053879   0.0000340334
       -0.0000049804   0.0000072578   0.0000289279  -0.0000002792  -0.0000268148
       -0.0000033569   0.0000093121   0.0000242349  -0.0000224252  -0.0000147638
        0.0001297288  -0.0000067741  -0.0001388310  -0.0000861248   0.0000632992
       -0.0001799637  -0.0017751083   0.0003509566   0.0021605249  -0.0000613593
       -0.0000411293  -0.0000062277   0.0003566189   0.0000963603  -0.0003634988
       -0.0000029792   0.0000179564  -0.0000471343   0.0000120039   0.0000261447
        0.0000287181   0.0000178544   0.0000150522   0.0000063850   0.0000175286
        0.0000180889  -0.0000173793   0.0000015335  -0.0000239560  -0.0000131663
        0.0000123867   0.0000343907   0.0000074548   0.0000243250  -0.0000118111
       -0.0000017830   0.0000072299  -0.0000073265  -0.0000193148  -0.0000168561
       -0.0000026894  -0.0000306977  -0.0000355493   0.0000048336   0.0000058628
        0.0000908675  -0.0000542083   0.0000630114  -0.0003017355  -0.0002170929
       -0.0000115743  -0.0006337320   0.0003379395   0.0003391205  -0.0001171159
        0.0001027375  -0.0000222796   0.0001414254   0.0002843554   0.0003480376
       -0.0000208681  -0.0000191919  -0.0000290858   0.0000315906   0.0000024914
       -0.0000245852  -0.0000081121  -0.0000179822  -0.0000042591  -0.0000049309
        0.0000016915  -0.0000013559   0.0000020037   0.0000015675   0.0000038483
        0.0000072516  -0.0000109927   0.0000021685  -0.0000055853  -0.0000163399
       -0.0000048119  -0.0000044726  -0.0000010270   0.0000132692  -0.0000082141
       -0.0000180444   0.0000084340   0.0000004401  -0.0000081682   0.0000001139
        0.0000058510   0.0000011209   0.0000009835  -0.0000024295   0.0000045858
        0.0000104950   0.0000323613  -0.0000161917   0.0000089378  -0.0000536703
       -0.0000610209  -0.0000702504   0.0001282102   0.0002721593   0.0004775043
       -0.1735522780  -0.1907526580   0.0846676898   0.5310387187   0.1191357990
       -0.0717190290  -0.1772519020   0.0017073022   0.0037601224  -0.0259621112
       -0.0227888558   0.0045323391   0.0104579937  -0.0063923591  -0.0039766123
       -0.0188195823  -0.0007507728   0.0029829473   0.0161150890   0.0011628541
       -0.0025433107  -0.0023276042  -0.0047679803  -0.0010559532   0.0008094238
        0.0008982956   0.0007635645  -0.0003735811  -0.0001759483  -0.0005843609
        0.0001582898   0.0001725646   0.0000952064  -0.0005108965  -0.0003331157
       -0.0000342743   0.0005607706   0.0007361550   0.0006145957  -0.0021997142
        0.0043617838   0.0016803325   0.0004073985  -0.0006519823  -0.0007668558
       -0.0004743422   0.0003181465   0.0001395471   0.0000984940  -0.0001204007
       -0.0001669961  -0.0001839414   0.0001670599   0.0006341325   0.0006278834
       -0.0007981799  -0.0009272934   0.0089905951   0.0080039823   0.0036602465
       -0.0393106408   0.0215447752   0.0031912892  -0.1096644994   0.0487944362
       -0.0256126891  -0.0263505136   0.0221838730  -0.0049118813  -0.0038430576
        0.0017641938   0.0062872398  -0.0005359968   0.0002704100   0.0003951148
        0.0020095767  -0.0024684590   0.0055955675   0.0024599315   0.0022314397
       -0.0030712132  -0.0000029569  -0.0011859819   0.0016638834  -0.0012875251
       -0.0006236067   0.0001838689   0.0003364242   0.0003297233  -0.0004885798
       -0.0005577643  -0.0001871038  -0.0004040854   0.0010602472  -0.0000025532
        0.0004135994  -0.0010323566   0.0003015123  -0.0003112557   0.0000447298
       -0.0002418248   0.0002505084  -0.0000435562  -0.0000399853  -0.0000056500
        0.0000212067   0.0000111693   0.0000027934  -0.0001227779   0.0000796109
       -0.0000477285  -0.0000058493   0.0000436843  -0.0000267506   0.0000923546
        0.0000700294  -0.0000649708   0.0003512382  -0.0003462010  -0.0001614768
       -0.0001651511   0.0001749141  -0.0002076842  -0.0001080529   0.0000994442
       -0.0000627437  -0.0000550748   0.0001689545   0.0000235020  -0.0000297839
       -0.0000169758  -0.0000247830  -0.0001480219   0.0000160907   0.0000142438
       -0.0007994818   0.0003271946   0.0002256908   0.0006160749  -0.0001000311
        0.0005520544   0.0092983818  -0.0001350413  -0.0023762481   0.0006802716
        0.0018228845  -0.0003535166   0.0004808636   0.0005453048  -0.0005233680
       -0.0001715956   0.0000057783  -0.0001925826   0.0000295440   0.0000732211
        0.0002752190   0.0001478078   0.0001183886   0.0001049234   0.0002131910
        0.0001562275  -0.0000758758   0.0000671136  -0.0002397586  -0.0000939753
        0.0000686749   0.0002020466   0.0001389310   0.0002117859  -0.0001597721
        0.0000362042   0.0001170257  -0.0001188065  -0.0001260693  -0.0000268492
       -0.0000919830  -0.0002652210  -0.0001241172  -0.0000427346   0.0002432932
        0.0002198435  -0.0003627858   0.0003450381   0.0004293782  -0.0016049155
       -0.0005876363  -0.0011758464   0.0002105355  -0.0010644151  -0.0007051297
        0.0006869394  -0.0006446044  -0.0002263906  -0.0007995512  -0.0006011336
        0.0001216208   0.0000142688  -0.0000011382   0.0000150018  -0.0000755341
        0.0000594239   0.0000012456   0.0000060092  -0.0000160261   0.0000117056
       -0.0000027039   0.0000115763   0.0000180619  -0.0000227714   0.0000132259
        0.0000045172  -0.0000919995  -0.0000157981  -0.0000289321  -0.0001205518
        0.0000720120   0.0001825351  -0.0001714358   0.0001518068  -0.0000313232
       -0.0000617565   0.0001369374   0.0000170099  -0.0000410961   0.0000292251
        0.0000300077  -0.0000036169   0.0000237532   0.0000498696   0.0000379729
        0.0000333265   0.0000592136  -0.0000891669  -0.0000295420   0.0002831582
        0.0001405018   0.0001748330  -0.0008050714  -0.0021145207  -0.0000364799
       -0.1935172862  -0.4392289829   0.1557565070   0.1191357990   0.6484952069
       -0.1850849870   0.0117918885  -0.0629918479   0.0029708411  -0.0266186990
       -0.0073559806   0.0025388752   0.0003523464  -0.0051734969  -0.0031465470
       -0.0065657698  -0.0017020128   0.0001997850   0.0050790490   0.0001791533
       -0.0004632353  -0.0005880098  -0.0014318051  -0.0001818177   0.0003472962
        0.0002377375   0.0000447487  -0.0001011995  -0.0000333034  -0.0002021742
       -0.0000099358   0.0000071253   0.0001003706  -0.0002034752  -0.0001341029
        0.0000153041   0.0000295228   0.0002208465   0.0002897505  -0.0006952250
        0.0013250609   0.0004050670  -0.0000883817  -0.0002259443  -0.0002586482
       -0.0001879556   0.0000986601  -0.0000154059   0.0000432029  -0.0000501801
       -0.0000372803  -0.0000695666   0.0000549645   0.0002451110   0.0003488731
       -0.0002656605  -0.0001979951   0.0072450430  -0.0015200477  -0.0022723256
        0.0165834407   0.0063481643  -0.0033678075   0.0480051709  -0.1109325649
        0.0159641850   0.0216658465  -0.0064393361  -0.0026102522   0.0008544084
        0.0061758572   0.0005494467   0.0006499321  -0.0018752026   0.0006793296
       -0.0011236041   0.0060326075   0.0017155375  -0.0019122522  -0.0037043911
        0.0052538500  -0.0008829010   0.0014499353  -0.0024740937   0.0015552728
        0.0006847383  -0.0002150796  -0.0004008765  -0.0003047101   0.0007575408
        0.0004557990   0.0003004232   0.0004978729  -0.0013801184  -0.0003000356
       -0.0001889844   0.0012603753   0.0002821765   0.0001996060  -0.0001099423
       -0.0001670202  -0.0004230574   0.0000520399   0.0000994357   0.0001006822
        0.0000061716  -0.0000551778  -0.0000067255   0.0000007806   0.0000044006
        0.0000120973  -0.0000557410   0.0000067047  -0.0000440872   0.0000428756
        0.0000966359   0.0000682462  -0.0002478445  -0.0000018620   0.0003504018
        0.0001056933  -0.0000271099  -0.0001163194  -0.0000915388   0.0001164839
        0.0000140171  -0.0000099706   0.0000381148   0.0000014869  -0.0000698723
       -0.0000212460   0.0000218445   0.0000532649  -0.0000657768  -0.0000568480
        0.0006250740  -0.0000731955  -0.0004811817  -0.0004621759   0.0002205839
       -0.0007399253   0.0004381166  -0.0254706480   0.0157353677  -0.0006825119
        0.0000436047   0.0007250865  -0.0010085036  -0.0001577276  -0.0000966333
       -0.0000351300   0.0000483469  -0.0000073930   0.0000229453   0.0000656921
        0.0001010776   0.0000581327   0.0000513362   0.0000312334   0.0000819891
        0.0000668513  -0.0000346854   0.0000478498  -0.0000690193  -0.0000462902
        0.0000520185   0.0000967675   0.0000276367   0.0000940350  -0.0000563577
       -0.0000079184   0.0000501046  -0.0000387514  -0.0000643937  -0.0000024032
       -0.0000305742  -0.0001345192  -0.0000214995   0.0000081644   0.0000148900
        0.0017359371  -0.0002033015   0.0000880726   0.0022856389  -0.0014248148
        0.0003688625  -0.0028621829  -0.0008679431  -0.0006329632  -0.0007209198
        0.0003100991  -0.0000944586  -0.0005313262  -0.0003634114  -0.0006803857
       -0.0000784412  -0.0000580971  -0.0001259572   0.0001081276   0.0000432744
       -0.0000739195  -0.0000331990  -0.0000304498  -0.0000113566  -0.0000178820
        0.0000185780   0.0000040543   0.0000045533   0.0000075603   0.0000176675
        0.0000224822  -0.0000352553   0.0000182861   0.0000111465  -0.0000494016
       -0.0000027169   0.0000230969   0.0000131830   0.0000084624   0.0000058846
       -0.0000546478   0.0000215189   0.0000287905  -0.0000210627  -0.0000093171
        0.0000338269   0.0000161941  -0.0000009250   0.0000035923   0.0000299534
        0.0000351133   0.0000679804  -0.0000244616   0.0000881597  -0.0001737237
       -0.0001612420  -0.0000310300   0.0000946489  -0.0000964617  -0.0013983526
        0.0827009397   0.1548162278  -0.1164254325  -0.0717190290  -0.1850849870
        0.2493217474   0.0007531288  -0.0035124519  -0.0627613004  -0.0020134542
        0.0031571789  -0.0026744851  -0.0008374360  -0.0017137816   0.0069221083
        0.0027243568  -0.0005539280  -0.0001679916  -0.0021107021   0.0002250961
       -0.0011963638   0.0002162618   0.0007944310   0.0001115427  -0.0000752727
       -0.0001269344   0.0000675820   0.0000011831  -0.0000458811   0.0000809824
        0.0000474206   0.0000183335  -0.0001019749   0.0001171559   0.0000706682
        0.0000679481  -0.0000772048  -0.0001262392  -0.0001282704   0.0002573202
       -0.0002323698  -0.0001467216   0.0000884490   0.0000610126   0.0000848370
        0.0000457787  -0.0000236868   0.0000803338  -0.0000651403   0.0000360391
       -0.0000301050   0.0000502107  -0.0000685141  -0.0000972785  -0.0001482791
        0.0000355068   0.0001613369  -0.0001028449  -0.0026739215   0.0062664279
        0.0089111746  -0.0027881740  -0.0009085001  -0.0155083904   0.0194401483
       -0.0721745059  -0.0036249849  -0.0054919245   0.0052355679   0.0046894504
        0.0007530558   0.0049728079   0.0004370683   0.0007870717  -0.0012261813
        0.0043148283   0.0047109562   0.0025451317   0.0002286597   0.0019253401
       -0.0014676841   0.0002194073  -0.0004884495   0.0004307111  -0.0004805068
       -0.0003238998   0.0000016615   0.0001586657   0.0000648113  -0.0002456615
       -0.0001417734  -0.0001026607  -0.0001998565   0.0005013682   0.0001279250
        0.0000503304  -0.0004417322  -0.0001582951  -0.0000925970   0.0000533479
        0.0001152705   0.0001905433  -0.0000137783  -0.0000419699  -0.0000489027
       -0.0000023096   0.0000246622   0.0000024730   0.0000030427  -0.0000055709
       -0.0000073505   0.0000243771  -0.0000015188   0.0000213293  -0.0000305077
       -0.0000435823  -0.0000342903   0.0000722460   0.0000266201  -0.0001219503
       -0.0000097347   0.0000226016   0.0000420319   0.0000304175  -0.0000467326
       -0.0000073128  -0.0000000930  -0.0000234960  -0.0000053772   0.0000216119
        0.0000138409  -0.0000035865  -0.0000102008   0.0000196357   0.0000177069
       -0.0001996384   0.0000159847   0.0001690663   0.0000881684  -0.0000663514
        0.0003003275  -0.0077030726   0.0191064382  -0.0109762629  -0.0003133155
        0.0006628573  -0.0019378646  -0.0004332940  -0.0001209598   0.0006747244
        0.0000185588  -0.0000031153   0.0000308719  -0.0000138551  -0.0000387599
       -0.0000482294  -0.0000278805  -0.0000149131  -0.0000157274  -0.0000309272
       -0.0000265365   0.0000106375  -0.0000106768   0.0000253281   0.0000117721
       -0.0000346444  -0.0000384388  -0.0000231016  -0.0000422039   0.0000221509
        0.0000009068  -0.0000178887   0.0000192566   0.0000203570   0.0000055226
       -0.0000019018   0.0000374341   0.0000159359   0.0000244427  -0.0000037141
        0.0001088000   0.0000772912   0.0001489102  -0.0004104002   0.0010208784
       -0.0020121800   0.0007561373  -0.0015341845  -0.0010237963   0.0007164754
       -0.0005773501   0.0002699082  -0.0004227897  -0.0009674811  -0.0010793905
        0.0000280631   0.0000283623   0.0000419211  -0.0000316981  -0.0000018624
        0.0000224577   0.0000080361   0.0000130349   0.0000038899   0.0000064294
       -0.0000112651  -0.0000032400  -0.0000043119  -0.0000066172  -0.0000103029
       -0.0000115743   0.0000140072  -0.0000086519   0.0000055171   0.0000184084
        0.0000053932  -0.0000083604  -0.0000036614  -0.0000168342   0.0000063425
        0.0000145302  -0.0000085653  -0.0000130642   0.0000063262   0.0000062247
       -0.0000145377  -0.0000105781   0.0000022127  -0.0000043050  -0.0000179166
       -0.0000124937  -0.0000400326   0.0000165515  -0.0000260171   0.0000840834
        0.0000541439  -0.0000056591  -0.0013140945  -0.0012655632  -0.0009464454
       -0.0452531437  -0.0459804830   0.0163474494  -0.1772519020   0.0117918885
        0.0007531288   0.5865468317   0.0189408533  -0.0424258149  -0.1253960651
       -0.1103122728  -0.0221219051  -0.0412374401  -0.0228523463   0.0025671516
        0.0206911840   0.0029637917  -0.0036868491  -0.0143972787  -0.0011268423
        0.0021431695   0.0019144595   0.0041272092   0.0004606926  -0.0007923052
       -0.0007801916  -0.0004980191   0.0003055270   0.0001196025   0.0004747105
       -0.0000625626  -0.0000729787  -0.0000652047   0.0004856873   0.0002681955
       -0.0000565457  -0.0002927522  -0.0005308593  -0.0005144363   0.0019041328
       -0.0036562203  -0.0010487533  -0.0001069899   0.0004521953   0.0005971706
        0.0004740586  -0.0002501988  -0.0000028602  -0.0000641656   0.0000443099
        0.0000600825   0.0001783828  -0.0001713675  -0.0005205781  -0.0007379763
        0.0006984093   0.0007153199  -0.0472331918   0.0173341374   0.0068189109
       -0.1334630781   0.1132456073   0.0373946824  -0.0252062716   0.0133367546
        0.0003244742   0.0006869574   0.0023775178  -0.0024236756  -0.0005680870
        0.0006332701  -0.0003543402   0.0001108841  -0.0003623727   0.0001054253
        0.0000204625   0.0013274084  -0.0001918469  -0.0010732393  -0.0013730622
        0.0016627283  -0.0000591321   0.0005396352  -0.0007017049   0.0007204280
        0.0003484134   0.0000102755  -0.0001666739  -0.0001803755   0.0002381277
        0.0002584524   0.0001114481   0.0002451037  -0.0008856508  -0.0000489607
       -0.0002439161   0.0007036477  -0.0001921098   0.0002020303  -0.0000472368
        0.0001784189  -0.0001520153   0.0000447072   0.0000361326   0.0000032986
       -0.0000097554  -0.0000149307  -0.0000071379   0.0000991725  -0.0000637299
        0.0000402968   0.0000153615  -0.0000313142   0.0000279220  -0.0000941715
       -0.0000217346   0.0000444809  -0.0002180424   0.0002538445   0.0000792519
        0.0001307864  -0.0001364189   0.0001760942   0.0001160116  -0.0000617831
        0.0000491310   0.0000700292  -0.0001258797  -0.0000333186   0.0000605917
        0.0000216797   0.0000072079   0.0001128889   0.0000248379   0.0000028176
        0.0004299055  -0.0001280991  -0.0002325713  -0.0003443638   0.0001250118
       -0.0003001150  -0.0024807161  -0.0016675803   0.0015216891   0.0068655436
        0.0114435393   0.0031794188  -0.0057388782  -0.0007245428   0.0021734170
       -0.0000605636  -0.0001056744   0.0000912045  -0.0000683109  -0.0000920737
       -0.0002499102  -0.0001316830  -0.0001127591  -0.0001085207  -0.0001834473
       -0.0001319957   0.0000638276  -0.0000682941   0.0002084148  -0.0000093352
       -0.0000139964  -0.0001817584  -0.0000394743  -0.0001851987   0.0001280382
       -0.0000068999  -0.0000958398   0.0001153746   0.0001208423   0.0000139467
        0.0000974342   0.0002478014  -0.0001022878   0.0001152558  -0.0000161701
       -0.0057501094  -0.0003742189   0.0012799483   0.0068595385  -0.0095244540
       -0.0032494614   0.0003851032  -0.0005305291  -0.0001185528  -0.0002798801
        0.0002700450   0.0000256974  -0.0000889961   0.0000118731  -0.0000840647
       -0.0000542737  -0.0000141742   0.0000117625  -0.0000197236   0.0000397978
       -0.0000562686  -0.0000017175  -0.0000250567   0.0000124572  -0.0000057865
       -0.0000085126  -0.0000066643  -0.0000117231   0.0000044049  -0.0000116977
       -0.0000067481   0.0000683456   0.0000156108   0.0000261610   0.0000937511
       -0.0000619296  -0.0002506591   0.0000744622  -0.0001166800  -0.0000065444
        0.0000337672  -0.0001035788  -0.0000148452   0.0000366033  -0.0000208330
       -0.0000330617  -0.0000015780  -0.0000183476  -0.0000438487  -0.0000290124
       -0.0000216570  -0.0001389830   0.0000117798   0.0000346778  -0.0000136866
       -0.0000604171  -0.0000908808   0.0005804354   0.0000054090  -0.0003569542
       -0.0462573135  -0.0151687684   0.0130758202   0.0017073022  -0.0629918479
       -0.0035124519   0.0189408533   0.6294311433   0.0759737479  -0.0600866046
       -0.2503098061  -0.0408637897  -0.0747619521   0.0146977379   0.0144187895
        0.0021162010  -0.0560232089  -0.0084219895  -0.0002170492   0.0031151657
       -0.0011429026  -0.0005016618  -0.0005944759  -0.0004596928  -0.0006005933
       -0.0000212348  -0.0001536057   0.0001219536   0.0003900389   0.0000757051
       -0.0001795127  -0.0000554913   0.0002966785  -0.0000751899  -0.0001668873
       -0.0003501619   0.0004983137   0.0003370117  -0.0000111106   0.0004038848
       -0.0005578168  -0.0005060777  -0.0004982508   0.0003197788   0.0001320643
       -0.0000142496  -0.0001859595  -0.0003871853   0.0003075873  -0.0000631953
        0.0002684826  -0.0001733217   0.0004418031   0.0001295894   0.0005776174
        0.0000058674  -0.0004188442   0.0702355804   0.0247260417  -0.0009794425
        0.0617500733  -0.2367037316  -0.0393181357   0.0195903544   0.0014513483
        0.0050099635   0.0025298983  -0.0025405219   0.0019376193   0.0004594548
       -0.0005899197  -0.0011095446  -0.0001904723   0.0000451050   0.0000978883
       -0.0002280061  -0.0008590103  -0.0004398530   0.0001258953   0.0002050120
       -0.0003951724   0.0000658542  -0.0000928244   0.0002256939  -0.0000492519
       -0.0000199447   0.0000340916   0.0000059214   0.0000324842  -0.0000086081
       -0.0000531308  -0.0000034109   0.0000104099   0.0000060273   0.0000407240
       -0.0000570551  -0.0000957143  -0.0000298868   0.0000566116   0.0000060691
        0.0000457872   0.0000226049  -0.0000045800  -0.0000015757  -0.0000022030
       -0.0000112202   0.0000034720  -0.0000022961   0.0000070066   0.0000001294
        0.0000090045   0.0000139618  -0.0000014781   0.0000167576  -0.0000374041
        0.0000050835   0.0000043627   0.0000549683   0.0000025789  -0.0000684353
        0.0000731316   0.0000443292   0.0000488219   0.0000137586  -0.0000663033
       -0.0000311645  -0.0000015931   0.0000014109  -0.0000038410   0.0000163142
        0.0000114753   0.0000016937  -0.0000108505   0.0000067076   0.0000037656
       -0.0000706400  -0.0000024669  -0.0000093175   0.0001019448  -0.0000626464
       -0.0000009924   0.0016276630  -0.0011047919  -0.0003577282  -0.0088229424
       -0.0244614322  -0.0038866798  -0.0000232749   0.0019459338  -0.0014098053
       -0.0001936939  -0.0001745814   0.0000593006  -0.0000285278   0.0000138730
       -0.0000008280   0.0000143563  -0.0000568667   0.0000143566  -0.0000163128
       -0.0000011783   0.0000048992  -0.0000183224  -0.0000131804  -0.0000035193