$hessian                                                                        
        0.9840890617   0.5588684380   0.0007728097  -0.9453074298  -0.5264107520
       -0.0007390976  -0.0414339428  -0.0313163344  -0.0000363075   0.0095740009
       -0.0046642728  -0.0000133266  -0.0023496624  -0.0015210131  -0.0000023589
        0.0004820925  -0.0002281364  -0.0000023509   0.0001733713  -0.0016031766
        0.0000008614   0.0017228527   0.0010524206  -0.0000020065  -0.0019491121
       -0.0003286021   0.0000003518   0.0027670787   0.0013198952  -0.0000004718
       -0.0028267924  -0.0022091455  -0.0000044638  -0.0024464712   0.0071249615
        0.0000179063  -0.0018398058   0.0002566915   0.0000000579   0.0012458980
        0.0001434640   0.0000039632  -0.0012298674  -0.0005048403  -0.0000008527
        0.0004289894   0.0007037049  -0.0000015950  -0.0004487353   0.0003412885
        0.0000002098   0.0001342524  -0.0002445740   0.0000001437  -0.0000219752
       -0.0000333286  -0.0000000139   0.0001145603   0.0000950102   0.0000007738
       -0.0001912545  -0.0001771844   0.0000007107   0.0001800663  -0.0004132536
       -0.0000007255  -0.0004435808   0.0002551751   0.0000018149  -0.0000552525
       -0.0002721029  -0.0000002143   0.0002580661  -0.0000108241   0.0000034652
       -0.0005060235  -0.0002360376   0.0000007296   0.0000238728  -0.0000222373
       -0.0000007527  -0.0000478553  -0.0000367337  -0.0000006736  -0.0000354264
       -0.0000061160  -0.0000003295  -0.0000402198   0.0000114203   0.0000002826
       -0.0000414047   0.0000349417   0.0000007181   0.0000206486   0.0000312539
        0.0000007423
        0.5588684380   0.3392881312   0.0004476475  -0.5264318225  -0.3384546085
       -0.0004312323  -0.0339106930   0.0001480495  -0.0000163741   0.0032352476
       -0.0053669686  -0.0000140496  -0.0021980770  -0.0002383730   0.0000035815
        0.0000165057  -0.0002631779  -0.0000013003  -0.0000513954  -0.0010293121
       -0.0000003391   0.0010179176   0.0007800784  -0.0000008100  -0.0010840253
       -0.0001815970  -0.0000004917   0.0013476991   0.0010342108   0.0000005355
       -0.0013629904   0.0000939295   0.0000014845   0.0019705096   0.0045142160
        0.0000078014   0.0001036452   0.0001260663  -0.0000003075  -0.0001430421
       -0.0003192629   0.0000012998  -0.0007580537  -0.0002877915  -0.0000006661
        0.0002749617   0.0004360693  -0.0000007953  -0.0002750712   0.0002137372
        0.0000004515   0.0000791624  -0.0001488606  -0.0000003719  -0.0000054914
       -0.0000125952   0.0000000523   0.0000775629   0.0000636334   0.0000007052
       -0.0001175997  -0.0001055573   0.0000003232   0.0001078489  -0.0002948912
       -0.0000004445  -0.0003114404   0.0001430546   0.0000013042  -0.0000465173
       -0.0001639725  -0.0000000909  -0.0003257727  -0.0000338015   0.0000011067
        0.0000126149   0.0000294213   0.0000009232   0.0000115848  -0.0000130854
       -0.0000003600  -0.0000283623  -0.0000126346  -0.0000002496  -0.0000202133
       -0.0000120255  -0.0000001350  -0.0000268065   0.0000005471   0.0000001482
       -0.0000313091   0.0000346269   0.0000003290   0.0000049847   0.0000327436
        0.0000003242
        0.0007728097   0.0004476475   0.0163752795  -0.0007193791  -0.0004196244
       -0.0323352842  -0.0000541272  -0.0000214649   0.0156934893   0.0000014379
       -0.0000111749   0.0012037612  -0.0000026403   0.0000027860  -0.0020804458
       -0.0000000992  -0.0000003497  -0.0001892609   0.0000003363  -0.0000016596
        0.0002825916   0.0000003091   0.0000018926  -0.0000433495  -0.0000010706
       -0.0000020022   0.0003538498   0.0000012845   0.0000038356   0.0000054324
       -0.0000037310   0.0000013707  -0.0010730964   0.0000020056   0.0000028822
        0.0009938146   0.0000072094  -0.0000041513   0.0001655705  -0.0000039319
        0.0000009937   0.0001700585  -0.0000003978  -0.0000002205  -0.0000910183
        0.0000005896   0.0000008595   0.0000205892  -0.0000007094   0.0000001399
       -0.0000040245   0.0000000658   0.0000000368   0.0000104667   0.0000001805
       -0.0000007848  -0.0000286810  -0.0000001182   0.0000001772  -0.0000170998
       -0.0000004797  -0.0000001539  -0.0000041683   0.0000007905  -0.0000008057
        0.0000140639  -0.0000003158   0.0000000004   0.0000794102   0.0000001968
        0.0000006545  -0.0000090063  -0.0000002634  -0.0000013721   0.0006400204
        0.0000002811   0.0000005636  -0.0001261391   0.0000000689  -0.0000001770
       -0.0000053885  -0.0000000869  -0.0000000128   0.0000041451  -0.0000000554
       -0.0000000074   0.0000037735  -0.0000000473   0.0000000475   0.0000025233
       -0.0000000804   0.0000000296  -0.0000021927  -0.0000000320   0.0000000438
       -0.0000096843
       -0.9453074298  -0.5264318225  -0.0007193791   1.2123712064   0.6385897196
        0.0008770406  -0.2093511253  -0.0920158346  -0.0001237918  -0.0573641650
       -0.0029090583   0.0000146311   0.0013543539   0.0068211912   0.0000118116
       -0.0025401167  -0.0000468973   0.0000034709  -0.0006732191   0.0028913961
       -0.0000017311  -0.0031593359  -0.0017351559   0.0000041479   0.0039441836
        0.0006836453  -0.0000009286  -0.0051854875  -0.0020818309   0.0000021260
        0.0065323267   0.0021370425   0.0000055328  -0.0051325043  -0.0266627176
       -0.0000558601   0.0022304696   0.0007493018   0.0000014125  -0.0018396961
       -0.0001040605  -0.0000072112   0.0022896724   0.0009265533   0.0000019137
       -0.0007670757  -0.0012809403   0.0000028580   0.0007633400  -0.0006196530
       -0.0000008220  -0.0002798588   0.0004268359  -0.0000002827   0.0000402600
        0.0000577190  -0.0000001663  -0.0002351475  -0.0001790411  -0.0000018681
        0.0003089635   0.0003282946  -0.0000013314  -0.0003413436   0.0007504939
        0.0000014591   0.0007798907  -0.0005482375  -0.0000037972   0.0000531496
        0.0005054212   0.0000003276   0.0008614383  -0.0004152986  -0.0000070225
        0.0004010049   0.0001698607  -0.0000014659  -0.0000355989   0.0000620698
        0.0000011813   0.0000867053   0.0000689218   0.0000008788   0.0000626731
        0.0000203028   0.0000002596   0.0000736374  -0.0000099984  -0.0000007475
        0.0000758603  -0.0000677940  -0.0000013650  -0.0000170315  -0.0000804293
       -0.0000012808
       -0.5264107520  -0.3384546085  -0.0004196244   0.6385897196   0.4719763843
        0.0005388121  -0.0867512961  -0.1117289394  -0.0000561500  -0.0053736808
        0.0130918469   0.0000279329   0.0061329446   0.0011414459  -0.0000163198
       -0.0002343135   0.0006396510   0.0000018165   0.0002139755   0.0019404404
        0.0000015123  -0.0017915794  -0.0013881246   0.0000022737   0.0020959579
        0.0003152430   0.0000024080  -0.0020915790  -0.0021536778  -0.0000010750
        0.0026113095  -0.0055780191  -0.0000177747  -0.0286143389  -0.0299682959
       -0.0000530010  -0.0007489834   0.0002693426  -0.0000006287  -0.0002572159
        0.0001254238  -0.0000046147   0.0013970189   0.0005150256  -0.0000002517
       -0.0004669314  -0.0007828161   0.0000015324   0.0004650409  -0.0003819799
       -0.0000004146  -0.0001683626   0.0002657767  -0.0000008643   0.0000205999
        0.0000279016  -0.0000004160  -0.0001540173  -0.0000993163  -0.0000011501
        0.0001894602   0.0001982842  -0.0000011241  -0.0001723654   0.0005134586
        0.0000007814   0.0005893624  -0.0002371950  -0.0000016402   0.0000804522
        0.0002909240  -0.0000000660   0.0017812070   0.0003074590   0.0000021583
       -0.0011057452  -0.0008028205  -0.0000017754  -0.0000208322   0.0000358372
        0.0000005459   0.0000538110   0.0000467663   0.0000002755   0.0000469951
        0.0000013701  -0.0000001999   0.0000470809  -0.0000217188  -0.0000008436
        0.0000523274  -0.0000452659  -0.0000011592  -0.0000052699  -0.0000598035
       -0.0000009555
       -0.0007390976  -0.0004312323  -0.0323352842   0.0008770406   0.0005388121
        0.0760823416  -0.0001024087  -0.0000557139  -0.0526486161  -0.0000006722
        0.0000278098  -0.0000507528   0.0000092484  -0.0000152877   0.0100024821
       -0.0000002554   0.0000007735   0.0008666449  -0.0000017318   0.0000046791
       -0.0012498860  -0.0000020070  -0.0000035427  -0.0000678576   0.0000019361
        0.0000054658  -0.0015418068   0.0000002155  -0.0000084028  -0.0000176999
        0.0000046802  -0.0000168566   0.0054285279  -0.0000485114  -0.0000472604
       -0.0000481077  -0.0000067403   0.0000005267  -0.0017627974   0.0000023298
       -0.0000011953   0.0001645719   0.0000032777   0.0000005776   0.0004480110
       -0.0000008431  -0.0000014139   0.0000157037   0.0000007447  -0.0000008552
       -0.0000854152   0.0000000806   0.0000005785   0.0000036912  -0.0000000995
       -0.0000006653   0.0000391855   0.0000000130  -0.0000007179  -0.0000079186
        0.0000004972  -0.0000000117   0.0000009901  -0.0000010771   0.0000007643
        0.0000188860   0.0000026036  -0.0000002491  -0.0001790779   0.0000000273
        0.0000006662   0.0000217166   0.0000025736   0.0000059756  -0.0034683686
       -0.0000019881  -0.0000017125   0.0003415978   0.0000002771  -0.0000001178
        0.0000051871   0.0000002999  -0.0000002450  -0.0000116775   0.0000000781
       -0.0000003609  -0.0000163085  -0.0000001051  -0.0000003775   0.0000080301
       -0.0000001828  -0.0000002951   0.0000152419  -0.0000002033  -0.0000001156
        0.0000287654
       -0.0414339428  -0.0339106930  -0.0000541272  -0.2093511253  -0.0867512961
       -0.0001024087   0.6618037919  -0.0049651907  -0.0001341102  -0.2659665301
        0.1415977546   0.0002734755  -0.0711554689  -0.0123476951  -0.0000125658
        0.0113324553  -0.0058162791  -0.0000073924  -0.0084306468  -0.0090793493
       -0.0000045874   0.0008608561   0.0068532873   0.0000065809   0.0020841682
        0.0010380150   0.0000010835  -0.0079154051   0.0174712477   0.0000269043
        0.0137877444  -0.0256924008  -0.0000450700  -0.0699384325  -0.0141148471
       -0.0000103620  -0.0051383968   0.0286174336   0.0000526692  -0.0024444307
       -0.0019720253   0.0000003460  -0.0028425349  -0.0004373968   0.0000000973
        0.0007728187   0.0013160854  -0.0000018357  -0.0008377039   0.0005903956
        0.0000011612   0.0001632199  -0.0004443876   0.0000000838   0.0001284189
       -0.0001545401  -0.0000003618   0.0000811157  -0.0001632753   0.0000007299
        0.0001466717   0.0000701068   0.0000012396  -0.0002672852  -0.0001324407
       -0.0000011163   0.0003304120  -0.0007484651  -0.0000006339  -0.0001436765
       -0.0011023688  -0.0000010467  -0.0014860299   0.0029692596   0.0000112541
       -0.0038809899  -0.0027194310  -0.0000005750   0.0000257317  -0.0000482129
       -0.0000006146  -0.0000655327  -0.0000592556  -0.0000005177  -0.0000720149
       -0.0000308588  -0.0000003082  -0.0000899914   0.0000253563   0.0000002775
       -0.0000501688   0.0000603682   0.0000009040  -0.0000070975   0.0000810989
        0.0000008268
       -0.0313163344   0.0001480495  -0.0000214649  -0.0920158346  -0.1117289394
       -0.0000557139  -0.0049651907   0.5820430907   0.0007910539   0.0978943125
       -0.1560494159  -0.0002054035   0.0314407471   0.0306917188   0.0000446950
       -0.0213635111   0.0016018927  -0.0000109421   0.0077215692   0.0113325802
        0.0000103346   0.0073555540  -0.0105791307  -0.0000182823  -0.0148077953
       -0.0016085236   0.0000066480   0.0313879851  -0.0219279209  -0.0000419946
       -0.0668011766  -0.0361067671  -0.0000419410   0.0141217813  -0.2452191151
       -0.0003643048   0.0266699426  -0.0299651380  -0.0000613764  -0.0071276852
        0.0045125991   0.0000047879  -0.0001787322  -0.0010225169   0.0000000016
        0.0004112619   0.0001745310   0.0000019198  -0.0002062576   0.0002366962
        0.0000020913   0.0001292763  -0.0002134212   0.0000006335  -0.0003587801
        0.0000317336   0.0000009312   0.0002008798   0.0001802283  -0.0000003133
       -0.0002390494  -0.0002159303  -0.0000016560   0.0004412029  -0.0002876670
       -0.0000006463  -0.0007370115   0.0009971742   0.0000028138   0.0002077710
        0.0000935466   0.0000006788   0.0245811531  -0.0167638599  -0.0000346236
       -0.0025753027  -0.0003874657  -0.0000102630   0.0000295758   0.0000800583
        0.0000019278   0.0000040423   0.0000195937   0.0000024367   0.0000318118
        0.0000254345   0.0000013419   0.0000304791  -0.0000254689  -0.0000000061
        0.0000075243  -0.0000023814  -0.0000016142   0.0000257914  -0.0000652655
       -0.0000017499
       -0.0000363075  -0.0000163741   0.0156934893  -0.0001237918  -0.0000561500
       -0.0526486161  -0.0001341102   0.0007910539   0.1126111735   0.0002131441
       -0.0002191904  -0.0424053361   0.0000609349   0.0000531288   0.0005301469
       -0.0000286348  -0.0000081244   0.0058906318   0.0000151551   0.0000208183
        0.0006247364   0.0000129310  -0.0000201033   0.0008593099  -0.0000196622
       -0.0000017735  -0.0008946744   0.0000491945  -0.0000280578  -0.0049355880
       -0.0001141664  -0.0000605192   0.0029576783   0.0000247221  -0.0003555037
       -0.0470799477   0.0000605490  -0.0000704187  -0.0000466892  -0.0000168992
        0.0000095993   0.0009934230  -0.0000002642  -0.0000028933  -0.0000144593
       -0.0000025079  -0.0000020088  -0.0000097856   0.0000007594   0.0000011266
       -0.0000105556   0.0000010660   0.0000002033  -0.0000021073  -0.0000030101
        0.0000000167   0.0001108697   0.0000013335   0.0000006180  -0.0000059914
        0.0000009386  -0.0000007459   0.0001389334  -0.0000017592   0.0000016862
       -0.0000090753  -0.0000015953   0.0000036653  -0.0011188341  -0.0000019593
        0.0000009431  -0.0000124892   0.0000412935  -0.0000298658   0.0009267424
        0.0000012086  -0.0000128817   0.0079086623  -0.0000000163   0.0000008235
       -0.0000043965   0.0000000264   0.0000004248   0.0000012282   0.0000001531
        0.0000006807  -0.0000023730   0.0000003163   0.0000001696  -0.0000221765
        0.0000005017   0.0000002347   0.0000177988   0.0000004568  -0.0000005820
       -0.0000417283
        0.0095740009   0.0032352476   0.0000014379  -0.0573641650  -0.0053736808
       -0.0000006722  -0.2659665301   0.0978943125   0.0002131441   0.6448343223
       -0.0348886894  -0.0001445389  -0.2054160021  -0.0842032523  -0.0000961015
       -0.0831985587  -0.0043696735   0.0000062642   0.0116733419   0.0234742015
        0.0000166267   0.0016944825  -0.0128577337  -0.0000174883  -0.0065500108
       -0.0007920871   0.0000009989   0.0205992651  -0.0494266370  -0.0000927352
       -0.0448414350  -0.0023879868   0.0000101123   0.0137821892   0.0668040282
        0.0001070982   0.0065331053  -0.0026094556  -0.0000033367  -0.0028270925
        0.0013621297   0.0000045163   0.0039222527   0.0001825573  -0.0000009628
       -0.0008358055  -0.0015117138   0.0000003736   0.0009799069  -0.0005653743
       -0.0000015629  -0.0001382857   0.0004744361   0.0000005142  -0.0004871052
        0.0001407042   0.0000008953   0.0001262172   0.0004325294   0.0000005000
       -0.0005998233  -0.0004268584  -0.0000003522   0.0009573612  -0.0006189823
        0.0000002976  -0.0035414833   0.0004081200   0.0000025910  -0.0000313120
        0.0021344674   0.0000018382  -0.0428448571   0.0034498068  -0.0000124292
       -0.0003165757   0.0002524832   0.0000021724  -0.0000028169   0.0000508511
       -0.0000001880   0.0000592617   0.0000401198  -0.0000002337   0.0000567244
        0.0000327015   0.0000002147   0.0000913122  -0.0000452582   0.0000004742
        0.0000099297  -0.0000601343   0.0000002861   0.0000681858  -0.0002311789
        0.0000002456
       -0.0046642728  -0.0053669686  -0.0000111749  -0.0029090583   0.0130918469
        0.0000278098   0.1415977546  -0.1560494159  -0.0002191904  -0.0348886894
        0.6585653982   0.0009053032  -0.1183075205  -0.1476224301  -0.0001357245
        0.0055599223   0.0137602065   0.0000239808   0.0066218896   0.0016675020
       -0.0000114198   0.0006216161  -0.0018146155  -0.0000021858  -0.0028505134
       -0.0086951959  -0.0000137094  -0.0239546012  -0.0246442630  -0.0000359205
        0.0023851981   0.0035038516   0.0000098097   0.0256958140  -0.0361021446
       -0.0000758703  -0.0021362459  -0.0055787302  -0.0000154413   0.0022087192
        0.0000947128   0.0000005354   0.0007871708   0.0001081209   0.0000033082
       -0.0002318567  -0.0004223468   0.0000003187   0.0001879577  -0.0001669256
       -0.0000003149  -0.0000817096   0.0001206045  -0.0000000926  -0.0000904125
        0.0000813528   0.0000003578  -0.0000463218  -0.0000431150  -0.0000000239
        0.0000049279   0.0000423018  -0.0000001642   0.0000770680   0.0002025915
        0.0000000347   0.0004421710   0.0004306867  -0.0000016346   0.0004481978
        0.0001884291   0.0000000281   0.0031952133  -0.3060565451  -0.0004482865
        0.0001128474   0.0006819108  -0.0000001519   0.0000292592   0.0000659304
        0.0000003115   0.0000270724   0.0000279121   0.0000001791   0.0000325032
        0.0000109792  -0.0000000261   0.0000371003  -0.0000130051  -0.0000001664
        0.0000493181  -0.0000326248  -0.0000003066   0.0000394814  -0.0000360117
       -0.0000001725
       -0.0000133266  -0.0000140496   0.0012037612   0.0000146311   0.0000279329
       -0.0000507528   0.0002734755  -0.0002054035  -0.0424053361  -0.0001445389
        0.0009053032   0.1087875598  -0.0001670933  -0.0001583867  -0.0496690041
        0.0000128063   0.0000321974  -0.0030529121   0.0000091586  -0.0000134232
        0.0080934095   0.0000024039   0.0000030627   0.0002678073  -0.0000008811
       -0.0000258342   0.0045193164  -0.0000405194  -0.0000167770   0.0011278014
        0.0000154101   0.0000105770  -0.0016655527   0.0000378419  -0.0000859190
        0.0029578166  -0.0000035457  -0.0000177061   0.0054286287   0.0000043679
        0.0000013334  -0.0010730627  -0.0000007661   0.0000010608  -0.0019519377
        0.0000001295   0.0000000794  -0.0000573132  -0.0000000853  -0.0000005162
        0.0002416155  -0.0000002100   0.0000004648  -0.0000059088   0.0000000820
       -0.0000002069  -0.0001977997  -0.0000002855   0.0000001704  -0.0000133334
       -0.0000001848   0.0000000034  -0.0000496444   0.0000006685  -0.0000000873
        0.0000145446   0.0000017016  -0.0000002830   0.0009597545   0.0000009498
        0.0000008023  -0.0001575050  -0.0000024752  -0.0004462120  -0.0329826055
        0.0000001470   0.0000015570  -0.0002265478   0.0000000313  -0.0000000129
       -0.0000572473  -0.0000000954   0.0000000887   0.0000019048  -0.0000000202
        0.0000000765   0.0000213711   0.0000000163   0.0000000896   0.0000142656
        0.0000000495   0.0000000282   0.0000069229   0.0000001568  -0.0000000102
       -0.0000300168
       -0.0023496624  -0.0021980770  -0.0000026403   0.0013543539   0.0061329446
        0.0000092484  -0.0711554689   0.0314407471   0.0000609349  -0.2054160021
       -0.1183075205  -0.0001670933   0.6445573960   0.0210368991  -0.0000433499
       -0.1789462445   0.1070376802   0.0001406300  -0.1050955245  -0.0310466718
       -0.0000101798  -0.0025813984   0.0304405674   0.0000306566   0.0078411707
       -0.0342335554  -0.0000372789  -0.0911634032   0.0035249901   0.0000332367
        0.0205956035   0.0239575363   0.0000286422  -0.0079132183  -0.0313870484
       -0.0000470746  -0.0051861941   0.0020905082   0.0000014980   0.0027675158
       -0.0013468575  -0.0000025001  -0.0059128889   0.0006226065   0.0000009620
        0.0012522404   0.0021824896  -0.0000027222  -0.0013675289   0.0008626422
        0.0000015913  -0.0001756942  -0.0007427580  -0.0000001598   0.0010418227
       -0.0007514166  -0.0000015463  -0.0004057329  -0.0012018872   0.0000001512
        0.0020770782   0.0014638308   0.0000010945  -0.0030853336   0.0025213031
        0.0000009462   0.0066248992  -0.0073010205  -0.0000067661  -0.0033658671
       -0.0045354070  -0.0000034562   0.0002561480  -0.0029461462   0.0000070450
       -0.0037688552   0.0022508586   0.0000093387   0.0000468809   0.0000139156
       -0.0000007298  -0.0000678859  -0.0000391522  -0.0000007429  -0.0001032455
       -0.0000944604  -0.0000007498  -0.0001300950   0.0000814788  -0.0000002017
       -0.0000191461   0.0000619835   0.0000006865  -0.0002057195   0.0004089971
        0.0000005295
       -0.0015210131  -0.0002383730   0.0000027860   0.0068211912   0.0011414459
       -0.0000152877  -0.0123476951   0.0306917188   0.0000531288  -0.0842032523
       -0.1476224301  -0.0001583867   0.0210368991   0.5865113010   0.0006177178
        0.1029466721  -0.1692073626  -0.0001385463   0.0091929721   0.0388195991
        0.0000375695   0.0180895273  -0.0255579581  -0.0000367798  -0.0592211767
       -0.0291033042  -0.0000212817  -0.0035210551  -0.2184160491  -0.0002252827
        0.0494297378  -0.0246411379  -0.0000511303  -0.0174704202  -0.0219308001
       -0.0000166614   0.0020820738  -0.0021529558  -0.0000099227  -0.0013202698
        0.0010336471   0.0000048524  -0.0003982425  -0.0007587577  -0.0000031489
        0.0008770006   0.0002516588   0.0000007404  -0.0001447036   0.0002508040
        0.0000004319   0.0002450548  -0.0000619440  -0.0000002809  -0.0009749881
       -0.0000028289   0.0000025623   0.0004782404   0.0005027243  -0.0000003020
       -0.0010463442  -0.0007316508  -0.0000000317   0.0017211461  -0.0014173406
       -0.0000005248  -0.0072927013   0.0000618425  -0.0000078607   0.0010576641
        0.0008745281   0.0000010872  -0.0259723012  -0.0185624610  -0.0000260148
        0.0010260420   0.0001037432  -0.0000089607   0.0000347919   0.0001882866
        0.0000002604   0.0000582082   0.0000556461   0.0000004946   0.0000761017
        0.0000536066   0.0000003722   0.0000902815  -0.0000412407  -0.0000001265
        0.0000708263  -0.0000316847  -0.0000005002   0.0000997322  -0.0000622729
       -0.0000009732
       -0.0000023589   0.0000035815  -0.0020804458   0.0000118116  -0.0000163198
        0.0100024821  -0.0000125658   0.0000446950   0.0005301469  -0.0000961015
       -0.0001357245  -0.0496690041  -0.0000433499   0.0006177178   0.1352470514
        0.0001468917  -0.0001421583  -0.0513836297   0.0000223877   0.0000435124
       -0.0002726224   0.0000132995  -0.0000086964  -0.0132962183  -0.0000382916
       -0.0000479796   0.0170903067  -0.0000150063  -0.0002254898  -0.0628709210
        0.0000808258  -0.0000530830   0.0011276009  -0.0000245042  -0.0000236054
       -0.0049353543   0.0000005237  -0.0000021978  -0.0000169324  -0.0000008971
        0.0000011831   0.0000057968  -0.0000004175  -0.0000004461   0.0001069543
       -0.0000024842  -0.0000027816   0.0001474422   0.0000017629   0.0000011775
        0.0001459250   0.0000015888   0.0000001484   0.0000239368  -0.0000040854
       -0.0000009176  -0.0010614358   0.0000016685   0.0000000903   0.0000394374
        0.0000001356  -0.0000007582  -0.0015072914  -0.0000007951   0.0000010731
        0.0001991503  -0.0000046683  -0.0000091830   0.0126339665  -0.0000025602
        0.0000015541   0.0000675781  -0.0000419233  -0.0000334669   0.0028051873
        0.0000067077  -0.0000117478   0.0062628260   0.0000004719   0.0000007526
       -0.0000161447   0.0000003737   0.0000000611  -0.0000705211   0.0000001522
        0.0000002497  -0.0000335046   0.0000004333  -0.0000003450   0.0003358280
        0.0000003218  -0.0000000805  -0.0000345720   0.0000006528  -0.0000008153
        0.0004769807
        0.0004820925   0.0000165057  -0.0000000992  -0.0025401167  -0.0002343135
       -0.0000002554   0.0113324553  -0.0213635111  -0.0000286348  -0.0831985587
        0.0055599223   0.0000128063  -0.1789462445   0.1029466721   0.0001468917
        0.6265356103   0.0703570534  -0.0000442503  -0.2920998454  -0.1520037464
       -0.0001161181  -0.0014864618  -0.0717091959  -0.0000809793  -0.0405086979
       -0.0036689639   0.0000226774   0.0078375068   0.0592227025   0.0000510311
       -0.0065500777   0.0028504766   0.0000073898   0.0020833463   0.0148078758
        0.0000194389   0.0039448204  -0.0020952348  -0.0000044520  -0.0019494567
        0.0010835263   0.0000023155   0.0091358863  -0.0023349099  -0.0000023238
       -0.0024179243  -0.0027755580   0.0000037673   0.0020786614  -0.0010928269
       -0.0000025845   0.0001076371   0.0014197458   0.0000007257  -0.0028236606
       -0.0000278895   0.0000026997   0.0016661291   0.0024926344  -0.0000007523
       -0.0049316968  -0.0030485167   0.0000000381   0.0071488025  -0.0081135555
       -0.0000044369  -0.0555545513  -0.0041438396   0.0000043138  -0.0008437331
        0.0103761083   0.0000085245   0.0021150076   0.0010848551  -0.0000005909
       -0.0009767082   0.0005544111   0.0000016441  -0.0000053734   0.0001702278
        0.0000009029  -0.0000083207  -0.0000238220   0.0000008302  -0.0000153646
        0.0000060474   0.0000009219   0.0001943990  -0.0000674989   0.0000002816
       -0.0000692158  -0.0000348395  -0.0000009685   0.0002636538  -0.0002105424
       -0.0000007546
       -0.0002281364  -0.0002631779  -0.0000003497  -0.0000468973   0.0006396510
        0.0000007735  -0.0058162791   0.0016018927  -0.0000081244  -0.0043696735
        0.0137602065   0.0000321974   0.1070376802  -0.1692073626  -0.0001421583
        0.0703570534   0.4330064609   0.0003624365  -0.1650749380  -0.2187349206
       -0.0001546816  -0.0397256776  -0.0311409033  -0.0000324847   0.0036672667
        0.0045550046   0.0000291192   0.0342354203  -0.0290998320  -0.0000723099
        0.0007921829  -0.0086951870  -0.0000253973  -0.0010378417  -0.0016079576
       -0.0000014546  -0.0006834706   0.0003150559   0.0000060443   0.0003285328
       -0.0001814777  -0.0000022435  -0.0003590724  -0.0090350258   0.0000032071
       -0.0022832088  -0.0000418377   0.0000014784  -0.0002609138  -0.0003707823
       -0.0000011565   0.0004036497   0.0001267095  -0.0000003063  -0.0001310655
        0.0007952989  -0.0000022645   0.0005858194   0.0006746967  -0.0000000456
       -0.0017536178  -0.0007862589   0.0000013746   0.0021019696  -0.0026937655
       -0.0000022158  -0.0043023546   0.0141881516   0.0000126672   0.0043571940
        0.0019766935  -0.0000035667   0.0008994519   0.0014831211   0.0000048138
        0.0020517228  -0.0017716783  -0.0000059185   0.0000321332   0.0000753630
       -0.0000003243  -0.0002716668  -0.0001199335  -0.0000004976  -0.0000635937
        0.0000281695   0.0000000802  -0.0000063470   0.0000228380   0.0000001836
       -0.0001190650   0.0000696146   0.0000005353  -0.0003162572   0.0004311727
        0.0000005886
       -0.0000023509  -0.0000013003  -0.0001892609   0.0000034709   0.0000018165
        0.0008666449  -0.0000073924  -0.0000109421   0.0058906318   0.0000062642
        0.0000239808  -0.0030529121   0.0001406300  -0.0001385463  -0.0513836297
       -0.0000442503   0.0003624365   0.0655486759  -0.0001214768  -0.0001519004
       -0.0423604010  -0.0000278976  -0.0000434233   0.0271553419  -0.0000145494
        0.0000275406  -0.0167366214   0.0000519278  -0.0000665800   0.0170904683
        0.0000032332  -0.0000146533   0.0045203212  -0.0000000566  -0.0000001919
       -0.0008945406  -0.0000030924   0.0000043548  -0.0015418361   0.0000012462
       -0.0000012710   0.0003540346   0.0000013380  -0.0000073427   0.0009534098
       -0.0000007047   0.0000025215  -0.0001821244  -0.0000011857  -0.0000017710
       -0.0003146555  -0.0000004722   0.0000011762  -0.0000170397   0.0000026761
        0.0000000229   0.0011375654  -0.0000003490   0.0000000004  -0.0000303000
       -0.0000010935  -0.0000004481   0.0006034460   0.0000017843  -0.0000013720
       -0.0000932123   0.0000044274   0.0000154775  -0.0083273238   0.0000079826
       -0.0000008200   0.0023350641   0.0000001386   0.0000038562  -0.0017312589
        0.0000014830  -0.0000023985   0.0005701638  -0.0000000430  -0.0000007579
        0.0000765157  -0.0000005298  -0.0000002118   0.0000821237  -0.0000004570
       -0.0000001672  -0.0002432324  -0.0000004497   0.0000002250  -0.0000792161
       -0.0000003019   0.0000001773   0.0000053664   0.0000000504   0.0000005114
       -0.0000122085
        0.0001733713  -0.0000513954   0.0000003363  -0.0006732191   0.0002139755
       -0.0000017318  -0.0084306468   0.0077215692   0.0000151551   0.0116733419
        0.0066218896   0.0000091586  -0.1050955245   0.0091929721   0.0000223877
       -0.2920998454  -0.1650749380  -0.0001214768   0.7440527434   0.1043263119
       -0.0000186827  -0.0650817956   0.0176300660   0.0000164679  -0.0014901507
        0.0397270972   0.0000511285  -0.0025802818  -0.0180888478  -0.0000226524
        0.0016941725  -0.0006214374  -0.0000041135   0.0008613804  -0.0073552255
       -0.0000132083  -0.0031598580   0.0017908730   0.0000019875   0.0017232388
       -0.0010173728  -0.0000021085  -0.0172423807  -0.0210173492  -0.0000054150
       -0.0032683766   0.0014379811   0.0000027552  -0.0030025982  -0.0001068344
        0.0000025465  -0.0025936546  -0.0026292188   0.0000006322   0.0027303617
       -0.0045444897   0.0000006896  -0.0032392757  -0.0053916179   0.0000008393
        0.0117497588   0.0080971806   0.0000009861  -0.0267094111   0.0243080025
        0.0000226642  -0.1910820506   0.0368010968   0.0000429084  -0.0499023089
       -0.0310353755   0.0000010514  -0.0000406327   0.0000553619   0.0000020103
        0.0005558412  -0.0004437113  -0.0000018492   0.0000412556   0.0003089469
       -0.0000000916  -0.0003410915   0.0001823612   0.0000006336  -0.0000167518
       -0.0002339507   0.0000007028  -0.0000972320   0.0000027527  -0.0000012867
       -0.0000149516  -0.0002280807   0.0000000196   0.0009065724  -0.0005785930
       -0.0000024443
       -0.0016031766  -0.0010293121  -0.0000016596   0.0028913961   0.0019404404
        0.0000046791  -0.0090793493   0.0113325802   0.0000208183   0.0234742015
        0.0016675020  -0.0000134232  -0.0310466718   0.0388195991   0.0000435124