$hessian                                                                        
        0.4986431044  -0.0355580528  -0.0095986225  -0.0704271497  -0.0186048291
       -0.0250278725  -0.0205481439  -0.0251546783  -0.0191950538   0.0003002387
       -0.0021608933   0.0005468854   0.0005812122   0.0028056164   0.0000404352
       -0.0028704785   0.0004445190  -0.0010084029   0.0005095541   0.0000805471
       -0.0003283865   0.0001193131  -0.0000536026   0.0000150615   0.0000481949
       -0.0002974687  -0.0000262423  -0.0007760586  -0.0013826354  -0.0010539869
       -0.0004412384   0.0001508564   0.0000934181  -0.0001201364  -0.0000559840
       -0.0000829100  -0.0000346097   0.0000155048   0.0000162486   0.0000169453
        0.0000124706   0.0000140301  -0.0000815514  -0.0000564377  -0.0000181581
       -0.0000076879   0.0000124024   0.0000090136   0.0001228767  -0.0000317121
       -0.0000150672  -0.0001657204   0.0000232184   0.0000145355   0.0001341047
       -0.0000220675   0.0000236002  -0.0000065891  -0.0000176186  -0.0000066885
       -0.0000018358   0.0000029473   0.0000011787  -0.0000049526  -0.0000006916
        0.0000002983  -0.0000025687  -0.0000003161  -0.0000013797  -0.0000142690
        0.0000266822  -0.0000016665   0.0000521711   0.0000104945   0.0000202132
       -0.0000966130  -0.0000103106  -0.0000571874   0.0001029923  -0.0000202480
        0.0000577643  -0.0000132948   0.0000228783  -0.0000100411   0.0000562442
       -0.0000195641   0.0000226312  -0.0000255853   0.0000870967  -0.0000113539
        0.0000195488  -0.0000543575   0.0000080454  -0.0000481198   0.0000259496
       -0.0000224003  -0.0000048617   0.0000078743  -0.0000125879  -0.0000160098
       -0.0000080864  -0.0000154990  -0.0000042587   0.0000289642   0.0000010512
        0.0000343538  -0.0001698758   0.0000388600   0.0000668536   0.0000524896
       -0.0000416254  -0.0001180752   0.0000953973   0.0002365295   0.0002279840
       -0.0004050107  -0.0001251486  -0.0003942102   0.0004467207   0.0002177831
        0.0000390835  -0.0001115076   0.0000331952  -0.0000089776   0.0000429586
        0.0000251274   0.0000522763  -0.0000265813   0.0000458841  -0.0000715200
       -0.0000480536  -0.0001369629   0.0000447089   0.0003605628  -0.0000118901
       -0.0036489336   0.0017218166  -0.0029492598  -0.1607776023   0.0583600429
        0.0963001969  -0.1678634142   0.0761556976  -0.0905634836  -0.0721766241
       -0.0572983848   0.0517024813  -0.0000242358  -0.0000371514   0.0000483945
        0.0000174208   0.0000189667  -0.0000227040   0.0000105355  -0.0000113188
        0.0000165221  -0.0000538377  -0.0000676025   0.0001517546  -0.0000038715
       -0.0000067332   0.0000054504   0.0000081092   0.0000036551   0.0000044239
        0.0000095898  -0.0000006160  -0.0000168400  -0.0000083527  -0.0000033928
       -0.0000039493   0.0000058844   0.0000037931   0.0000077824  -0.0000007849
       -0.0000026695   0.0000019056   0.0000041264   0.0000051082   0.0000010012
        0.0000017238  -0.0000006441  -0.0000047204   0.0000036998   0.0000017078
        0.0000040575   0.0000028624  -0.0000026146  -0.0000031861  -0.0000026447
        0.0000019322  -0.0000009431  -0.0000023106   0.0000036049   0.0000026285
        0.0000031476  -0.0000040392  -0.0000140376   0.0000023536   0.0000011591
        0.0000015459  -0.0000037185  -0.0000027617  -0.0000022409  -0.0000027622
       -0.0000046163  -0.0000036662  -0.0000047532   0.0000069136   0.0000005358
        0.0000051842  -0.0000007284   0.0000144107   0.0000017053  -0.0000020898
       -0.0000082989   0.0000057237  -0.0000102320   0.0000062972   0.0000033624
        0.0000119072  -0.0000206201   0.0000050098   0.0000044399   0.0000126126
       -0.0000123711   0.0000073438  -0.0000056117  -0.0000490057   0.0000608077
        0.0000359342   0.0000090216  -0.0000525520   0.0000061753   0.0000625960
        0.0000428193  -0.0000045674  -0.0000278368   0.0000083535  -0.0000086156
       -0.0000022579   0.0000077710  -0.0000309341  -0.0000985830  -0.0000072951
       -0.0000156183  -0.0001853922   0.0005532134   0.0004731638  -0.0000864023
       -0.0000329227   0.0001187733   0.0000012594  -0.0000087224   0.0000845440
        0.0000051344   0.0000904660   0.0000060497
       -0.0355580528   0.4691967074  -0.0365567875  -0.0335115495  -0.1733081396
       -0.0700800021  -0.0104658450   0.0067429923  -0.0029079497   0.0011217797
        0.0002520062   0.0019399883   0.0034767181   0.0013658080   0.0027217250
       -0.0001654167  -0.0012380017   0.0000710652  -0.0006861529   0.0003499052
       -0.0001441986  -0.0000044853  -0.0000659994  -0.0000585634  -0.0000655796
        0.0003025288   0.0000483803   0.0003972541  -0.0007329534  -0.0003171219
       -0.0002401220   0.0000082622   0.0000411065  -0.0000432924  -0.0000114016
       -0.0001005687  -0.0000339563   0.0000010891   0.0000309248   0.0000411033
       -0.0000295568  -0.0000121580  -0.0001217530  -0.0000570361  -0.0000127795
       -0.0000037842  -0.0000062316   0.0000119137   0.0001657834  -0.0000780980
       -0.0000288875  -0.0002395016   0.0000552063   0.0000284621   0.0001854821
       -0.0000391431   0.0000299726  -0.0000087983  -0.0000243739  -0.0000093350
       -0.0000026526   0.0000054856   0.0000013244  -0.0000058901  -0.0000006016
        0.0000010680  -0.0000015498  -0.0000003903  -0.0000029690  -0.0000235674
        0.0000435986   0.0000072676   0.0000841874  -0.0000084400   0.0000253765
       -0.0000979299   0.0000281991  -0.0000517413   0.0000931885  -0.0000403656
        0.0000535500  -0.0000160154   0.0000403670  -0.0000104795   0.0000727895
       -0.0000694142   0.0000304736  -0.0000307338   0.0001579550  -0.0000108292
        0.0000104726  -0.0000987308  -0.0000003869  -0.0000547334   0.0001089929
       -0.0000170494   0.0000081133  -0.0000331339  -0.0000145638  -0.0000059328
       -0.0000960121  -0.0000311971  -0.0000020923   0.0001376849   0.0000163502
       -0.0002825637  -0.0002243100   0.0000426360   0.0000663126   0.0000856481
       -0.0000115031   0.0001256331   0.0003303810  -0.0000360872  -0.0006795051
       -0.0004903498  -0.0002618371   0.0002864213   0.0000141075   0.0003829143
        0.0000326646  -0.0002128680  -0.0001271391  -0.0000391563   0.0000537489
       -0.0000536765   0.0000778702  -0.0000138261   0.0000081519  -0.0002178009
        0.0001199340   0.0000682514  -0.0000040147   0.0002570856  -0.0004262448
        0.0001403474  -0.0002710189  -0.0008452861   0.0592437190  -0.0696385584
       -0.0459471012   0.0710112310  -0.0825140994   0.0538690407  -0.0551158136
       -0.1498393463   0.0987833699   0.0000095464  -0.0000315763   0.0000875006
        0.0001013799  -0.0000456647  -0.0000669717   0.0000075886   0.0000123132
        0.0000084736   0.0000121400  -0.0000279580   0.0000467294  -0.0000101050
       -0.0000141623   0.0000091521   0.0000076181   0.0000048310   0.0000051149
        0.0000199342  -0.0000022938  -0.0000345545  -0.0000082852  -0.0000069206
       -0.0000057444   0.0000066252   0.0000056482   0.0000091903  -0.0000004526
       -0.0000032948   0.0000026742   0.0000041433   0.0000038248  -0.0000009647
        0.0000028527  -0.0000016193  -0.0000068704   0.0000032408   0.0000018323
        0.0000029689   0.0000060017  -0.0000057016  -0.0000050022  -0.0000035687
        0.0000035420  -0.0000033947  -0.0000031824   0.0000038228   0.0000025958
        0.0000052032  -0.0000054165  -0.0000235744  -0.0000001215  -0.0000005835
        0.0000013173  -0.0000033225  -0.0000017328  -0.0000020937  -0.0000015431
       -0.0000052945  -0.0000042718  -0.0000124291   0.0000156855   0.0000053039
        0.0000030086   0.0000165179   0.0000299113   0.0000049506  -0.0000086912
       -0.0000117068   0.0000106046   0.0000118213   0.0000219075   0.0000001919
       -0.0000013434  -0.0000368304   0.0000048907  -0.0000095208   0.0000203202
       -0.0000266334  -0.0000007199  -0.0000056868  -0.0000015858  -0.0000577677
        0.0000914914   0.0000146487  -0.0000540078  -0.0000200855   0.0000753798
       -0.0000597927   0.0001073582  -0.0000322944   0.0000496564   0.0000124024
        0.0000212312  -0.0000015668   0.0000401724  -0.0000377774  -0.0000322464
       -0.0000357947   0.0009400730  -0.0002331811  -0.0003134948  -0.0000584247
       -0.0000413028   0.0001251466   0.0000313864   0.0000009398   0.0000709119
       -0.0000057439   0.0000066306  -0.0002604707
       -0.0095986225  -0.0365567875   0.4679679527  -0.0328290094  -0.0637847951
       -0.0896128340  -0.0134687193  -0.0100204882  -0.0183271391   0.0020245368
       -0.0013904306  -0.0000722583   0.0013222508   0.0023557079   0.0010907724
       -0.0014711128   0.0005419401  -0.0016264373  -0.0005512595  -0.0002584901
        0.0004769521   0.0000640845  -0.0000436499   0.0000382098   0.0000304506
       -0.0001259328   0.0000329638  -0.0008389783  -0.0012940854   0.0007546200
       -0.0002911604  -0.0000161014  -0.0002456168  -0.0001024656  -0.0000499576
       -0.0000239026   0.0000046592  -0.0000097457  -0.0000093384   0.0000366828
       -0.0000213990  -0.0000158391  -0.0000782476  -0.0000348864  -0.0000069180
       -0.0000066519  -0.0000052471   0.0000099034   0.0000825227  -0.0000477243
       -0.0000234799  -0.0001322103   0.0000303791   0.0000204973   0.0001018069
       -0.0000215424   0.0000123316  -0.0000054200  -0.0000157801  -0.0000022709
       -0.0000009794   0.0000036613   0.0000022492  -0.0000026445  -0.0000003675
        0.0000025221  -0.0000010091  -0.0000007053  -0.0000012992  -0.0000147525
        0.0000252018   0.0000110042   0.0000447595  -0.0000005834   0.0000105905
       -0.0000435610   0.0000121120  -0.0000155917   0.0000336258  -0.0000179391
        0.0000140175  -0.0000105799   0.0000174057  -0.0000000097   0.0000318339
       -0.0000424963   0.0000116005  -0.0000210027   0.0000903979  -0.0000010627
        0.0000068721  -0.0000533603  -0.0000111071  -0.0000248767   0.0000584013
       -0.0000046753   0.0000164792  -0.0000246220  -0.0000053761   0.0000109613
       -0.0000588045  -0.0000224145  -0.0000104654   0.0000832323   0.0000101990
       -0.0004403396  -0.0000681656   0.0001022319   0.0000601311   0.0000820421
        0.0000423085   0.0005955025   0.0007788255  -0.0003909870  -0.0004437435
       -0.0009638498   0.0002066627   0.0005238897  -0.0003577690   0.0001626820
        0.0001343017  -0.0001951816  -0.0000818362  -0.0000631837   0.0000492775
        0.0000645651   0.0000643252  -0.0000402046   0.0000123463  -0.0001029504
        0.0000988475   0.0000582871   0.0000611667  -0.0001973187  -0.0001953346
       -0.0021378603   0.0016669288   0.0009844487   0.0973572644  -0.0466039516
       -0.1209345977  -0.0914959747   0.0575825592  -0.1113756802   0.0507938631
        0.0989939008  -0.1280862403  -0.0000057133   0.0000237414   0.0000383639
        0.0000846802  -0.0000619687  -0.0000562061   0.0000150026  -0.0000101942
        0.0000151151   0.0000820212  -0.0000316082  -0.0002025856  -0.0000083853
       -0.0000057073   0.0000029877   0.0000042451   0.0000027910   0.0000033038
        0.0000177488   0.0000011504  -0.0000212671  -0.0000042700  -0.0000045813
       -0.0000021978   0.0000018470   0.0000032077   0.0000033681  -0.0000010289
       -0.0000010423   0.0000000063   0.0000017051   0.0000012613  -0.0000004590
        0.0000021253  -0.0000006798  -0.0000047883  -0.0000002594   0.0000008583
        0.0000001048   0.0000037263  -0.0000038281  -0.0000032965  -0.0000026936
        0.0000028339  -0.0000042488  -0.0000019454   0.0000015048   0.0000014241
        0.0000019085  -0.0000013718  -0.0000170971  -0.0000023754  -0.0000008904
        0.0000001343  -0.0000005081   0.0000001498  -0.0000023765  -0.0000006264
       -0.0000031928  -0.0000036533  -0.0000097614   0.0000176315  -0.0000027343
       -0.0000023064   0.0000122710   0.0000250431   0.0000055301  -0.0000085511
       -0.0000076219   0.0000039219   0.0000099736   0.0000173488   0.0000087368
       -0.0000015828  -0.0000301039  -0.0000021208   0.0000023607   0.0000063645
       -0.0000251304   0.0000059926   0.0000052375  -0.0000162443  -0.0000577739
        0.0000096861   0.0000245245   0.0000716916  -0.0000288758   0.0000414719
        0.0000057023  -0.0000060066  -0.0000256071   0.0000554306  -0.0000217020
        0.0000223850  -0.0000204884  -0.0000386891  -0.0000887946   0.0000287267
       -0.0000304507   0.0006718695  -0.0000848210   0.0004009832   0.0001177453
       -0.0000080149  -0.0000442673  -0.0000419244   0.0000816477  -0.0000558721
       -0.0000856895  -0.0001710880  -0.0009526432
       -0.0704271497  -0.0335115495  -0.0328290094   0.3583509427   0.0116032067
        0.1808181532  -0.2120019752   0.0498718664  -0.0850512254  -0.0306633755
        0.0180517967  -0.0168563938  -0.0045652235  -0.0112112173  -0.0026820520
        0.0032663737   0.0050031816   0.0017250825  -0.0011307111   0.0024645819
       -0.0036196886  -0.0015617277  -0.0004931669  -0.0004700640  -0.0015670302
        0.0018104055  -0.0004109150   0.0025673815   0.0003521376  -0.0012235343
        0.0007969873  -0.0016695432   0.0005603166   0.0001882237  -0.0002316675
        0.0003809721   0.0002630872  -0.0000333390  -0.0002249595  -0.0001374719
       -0.0000873018  -0.0000082846   0.0004656359   0.0002712373   0.0000892947
       -0.0000078746  -0.0000853121  -0.0000236381  -0.0005575693   0.0001336213
        0.0000908580   0.0008188478  -0.0000621670  -0.0000783362  -0.0006549352
        0.0001098622  -0.0000714701   0.0000284224   0.0000884141   0.0000114796
        0.0000161746  -0.0000065230  -0.0000232355   0.0000419834   0.0000045672
       -0.0000094832   0.0000255550  -0.0000077705  -0.0000136685   0.0000802188
       -0.0001411984  -0.0000157302  -0.0002541427  -0.0001051496  -0.0000797144
        0.0004250216   0.0000702873   0.0002077129  -0.0004299609   0.0000888103
       -0.0002197144   0.0000967571  -0.0001088123   0.0000389010  -0.0002467204
        0.0000236817  -0.0000622303   0.0001365240  -0.0003174153   0.0000009683
       -0.0001272649   0.0001868705  -0.0000115180   0.0002625248  -0.0000415821
        0.0000684127  -0.0000643141  -0.0000648573   0.0000888894   0.0000491892
        0.0000200740   0.0001958624   0.0000809321  -0.0001018382  -0.0000378831
       -0.0018117384   0.0016130211  -0.0005864435  -0.0000817011  -0.0003948105
        0.0000985453   0.0020636075   0.0006013292  -0.0012636236  -0.0122872969
        0.0055926740   0.0003782285   0.0081632268   0.0003661490   0.0043915031
        0.0004351082  -0.0003467538  -0.0008295560  -0.0002975861  -0.0003112068
       -0.0001373499   0.0001976536  -0.0002279199   0.0000706807  -0.0007799989
        0.0005829889  -0.0002995592  -0.0014344732  -0.0014093969   0.0009784538
       -0.0259436917  -0.0249092822  -0.0211235101   0.0097436390   0.0118934491
        0.0051689885  -0.0144727920  -0.0214625020  -0.0198050577  -0.0070849819
       -0.0171884749  -0.0075936142   0.0001400656  -0.0000383219  -0.0001021335
        0.0000689822   0.0000083025   0.0000075276  -0.0003053359   0.0003006013
       -0.0000748031   0.0003030986   0.0000384937   0.0005627092   0.0000248984
        0.0000242170  -0.0000102536  -0.0000059038  -0.0000200669  -0.0000245001
        0.0000414817   0.0000353742   0.0000668042   0.0000531662   0.0000077971
        0.0000234301  -0.0000324667  -0.0000419665  -0.0000374540   0.0000067853
        0.0000080327  -0.0000014527  -0.0000182443  -0.0000316584  -0.0000056110
       -0.0000107362  -0.0000004028   0.0000265061  -0.0000131294  -0.0000127496
       -0.0000279669  -0.0000127522   0.0000111243   0.0000059652   0.0000232103
       -0.0000151081  -0.0000033130   0.0000136345  -0.0000089206  -0.0000361161
       -0.0000212896   0.0000063246   0.0000667520  -0.0000250335  -0.0000144048
       -0.0000261787   0.0000095107   0.0000094959   0.0000055529   0.0000217613
        0.0000217897   0.0000209065   0.0000971530  -0.0000841055   0.0000474520
        0.0000034916   0.0000596963  -0.0001762059  -0.0000787010   0.0000940744
        0.0001123872  -0.0000243192   0.0000048123  -0.0001657693  -0.0000586696
       -0.0000332141  -0.0000029038   0.0001398200  -0.0001039965  -0.0000104600
       -0.0000600332  -0.0001052182   0.0000238383   0.0000069826  -0.0003249195
       -0.0001181267  -0.0001214693   0.0004817808  -0.0001994491   0.0000482886
       -0.0000960813   0.0003895415  -0.0000107990   0.0001985955  -0.0000680302
       -0.0001489991   0.0003002488   0.0001407488   0.0001722810   0.0000874137
       -0.0000783019  -0.0001369313   0.0007683613   0.0016615094   0.0000876718
        0.0000169998  -0.0000041573   0.0000964311   0.0011679138  -0.0004011590
       -0.0002462120   0.0010062295  -0.0012891258
       -0.0186048291  -0.1733081396  -0.0637847951   0.0116032067   0.3255836383
        0.1131151554   0.0238172633  -0.0840061153  -0.0024746917   0.0334192371
       -0.0050370055   0.0135690263  -0.0000058808   0.0023511633   0.0003719847
        0.0003514880  -0.0010644048   0.0002619047   0.0009219451  -0.0063187656
       -0.0016332906   0.0015081743   0.0002137797   0.0007403450   0.0002867015
        0.0019693209   0.0001545540  -0.0002136276  -0.0061071655  -0.0016123561
       -0.0010988929   0.0008078739  -0.0001432908  -0.0002291087  -0.0001265068
       -0.0000110835   0.0000455531  -0.0000013335   0.0000019909  -0.0000088119
        0.0000680646   0.0000219958   0.0000249272  -0.0000066471  -0.0000193777
       -0.0000110396   0.0000270793  -0.0000028813  -0.0000824747   0.0000637447
        0.0000130356   0.0001054091  -0.0000568493  -0.0000169393  -0.0000838848
        0.0000264305  -0.0000183136   0.0000045701   0.0000101048   0.0000077840
        0.0000005882  -0.0000028232   0.0000011652   0.0000007814   0.0000010920
       -0.0000001027  -0.0000015400   0.0000014539   0.0000036895   0.0000113173
       -0.0000246157  -0.0000045831  -0.0000404663   0.0000413584  -0.0000075773
        0.0000109243  -0.0000562806   0.0000125399  -0.0000092585   0.0000385028
       -0.0000175162   0.0000018509  -0.0000287281   0.0000087991  -0.0000341894
        0.0000939780  -0.0000235231   0.0000025987  -0.0001298831   0.0000144273
        0.0000167395   0.0000830241  -0.0000036056  -0.0000025291  -0.0001519763
        0.0000007391   0.0000289454   0.0000633757  -0.0000117289   0.0000219235
        0.0001322176  -0.0000013593  -0.0000284360  -0.0001573164  -0.0000193388
        0.0011719735  -0.0001345361   0.0002342809  -0.0000212727  -0.0000434729
       -0.0000254289  -0.0011857130   0.0002393888  -0.0000734724   0.0016162523
        0.0007415439   0.0004429464  -0.0009623187  -0.0035189564  -0.0024633733
       -0.0003104201   0.0003370414  -0.0001367871  -0.0000124364   0.0001177046
        0.0001094693  -0.0001949763   0.0000161471  -0.0000369086   0.0004985549
       -0.0001839799   0.0000256589   0.0006737165  -0.0010133024  -0.0007731301
       -0.0309772466  -0.0001420746  -0.0166447540  -0.0034512118  -0.0235463958
       -0.0205966099  -0.0016179940   0.0071011924  -0.0002708452  -0.0176574254
       -0.0340006187  -0.0161981516  -0.0000306857   0.0001051263  -0.0001155438
       -0.0001431448   0.0000959304   0.0000921994   0.0003211230  -0.0003332535
        0.0001641097  -0.0001442959  -0.0000833163   0.0002109520   0.0000058281
        0.0000119605  -0.0000064265  -0.0000032113  -0.0000014111  -0.0000007642
       -0.0000096966   0.0000039159   0.0000215624   0.0000015060   0.0000053143
        0.0000026284  -0.0000019639   0.0000002370  -0.0000039880  -0.0000003314
        0.0000025303  -0.0000033524  -0.0000003105   0.0000021836   0.0000018654
       -0.0000004696   0.0000025709   0.0000014841  -0.0000005979   0.0000013354
        0.0000005019  -0.0000035892   0.0000038983   0.0000028487   0.0000001631
       -0.0000007823   0.0000016155   0.0000012579  -0.0000009963   0.0000027510
       -0.0000019803   0.0000052279   0.0000109968   0.0000051039   0.0000052172
        0.0000029086   0.0000018350  -0.0000002938  -0.0000008775  -0.0000024314
        0.0000014251   0.0000005941  -0.0000196616   0.0000171731  -0.0000204820
       -0.0000113290  -0.0000331514   0.0000291763   0.0000134974  -0.0000075979
       -0.0000072129  -0.0000146259  -0.0000347335   0.0000077096   0.0000215346
        0.0000214715   0.0000227309  -0.0000177224   0.0000142653  -0.0000256581
        0.0000146284   0.0000197980   0.0000049566   0.0000460548  -0.0000492925
       -0.0001047189   0.0000270171   0.0000789262   0.0000470805  -0.0001135638
        0.0000923078  -0.0001819532   0.0000293211  -0.0000922285  -0.0000279625
        0.0000319944  -0.0000617390  -0.0000877100   0.0000313748   0.0000543889
        0.0000295977   0.0000481275  -0.0003120393  -0.0001335841   0.0000887380
        0.0000768778  -0.0002347079  -0.0000649860  -0.0001963702   0.0000214419
        0.0005968348  -0.0003762034  -0.0018104453
       -0.0250278725  -0.0700800021  -0.0896128340   0.1808181532   0.1131151554
        0.2113946919  -0.1000066904   0.0066636411  -0.0842300632  -0.0154866709
        0.0075311634  -0.0020228267  -0.0020361593  -0.0051018598  -0.0031301922
        0.0016261683   0.0018249323   0.0014360618  -0.0013364618   0.0004285133
        0.0052383735  -0.0005450966  -0.0001891201  -0.0002534913  -0.0003739730
       -0.0004249990  -0.0003438815  -0.0013043802  -0.0010463463   0.0021952244
       -0.0001708226  -0.0005477908   0.0003192924   0.0000633815  -0.0001640510
        0.0002884044   0.0000709340   0.0000045354  -0.0001356041  -0.0001294442
       -0.0000003272   0.0000430258   0.0002997919   0.0001449701   0.0000522493
       -0.0000063924  -0.0000308387  -0.0000182616  -0.0003149517   0.0001209969
        0.0000657458   0.0004943910  -0.0000651601  -0.0000572259  -0.0003946465
        0.0000732990  -0.0000417801   0.0000131457   0.0000479350   0.0000022108
        0.0000086540  -0.0000048847  -0.0000146429   0.0000223120   0.0000022744
       -0.0000060132   0.0000117604  -0.0000034772  -0.0000078455   0.0000467129
       -0.0000858491  -0.0000140815  -0.0001458117  -0.0000515572  -0.0000424748
        0.0002160839   0.0000151278   0.0000967492  -0.0002074822   0.0000583100
       -0.0001023865   0.0000527874  -0.0000619740   0.0000154885  -0.0001354577
        0.0000468532  -0.0000331468   0.0000727524  -0.0001952455  -0.0000035797
       -0.0000589445   0.0001112726   0.0000089573   0.0001344112  -0.0000989784
        0.0000300035  -0.0000424600   0.0000087131   0.0000419712  -0.0000017533
        0.0000794826   0.0001064986   0.0000679927  -0.0001551836  -0.0000232515
       -0.0004902577   0.0008338002  -0.0005209200  -0.0000050650  -0.0002211578
       -0.0000304324   0.0001810746  -0.0003736662   0.0004206775  -0.0028638727
        0.0027514459  -0.0023792562   0.0025945194  -0.0002848354   0.0015783996
        0.0001044479   0.0000557376   0.0000150956  -0.0000277493  -0.0001974061
       -0.0002807852   0.0000594546   0.0000466255  -0.0001963101   0.0001735657
       -0.0003594482  -0.0000719022   0.0001174479  -0.0011946746  -0.0034635581
       -0.0205094138  -0.0089871280  -0.0113241542  -0.0063602570  -0.0259559331
       -0.0187153260  -0.0128368435  -0.0165973958  -0.0146611669   0.0007876893
        0.0013705980   0.0119485168   0.0000148885  -0.0000411417  -0.0000870194
        0.0000044168   0.0000275909   0.0000374129  -0.0000474551   0.0001021955
       -0.0001506164   0.0005011123   0.0000320651  -0.0008072518   0.0000191211
        0.0000135535  -0.0000033837   0.0000008144  -0.0000114609  -0.0000144872
        0.0000130931   0.0000167031   0.0000466817   0.0000263124   0.0000073684
        0.0000120676  -0.0000152949  -0.0000238483  -0.0000187150   0.0000030043
        0.0000036796  -0.0000004145  -0.0000077648  -0.0000142576  -0.0000026142
       -0.0000063030  -0.0000000088   0.0000144906  -0.0000040457  -0.0000060837
       -0.0000131893  -0.0000074244   0.0000068679   0.0000040452   0.0000141265
       -0.0000092247   0.0000018427   0.0000076118  -0.0000044715  -0.0000188402
       -0.0000125988   0.0000034936   0.0000430825  -0.0000082232  -0.0000059034
       -0.0000109696   0.0000031670   0.0000028140   0.0000048405   0.0000103401
        0.0000102407   0.0000126305   0.0000530578  -0.0000500354   0.0000280055
        0.0000126571   0.0000214105  -0.0000946154  -0.0000411124   0.0000524003
        0.0000583998  -0.0000103737  -0.0000158968  -0.0000920508  -0.0000565117
        0.0000048142   0.0000108240   0.0000807011  -0.0000472480   0.0000000585
       -0.0000092643  -0.0000738980  -0.0000001162  -0.0000814092   0.0000229651
        0.0001012865  -0.0000886248  -0.0000675326  -0.0000286998   0.0001322558
       -0.0000277387   0.0002479032  -0.0000080837  -0.0000128038   0.0000447919
       -0.0000414635  -0.0000160780   0.0001331870   0.0001554688  -0.0000534611
        0.0000205421   0.0000578044   0.0001672580  -0.0001964259  -0.0002004469
       -0.0001882158  -0.0000048946   0.0001200615  -0.0001938889   0.0001493616
        0.0021976839  -0.0024883156  -0.0029873940
       -0.0205481439  -0.0104658450  -0.0134687193  -0.2120019752   0.0238172633
       -0.1000066904   0.4992807977  -0.0712499031   0.1811087037  -0.1311557027
        0.1131604054  -0.0253027744   0.0126130833   0.0102388866   0.0092719726
       -0.0063028233  -0.0102314677  -0.0044472920  -0.0326461549   0.0187464324
       -0.0114863885  -0.0025507765  -0.0002716766  -0.0031071039   0.0035565840
        0.0037965155   0.0025634991  -0.0218496335  -0.0272418241  -0.0106851088
       -0.0046447947   0.0028176661  -0.0038404085  -0.0009881512  -0.0005259765
       -0.0005636951  -0.0001591414   0.0000493771   0.0001389435   0.0001189478
        0.0000594293   0.0000336967  -0.0004368933  -0.0002983111  -0.0001150043
       -0.0000082047   0.0000592198   0.0000307669   0.0005529003  -0.0001440611
       -0.0000874913  -0.0007759563   0.0000815491   0.0000694003   0.0006376805
       -0.0001123328   0.0000718438  -0.0000223524  -0.0000898598  -0.0000148189
       -0.0000130222   0.0000057155   0.0000267104  -0.0000407023  -0.0000049316
        0.0000103976  -0.0000246053   0.0000075600   0.0000080861  -0.0000729851
        0.0001418056   0.0000181837   0.0002464517   0.0001032724   0.0000807790
       -0.0003908012  -0.0000632243  -0.0001983862   0.0004113654  -0.0000919961
        0.0002212473  -0.0000886230   0.0001146366  -0.0000471540   0.0002317159
       -0.0000272700   0.0000611974  -0.0001097386   0.0002975817  -0.0000060183
        0.0001133671  -0.0001802513   0.0000162407  -0.0002122902   0.0000519650
       -0.0000593769   0.0000249801   0.0000750417  -0.0000477802  -0.0000512865
       -0.0000339009  -0.0001576035  -0.0000458579   0.0001134480   0.0000257762
        0.0013552663  -0.0024157491   0.0009703609   0.0001691535   0.0005958212
        0.0003490484  -0.0022675789   0.0062956707  -0.0010041715   0.0216476832
       -0.0014314720   0.0068618644  -0.0086731000  -0.0009202949  -0.0058215543
       -0.0006512492   0.0003594352   0.0006867751   0.0002129732   0.0004137219
        0.0002493110  -0.0002137150   0.0002007228  -0.0001482954   0.0000337331
       -0.0002195289   0.0006729759   0.0003941470   0.0028911887   0.0015521335
       -0.0941707026  -0.0578813003  -0.0291537141   0.0020508744   0.0006143088
        0.0033393385  -0.0012773610  -0.0018932954  -0.0011307235   0.0016517113
        0.0007252417  -0.0006809125  -0.0001554736   0.0000716543   0.0000515178
        0.0001378433  -0.0004021493   0.0000439652  -0.0004281742   0.0009971432
       -0.0001983988   0.0003072450   0.0000301175  -0.0001578856  -0.0000320288
        0.0000105383   0.0000009702  -0.0000023486   0.0000287062   0.0000306689
       -0.0000180729   0.0000279831  -0.0000544135  -0.0000493145   0.0000006674
       -0.0000200821   0.0000337900   0.0000400991   0.0000395476  -0.0000060618
       -0.0000056405  -0.0000036883   0.0000191761   0.0000307476   0.0000061900
        0.0000120388   0.0000006753  -0.0000256278   0.0000143375   0.0000128045
        0.0000257004   0.0000142679  -0.0000123908  -0.0000067625  -0.0000188979
        0.0000134582   0.0000053111  -0.0000108852   0.0000010888   0.0000308981
        0.0000216066  -0.0000056674  -0.0000713988   0.0000270079   0.0000117445
        0.0000253744  -0.0000096587  -0.0000106106   0.0000008318  -0.0000155071
       -0.0000196955  -0.0000209564  -0.0000495455   0.0000263932  -0.0000262011
       -0.0000248947  -0.0000503085   0.0000892677   0.0000624953  -0.0000925457
       -0.0000994610  -0.0000126704   0.0000181794   0.0001122960   0.0000081745
       -0.0000019370  -0.0000410719  -0.0001284509   0.0002345548   0.0000278091
        0.0000680554   0.0000835499   0.0000229340   0.0000248374   0.0002382027
        0.0000731492   0.0002610355  -0.0005209883   0.0003074385  -0.0001407035
        0.0001777804  -0.0005190265   0.0000009803  -0.0002838476   0.0000053068
        0.0002015481  -0.0003423842  -0.0001902856  -0.0001831314  -0.0001275521
        0.0000520565  -0.0015489766   0.0000460897  -0.0012866559  -0.0001725192
       -0.0000288672   0.0000421243  -0.0004642999  -0.0009143865   0.0003919757
       -0.0006519172   0.0006773839   0.0044785153
       -0.0251546783   0.0067429923  -0.0100204882   0.0498718664  -0.0840061153
        0.0066636411  -0.0712499031   0.6019359954   0.0561392690   0.0742346499
       -0.2327757401   0.0112236212   0.0027146038  -0.0563228055  -0.0084759241
        0.0012117129   0.0105241911   0.0021134072   0.0587504802   0.0260429074
        0.0286852388  -0.0017202788   0.0008769750  -0.0016240424  -0.0002219141
       -0.0472938530  -0.0043806975  -0.0499705366   0.0239085311  -0.0226466276
        0.0018340156  -0.0055869733  -0.0003711232   0.0009266042  -0.0000802425