$hessian                                                                        
        0.4118531171   0.0253484478   0.0020278444  -0.1913842065   0.0385205466
        0.0031281327  -0.0363471895  -0.0135205816  -0.0005585885  -0.0010393373
       -0.0029733549  -0.0002050812  -0.0019819517   0.0002356112   0.0000878330
        0.0002773886   0.0005024065  -0.0000023690  -0.0011744660  -0.0007919056
       -0.0000391384   0.0020138736   0.0030555396   0.0001692745   0.0000487417
        0.0004676623   0.0000398159   0.0001867928  -0.0000469255  -0.0000084822
        0.0001948954  -0.0001799285  -0.0000096573  -0.0001063941   0.0001923948
        0.0000225767  -0.0000062415  -0.0000832707  -0.0000084683  -0.0002352851
       -0.0000891677  -0.0000122217  -0.0000475496  -0.0001818727   0.0000054318
       -0.0001856506   0.0001864905   0.0000948589  -0.0005190975  -0.0003887545
       -0.0000815828   0.0005057471  -0.0000141606   0.0000389832  -0.0002346946
        0.0003345686  -0.0001440145   0.0001719645   0.0001586377  -0.0000780450
       -0.0002345080  -0.0000034800  -0.0000101416   0.0000277735   0.0000197914
        0.0000083746  -0.0000322539   0.0001933250  -0.0000136049   0.0000103352
       -0.0002559283   0.0000163966  -0.0000315805   0.0001582141  -0.0000136095
       -0.0003438468  -0.0001644060   0.0000307631   0.0000339153   0.0000031141
       -0.0000140639   0.0007773943  -0.0000478342   0.0000178608  -0.0003059422
        0.0001943655  -0.0000582052   0.0000353530  -0.0000117726   0.0000152859
       -0.0000626053  -0.0002549668   0.0000196198   0.0000468683   0.0003530424
       -0.0000224729  -0.0000651064  -0.0002471026   0.0000188661   0.0001425774
       -0.0001839957   0.0000721163  -0.0002458766  -0.0002581373   0.0000926930
       -0.0501148716   0.0265718423  -0.0419647565  -0.0817396885  -0.0963795039
       -0.0051519017  -0.0491221955   0.0207637310   0.0425581363   0.0000505415
       -0.0004391089  -0.0000647957  -0.0002815450  -0.0004017235  -0.0000391186
       -0.0004723596  -0.0003474519  -0.0000178893  -0.0000133953   0.0000748529
        0.0000062100   0.0000054913   0.0000213903  -0.0000296613   0.0000054251
        0.0000051333   0.0000023800   0.0000049579   0.0000148017   0.0000361880
        0.0000099590  -0.0000013574  -0.0000021634   0.0000115717  -0.0000174679
       -0.0000016263  -0.0000257657  -0.0000362996   0.0000320055   0.0000018043
       -0.0000330151  -0.0000276375  -0.0000078485  -0.0000034829   0.0000114645
       -0.0000078806  -0.0000037690  -0.0000145063  -0.0000035353  -0.0000299533
       -0.0000076552  -0.0000162061  -0.0000130078  -0.0000135010  -0.0000138795
       -0.0000110653   0.0000142149  -0.0000055986   0.0000161093   0.0000063705
        0.0000013557   0.0000142398   0.0000336992  -0.0000092907   0.0000084939
        0.0000075633
        0.0253484478   0.5233696616   0.0017194724   0.0534707727  -0.0867177074
       -0.0026601285  -0.0288195851   0.0081482700   0.0009946921  -0.0006455965
       -0.0030412361  -0.0003961641  -0.0016809241  -0.0009504418  -0.0000839786
        0.0006315344   0.0009689399   0.0000221325  -0.0007057682   0.0013108827
        0.0000215696  -0.0020338530  -0.0003280475   0.0001736765   0.0003613952
       -0.0002065821  -0.0000372521  -0.0000319828   0.0004045921   0.0000245872
        0.0002913032  -0.0002733265   0.0000088854  -0.0002324789   0.0002228667
        0.0000036854   0.0000833645   0.0000554800   0.0000056068  -0.0003744999
        0.0000620825   0.0000016273   0.0000539529  -0.0004592000  -0.0000311151
       -0.0003922129   0.0005743297   0.0000571297  -0.0004877123  -0.0010903547
       -0.0000515258   0.0003201254  -0.0000099552  -0.0000065029  -0.0001698110
        0.0000936034  -0.0000481331   0.0001971605   0.0001168070  -0.0000777301
       -0.0004010389   0.0000024411   0.0000039659   0.0003200885  -0.0000024346
       -0.0000001156  -0.0000874311  -0.0001157735   0.0000573387  -0.0000759653
        0.0001141835  -0.0000209375   0.0000377344  -0.0000513009   0.0000101686
        0.0000874750  -0.0000889909   0.0000218993  -0.0000038386  -0.0000130489
        0.0000014363   0.0000344655   0.0000214519  -0.0000062536   0.0000722715
        0.0000762756  -0.0000140030  -0.0000067157   0.0000113949  -0.0000020688
       -0.0000717037   0.0001384156  -0.0000572939  -0.0000924333  -0.0001629798
        0.0000279085   0.0000474661   0.0000949223  -0.0000149907   0.0002087155
       -0.0001271922   0.0000859366  -0.0001889153  -0.0001148655   0.0000470729
        0.0260160980  -0.1106052544   0.0986916985  -0.0895030837  -0.2406329426
       -0.0102724500   0.0203631959  -0.0898788984  -0.0881681985   0.0000006541
        0.0001271270  -0.0000108387  -0.0002248283  -0.0001327461   0.0000429871
       -0.0016570103  -0.0008979370  -0.0000494098  -0.0000323353  -0.0000104927
       -0.0000108563  -0.0000146927  -0.0000239068  -0.0000067501   0.0000020944
       -0.0000025325  -0.0000003977  -0.0000147734  -0.0000232921   0.0000025875
       -0.0000196235   0.0000077552  -0.0000046193   0.0000051042  -0.0000000857
       -0.0000039788   0.0000106124  -0.0000021846  -0.0000129788   0.0000074897
        0.0000026669  -0.0000065550  -0.0000039276   0.0000030430   0.0000011466
       -0.0000020706   0.0000029598  -0.0000009027  -0.0000002213  -0.0000011625
        0.0000054828  -0.0000000140   0.0000038001  -0.0000007468  -0.0000006049
        0.0000031863   0.0000020843  -0.0000019592   0.0000040781  -0.0000035748
        0.0000031158   0.0000092813   0.0000068278   0.0000029739   0.0000143759
        0.0000188443
        0.0020278444   0.0017194724   0.4898674204   0.0039893277  -0.0025626760
       -0.0463385309  -0.0014190959   0.0007874292  -0.0045764605   0.0000770362
       -0.0002725971   0.0027422359  -0.0000862325  -0.0001540889   0.0014477585
        0.0000298863   0.0000935376   0.0000523076  -0.0000652317  -0.0000543000
        0.0007930826  -0.0001731254   0.0001886690  -0.0025510775  -0.0000173469
        0.0000077741   0.0002365157   0.0000163880  -0.0000201325  -0.0001480034
       -0.0000122164   0.0000451317  -0.0000618868   0.0000214580  -0.0000369210
        0.0000462550   0.0000084067   0.0000057715  -0.0000149623   0.0000007963
       -0.0000069059  -0.0000054281  -0.0000008081   0.0000029778   0.0000601679
        0.0000134405   0.0000039849  -0.0000683820  -0.0000585884  -0.0000744187
       -0.0003598640  -0.0000472216  -0.0000278773   0.0000962577   0.0000232573
       -0.0000434643  -0.0000064508   0.0000599784  -0.0000035566  -0.0000678286
       -0.0000290374  -0.0000538870   0.0000564191   0.0000067430   0.0000172284
        0.0000200943   0.0000122973   0.0000153226   0.0000170698  -0.0000167164
        0.0000087728  -0.0000092034   0.0000032962  -0.0000067991  -0.0000020319
       -0.0001131365   0.0000596646  -0.0000252645   0.0000009434  -0.0000123236
       -0.0000102640   0.0002491159   0.0000035588   0.0000049377  -0.0001177990
       -0.0000570722   0.0000082687   0.0000020946   0.0000090738   0.0000013101
        0.0000057980  -0.0000098588  -0.0000171945  -0.0000327626  -0.0000275789
        0.0000398066   0.0000159904   0.0000153590  -0.0000212809  -0.0000386183
       -0.0000154427  -0.0000203979  -0.0000022616   0.0000590659   0.0000439812
       -0.0405657944   0.0993046006  -0.1869469586  -0.0047832488  -0.0102437809
       -0.0446364270   0.0410651901  -0.0887680656  -0.2091209549  -0.0000019350
        0.0000233192  -0.0000183352   0.0000467587   0.0000705512  -0.0005473494
       -0.0000680187  -0.0000115071   0.0000003643   0.0000015014  -0.0000041520
        0.0000605415   0.0000048430   0.0000023813   0.0000011899  -0.0000013710
        0.0000003329   0.0000003099  -0.0000104635  -0.0000064378  -0.0000011096
       -0.0000005317   0.0000024124  -0.0000047806  -0.0000040342   0.0000073534
       -0.0000242015  -0.0000201954   0.0000153850   0.0000128185  -0.0000013227
        0.0000005390  -0.0000059709  -0.0000005986  -0.0000008711  -0.0000045209
        0.0000030829   0.0000009355   0.0000008031   0.0000015652   0.0000009129
       -0.0000027503   0.0000005988   0.0000012810   0.0000056278   0.0000015961
        0.0000016762  -0.0000000202   0.0000013510   0.0000012011   0.0000015391
       -0.0000068610  -0.0000111147  -0.0000115106   0.0000039877   0.0000101538
        0.0000123187
       -0.1913842065   0.0534707727   0.0039893277   0.4702271125   0.0550115878
       -0.0001374910  -0.1407473004  -0.0927152445  -0.0046006092  -0.0555688134
       -0.0325580545  -0.0013243262  -0.0025684252   0.0097122140   0.0008842580
       -0.0030998244  -0.0066528389  -0.0003224316   0.0019262057   0.0013033373
        0.0002272550   0.0041775614  -0.0128631221  -0.0007460712  -0.0016270848
       -0.0001856590  -0.0000291310  -0.0002116776  -0.0012010747  -0.0000162728
       -0.0028127159   0.0025844008   0.0000151595   0.0018679745  -0.0026910586
       -0.0001207186  -0.0001063497   0.0002331712  -0.0000211034   0.0027932348
       -0.0002937597   0.0000422974  -0.0002797806   0.0030104308   0.0000780778
        0.0017454651  -0.0034119947  -0.0004860046   0.0023364592   0.0056902089
        0.0006787573  -0.0020317179  -0.0000539241  -0.0001803356   0.0012971916
       -0.0014239749   0.0005561692  -0.0011692344  -0.0009825770   0.0006853957
        0.0019153332   0.0000635527   0.0000100622  -0.0010804498  -0.0000661782
       -0.0000530763   0.0006091905  -0.0006495218  -0.0001481393  -0.0002273406
        0.0017487821  -0.0001067009   0.0002515395  -0.0012413650   0.0000960155
        0.0016758381   0.0011510007  -0.0002542529  -0.0001900897  -0.0001172038
        0.0000649096  -0.0042236762   0.0000407955  -0.0000489846   0.0016676472
       -0.0011770410   0.0003372964  -0.0001868028   0.0001586908  -0.0000606589
        0.0006397296   0.0007447163   0.0001400460  -0.0002497758  -0.0018398007
        0.0000849268   0.0002901286   0.0013236315  -0.0000851706  -0.0011437707
        0.0011141302  -0.0006105797   0.0013777640   0.0012540474  -0.0005853442
       -0.0295201728   0.0135785785  -0.0090106459  -0.0273901007  -0.0022360657
        0.0000379216  -0.0287210735   0.0122494205   0.0109953078   0.0016713933
       -0.0005746457   0.0000054620  -0.0011502446  -0.0009791620  -0.0000441468
       -0.0010090528  -0.0002987174  -0.0000090624   0.0000920242  -0.0001527779
        0.0000058326   0.0000151857  -0.0000005406   0.0001373914  -0.0000112041
       -0.0000047283   0.0000012626   0.0000175853   0.0000025639  -0.0001309001
       -0.0000041074  -0.0000887820   0.0000448294  -0.0001190680   0.0000281641
        0.0000088306   0.0000985520   0.0001138626  -0.0000161269  -0.0001067948
        0.0001586461   0.0000805821   0.0000576529  -0.0000200304  -0.0000480421
        0.0000393677  -0.0000158825   0.0000721305   0.0000308762   0.0001155271
       -0.0000691861   0.0000629350   0.0000329237   0.0000569487   0.0000414374
        0.0000249980  -0.0000688129   0.0000447623  -0.0000957935   0.0000745588
       -0.0000851706  -0.0001613985  -0.0000722585   0.0000558779  -0.0001672380
       -0.0000044279
        0.0385205466  -0.0867177074  -0.0025626760   0.0550115878   0.3395530262
        0.0156445708  -0.0677873108  -0.1992449438  -0.0092993880  -0.0197849765
        0.0058941207   0.0004940361   0.0052051294   0.0076361961   0.0001790334
       -0.0062498619  -0.0078480779  -0.0002721743   0.0086305141  -0.0074056995
       -0.0006116870  -0.0297664494  -0.0554489110  -0.0036360681  -0.0038027045
       -0.0007388382  -0.0000182134  -0.0001614634  -0.0026327176  -0.0000642628
       -0.0034943952   0.0043273130   0.0000649600   0.0026822940  -0.0039000865
       -0.0001529347  -0.0001918254   0.0002229722  -0.0000363857   0.0034844539
       -0.0003933378   0.0000576239  -0.0005475675   0.0040996565   0.0001568986
        0.0025118324  -0.0053008984  -0.0007216271   0.0038363432   0.0083533334
        0.0009238829  -0.0033756896  -0.0000445970  -0.0001487768   0.0019042860
       -0.0019337967   0.0008530392  -0.0018343773  -0.0014575876   0.0010509317
        0.0030308135   0.0000791185  -0.0000067765  -0.0020072891  -0.0000860641
       -0.0000805357   0.0010233817  -0.0005024450  -0.0003280631  -0.0002771112
        0.0022003846  -0.0001110348   0.0002970023  -0.0015843612   0.0001131088
        0.0019811142   0.0016595802  -0.0003776984  -0.0002464598  -0.0001684666
        0.0000798923  -0.0052478491   0.0000272960  -0.0000639826   0.0020041279
       -0.0016929121   0.0004642506  -0.0002406339   0.0002258610  -0.0000831598
        0.0010305918   0.0006128721   0.0003146266  -0.0003348439  -0.0022993654
        0.0000738020   0.0003834938   0.0016489195  -0.0000955371  -0.0018281111
        0.0016704866  -0.0009822968   0.0020196964   0.0018043299  -0.0008186803
        0.0230571826  -0.0044493062   0.0005859751  -0.0289427109   0.0053005304
        0.0004059871   0.0199766219  -0.0037329121  -0.0016810356  -0.0003712182
        0.0006190558   0.0004045486   0.0004733619   0.0001142516  -0.0000538544
       -0.0007650847   0.0018411772   0.0002632127   0.0001144267  -0.0001350044
        0.0000356114   0.0000330109   0.0000537184   0.0001591645  -0.0000231203
       -0.0000042337   0.0000168620   0.0000363407   0.0000456968  -0.0001207744
        0.0000104093  -0.0001196956   0.0000571152  -0.0001639546  -0.0000053024
        0.0000202224   0.0000937048   0.0001554193  -0.0000575469  -0.0001794851
        0.0002007492   0.0000975152   0.0000761284  -0.0000378406  -0.0000604706
        0.0000494957  -0.0000319502   0.0000933906   0.0000384819   0.0001345617
       -0.0001120278   0.0000675746   0.0000356754   0.0000728755   0.0000370818
        0.0000177019  -0.0001065746   0.0000546380  -0.0001329810   0.0001092318
       -0.0001281513  -0.0002284423  -0.0000880859   0.0000769765  -0.0002555217
       -0.0000400400
        0.0031281327  -0.0026601285  -0.0463385309  -0.0001374910   0.0156445708
        0.0623817941  -0.0030637744  -0.0087249059  -0.0357313424  -0.0002493042
        0.0005072211   0.0030178426   0.0004224362   0.0000726965   0.0035015767
       -0.0002249013  -0.0004299053   0.0001276421   0.0004279933  -0.0006188933
        0.0056662342  -0.0017570079  -0.0036786734   0.0071179998  -0.0001376541
       -0.0000805362  -0.0001997569  -0.0000726860  -0.0000938977   0.0001732325
       -0.0001179711   0.0001859762   0.0002192698   0.0001159780  -0.0001463741
       -0.0001396896  -0.0000227148   0.0000032971   0.0000463144   0.0001058401
        0.0000228365  -0.0000505864  -0.0000473762   0.0000752947  -0.0002016411
        0.0000656942  -0.0001884551  -0.0001702370   0.0002336346   0.0004412153
       -0.0005042054  -0.0001764404  -0.0000043240  -0.0001601043   0.0001079633
       -0.0000834245   0.0000187979  -0.0001143236  -0.0000513773   0.0000322422
        0.0001305817   0.0000178437  -0.0000171397  -0.0000603889  -0.0000013233
       -0.0000052740   0.0000211441  -0.0000553760   0.0000109478  -0.0000015074
        0.0000910236  -0.0000238812   0.0000128395  -0.0000718262   0.0000204388
        0.0001387812   0.0000638969  -0.0000194207  -0.0000147544  -0.0000084948
       -0.0000000350  -0.0003630843  -0.0000122713  -0.0000014759   0.0001503432
       -0.0000521090   0.0000168701  -0.0000118513   0.0000094881   0.0000013730
        0.0000168545   0.0000469137  -0.0000063064   0.0000071025  -0.0000752338
        0.0000072234   0.0000065668   0.0000632857   0.0000047032  -0.0000574216
        0.0000709931  -0.0000095570   0.0001265250   0.0001033255   0.0000032332
       -0.0253680997   0.0045845060   0.0025948529  -0.0014371372   0.0002602952
        0.0008459360   0.0283687664  -0.0055509506   0.0015537655  -0.0001463044
        0.0002407180  -0.0024009158  -0.0000101660  -0.0000335187   0.0002784966
       -0.0000373016   0.0001600550  -0.0016224620   0.0000084600   0.0000050451
       -0.0001521269   0.0000060708   0.0000004905   0.0000087905  -0.0000006020
       -0.0000030706  -0.0000033127  -0.0000082661   0.0000030908  -0.0000026177
       -0.0000024556  -0.0000102866   0.0000190685   0.0000165091  -0.0000372250
        0.0001032102   0.0000088186   0.0000035510  -0.0000079757  -0.0000035972
        0.0000134793   0.0000155932   0.0000028591   0.0000012843  -0.0000027682
        0.0000051624  -0.0000003549   0.0000054766   0.0000029797   0.0000073727
       -0.0000075023   0.0000040609   0.0000026334   0.0000023872   0.0000039572
       -0.0000006950  -0.0000034278   0.0000028076  -0.0000066216   0.0000043994
       -0.0000062818  -0.0000098295  -0.0000083902   0.0000020017  -0.0000123176
       -0.0000090293
       -0.0363471895  -0.0288195851  -0.0014190959  -0.1407473004  -0.0677873108
       -0.0030637744   0.5909509488  -0.0176644327  -0.0074170768  -0.2347609928
        0.0935092253   0.0104559079  -0.0582562534  -0.0601367992  -0.0030146481
       -0.0076269737   0.0373490294   0.0029085315   0.0290344928  -0.0036730287
       -0.0004465573  -0.1095910608   0.0326171451   0.0015171874   0.0026899102
       -0.0065871810  -0.0003007257  -0.0015564997   0.0016602543   0.0000815599
        0.0072425518  -0.0009235709   0.0003393605  -0.0028116648   0.0035056910
        0.0001241220   0.0001947655  -0.0002922343   0.0000122615  -0.0079240884
        0.0019877343   0.0000538499   0.0010008830  -0.0082380772  -0.0002807096
       -0.0055588529   0.0101041100   0.0001986600  -0.0030303665  -0.0165583793
       -0.0015462905  -0.0000130652   0.0003930307   0.0004981673  -0.0011615824
        0.0009822715  -0.0007697882   0.0015856017   0.0013930372  -0.0009836658
       -0.0034787874  -0.0000224700  -0.0000531530   0.0031371680   0.0000379545
        0.0000141831  -0.0014778598  -0.0007962028   0.0005833084  -0.0003400337
       -0.0005226863  -0.0000635067   0.0000825864   0.0004198160   0.0000139554
       -0.0004924670  -0.0014659243   0.0003175922   0.0001351850   0.0000309460
       -0.0000636490   0.0028261715  -0.0000402620   0.0000269093  -0.0004832825
        0.0015049286  -0.0003481010   0.0001367024  -0.0000644710   0.0000634045
       -0.0014901072   0.0007154780  -0.0005619471  -0.0002903635   0.0006270355
        0.0000654427   0.0000289035  -0.0005024340  -0.0000151290   0.0015328464
       -0.0015458760   0.0010171400  -0.0011780795  -0.0007758153   0.0005864780
        0.0018150465  -0.0008132321   0.0014898282  -0.0072304352   0.0006574606
        0.0001015141   0.0017669719  -0.0006428531  -0.0016014208  -0.0070555757
        0.0049619479  -0.0002260140  -0.0015955483  -0.0026670074   0.0000372131
       -0.0091432598   0.0282048709   0.0017744713  -0.0002043715  -0.0000706279
       -0.0000408118  -0.0000764068  -0.0000236301  -0.0001451272   0.0000258328
       -0.0000085596  -0.0000004525  -0.0000805463  -0.0000386615   0.0001377928
       -0.0000744784   0.0000478605  -0.0001467606   0.0001117054   0.0000025961
       -0.0000228770  -0.0001584023  -0.0002146905   0.0000493006   0.0001253150
       -0.0001137458   0.0000287351  -0.0000531864   0.0000124931   0.0000343885
       -0.0000370675   0.0000180122  -0.0000504898  -0.0000272745  -0.0000973112
        0.0000588303  -0.0000511387  -0.0000129188  -0.0000443075  -0.0000318853
       -0.0000115194   0.0000551270  -0.0000363532   0.0000961447  -0.0000599635
        0.0000993726   0.0001144109  -0.0000226805  -0.0000501604   0.0001780141
        0.0000635005
       -0.0135205816   0.0081482700   0.0007874292  -0.0927152445  -0.1992449438
       -0.0087249059  -0.0176644327   0.6185439338   0.0296558911   0.0325942083
       -0.1058004051  -0.0050170666  -0.0042223757   0.0344062141   0.0027009478
        0.0256765981  -0.0131032067  -0.0013604195  -0.0533434160  -0.0605032743
       -0.0031018738   0.0946474680  -0.2613076042  -0.0118863497  -0.0027203575
        0.0077437337  -0.0001294839   0.0021070510   0.0025598383   0.0000148294
        0.0009001647  -0.0070926576  -0.0003812385  -0.0025731057   0.0043256423
        0.0001938528   0.0001786463  -0.0002733813   0.0000449519  -0.0003404531
       -0.0011398999  -0.0001676360  -0.0004018441  -0.0009557895  -0.0000341492
       -0.0031902287   0.0002743201   0.0012384478  -0.0052505965  -0.0064786985
       -0.0005080410   0.0069910939  -0.0000314757  -0.0000576044  -0.0023687013
        0.0026992170  -0.0008862967   0.0017262803   0.0013455814  -0.0010830710
       -0.0018301187  -0.0001422424   0.0000705300   0.0001942357   0.0001551293
        0.0001415948  -0.0003861036   0.0019974257  -0.0000276698   0.0010834562
       -0.0042054150   0.0003158544  -0.0007783922   0.0029578118  -0.0002602935
       -0.0037459405  -0.0017725371   0.0003887788   0.0003817091   0.0003567018
       -0.0001014782   0.0077467798  -0.0000289234   0.0001042239  -0.0037583520
        0.0018169820  -0.0005514352   0.0003681742  -0.0004240829   0.0001036473
       -0.0004045985  -0.0021350610   0.0000376396   0.0011375628   0.0043027797
       -0.0002458447  -0.0008731081  -0.0030239578   0.0002302901   0.0016628385
       -0.0016193905   0.0008728840  -0.0025106028  -0.0026224522   0.0009131141
        0.0018337285   0.0002549505   0.0015472253  -0.0001207837  -0.0000481425
        0.0000200223   0.0016350574   0.0004146172  -0.0015367554   0.0290917639
       -0.0116621120  -0.0014370432  -0.0032359693  -0.0017684454  -0.0007655420
        0.0058482832  -0.0071669853  -0.0010311218   0.0000196498   0.0002160978
       -0.0000256329   0.0000052987  -0.0000756195  -0.0001977169   0.0000286715
        0.0000136914  -0.0000344352   0.0000041473  -0.0000508362   0.0001322867
        0.0000867241   0.0001997454   0.0000071016   0.0001619036  -0.0002252292
       -0.0000749238  -0.0001250634  -0.0002588089   0.0002265977   0.0002290658
       -0.0003224244  -0.0002008448  -0.0000895995   0.0000741624   0.0000969463
       -0.0000542151   0.0000465878  -0.0001560216  -0.0000349133  -0.0001696706
        0.0001559360  -0.0000819568  -0.0000718599  -0.0001105975  -0.0000432344
       -0.0000328043   0.0001675017  -0.0000560881   0.0001639068  -0.0001538930
        0.0001648169   0.0003517882   0.0001739543  -0.0000650003   0.0003892088
       -0.0000930934
       -0.0005585885   0.0009946921  -0.0045764605  -0.0046006092  -0.0092993880
       -0.0357313424  -0.0074170768   0.0296558911   0.1309371673   0.0048382197
       -0.0057932584  -0.0519489496   0.0008565136   0.0038881710  -0.0016109175
        0.0009830847  -0.0014332340  -0.0066712381  -0.0029071541  -0.0034691345
       -0.0013420306   0.0054844829  -0.0123049554  -0.0497928805  -0.0005702547
        0.0000288113   0.0072310925   0.0001598713   0.0001888218  -0.0002146584
       -0.0003475928  -0.0003814919  -0.0009007109  -0.0000124426   0.0000626264
        0.0002191173   0.0000087140   0.0000091533  -0.0000623183   0.0004169639
       -0.0001179313   0.0000998819  -0.0000396131   0.0003922132  -0.0000302037
        0.0003481157  -0.0005032463   0.0000686717  -0.0002692255   0.0004608347
        0.0001835890   0.0006204461   0.0001680122   0.0001174321  -0.0001750137
        0.0001403110   0.0000877594   0.0001490326   0.0000954805  -0.0001239566
       -0.0001729023  -0.0000386933   0.0000344936   0.0000664095   0.0000103337
        0.0000188153  -0.0000129603   0.0000969475   0.0000080307   0.0000499027
       -0.0001801922   0.0000115723  -0.0000366206   0.0001313530  -0.0000126143
       -0.0001288220  -0.0000880164   0.0000235216   0.0000123215   0.0000094547
       -0.0000066313   0.0002957997   0.0000080570  -0.0000078561  -0.0001368839
        0.0000818384  -0.0000182250   0.0000115959  -0.0000114316   0.0000020935
       -0.0000130844  -0.0000835113  -0.0000175120   0.0000343493   0.0001510244
        0.0000164979  -0.0000247714  -0.0001125879  -0.0000267923   0.0001560689
       -0.0000978941   0.0000057790  -0.0002578863  -0.0002290890   0.0000770191
       -0.0013246078  -0.0006005366   0.0007063426   0.0000700400  -0.0000391922
        0.0006691967   0.0014496237   0.0005732308   0.0005815233   0.0025310745
       -0.0011267390   0.0017527515   0.0000634005  -0.0009474744   0.0089678051
        0.0003521997  -0.0004052203   0.0009753520   0.0000156374  -0.0000230869
        0.0004090414  -0.0000058355  -0.0000096402  -0.0000002258  -0.0000012864
        0.0000041597   0.0000070528   0.0000144715  -0.0000026495   0.0000027006
        0.0000104575   0.0000075338   0.0000521506  -0.0000340702   0.0000288350
       -0.0001400164   0.0000639966   0.0000425936  -0.0000297414  -0.0000013887
       -0.0000106654  -0.0000161227  -0.0000048388   0.0000023710   0.0000064041
       -0.0000009961   0.0000064619  -0.0000040096  -0.0000028989  -0.0000056952
        0.0000078780  -0.0000037273  -0.0000039433  -0.0000066980  -0.0000017254
       -0.0000020859   0.0000019296  -0.0000033520   0.0000070824  -0.0000090057
        0.0000030865   0.0000272657   0.0000158191   0.0000003497   0.0000474229
        0.0000026359
       -0.0010393373  -0.0006455965   0.0000770362  -0.0555688134  -0.0197849765
       -0.0002493042  -0.2347609928   0.0325942083   0.0048382197   0.6165210041
        0.0403206720  -0.0072174428  -0.2359127334  -0.0898321613  -0.0026100156
        0.0169351475  -0.0683747514  -0.0051297112  -0.0304831253  -0.0133009978
       -0.0004288889  -0.0054403408   0.0645862676   0.0046180379  -0.0080541946
        0.0004330401  -0.0000158495   0.0013191518  -0.0015644538  -0.0001294680
       -0.0079267717   0.0003512447  -0.0004088855   0.0027886612  -0.0034895300
       -0.0001102769  -0.0002347262   0.0003749587  -0.0000000278   0.0087783571
       -0.0009627616   0.0000237296  -0.0011603956   0.0079790089   0.0001573068
        0.0094094966  -0.0108406230  -0.0001927446   0.0051885518   0.0255600100
        0.0024918155   0.0003355182  -0.0003845080  -0.0007760312  -0.0000714326
       -0.0002141860   0.0000005317  -0.0001386865  -0.0004934489   0.0004358394
        0.0008662918   0.0000635183   0.0000251954  -0.0007099491  -0.0000299194
       -0.0000105582   0.0005182656   0.0002910824  -0.0002096806   0.0000712830
        0.0004782929   0.0000322449  -0.0000298272  -0.0003789304  -0.0000144144
        0.0004466987   0.0007148166  -0.0001278318  -0.0001008788  -0.0000758349
        0.0000216762  -0.0014208576  -0.0000063013  -0.0000130922   0.0004796341
       -0.0007341524   0.0001445744  -0.0001002396   0.0001026960  -0.0000229203
        0.0005109940  -0.0002530667   0.0001889019   0.0000632269  -0.0004968130
       -0.0000485423  -0.0000039495   0.0003745546   0.0000191012  -0.0001460311
        0.0006133018  -0.0005258105   0.0001844422   0.0000742152  -0.0000481427
       -0.0011342226  -0.0000267554  -0.0006128131  -0.0006427764   0.0006495009
        0.0000426270  -0.0011554816  -0.0001073696   0.0006210372  -0.0550799665
        0.0545546904   0.0059289332  -0.0236907952  -0.0183044740  -0.0008811237
        0.0003755023   0.0007291579   0.0000115092   0.0003722594  -0.0001981215
       -0.0000122623   0.0001172396  -0.0000033076   0.0001816785  -0.0000134391
        0.0000502555   0.0000061269   0.0001239146   0.0000165386  -0.0001756965
        0.0001221921  -0.0000295826   0.0001928531  -0.0000947449  -0.0000181957
        0.0000323040  -0.0002722175  -0.0001163452  -0.0000558415  -0.0000858260
        0.0000140405  -0.0000132672   0.0000251891  -0.0000229924  -0.0000281114
        0.0000188278  -0.0000175960   0.0000338869  -0.0000122859   0.0000362980
       -0.0000289306   0.0000184171   0.0000120301   0.0000306036   0.0000126466
        0.0000027607  -0.0000406212  -0.0000038802  -0.0000412208   0.0000235088
       -0.0000565713  -0.0000701937   0.0000131572  -0.0000574230  -0.0001579935
       -0.0000541297
       -0.0029733549  -0.0030412361  -0.0002725971  -0.0325580545   0.0058941207
        0.0005072211   0.0935092253  -0.1058004051  -0.0057932584   0.0403206720
        0.6794535598   0.0435948352  -0.1677986647  -0.2090057110  -0.0096518945
       -0.0111235657  -0.0611549778  -0.0042043846  -0.0101315048   0.0068105029
        0.0005060635   0.0279913676  -0.0106871813  -0.0007481462  -0.0020446696
       -0.0062539984  -0.0004754224  -0.0013649509   0.0022513730   0.0000525597
       -0.0019772352  -0.0011373773  -0.0001158116   0.0002892860  -0.0003888386
        0.0000222561   0.0000897329   0.0000613089  -0.0000067920   0.0009512931
        0.0010908521   0.0001175811   0.0007508944  -0.0011762748  -0.0001388588
        0.0029157127  -0.0010131025  -0.0000630474   0.0050406153  -0.0011889965
       -0.0004790477   0.0001869241  -0.0000696601  -0.0000025661  -0.0012925510
        0.0007219127  -0.0004503571   0.0021087048   0.0016354590  -0.0010149669
       -0.0049283365  -0.0000400459  -0.0000406937   0.0051180931   0.0000181310
       -0.0000006670  -0.0019541376  -0.0021178171   0.0009011164  -0.0010088385
        0.0015278802  -0.0002347331   0.0004430901  -0.0010101900   0.0001241393
        0.0012481415  -0.0012580863   0.0002882088  -0.0000461583  -0.0001861730
       -0.0000429756   0.0002699188   0.0000363252   0.0000084801   0.0012196341
        0.0012354364  -0.0003163077  -0.0000479496   0.0001870480   0.0000370088
       -0.0019637261   0.0021564575  -0.0009074533  -0.0010878845  -0.0016204966
        0.0002541227   0.0005103754   0.0010574489  -0.0001360416   0.0021478738
       -0.0015520154   0.0009611254  -0.0014585563  -0.0006295963   0.0007302213
       -0.0001483820  -0.0000879675  -0.0000828950  -0.0011533145   0.0002074485
        0.0000023876  -0.0000737498  -0.0001033772   0.0000621650   0.0546480734
       -0.2945879275  -0.0222835613   0.0041227977   0.0050657856   0.0001799624
        0.0014966585  -0.0053700425  -0.0005889673   0.0000502349   0.0001087043
       -0.0000853105   0.0000231419  -0.0000070118   0.0000149677  -0.0000000022