$hessian                                                                        
        0.4696440715  -0.0114727516   0.0107156139  -0.1957131837  -0.0313309649
        0.0376753733  -0.0108071953  -0.0066403499   0.0084407263   0.0025717495
       -0.0001591095   0.0004616455  -0.0012785564   0.0001052896  -0.0001665122
       -0.0007332465   0.0015228746  -0.0021884111  -0.0017054078  -0.0001430493
       -0.0001264064  -0.0000115568  -0.0005622573   0.0002473487   0.0001101154
        0.0001006741   0.0000757293  -0.0000075189  -0.0001223886   0.0000124089
       -0.0000144784   0.0000032822  -0.0000498253   0.0000283794  -0.0000259660
        0.0000885693   0.0000139250   0.0000211571  -0.0000251019  -0.0000268478
        0.0001001422  -0.0000316304   0.0002625984   0.0004881734   0.0000281522
       -0.0000347770  -0.0001898521  -0.0000652017   0.0001060112   0.0002343976
        0.0000805246  -0.0001380523  -0.0000640771  -0.0000257446   0.0002278945
        0.0000310944   0.0000263598  -0.0003025930  -0.0001491864  -0.0001022544
       -0.0002599657   0.0000051869  -0.0000064679   0.0000110597  -0.0000501555
       -0.0000051343  -0.0000114713   0.0000084513  -0.0000061634  -0.0000023779
       -0.0000075924  -0.0000056320  -0.0000007677  -0.0000039712  -0.0000022982
       -0.0000024502  -0.0000107409   0.0000055805  -0.0000079703   0.0000085328
        0.0000150137   0.0001350715   0.0000611258   0.0000073048  -0.0000809877
       -0.0000111481   0.0000026455   0.0001027495  -0.0000335314  -0.0000061899
       -0.0001141460   0.0000030067   0.0000128277   0.0001073830   0.0000241244
       -0.0000040481  -0.0001076508  -0.0000235397  -0.0000003167   0.0001346814
        0.0000633318   0.0000243031  -0.0000487318  -0.0000440888  -0.0000216006
        0.0000436395   0.0000388173   0.0000188932   0.0000145051  -0.0000300406
       -0.0000093353  -0.0000070908   0.0000314310   0.0000078174  -0.0000035485
       -0.0000229211  -0.0000079405  -0.0000159083  -0.0000366454  -0.0000185036
        0.0000931017   0.0000869375   0.0000407849  -0.0000579463  -0.0002062636
       -0.0000746390  -0.0000122473   0.0000240026   0.0000158470   0.0000186260
       -0.0000119071  -0.0000092385  -0.0000179502   0.0000021241   0.0000282882
       -0.0000351329   0.0000121950   0.0000024941   0.0000005924   0.0000131148
       -0.0000091807   0.0000003255  -0.0000062473  -0.0000115181   0.0000106383
       -0.0000269221   0.0000057226   0.0000763923   0.0000458980  -0.0000047871
       -0.0000116991  -0.0000336847   0.0000018346  -0.0000053864   0.0000208763
       -0.0000000363  -0.0000164290  -0.0000132630  -0.0000008455   0.0000153779
        0.0000065210   0.0000021243  -0.0000008329  -0.0000082900   0.0000003677
       -0.0000010415   0.0000092208   0.0000001740   0.0000215635  -0.0000175984
        0.0000035606  -0.0000267813  -0.0000119460  -0.0000053641   0.0000191539
        0.0000070339   0.0000033090  -0.0000050628  -0.0000016098   0.0000000089
        0.0000018107   0.0000008870   0.0000002693  -0.0000009258  -0.0000002835
        0.0000021007   0.0000040782   0.0000014321  -0.0000030652  -0.0000041899
       -0.0000012584   0.0000022731  -0.0000048920  -0.0000019052  -0.0000019253
        0.0000184101   0.0000325454  -0.0000007168  -0.0000037697  -0.0000048357
       -0.0000031636   0.0000564672  -0.0000070153   0.0000056910  -0.0000445702
        0.0000249227  -0.0000011225  -0.0000023982  -0.0000178081   0.0000037944
       -0.0000019526   0.0000039103  -0.0000022839   0.0000008011  -0.0000021997
       -0.0000003280  -0.0000016622   0.0000002394  -0.0000002737   0.0000013206
       -0.0000023035   0.0000020794  -0.0000009675   0.0000003969  -0.0000014874
        0.0000001608   0.0000028363  -0.0000060671   0.0000248078   0.0000111060
       -0.0000072734  -0.0000031273  -0.0000041928   0.0000070476   0.0000035593
        0.0000005077  -0.0000018447  -0.0000031941   0.0000013777  -0.0000016059
        0.0000061607  -0.0000001675   0.0000010201  -0.0000040103   0.0000000213
       -0.0000011255  -0.0000083780   0.0000007299   0.0000016503  -0.0000553820
        0.0000054300   0.0000000464   0.0000706589   0.0000016728   0.0000054151
       -0.0000383797   0.0000036878   0.0000023578  -0.0001266641   0.0000335913
        0.0000053018   0.0000015843  -0.0000165821  -0.0000008414  -0.0000032383
        0.0000066763   0.0000020788  -0.0000020579  -0.0000027510   0.0000037149
       -0.0000016038  -0.0000036578  -0.0000002153  -0.0000015844  -0.0000010398
       -0.0000041743  -0.0000028132   0.0000062247  -0.0000017589  -0.0322300874
       -0.0031101936   0.0037791082  -0.0430347242   0.0033520672  -0.0040756174
       -0.1018737472   0.1026861513   0.0224773504  -0.0864112457  -0.0542343714
       -0.0775949115   0.0007372691   0.0004865922  -0.0008045726  -0.0002250614
       -0.0000199698   0.0000365646   0.0001004347  -0.0000555764   0.0000264706
       -0.0000803526  -0.0000556675  -0.0001172041  -0.0000030833   0.0000501301
        0.0000029358  -0.0000129665   0.0000548633  -0.0000245875  -0.0000229483
        0.0000129208  -0.0000130983   0.0000003230   0.0000011671  -0.0000296198
       -0.0000059396  -0.0000024231   0.0000014876  -0.0000099710   0.0000007040
        0.0000003311  -0.0000620968   0.0000946998   0.0000526266   0.0000084973
       -0.0000006350   0.0000006364   0.0000069197  -0.0000043848  -0.0000013241
        0.0000017879   0.0000032908   0.0000049903   0.0000008036   0.0000092571
        0.0000004082   0.0000019869   0.0000085751  -0.0000073322   0.0000047457
       -0.0000041653  -0.0000045578   0.0000033136   0.0000101847  -0.0000001986
       -0.0000010560  -0.0000104890  -0.0000032353  -0.0000157480  -0.0000009503
       -0.0000038331  -0.0000129622  -0.0000134467  -0.0000072219  -0.0000019445
       -0.0000083859   0.0000047092   0.0000045021   0.0000011358   0.0000026301
       -0.0000012138  -0.0000045520  -0.0000100351   0.0000038875  -0.0000019790
        0.0000042503  -0.0000051437   0.0000043877   0.0000026434   0.0000053338
       -0.0000032757  -0.0000197404   0.0000189322  -0.0000081678   0.0000030260
       -0.0000067004  -0.0000336828   0.0000016260  -0.0000134658   0.0000251557
        0.0000095517   0.0000117528   0.0000159607  -0.0000097134   0.0000069131
        0.0000105382  -0.0000129119  -0.0000000360   0.0000025591  -0.0000025373
        0.0000029003  -0.0000014547  -0.0000000650   0.0000003187  -0.0000008731
        0.0000019926   0.0000011426  -0.0000010361  -0.0000017247  -0.0000045115
       -0.0000001010  -0.0000008449  -0.0000062125  -0.0000031286  -0.0000012701
        0.0000013686   0.0000006870   0.0000009374  -0.0000015213  -0.0000003657
       -0.0000019222  -0.0000027414  -0.0000005469  -0.0000003405   0.0000001341
       -0.0000019309   0.0000004693  -0.0000014046   0.0000020285   0.0000002790
        0.0000010074   0.0000004759  -0.0000004517   0.0000016697   0.0000006428
       -0.0000005176  -0.0000063277  -0.0000019568  -0.0000011615  -0.0000004688
       -0.0000003813   0.0000019366  -0.0000007095   0.0000022233   0.0000013674
        0.0000006773   0.0000019281  -0.0000005723  -0.0000021822   0.0000000525
       -0.0000022635   0.0000017122  -0.0000008035   0.0000014810   0.0000010000
        0.0000007179   0.0000017327   0.0000011024   0.0000000783   0.0000021740
        0.0000007675   0.0000000741  -0.0000019326   0.0000004013  -0.0000005691
        0.0000013333  -0.0000022960  -0.0000005698   0.0000012290  -0.0000004287
       -0.0000010979  -0.0000008625  -0.0000009347   0.0000012101   0.0000013436
        0.0000008794   0.0000008113  -0.0000004401   0.0000008093   0.0000010139
       -0.0000009467   0.0000023341   0.0000031243   0.0000006006   0.0000023444
       -0.0000027771  -0.0000005064   0.0000016935   0.0000016115  -0.0000027478
        0.0000015658   0.0000030579   0.0000002441   0.0000014208   0.0000010619
        0.0000025558   0.0000021379  -0.0000027632   0.0000002053   0.0010987688
       -0.0009376207   0.0012630000
       -0.0114727516   0.5018259470  -0.0173957230  -0.0344388463  -0.0702753364
        0.0127419943  -0.0179396879  -0.0062437697   0.0082276568   0.0002613337
        0.0018533381   0.0054934123  -0.0001621968  -0.0000886593  -0.0000194494
        0.0008949081   0.0044975551   0.0046864198   0.0009346381   0.0000994111
        0.0000122606  -0.0000166065  -0.0000752449  -0.0000317967   0.0000222899
       -0.0000187110  -0.0000253834  -0.0000016238   0.0000287911  -0.0000369161
        0.0000114607   0.0000103507   0.0000227622  -0.0000212363  -0.0000479878
       -0.0000312721  -0.0000081925  -0.0000026469   0.0000066327  -0.0000153905
        0.0000359828  -0.0000278213   0.0000367621  -0.0002632964  -0.0000808455
        0.0000726001   0.0000465927  -0.0000142488  -0.0000262130  -0.0000926940
       -0.0000172289   0.0000106029   0.0000382897   0.0000065504  -0.0000117972
       -0.0000450569   0.0000050744   0.0000963735   0.0000526790   0.0000350972
        0.0000140583   0.0000189359  -0.0000029134  -0.0000017428  -0.0000107560
       -0.0000000009  -0.0000002107  -0.0000001923   0.0000037800  -0.0000001082
       -0.0000025696  -0.0000009331   0.0000001247  -0.0000020256   0.0000002402
        0.0000004858  -0.0000021536  -0.0000004521   0.0000002675   0.0000010487
       -0.0000011540  -0.0000088658  -0.0000113916  -0.0000029456   0.0000003853
        0.0000005808  -0.0000006340   0.0000081905  -0.0000099195   0.0000002137
       -0.0000033146   0.0000052864   0.0000002039   0.0000044935   0.0000013149
        0.0000006968  -0.0000070861   0.0000074025   0.0000017703  -0.0000037625
       -0.0000311405  -0.0000090220  -0.0000095836   0.0000192122   0.0000026430
       -0.0000067928  -0.0000061256  -0.0000027472  -0.0000071170   0.0000060115
        0.0000011155   0.0000148984   0.0000055390   0.0000045144   0.0000041017
        0.0000002823   0.0000003881   0.0000054348  -0.0000150154  -0.0000035275
        0.0000279944   0.0000372967   0.0000184533  -0.0000462123   0.0000636211
       -0.0000035049   0.0000617845  -0.0000176218   0.0000034617   0.0000020048
       -0.0000026923  -0.0000068005   0.0000192306  -0.0000086190   0.0000106747
        0.0000093081   0.0000127203  -0.0000002969   0.0000158817  -0.0000035547
        0.0000121037   0.0000227711   0.0000103217  -0.0000196967  -0.0000032009
       -0.0000084004   0.0000040394   0.0000047387  -0.0000023728   0.0000007520
       -0.0000016412   0.0000001658  -0.0000005362   0.0000024838   0.0000014705
        0.0000003215   0.0000004771  -0.0000018346  -0.0000002909   0.0000022693
       -0.0000007798   0.0000002671   0.0000002528  -0.0000006164  -0.0000008165
       -0.0000012046   0.0000024570  -0.0000006912   0.0000072597  -0.0000049618
        0.0000015968  -0.0000061087   0.0000075841  -0.0000016608   0.0000016614
        0.0000011425   0.0000003278   0.0000003715  -0.0000001735  -0.0000006982
        0.0000005941   0.0000004374  -0.0000003410  -0.0000006894   0.0000008886
        0.0000000678   0.0000006749   0.0000003735  -0.0000001056  -0.0000000613
       -0.0000007525  -0.0000002149   0.0000000116   0.0000000741  -0.0000005986
        0.0000028467  -0.0000037329  -0.0000001833  -0.0000013975   0.0000043152
       -0.0000001027   0.0000054960  -0.0000074166   0.0000000658  -0.0000055706
        0.0000071837  -0.0000027166  -0.0000005449  -0.0000053725   0.0000028531
       -0.0000014476   0.0000027897  -0.0000008328   0.0000001600  -0.0000013734
        0.0000009604  -0.0000001362   0.0000004161   0.0000003795   0.0000000621
       -0.0000012233   0.0000015010  -0.0000001581  -0.0000003793  -0.0000007605
        0.0000004512   0.0000004659  -0.0000015805   0.0000005726   0.0000008058
        0.0000010970  -0.0000001170  -0.0000015105  -0.0000001530   0.0000004887
        0.0000002147  -0.0000002818   0.0000000607  -0.0000005627  -0.0000006832
        0.0000007089  -0.0000005035   0.0000002907  -0.0000008820  -0.0000004741
       -0.0000003433  -0.0000000139  -0.0000008447   0.0000011666  -0.0000031233
        0.0000015453   0.0000003252   0.0000013134  -0.0000041591   0.0000003701
       -0.0000037919   0.0000036021  -0.0000004954  -0.0000087311   0.0000092247
        0.0000008162  -0.0000006936  -0.0000055051  -0.0000000341  -0.0000006047
        0.0000022511   0.0000001072   0.0000007631  -0.0000015749   0.0000010391
        0.0000000637  -0.0000023182   0.0000000203   0.0000008292  -0.0000012909
       -0.0000010000  -0.0000011375   0.0000013712   0.0000002421   0.0088430132
        0.0033064453  -0.0009936656   0.0036505160  -0.1201004484   0.1116380625
        0.1053444888  -0.2091816914  -0.0337616907  -0.0556131595  -0.1024836556
       -0.0866000673  -0.0007543352  -0.0007821819  -0.0016210214  -0.0009110057
       -0.0003267362   0.0003418382   0.0000258324  -0.0008456745  -0.0007975479
       -0.0000298656   0.0000349345   0.0000548136   0.0000078709   0.0000259424
        0.0000122788   0.0000075327  -0.0000037262   0.0000158101   0.0000062199
       -0.0000021707   0.0000063020   0.0000014527  -0.0000033639   0.0000102044
        0.0000130495   0.0000065060   0.0000109115   0.0000190334   0.0000159833
        0.0000162134  -0.0000191085  -0.0000004044  -0.0000091978  -0.0000122331
        0.0000127112   0.0000032608   0.0000010170   0.0000016911  -0.0000004998
       -0.0000001060   0.0000012935   0.0000006906  -0.0000002672   0.0000028623
        0.0000001988  -0.0000003039   0.0000021620  -0.0000004323   0.0000000386
        0.0000020075   0.0000010941  -0.0000028973   0.0000024133   0.0000016900
        0.0000007099   0.0000017184  -0.0000003790  -0.0000046339  -0.0000004882
       -0.0000019179  -0.0000040915   0.0000000387  -0.0000014444  -0.0000018067
       -0.0000008450   0.0000007896  -0.0000016311   0.0000018985   0.0000002011
       -0.0000013915  -0.0000001937  -0.0000031899  -0.0000065028   0.0000056647
        0.0000008865  -0.0000069649   0.0000047187  -0.0000076467  -0.0000133535
        0.0000086230  -0.0000024339  -0.0000212532   0.0000060223  -0.0000002346
       -0.0000082854  -0.0000192947  -0.0000022020  -0.0000268050   0.0000114642
        0.0000022482   0.0000041898   0.0000086180   0.0000053527  -0.0000048081
        0.0000038607   0.0000037360  -0.0000009230   0.0000000627  -0.0000002593
        0.0000001775   0.0000011563  -0.0000000918   0.0000003806  -0.0000003125
       -0.0000003462   0.0000002436   0.0000000703  -0.0000006118  -0.0000014081
        0.0000001802  -0.0000004822  -0.0000017808  -0.0000003276  -0.0000006383
       -0.0000001424   0.0000001505  -0.0000002235  -0.0000002477  -0.0000000121
       -0.0000003731   0.0000002221  -0.0000010916  -0.0000003152  -0.0000001380
       -0.0000003162  -0.0000001453  -0.0000004744  -0.0000001406  -0.0000002982
        0.0000001322  -0.0000000209  -0.0000002757  -0.0000001967   0.0000001230
       -0.0000002461  -0.0000004845   0.0000008231  -0.0000000790   0.0000004084
       -0.0000003173  -0.0000003363   0.0000000079   0.0000005094   0.0000000849
       -0.0000000447   0.0000005017   0.0000000098   0.0000001024   0.0000001861
        0.0000002012   0.0000002631   0.0000001945   0.0000001064  -0.0000002818
        0.0000008467   0.0000004367  -0.0000003767   0.0000010162   0.0000004495
       -0.0000008697   0.0000002963   0.0000000291   0.0000000805  -0.0000000194
       -0.0000002223  -0.0000000977   0.0000000661  -0.0000000783   0.0000000735
        0.0000003403  -0.0000000083  -0.0000001613  -0.0000000957  -0.0000000318
        0.0000002778   0.0000003023   0.0000003760  -0.0000000466  -0.0000001828
       -0.0000008236  -0.0000001578   0.0000012450   0.0000003687   0.0000002355
        0.0000009223   0.0000008400  -0.0000000761   0.0000009175   0.0000000003
        0.0000000206   0.0000010600   0.0000002795  -0.0000001410   0.0000005203
        0.0000004907   0.0000002902   0.0000005313  -0.0000003902   0.0011885766
       -0.0011178664  -0.0018866998
        0.0107156139  -0.0173957230   0.5114392608   0.0428922784   0.0137625566
       -0.0764048071   0.0228038400   0.0080061672  -0.0091437186  -0.0000102521
        0.0056444480  -0.0009323165  -0.0000200551  -0.0002730397   0.0002216623
       -0.0013637150   0.0048914154   0.0015899305  -0.0006384404  -0.0001681590
       -0.0000375627  -0.0000433195  -0.0002053537   0.0000774779   0.0000414489
       -0.0000020844  -0.0000052524   0.0000056124   0.0000233229  -0.0000280241
        0.0000153819   0.0000240534  -0.0000021782  -0.0000161092  -0.0000375554
       -0.0000091802   0.0000158860   0.0000003918   0.0000003842  -0.0000114062
        0.0000239547  -0.0000441271   0.0000128414   0.0000868300  -0.0000714196
       -0.0000091412  -0.0000123864   0.0000046184   0.0000189294   0.0000328215
        0.0000129736  -0.0000254570  -0.0000094357  -0.0000032413   0.0000517262
        0.0000009436   0.0000211346  -0.0000814606  -0.0000435126  -0.0000200978
       -0.0000509890   0.0000164243  -0.0000049255  -0.0000005765  -0.0000126567
       -0.0000018735  -0.0000013404   0.0000044787  -0.0000058073  -0.0000001773
        0.0000001961  -0.0000023275   0.0000011174   0.0000001462  -0.0000031588
       -0.0000009987  -0.0000021418  -0.0000001734   0.0000007375   0.0000017869
        0.0000003012   0.0000048008   0.0000030712   0.0000024275  -0.0000081979
       -0.0000021709  -0.0000014282   0.0000100554  -0.0000056146   0.0000000148
       -0.0000103112   0.0000023248   0.0000008907   0.0000144415   0.0000051117
        0.0000019038  -0.0000162698  -0.0000007820   0.0000009200   0.0000229300
        0.0000050593  -0.0000026495  -0.0000058862   0.0000007870   0.0000005801
        0.0000004152  -0.0000002216   0.0000002388  -0.0000009590  -0.0000002503
       -0.0000019334   0.0000047514   0.0000036477   0.0000043095   0.0000017114
        0.0000004485  -0.0000019618  -0.0000022529  -0.0000075022  -0.0000029819
        0.0000139058   0.0000131108   0.0000066366  -0.0000178463  -0.0000254511
       -0.0000054686   0.0000102962   0.0000018353  -0.0000124565   0.0000068880
       -0.0000067190   0.0000110010   0.0000075729   0.0000023623  -0.0000154501
        0.0000074804  -0.0000057622  -0.0000041736  -0.0000102365   0.0000157348
       -0.0000554943   0.0000017351  -0.0000059749   0.0000077590   0.0000051630
       -0.0000001574  -0.0000039795   0.0000055837   0.0000044752  -0.0000004256
       -0.0000020042  -0.0000027368   0.0000028775  -0.0000027532  -0.0000001245
       -0.0000015684  -0.0000006413   0.0000001615   0.0000010308   0.0000000860
       -0.0000005554  -0.0000010681  -0.0000000840  -0.0000002656  -0.0000006651
        0.0000004250   0.0000008556   0.0000003848   0.0000021519  -0.0000003510
       -0.0000041380   0.0000009567  -0.0000013987   0.0000001360  -0.0000001001
       -0.0000001799  -0.0000008034  -0.0000004303  -0.0000006157  -0.0000007840
        0.0000002663   0.0000002578  -0.0000001286   0.0000003882   0.0000001094
       -0.0000000488  -0.0000004062   0.0000003593  -0.0000005300   0.0000002128
       -0.0000006624  -0.0000010595   0.0000000903  -0.0000004252  -0.0000002236
       -0.0000002546   0.0000022915   0.0000007487   0.0000019970  -0.0000006611
       -0.0000007317   0.0000013051  -0.0000001712   0.0000000914  -0.0000018401
       -0.0000010082   0.0000005169  -0.0000004319   0.0000012855  -0.0000008709
        0.0000005113  -0.0000004211  -0.0000000183  -0.0000022004   0.0000006078
       -0.0000032391   0.0000022325  -0.0000000526   0.0000030026   0.0000002717
        0.0000004656  -0.0000017683   0.0000004990  -0.0000001371  -0.0000010906
        0.0000007424  -0.0000006796   0.0000010485   0.0000012402   0.0000003030
       -0.0000006394  -0.0000010131  -0.0000002379  -0.0000002010   0.0000004075
        0.0000005702  -0.0000007656   0.0000003352  -0.0000008527  -0.0000006469
       -0.0000001154   0.0000005630  -0.0000007337   0.0000002314   0.0000002052
        0.0000005375  -0.0000007023   0.0000004283  -0.0000003167  -0.0000032172
       -0.0000005767   0.0000012112   0.0000016527  -0.0000008625   0.0000006051
       -0.0000010436   0.0000009138  -0.0000006577  -0.0000069752   0.0000047708
       -0.0000002699  -0.0000004508  -0.0000027863  -0.0000001386   0.0000000946
        0.0000003879  -0.0000006963   0.0000007295  -0.0000006334   0.0000001049
       -0.0000005243   0.0000001081  -0.0000012454   0.0000007269  -0.0000007500
       -0.0000010209  -0.0000006980   0.0000006351  -0.0000025709  -0.0115877471
       -0.0012143528   0.0039124833  -0.0047181690   0.1116175480  -0.2093988738
        0.0222583679  -0.0333588182  -0.0501572262  -0.0808652526  -0.0874865155
       -0.1700088239   0.0009923045  -0.0016996017   0.0000320903   0.0011717215
        0.0003452590  -0.0005053052   0.0000068101  -0.0007968086  -0.0004544410
       -0.0000095765  -0.0000191298   0.0000199394   0.0000069307   0.0000186497
        0.0000161131  -0.0000048545   0.0000089637   0.0000068466  -0.0000051260
        0.0000062010  -0.0000015979  -0.0000035972   0.0000017716  -0.0000006438
       -0.0000020619  -0.0000007051   0.0000021911   0.0000013783   0.0000013467
        0.0000160580   0.0000090416   0.0000221511  -0.0000116372   0.0000026602
        0.0000039945   0.0000040794  -0.0000013195  -0.0000004832   0.0000012376
       -0.0000008642   0.0000005093   0.0000033405  -0.0000007790   0.0000000107
        0.0000031540  -0.0000009134  -0.0000003413   0.0000035667  -0.0000000657
       -0.0000006932   0.0000042592   0.0000000507   0.0000018352   0.0000009578
       -0.0000002568   0.0000009489  -0.0000006308  -0.0000009342  -0.0000000992
       -0.0000003959  -0.0000015745  -0.0000002692   0.0000005950  -0.0000007589
       -0.0000016503   0.0000006316  -0.0000010314   0.0000004968  -0.0000007101
        0.0000002794   0.0000002903   0.0000010118  -0.0000003547   0.0000011808
        0.0000004813  -0.0000015595  -0.0000001904   0.0000118357  -0.0000062147
        0.0000031392   0.0000295111  -0.0000077302   0.0000081553   0.0000018596
        0.0000039387   0.0000093117   0.0000113017   0.0000163394  -0.0000108188
       -0.0000027954  -0.0000125777  -0.0000131143   0.0000133626  -0.0000121880
       -0.0000016357   0.0000108112   0.0000000825   0.0000001295  -0.0000003042
       -0.0000005304   0.0000003582  -0.0000000354  -0.0000002418   0.0000005371
       -0.0000000048   0.0000002689   0.0000003289   0.0000006623   0.0000005334
        0.0000002033  -0.0000004274   0.0000008361   0.0000002084   0.0000000452
       -0.0000002945   0.0000000671   0.0000008938   0.0000001063   0.0000002281
       -0.0000001177  -0.0000002375  -0.0000000867   0.0000002818   0.0000000516
        0.0000001128  -0.0000004088   0.0000002896  -0.0000004302  -0.0000002819
       -0.0000002947  -0.0000001141   0.0000000961  -0.0000003130  -0.0000004377
       -0.0000003464   0.0000008820   0.0000005651   0.0000000890  -0.0000001208
       -0.0000003000   0.0000003046  -0.0000002186  -0.0000001634   0.0000003687
       -0.0000002057   0.0000000398   0.0000005061  -0.0000005230   0.0000002284
        0.0000015348  -0.0000004023  -0.0000001921   0.0000001674  -0.0000001327
        0.0000002531   0.0000008044  -0.0000005121   0.0000003688   0.0000005426
       -0.0000000556   0.0000009518  -0.0000004790  -0.0000004706  -0.0000004734
        0.0000000017   0.0000001280  -0.0000004285  -0.0000002730   0.0000000634
        0.0000002456   0.0000001656  -0.0000002028  -0.0000000371  -0.0000002431
       -0.0000002273  -0.0000006124  -0.0000003295   0.0000007780  -0.0000008143
        0.0000001509   0.0000008016   0.0000001465   0.0000000058  -0.0000002480
        0.0000000082   0.0000024183  -0.0000001647  -0.0000005191   0.0000017589
       -0.0000004231  -0.0000005121   0.0000012944  -0.0000003552  -0.0000000844
        0.0000006497  -0.0000001947  -0.0000000197   0.0000000767  -0.0015621823
       -0.0017996773  -0.0001336925
       -0.1957131837  -0.0344388463   0.0428922784   0.6369282143  -0.0058299457
        0.0155631431  -0.0943867757  -0.0430173348   0.0546944056   0.0089900047
       -0.0198492739   0.0250330588  -0.0043189190   0.0126892089  -0.0163534377
       -0.0637961560  -0.0040003425   0.0057631981   0.0005462519  -0.0037378347
        0.0022709125   0.0003094862   0.0008561294  -0.0009070457   0.0002218787
       -0.0009325735   0.0000383265   0.0000457583   0.0004454220  -0.0001644239
        0.0001466666   0.0000302674   0.0003186440  -0.0001313320  -0.0000719136
       -0.0002680827  -0.0000188491  -0.0000655088   0.0000862436  -0.0000183219
       -0.0002833568  -0.0000910878  -0.0032935069  -0.0004077616   0.0002394936
        0.0002206653   0.0006490256  -0.0001229204  -0.0001984463  -0.0004936016
       -0.0002478280   0.0003228053   0.0003232947   0.0001073742  -0.0009138497
       -0.0001678573  -0.0000997144   0.0006195345   0.0000093505   0.0000108551
        0.0005226016  -0.0001483946  -0.0000205298  -0.0000101815   0.0001156645
        0.0000211832   0.0000185624  -0.0000442475   0.0000226932   0.0000027458
        0.0000136578   0.0000191638   0.0000031667   0.0000206992  -0.0000009133
        0.0000070483   0.0000204415  -0.0000225128   0.0000200835  -0.0000405022
       -0.0000372928  -0.0001444594  -0.0000562725  -0.0000059870   0.0001102444
        0.0000268804  -0.0000092441  -0.0001564537   0.0000815463   0.0000156013
        0.0001779481  -0.0000265311  -0.0000226359  -0.0001809055  -0.0000664822
        0.0000011800   0.0002122083   0.0000223991  -0.0000140506  -0.0003497319
       -0.0001942550  -0.0000336383   0.0000654532   0.0000941977   0.0000216757
       -0.0000824375  -0.0000553715  -0.0000334258  -0.0000367178   0.0000445512
        0.0000118673   0.0000136750  -0.0000552303  -0.0000131941   0.0000040437
        0.0000404317   0.0000105892   0.0000442935   0.0000547142   0.0000337097
       -0.0001292355  -0.0001052510  -0.0000335458   0.0000605851   0.0004574743
        0.0001041189   0.0000395507  -0.0000337648  -0.0000106174  -0.0000356113
        0.0000531599  -0.0000230420   0.0000289269   0.0000039738  -0.0000489483
        0.0000595132  -0.0000226004  -0.0000107977   0.0000177938  -0.0000351977
        0.0000328399  -0.0000291425   0.0000333212   0.0000041123  -0.0000616186
        0.0000485035   0.0000590585  -0.0001119297  -0.0000734401   0.0000128826
        0.0000133967   0.0000526533  -0.0000071876   0.0000217086  -0.0000263643
        0.0000003896   0.0000278314   0.0000223707   0.0000011266  -0.0000182947
       -0.0000066530  -0.0000014668   0.0000033416   0.0000133228  -0.0000008668
       -0.0000011049  -0.0000103804  -0.0000012591  -0.0000251086   0.0000210658
       -0.0000007192   0.0000238033   0.0000246139   0.0000028097  -0.0000158747
       -0.0000058456  -0.0000013621   0.0000085515   0.0000029546   0.0000016664
        0.0000029495  -0.0000000655  -0.0000035527  -0.0000015741  -0.0000013067
       -0.0000014024   0.0000001290  -0.0000007349   0.0000044641   0.0000065428
        0.0000022841  -0.0000024970   0.0000072001   0.0000029621   0.0000017159
       -0.0000258533  -0.0000547786   0.0000023842   0.0000005232   0.0000094135
        0.0000033016  -0.0000673738   0.0000023830  -0.0000067792   0.0000461972
       -0.0000301708   0.0000062956   0.0000020081   0.0000207640  -0.0000081191
        0.0000031456  -0.0000067916   0.0000037120  -0.0000000157   0.0000034640
       -0.0000008054   0.0000030037  -0.0000020433  -0.0000012722  -0.0000013056
        0.0000024114  -0.0000063488   0.0000065190  -0.0000028655   0.0000042978
        0.0000034302  -0.0000062856   0.0000070185  -0.0000217169  -0.0000114054
        0.0000040223   0.0000056819   0.0000041501  -0.0000072838   0.0000002186
       -0.0000009164   0.0000024446   0.0000028927  -0.0000015245   0.0000018051
       -0.0000033057  -0.0000000864  -0.0000006826   0.0000061106  -0.0000011098
        0.0000010623   0.0000083101  -0.0000013370  -0.0000020824   0.0000734709
       -0.0000027513  -0.0000021415  -0.0000781080   0.0000078329  -0.0000045346
        0.0000517157  -0.0000135688  -0.0000063055   0.0001613395  -0.0000609712
       -0.0000128076  -0.0000005895   0.0000364316   0.0000025805   0.0000076085
       -0.0000140960  -0.0000098576   0.0000042249   0.0000039025  -0.0000080938
        0.0000031130   0.0000055281  -0.0000023069   0.0000026042   0.0000034630
        0.0000066368   0.0000052632  -0.0000133941   0.0000069659  -0.2374565525
        0.0943616193  -0.1212890359  -0.0017368066  -0.0028956777   0.0035047489
       -0.0236486920   0.0001128299   0.0049168256  -0.0219022572  -0.0065242611
        0.0004089597   0.0011860413   0.0150206158  -0.0188654215  -0.0049592390
       -0.0017834678   0.0020793173   0.0006646465   0.0002990682  -0.0005922743
       -0.0000727762   0.0002107148   0.0002063513   0.0000044577  -0.0001060739
       -0.0000456296  -0.0000091699  -0.0000966561   0.0000638280   0.0000453218
       -0.0000283956   0.0000073860  -0.0000107296   0.0000056993   0.0000599975
        0.0000215506   0.0000251836   0.0000022112   0.0000614149   0.0000735780
        0.0000647054  -0.0001924970  -0.0001103788  -0.0000936980  -0.0000030946
       -0.0001230013   0.0000123783  -0.0000081600   0.0000113397  -0.0000044446
       -0.0000056954  -0.0000034087  -0.0000084413  -0.0000056647  -0.0000044947
       -0.0000003367  -0.0000085766  -0.0000049234   0.0000081683  -0.0000131743
        0.0000089169   0.0000065076  -0.0000111118  -0.0000207504   0.0000020769
       -0.0000058512   0.0000145901   0.0000066289   0.0000208854  -0.0000049155
        0.0000036505   0.0000186088   0.0000169678   0.0000109759   0.0000036208
        0.0000092620  -0.0000058149  -0.0000054587  -0.0000049568  -0.0000022817
        0.0000009032   0.0000030780   0.0000117410  -0.0000197163  -0.0000002554
       -0.0000066425   0.0000112586  -0.0000176918  -0.0000036380   0.0000139387