$hessian                                                                        
        0.5226952344  -0.0013911166   0.0017185245  -0.0557505423  -0.0018259736
       -0.0067732197  -0.0038052729   0.0115081720   0.0229589446   0.0010481809
       -0.0049314433  -0.0019214314  -0.0004140971   0.0006378471  -0.0010786568
       -0.0000908808  -0.0003975988   0.0002971429   0.0001002803   0.0000350542
        0.0000303329  -0.0001957728  -0.0000162145   0.0000317166  -0.0001968344
       -0.0006366687   0.0003783175  -0.0000720371  -0.0004988138   0.0001773397
        0.0003607740   0.0001686603  -0.0000435455  -0.0001065523  -0.0001051732
        0.0000661710   0.0001312623   0.0000794493   0.0001152185  -0.0001219892
       -0.0000773056  -0.0000239547   0.0000413901   0.0000487881  -0.0000344914
        0.0000061054  -0.0000262528   0.0000281771   0.0000092908  -0.0000022944
       -0.0000006251   0.0000086743   0.0000480788   0.0000208542   0.0000225104
        0.0000059293   0.0000047320   0.0000677923   0.0000472953  -0.0000036096
       -0.0000164650   0.0000122368   0.0000013442  -0.0000178765   0.0000105657
        0.0000076614  -0.0000244036   0.0000025960  -0.0000023089   0.0000048386
       -0.0000266038  -0.0000260252  -0.0000333390  -0.0000214814  -0.0000238285
        0.0000235335   0.0000329774   0.0000537393   0.0000327739  -0.0000058341
       -0.0000360470   0.0000526451   0.0000030363  -0.0000000869  -0.0000104069
       -0.0000366596  -0.0000544241  -0.0000163865   0.0000269985   0.0000435967
        0.0000220458   0.0000245288   0.0000232500  -0.0000254663  -0.0000036202
        0.0000077178  -0.0000351104   0.0000045547  -0.0000071904  -0.0000106267
       -0.0000697925  -0.0000169028  -0.0000215905  -0.0000193543  -0.0000228687
        0.0000359903   0.0000077714   0.0000366375  -0.0000012209  -0.0000333277
        0.0000026106  -0.0000180225  -0.0000151301   0.0000109312   0.0000497474
        0.0000522372  -0.0000477498   0.0002159443   0.0000738745   0.0001127456
        0.0000353217  -0.0000649708   0.0000709352  -0.0000714689   0.0000332425
       -0.0000608947   0.0000422175  -0.0000688742   0.0000488913  -0.0000429654
        0.0000359028  -0.0000223609   0.0000409197  -0.0000089448   0.0000165093
        0.0000069132  -0.0000150343   0.0000108892   0.0000123969   0.0000012315
        0.0000081820  -0.0000110723   0.0000046309  -0.0000148689  -0.0000362407
       -0.0000508513   0.0000056414   0.0001430344   0.0000682914  -0.0000598309
       -0.0001854540  -0.0000523613  -0.0001453028  -0.0012154025   0.0021354887
       -0.0018298574  -0.0008500990   0.0000829298   0.0004100087  -0.0001243268
       -0.0002156175  -0.0000424789  -0.0002379803  -0.0000592869   0.0007323055
       -0.0002023434  -0.0005366028  -0.0009579159  -0.0060959544  -0.0082052776
       -0.0210185454  -0.0477649609  -0.0303863165   0.0069954566  -0.1817772299
        0.0576623553  -0.1055242627  -0.2227034791  -0.0246756383   0.1017197537
        0.0007755679   0.0005836718  -0.0000768937   0.0009665100   0.0004203055
        0.0005734135  -0.0041047927   0.0000994697   0.0038295448  -0.0001477054
        0.0007174509   0.0000693990  -0.0000193352   0.0000185049   0.0000093821
        0.0000246294   0.0000145615  -0.0000225746   0.0000119616  -0.0000382787
       -0.0000128190  -0.0000148818  -0.0000222240   0.0000275450  -0.0000087651
        0.0000113967   0.0000029957  -0.0000054215   0.0000017485  -0.0000105984
       -0.0000042667   0.0000024635  -0.0000003815   0.0000023695   0.0000035525
        0.0000060414   0.0000011199  -0.0000022469  -0.0000043115  -0.0000028906
       -0.0000005044   0.0000049112  -0.0000050870  -0.0000022846  -0.0000025090
        0.0000028688   0.0000014788   0.0000060030   0.0000002139  -0.0000025098
       -0.0000026185  -0.0000065051  -0.0000001952   0.0000078503  -0.0000023844
       -0.0000020673   0.0000058370  -0.0000139830  -0.0000075368  -0.0000150111
       -0.0001390236  -0.0001119313   0.0000248507  -0.0001707583   0.0002044690
       -0.0001302201   0.0000136702  -0.0000148423   0.0000003404   0.0000080652
        0.0000095745  -0.0000022853  -0.0000003955   0.0000057068  -0.0000017211
       -0.0000122933   0.0000055561  -0.0000086541  -0.0000074049  -0.0000090439
       -0.0000006166   0.0000055491   0.0000033023   0.0000050396   0.0000005997
       -0.0000046832   0.0000042951   0.0000144292  -0.0000033939   0.0000250811
       -0.0001753720   0.0000497032  -0.0000576771   0.0000568998  -0.0000551729
       -0.0001117407   0.0000289078  -0.0000288141  -0.0000191935   0.0000219578
       -0.0002214762  -0.0004756975
       -0.0013911166   0.5015458454  -0.0426954211   0.0027353385  -0.0901651508
       -0.0502077948   0.0008940253   0.0008170182  -0.0018415719  -0.0039785660
       -0.0270810670  -0.0211933234  -0.0001880083  -0.0009074173  -0.0005992021
       -0.0011108983   0.0003649021   0.0003258627   0.0003383296  -0.0001204428
        0.0002802331  -0.0012081800   0.0000944720   0.0005466034   0.0023637681
       -0.0035696511   0.0012282656  -0.0003928091   0.0004897054  -0.0005358001
       -0.0002030826  -0.0001186847   0.0000031853   0.0001047952   0.0001695686
       -0.0001111459  -0.0001013055  -0.0000558501  -0.0000496210   0.0000921839
        0.0000473240  -0.0000076252   0.0000241112  -0.0000860612  -0.0000226555
       -0.0000280130   0.0000422548  -0.0000253940  -0.0000276910   0.0000273392
        0.0000254653  -0.0000267325  -0.0000181585  -0.0000074596   0.0000084014
       -0.0000959054  -0.0000427028  -0.0001554427   0.0000394358   0.0000227923
        0.0000247222  -0.0000081783  -0.0000100865   0.0000720064   0.0000141250
       -0.0000148167   0.0000382735  -0.0000152271  -0.0000654970  -0.0000178633
        0.0000348811   0.0000653709   0.0000392755   0.0000193989   0.0000235304
       -0.0000355189  -0.0000313452  -0.0000347108  -0.0000703312  -0.0000205384
       -0.0000396006  -0.0000387585   0.0000190039   0.0000551645   0.0000027256
        0.0000384246   0.0000683079   0.0000268723  -0.0000254377  -0.0000459560
       -0.0000624354  -0.0000358658  -0.0000416921   0.0000669049   0.0000126138
        0.0000167232   0.0000716536  -0.0000065037  -0.0000239178  -0.0000000911
        0.0000860598   0.0000060453   0.0000514809   0.0001623549   0.0000470070
       -0.0000206337  -0.0000240755   0.0000190906  -0.0000306879  -0.0001151251
       -0.0000116277  -0.0001855733   0.0000005047  -0.0001174551   0.0002148648
       -0.0000380229   0.0001147563  -0.0001607426  -0.0002170206  -0.0000051680
        0.0000342863   0.0001641192  -0.0000326781  -0.0000231371   0.0000587840
       -0.0000318930   0.0001249449   0.0000295287   0.0000641135   0.0000734108
        0.0000088841   0.0000555415  -0.0000602449  -0.0000182047  -0.0000407828
       -0.0000321224   0.0000953625  -0.0000403435  -0.0000021864  -0.0000932905
        0.0000235562  -0.0000717285  -0.0000750090  -0.0000039112   0.0000877082
       -0.0000445738   0.0000153732  -0.0001633629  -0.0000596136   0.0000400577
        0.0001634530   0.0000327237   0.0001559147   0.0011865615  -0.0000539529
        0.0008444588   0.0002634944  -0.0004019981  -0.0000168814   0.0005506820
        0.0007636179   0.0000671878  -0.0011602355   0.0002051336  -0.0007712081
        0.0012458864  -0.0018630027   0.0011770400  -0.0027900917   0.0057888854
        0.0017465348  -0.0301405566  -0.2712960100   0.0497187003   0.0578819387
       -0.0666345215   0.0455008914  -0.0249072729  -0.0474785382   0.0153113396
       -0.0001881263   0.0005339684   0.0008063067  -0.0002122474   0.0000630912
        0.0000008183  -0.0003253739   0.0004644669   0.0001836123   0.0000828424
       -0.0009489783  -0.0007806570   0.0000444164  -0.0000159571  -0.0000802152
        0.0000684794  -0.0000351458  -0.0001808153  -0.0000015505  -0.0002488392
        0.0000791291   0.0000200281  -0.0000116974  -0.0000231932  -0.0000101319
       -0.0000133441   0.0000026617   0.0000053469  -0.0000041201   0.0000122435
       -0.0000050314  -0.0000012325   0.0000071083  -0.0000010228   0.0000002653
        0.0000008700   0.0000051561  -0.0000045349  -0.0000062845   0.0000014847
        0.0000016371   0.0000012312   0.0000025862  -0.0000025455  -0.0000005049
        0.0000086809   0.0000030518   0.0000055440   0.0000000961  -0.0000006241
        0.0000028171  -0.0000080501  -0.0000021523   0.0000019007  -0.0000019177
        0.0000020922   0.0000044073   0.0000247983   0.0000090125   0.0000135349
        0.0000076697  -0.0000566281   0.0000120410   0.0001324987   0.0001605734
       -0.0000502358   0.0000139043  -0.0000238120   0.0000120696  -0.0000032727
       -0.0000013906  -0.0000005346   0.0000027706  -0.0000033276   0.0000009189
       -0.0000053576   0.0000009867  -0.0000033471  -0.0000028622  -0.0000037151
       -0.0000039882  -0.0000028710   0.0000031412  -0.0000125034  -0.0000098265
       -0.0000004220  -0.0000038576  -0.0000024420  -0.0000036773   0.0000157090
        0.0000779967  -0.0000507716  -0.0000066133   0.0000004227   0.0000248155
        0.0000322901  -0.0000146987   0.0000042813   0.0000091575   0.0002989257
       -0.0002362953   0.0010672099
        0.0017185245  -0.0426954211   0.4563776791   0.0007823650  -0.0467613585
       -0.1376196922   0.0056676028  -0.0102700725  -0.0198195272  -0.0005355967
       -0.0069375729   0.0035146745  -0.0008795380   0.0016753100  -0.0009984954
       -0.0003715163  -0.0009896023   0.0000379834   0.0005185857   0.0001451756
        0.0003301719   0.0000419549   0.0003151285  -0.0001326410   0.0013422370
        0.0008308339  -0.0002312500  -0.0003179916  -0.0008565109  -0.0000945111
       -0.0000159337   0.0001265356   0.0002411026  -0.0000034068   0.0000005396
       -0.0000419824  -0.0000622988  -0.0000470782   0.0000369892   0.0000098205
        0.0000064333   0.0000199977   0.0000539889  -0.0000546540  -0.0000211669
       -0.0000344519   0.0000325141  -0.0000172100  -0.0000292188   0.0000309339
        0.0000295327  -0.0000739539  -0.0000815579  -0.0000256905   0.0000059046
       -0.0001078744  -0.0000475829  -0.0002294864  -0.0000075262   0.0000314361
        0.0000521781  -0.0000099760  -0.0000251386   0.0001089632   0.0000436563
        0.0000193703   0.0000642981  -0.0000382128  -0.0001189379  -0.0000242338
        0.0000642041   0.0001149280   0.0000269526   0.0000174740   0.0000272988
       -0.0000681885  -0.0000123413   0.0000029341  -0.0000933060  -0.0000665520
       -0.0001125943  -0.0000213537   0.0000624977   0.0001247941  -0.0000428049
        0.0000247427   0.0000579971   0.0000143423  -0.0000261769  -0.0000442446
       -0.0000968624  -0.0000607964  -0.0000771205   0.0001129514   0.0000371416
        0.0000466099   0.0000867918  -0.0000351924  -0.0000666447   0.0000454085
        0.0001693492   0.0000012517   0.0000599867   0.0001698794   0.0000595520
       -0.0000781166   0.0000712258  -0.0000233839  -0.0000375923   0.0000791041
       -0.0000979583   0.0000795364  -0.0000106616   0.0000222812  -0.0000233783
        0.0000042567   0.0000726429  -0.0000897475  -0.0000924998   0.0000683975
       -0.0002152069   0.0000560597  -0.0001313007   0.0001651175  -0.0000478048
        0.0000840585  -0.0000029891   0.0001883891  -0.0000694584   0.0000993348
       -0.0001394699   0.0001231691  -0.0000973433  -0.0000102338  -0.0000646547
       -0.0000152608  -0.0000046992   0.0000054539  -0.0000751078   0.0000285313
       -0.0000565832   0.0000247832  -0.0001770394   0.0000729763   0.0001593866
        0.0000076998   0.0000084843  -0.0000402969  -0.0000308624  -0.0000173660
        0.0000814439   0.0000080773   0.0000210537   0.0007161799   0.0024472095
       -0.0019720561  -0.0007274171   0.0000925534   0.0004459424   0.0000742787
        0.0001425645   0.0000446674  -0.0007968377  -0.0002558171   0.0004283838
       -0.0000328111  -0.0010137550  -0.0000477480  -0.0116206212  -0.0065253286
       -0.0231018749   0.0071695189   0.0502469687  -0.0520215883  -0.1048944287
        0.0452912813  -0.1226606224   0.1014439822   0.0151715730  -0.1004897675
       -0.0008201651  -0.0004690521   0.0004705813  -0.0009816991   0.0001663462
        0.0007518473   0.0031517267  -0.0001357940  -0.0022238167  -0.0002534327
        0.0005135893   0.0000321442  -0.0000034051  -0.0000024132  -0.0000052278
       -0.0000023011   0.0000177039   0.0000179601   0.0000076396   0.0000475021
       -0.0000532269  -0.0000005130   0.0000161677  -0.0000203345  -0.0000175245
       -0.0000080638   0.0000025312  -0.0000013681  -0.0000063096   0.0000176965
       -0.0000058743  -0.0000033169   0.0000084473   0.0000000574  -0.0000023413
        0.0000006482   0.0000049181  -0.0000074192  -0.0000070394   0.0000004346
        0.0000030081   0.0000025451   0.0000002178  -0.0000055022  -0.0000013354
        0.0000087893   0.0000046449   0.0000081925   0.0000010195   0.0000006331
        0.0000039900  -0.0000081455  -0.0000026833   0.0000025522  -0.0000059780
       -0.0000000661   0.0000089229  -0.0000116917  -0.0000070088   0.0000019209
        0.0001403878   0.0001484695  -0.0000593362   0.0000246043  -0.0002383108
       -0.0000042884  -0.0000111184   0.0000235670  -0.0000099350   0.0000001524
        0.0000027112  -0.0000034881   0.0000007432  -0.0000005305  -0.0000016330
       -0.0000099195   0.0000039471  -0.0000066760  -0.0000067813  -0.0000089282
       -0.0000069834   0.0000045994   0.0000133131  -0.0000197940   0.0000028980
       -0.0000119227  -0.0000004109  -0.0000087352   0.0000168143   0.0000354515
       -0.0001197199   0.0000552741  -0.0000661739   0.0000331636  -0.0000535516
       -0.0001248057   0.0000509606  -0.0000221422  -0.0000830384  -0.0002430609
       -0.0002695308  -0.0008909090
       -0.0557505423   0.0027353385   0.0007823650   0.4515016577  -0.0113077749
        0.0226048696  -0.1381430288  -0.0098492502   0.0448268822  -0.0605702273
       -0.0100952389  -0.0013626918   0.0027331984   0.0188890498  -0.0032753932
        0.0005394131   0.0022111109  -0.0039218801  -0.0033705381  -0.0006999962
       -0.0015199050  -0.0014408368  -0.0051231952  -0.0023399119  -0.0053747880
       -0.0209350398   0.0006146557   0.0025242552   0.0037489542   0.0023872927
        0.0005604557   0.0008440437   0.0006682701  -0.0005379722  -0.0004664038
        0.0005095642   0.0005936431   0.0002935470   0.0004479682  -0.0004671439
       -0.0002422376  -0.0000925792   0.0000243829  -0.0000752932  -0.0001131379
        0.0001488599  -0.0000197813  -0.0000236565   0.0000904792  -0.0000106764
       -0.0000404812   0.0001935981   0.0007675482   0.0003118599   0.0001396507
        0.0005150226   0.0002339983   0.0012633648   0.0001645284  -0.0001975503
       -0.0004287426   0.0001317032   0.0001334762  -0.0006888819  -0.0001914849
       -0.0001728420  -0.0004076021   0.0003715548   0.0006375054   0.0001524164
       -0.0005199247  -0.0007614194  -0.0001947034  -0.0001112900  -0.0001855948
        0.0005081583   0.0000500184   0.0000938620   0.0006200974   0.0005057380
        0.0005066196   0.0003073088  -0.0005092717  -0.0008646975   0.0003318305
       -0.0001761859  -0.0003943893  -0.0001046385   0.0002071137   0.0003874803
        0.0005866522   0.0004752696   0.0005530587  -0.0007169755  -0.0003308234
       -0.0002898690  -0.0006027540   0.0002772653   0.0003530115  -0.0000752399
       -0.0009378631  -0.0001757151  -0.0003700920  -0.0007736693  -0.0003761353
        0.0004405180   0.0000928350   0.0002320271  -0.0002035259   0.0004191116
       -0.0001288358   0.0007427523   0.0001984449   0.0003998823  -0.0008356153
       -0.0002509724  -0.0007519254  -0.0001276717   0.0005378296  -0.0003816285
        0.0000176412  -0.0006739504   0.0000675270   0.0001952121  -0.0004116874
        0.0003476660  -0.0006216237   0.0000131322  -0.0003181997  -0.0004770511
       -0.0002199986  -0.0001620720   0.0003356588  -0.0000546867   0.0001409072
        0.0003988818  -0.0006470364   0.0004615497   0.0000085253   0.0006966598
       -0.0003070529   0.0005079301   0.0004567739   0.0001693862  -0.0008670619
       -0.0001353028   0.0000521297   0.0007516951   0.0003396808  -0.0000481295
       -0.0004871804   0.0000945528  -0.0008833891  -0.0240789286  -0.0018242326
       -0.0151890280  -0.0018593484  -0.0026853752  -0.0031652251  -0.0026580883
       -0.0018721030  -0.0004470629   0.0055439819  -0.0008152075  -0.0007979628
       -0.0019076711   0.0110977861  -0.0046701238  -0.1283866365   0.0296096580
       -0.0546250832  -0.0002211152  -0.0024539763  -0.0027590461  -0.0022805786
       -0.0104281435  -0.0194688280  -0.0006836645   0.0126190471   0.0211164820
       -0.0070707842  -0.0037496024   0.0041796458  -0.0254041117  -0.0013294697
        0.0102198050  -0.0021148718   0.0010322694   0.0033215859  -0.0005628279
        0.0005656642   0.0011084478  -0.0000373143   0.0011347922  -0.0004327852
       -0.0003212866   0.0002638231   0.0004387930  -0.0000830079  -0.0010661821
       -0.0000392787  -0.0000176056   0.0000433162   0.0000649087   0.0000327549
        0.0000286330   0.0000181634  -0.0000139988   0.0000237058  -0.0001258498
       -0.0000329286   0.0000258628   0.0000123756   0.0000184963   0.0000302153
        0.0000394917   0.0000145183  -0.0000139587  -0.0000488398  -0.0000128715
       -0.0000223489   0.0000418745  -0.0000257014   0.0000003090  -0.0000222469
        0.0000391034   0.0000098313   0.0000528576  -0.0000043268  -0.0000334121
       -0.0000223826  -0.0000613313  -0.0000222443   0.0000390868   0.0000059674
       -0.0000163013   0.0000676005   0.0000399319   0.0000544750  -0.0000016883
       -0.0000091356  -0.0001134519   0.0001987159   0.0001118740   0.0000916110
        0.0001030636   0.0000377957   0.0000142070   0.0000522150   0.0000326748
        0.0000657333  -0.0000317776   0.0000062109  -0.0000015778   0.0000184379
       -0.0000812110   0.0000346194  -0.0000410547  -0.0000255890  -0.0000218654
        0.0000106926  -0.0000131663  -0.0000243017   0.0001568343   0.0000929914
       -0.0000683745   0.0000119829   0.0000410068  -0.0000865054   0.0000206265
       -0.0005809936   0.0003991429  -0.0005144306  -0.0001542163   0.0000400009
        0.0006929307   0.0001633532  -0.0002601676   0.0001468162  -0.0008311497
       -0.0005436933   0.0014345277
       -0.0018259736  -0.0901651508  -0.0467613585  -0.0113077749   0.4818299785
       -0.0273690378  -0.0054321927  -0.0600695773   0.0065459174  -0.0127836723
       -0.1786583516   0.0309727873   0.0062903899  -0.0208764885   0.0100446457
        0.0033971568   0.0028600006   0.0035839944  -0.0036111701  -0.0014213537
       -0.0019522714  -0.0016279520  -0.0021048639   0.0015743554  -0.0146450349
       -0.0193030970  -0.0017731111   0.0036036007  -0.0004156904   0.0010382356
        0.0009716623   0.0007498185   0.0003499949  -0.0004717245  -0.0005280413
        0.0006133050   0.0006467708   0.0004051191   0.0004971857  -0.0005749024
       -0.0003353649  -0.0002457430   0.0002583831  -0.0000088760  -0.0000098200
        0.0000377835  -0.0000468572   0.0000045800   0.0000146285  -0.0000240518
       -0.0000983861   0.0001663277   0.0004220048   0.0001479176  -0.0000278377
        0.0004477233   0.0002331245   0.0008736239  -0.0000307554  -0.0001268482
       -0.0003143813   0.0000961335   0.0000902224  -0.0005284371  -0.0001601499
       -0.0001529636  -0.0003102972   0.0002979825   0.0005226912   0.0001117596
       -0.0003980266  -0.0005921314  -0.0001120633  -0.0000698333  -0.0001251169
        0.0004000429   0.0000008850  -0.0000021815   0.0004525066   0.0004191964
        0.0004601498   0.0001710679  -0.0004197294  -0.0006995141   0.0003033755
       -0.0000915441  -0.0002505118  -0.0000595393   0.0001404498   0.0002572721
        0.0004465395   0.0003660450   0.0004291657  -0.0005622944  -0.0002653861
       -0.0002445280  -0.0004392659   0.0002229173   0.0002975425  -0.0000757874
       -0.0005721589  -0.0000896335  -0.0001986128  -0.0007046501  -0.0003263316
        0.0003078566   0.0001410473   0.0001281619  -0.0001670096   0.0005385160
       -0.0001802216   0.0009592629   0.0001836598   0.0005233076  -0.0009978738
       -0.0002297967  -0.0005854872  -0.0000368256   0.0004703091  -0.0001307503
       -0.0002473726  -0.0006024362   0.0000228046   0.0004954449  -0.0004865697
        0.0004771790  -0.0007189298   0.0002304628  -0.0004713605  -0.0003490361
       -0.0003707545  -0.0000618027   0.0002286361  -0.0000273039   0.0000955077
        0.0003495500  -0.0006540897   0.0004268453  -0.0000671831   0.0007270780
       -0.0003359897   0.0005340149   0.0003392369   0.0002114710  -0.0006135458
        0.0000955710   0.0000443911   0.0006491647   0.0003561000  -0.0001571847
       -0.0006347842  -0.0001511524  -0.0008075955  -0.0098334669   0.0060535963
       -0.0071737624  -0.0038822338  -0.0004897895   0.0001903557  -0.0013289645
       -0.0016788243  -0.0003540422   0.0000933542  -0.0037212396   0.0035629854
        0.0206168284  -0.0132212620   0.0164633170   0.0349972068  -0.0784096849
        0.0298153307  -0.0013640085  -0.0200954656  -0.0244723028  -0.0006268448
        0.0036404085   0.0054541804   0.0011514769   0.0006464264   0.0001602632
       -0.0239870902  -0.0058124220   0.0149421121   0.0080395562   0.0006509489
       -0.0045154232   0.0124542233   0.0011574108  -0.0079913461  -0.0006828579
        0.0000753364  -0.0014101406  -0.0001124384  -0.0003661046   0.0000032881
        0.0001955952   0.0001441621  -0.0004878259   0.0000981393  -0.0004265566
        0.0001830257  -0.0000221470   0.0000126756  -0.0000024502   0.0000284071
        0.0000566932   0.0000065401  -0.0000021126   0.0000199307  -0.0000984358
       -0.0000164674   0.0000159292   0.0000068412   0.0000158750   0.0000216888
        0.0000300124   0.0000076533  -0.0000085665  -0.0000307773  -0.0000143253
       -0.0000162328   0.0000308076  -0.0000241067   0.0000016172  -0.0000157284
        0.0000228256   0.0000060491   0.0000342703  -0.0000017527  -0.0000253672
       -0.0000209149  -0.0000332552  -0.0000149843   0.0000256192   0.0000062368
       -0.0000195968   0.0000425168   0.0000106734   0.0000230720  -0.0000106710
        0.0000089282   0.0000211771   0.0000565651  -0.0000031587  -0.0000688334
       -0.0000701178   0.0000183445   0.0000395896   0.0000394859   0.0000283692
        0.0000508165  -0.0000204108   0.0000044492   0.0000005051   0.0000146514
       -0.0000567707   0.0000264212  -0.0000294638  -0.0000156316  -0.0000186565
        0.0000088484  -0.0000020674  -0.0000258853   0.0001221325   0.0000403482
       -0.0000269787   0.0000151120   0.0000465121  -0.0000792374  -0.0000063152
       -0.0007925979   0.0002100474  -0.0003345603   0.0001833326  -0.0001527147
       -0.0003442066   0.0009812660  -0.0006675906   0.0007699073   0.0008246219
        0.0003233574  -0.0006321479
       -0.0067732197  -0.0502077948  -0.1376196922   0.0226048696  -0.0273690378
        0.4355339387   0.0516925242   0.0100910643  -0.0864633690   0.0008779198
        0.0341538252  -0.0622155736  -0.0003186640   0.0168288726  -0.0053525974
       -0.0041864754   0.0024643415   0.0037750182  -0.0010400696  -0.0004941336
       -0.0009719884  -0.0033590869  -0.0010067422   0.0039472993  -0.0021313188
       -0.0058629102   0.0038437202   0.0020047580   0.0006428455  -0.0023429897
        0.0006203911   0.0002063059  -0.0004883545  -0.0000377937  -0.0001169798
        0.0003399242   0.0003557639   0.0002749035   0.0001493762  -0.0001019639
       -0.0000946502  -0.0002885093   0.0000114299  -0.0001259012   0.0000010958
        0.0000668979   0.0000065208  -0.0000282900   0.0000330837   0.0000042231
       -0.0000495858   0.0000393180   0.0003414424   0.0001595050   0.0001439909
        0.0001532970   0.0000455317   0.0005038938   0.0001141191  -0.0000792469
       -0.0001125696   0.0000516434   0.0000378546  -0.0002365778  -0.0000200564
        0.0000318511  -0.0001248371   0.0000930533   0.0001551718   0.0000529010
       -0.0001545493  -0.0002201226  -0.0001198379  -0.0000596795  -0.0000842494
        0.0001409286   0.0000826150   0.0001422932   0.0002342218   0.0000976073
        0.0000470836   0.0001928752  -0.0001007216  -0.0002003434   0.0000241901
       -0.0001265127  -0.0002166269  -0.0000721944   0.0000993061   0.0001852456
        0.0001816762   0.0001430706   0.0001579902  -0.0002041216  -0.0000737807
       -0.0000485710  -0.0002564290   0.0000415068   0.0000430451   0.0000257737
       -0.0003789378  -0.0000998559  -0.0002086974  -0.0002540569  -0.0001139139
        0.0001237668   0.0000736188   0.0000321262  -0.0000677594   0.0002393967
       -0.0000758729   0.0004163481   0.0001133065   0.0002885044  -0.0004799073
       -0.0001987322  -0.0002868011  -0.0000441106   0.0002006641  -0.0000996705
       -0.0000658294  -0.0002441807  -0.0000408201   0.0002144585  -0.0002243131
        0.0002445349  -0.0003164478   0.0001046985  -0.0002057281  -0.0001465885
       -0.0001519579  -0.0000280173   0.0000908925  -0.0000111532   0.0000299797
        0.0001556128  -0.0002678405   0.0001803292  -0.0000222072   0.0003016541
       -0.0001421991   0.0002232721   0.0001221972   0.0001076497  -0.0003132847
       -0.0001073479   0.0000050394   0.0001083333   0.0001305969  -0.0000214106
       -0.0003877031  -0.0001232277  -0.0003241272  -0.0114263246  -0.0010386328
       -0.0027821033  -0.0023143939   0.0005901145   0.0039950627  -0.0009882243
       -0.0008475773  -0.0007104473  -0.0001254024   0.0029282154   0.0054105138
       -0.0082115677   0.0113963138  -0.0089546878  -0.0569223495   0.0259854326
       -0.0948157665  -0.0006388165  -0.0006359028   0.0021881400  -0.0037696792
       -0.0097033636  -0.0194779953   0.0024365464  -0.0090196230  -0.0166227143
        0.0082519892   0.0028613949  -0.0050222579  -0.0115448516  -0.0009875014
        0.0068266232   0.0220748602   0.0010559814  -0.0157349928   0.0016002577
       -0.0004882559  -0.0018708024  -0.0000497883   0.0007762794  -0.0001078274
        0.0006133014  -0.0002376047  -0.0010548294  -0.0000501408  -0.0004252002
        0.0001436388   0.0000464839   0.0000102957  -0.0000263659   0.0000274786
        0.0000459106   0.0000121935  -0.0000126111   0.0000104013  -0.0000462607
       -0.0000192646   0.0000090829   0.0000050862   0.0000039401   0.0000068343
        0.0000097791   0.0000063110  -0.0000058483  -0.0000191729  -0.0000004366
       -0.0000075059   0.0000124074  -0.0000042960  -0.0000010511  -0.0000080812
        0.0000157999   0.0000036337   0.0000193334  -0.0000020075  -0.0000097308
       -0.0000045679  -0.0000269838  -0.0000086006   0.0000182222  -0.0000010008
       -0.0000053632   0.0000342160   0.0000136127   0.0000288308   0.0000050827
        0.0000449160   0.0000013789  -0.0000029118  -0.0000120216  -0.0000146616
       -0.0000496939   0.0000071755   0.0000120989   0.0000079270   0.0000094478
        0.0000185339  -0.0000107089  -0.0000003230   0.0000000187   0.0000078068
       -0.0000295682   0.0000127723  -0.0000131954  -0.0000113622  -0.0000077569
        0.0000051294   0.0000048294  -0.0000057100   0.0000591273  -0.0000199799
        0.0000048186   0.0000001169   0.0000222341  -0.0000897996  -0.0000301277
       -0.0001842826   0.0000785145   0.0000848135   0.0005726465  -0.0004161878
       -0.0009175161  -0.0002796706   0.0001011380  -0.0000737047   0.0008811199
       -0.0013836160  -0.0018640697
       -0.0038052729   0.0008940253   0.0056676028  -0.1381430288  -0.0054321927
        0.0516925242   0.4604154863  -0.0075102224   0.0422292270  -0.0076905941
       -0.0120908851   0.0068617640  -0.0013438082   0.0015787870  -0.0007493548
       -0.0003671630  -0.0010560009  -0.0003369355   0.0006760842   0.0001099773
        0.0002604598  -0.0001470218   0.0001278873  -0.0004839182   0.0013622907
       -0.0001519573   0.0015798236  -0.0004047528  -0.0004704772   0.0001020764
        0.0000108351  -0.0000453990  -0.0000991923   0.0000487257   0.0000784914
       -0.0000428470  -0.0000819586  -0.0000454770  -0.0000317782   0.0000281771
        0.0000046340   0.0000435719   0.0000821521  -0.0000450263  -0.0000162360
       -0.0000428713   0.0000270470  -0.0000173165  -0.0000388308   0.0000263194
        0.0000143124  -0.0000684794  -0.0000547450  -0.0000179148   0.0000144229
       -0.0001219911  -0.0000540207  -0.0002285095   0.0000251003   0.0000313318
        0.0000470832  -0.0000101931  -0.0000253861   0.0001112355   0.0000445207
        0.0000130439   0.0000628122  -0.0000375581  -0.0001253842  -0.0000268529
        0.0000584238   0.0001121316   0.0000268247   0.0000136998   0.0000219192
       -0.0000621043  -0.0000108148   0.0000068881  -0.0000925205  -0.0000664805
       -0.0001216102  -0.0000170875   0.0000614709   0.0001262866  -0.0000376225
        0.0000214002   0.0000523786   0.0000172622  -0.0000215787  -0.0000387360
       -0.0000969012  -0.0000552475  -0.0000709980   0.0001092237   0.0000365293
        0.0000500546   0.0000932423  -0.0000296429  -0.0000645386   0.0000351043
        0.0001478634  -0.0000052492   0.0000650868   0.0002054423   0.0000637005
       -0.0000669548   0.0000628269  -0.0000046760  -0.0000308257  -0.0000009316
       -0.0000719382  -0.0000184662  -0.0000364140  -0.0000162684   0.0001295513
        0.0000493379   0.0000812502   0.0000660356  -0.0001743915   0.0001030217
       -0.0001623180   0.0000817085  -0.0001041056   0.0001178329   0.0000089167
        0.0000528509   0.0000610381   0.0001467211  -0.0000130734   0.0001002913
       -0.0001048380   0.0001195855  -0.0000926476  -0.0000181653  -0.0000643281
       -0.0000263568   0.0000295464  -0.0000103276  -0.0000620671  -0.0000135530
       -0.0000360442  -0.0000091051  -0.0001952579   0.0000613737   0.0001548792
       -0.0000274360   0.0000119549  -0.0000892357  -0.0000323536  -0.0000270584