94
 energy: -148.314083381522 gnorm: 0.000061645104 xtb: 6.7.1 (edcfbbe)
C            6.82806585174797        1.35829628211653        1.75187503039500
C            6.73869460354584        0.53218963215988        0.45579530314874
C            8.02861321063630        0.69002803373450       -0.36988908667872
C            6.57798126363730       -0.92974504108782        0.82138577990184
C            7.58656321823420       -1.57469816218611        1.52572085745858
C            7.51202682163942       -2.91556319697021        1.85165129728320
C            6.41199204435613       -3.64959159613666        1.44562219686090
C            5.39326466851715       -3.03131234198878        0.75227876987113
C            5.44701369644241       -1.66538986876350        0.45928527004898
N            4.39307008476367       -1.07344532568199       -0.22868675776479
C            3.18734933188040       -1.79061206616793       -0.37990314936199
C            2.44524268925823       -2.14116758631057        0.74849903200179
C            1.19731485097797       -2.71464070842821        0.60142827543837
C            0.70117659417504       -2.94291465695014       -0.66995030517970
S           -1.04379141393444       -3.30837755692707       -0.84413480883772
O           -1.47340312734464       -4.21496523689592        0.18531179627005
O           -1.33156155985055       -3.65155091837976       -2.21084553927049
C           -1.78129068094683       -1.69334652861770       -0.49643421307679
C           -3.12036703964721       -1.65730469254176       -0.17396768450417
C           -3.72863266055056       -0.42832946183977        0.08971689181526
N           -5.08896705670503       -0.37025347534378        0.38167640402173
C           -5.67540727268746        0.33049252955872        1.42262115897106
C           -5.08635570275868        1.07153003678190        2.43625918442038
C           -5.91528216608417        1.64812557973620        3.38065656939438
C           -7.29739063560721        1.48785284152606        3.33085577287775
C           -7.88714260786370        0.72679422684543        2.34119496999402
C           -7.07444329034411        0.13792040440599        1.38203022846368
C           -7.33989200826552       -0.71779960187833        0.25825030168809
C           -8.50704035790928       -1.23193789248002       -0.29088380409562
C           -8.41315947512353       -2.02507483822559       -1.41696662538399
C           -7.17829219756763       -2.29246623176727       -2.00272832747522
C           -6.00326219879417       -1.79104751855802       -1.47446203344374
C           -6.09007248367574       -1.01613687479882       -0.32749533713172
C           -2.96338416100198        0.73633676141177        0.07095746648076
C           -1.60698513929678        0.68061666576844       -0.23206117734545
N           -0.81818278838797        1.83248720807470       -0.21769612738753
C            0.41190507936557        1.94824636023424        0.40911936952161
C            1.09574395863966        1.03164523692127        1.19328724761383
C            2.30685069533034        1.42124890412110        1.73387608743193
C            2.82439412784992        2.69495735558702        1.51896379765331
C            2.13569522768550        3.61960683214787        0.76062090716562
C            0.91971385551618        3.24990593828456        0.20223930094729
C           -0.04845655040598        3.94427109080264       -0.60113890055108
C           -0.09669952078086        5.22260155785000       -1.14098528080210
C           -1.19006916661755        5.57640944952893       -1.90625947625680
C           -2.21831089294846        4.66876000280309       -2.14804302339683
C           -2.19171170044795        3.39030110895555       -1.62278928133611
C           -1.10729326568512        3.03781359302913       -0.83357300521567
C           -1.02034832654683       -0.54476277834170       -0.54863866055273
C            1.45555998662353       -2.67240596817753       -1.79600142851094
C            2.71067997154010       -2.10932271986601       -1.65108493033631
C            4.45058236389031        0.25401511750516       -0.65170423533803
C            3.37989724221863        0.82398313721380       -1.34644297930765
C            3.42302890920483        2.12964416014401       -1.78551580489769
C            4.53679625482075        2.90563163762324       -1.52519780201364
C            5.58271454985284        2.35878937450478       -0.80824070415970
C            5.56669706526497        1.04420407681052       -0.35975695779790
H            6.95840269794173        2.41408315557083        1.53049896475365
H            7.66534795674591        1.03087022228780        2.36226641850315
H            5.91374908855575        1.23807232171384        2.33010832905609
H            8.19453825163113        1.72866865174051       -0.64058109378434
H            8.89385301995364        0.34512744161696        0.18878116128853
H            7.95488410349303        0.10440054588102       -1.28424559354972
H            8.45908782105738       -1.01795567906568        1.83197068868518
H            8.31159553832124       -3.38471407341578        2.40399040767620
H            6.34557803321400       -4.70475554398014        1.66375271370404
H            4.54661026452451       -3.61472656161840        0.42405370362658
H            2.84206117436526       -1.92876964642995        1.72965961314892
H            0.58396105299748       -2.96424684548478        1.45330841282224
H           -3.67164023323622       -2.58100568937864       -0.10715346946375
H           -4.01493628105865        1.18445542456572        2.50330509971707
H           -5.47897901337823        2.23215243016862        4.17737824139015
H           -7.91092720184885        1.95669675582404        4.08544836207807
H           -8.95659152493452        0.58393288317957        2.31305883745308
H           -9.46467295935220       -1.00952407157185        0.15471354129773
H           -9.30754653042056       -2.43857680010011       -1.85828568700095
H           -7.13588893575216       -2.90369121550357       -2.89166593461229
H           -5.05548000265551       -1.99379001749846       -1.94930673913621
H           -3.42516978615404        1.68572116623312        0.29346273411733
H            0.69400246328510        0.04855326697185        1.38757402908391
H            2.85997504539973        0.72323977284868        2.34492048358062
H            3.77441838345029        2.96122223320098        1.95614472914514
H            2.52829075077374        4.61267954153489        0.60601452176284
H            0.70915564339514        5.91914079645833       -0.96659869832340
H           -1.24897586952984        6.56622722273194       -2.33332349790723
H           -3.05382131799384        4.96810831985884       -2.76304268908797
H           -2.98440327849524        2.68933158999445       -1.83568334583659
H            0.01737684127843       -0.57742945892088       -0.83555726409478
H            1.03591858277524       -2.88854320083846       -2.76597832111727
H            3.31394038168283       -1.87881265946595       -2.51623246514888
H            2.49211495899358        0.24433647945306       -1.54098843157251
H            2.58179428819984        2.53874878452826       -2.32447882478019
H            4.58591619820944        3.92858203407056       -1.86477745083770
H            6.43670520696528        2.98138663268403       -0.58893404583550
