$hessian                                                                        
        0.5224024323  -0.0026448575  -0.0001677296  -0.0582472792  -0.0032830016
       -0.0082379124  -0.0025803023   0.0114529525   0.0221800957   0.0011631374
       -0.0050009804  -0.0021260230  -0.0003718282   0.0004990461  -0.0008988415
       -0.0000981422  -0.0003614776   0.0002665527   0.0000880528   0.0001610414
        0.0001322658  -0.0001578486  -0.0000447771   0.0001060102  -0.0002949838
       -0.0006027087  -0.0000716890   0.0001002472  -0.0011082312   0.0005448775
        0.0002394021   0.0001513461   0.0000506570  -0.0000589932  -0.0000305821
       -0.0000522904   0.0000130922  -0.0000013996   0.0000003588  -0.0000469835
       -0.0000099445   0.0000411043   0.0001427034   0.0000294342  -0.0000452196
       -0.0000393107  -0.0000252400   0.0000445269  -0.0000296754  -0.0000088485
        0.0000048144  -0.0000066623   0.0000077405   0.0000000111  -0.0000093730
        0.0000125274   0.0000058500   0.0000178191  -0.0000057059  -0.0000040210
       -0.0000258279   0.0000062064   0.0000126903   0.0000100995  -0.0000098227
       -0.0000123204  -0.0000059545   0.0000004276   0.0000035322   0.0000015286
       -0.0000031221  -0.0000044667  -0.0000009151   0.0000012220   0.0000019616
       -0.0000006882  -0.0000005170  -0.0000008059  -0.0000054725  -0.0000010377
       -0.0000005857   0.0000010218   0.0000007883   0.0000011151  -0.0000023521
       -0.0000005257  -0.0000000764  -0.0000030999   0.0000006916   0.0000014528
        0.0000043241   0.0000002586   0.0000003032   0.0000006651  -0.0000017734
       -0.0000024483   0.0000009203   0.0000055263   0.0000008631   0.0000023383
        0.0000015382   0.0000035815   0.0000019344  -0.0000212092  -0.0000127299
        0.0000466753   0.0000107173   0.0000463241  -0.0000361285  -0.0000121750
       -0.0000282244  -0.0000067186  -0.0000250345   0.0000393988   0.0000231483
        0.0000840204  -0.0000893470   0.0001776193   0.0000133558   0.0000862262
       -0.0000475939  -0.0000340139   0.0000174932   0.0000211057   0.0000357300
        0.0000038802   0.0000025194  -0.0000130827   0.0000091565   0.0000052820
       -0.0000075221   0.0000152303   0.0000047554   0.0000078411   0.0000026862
       -0.0000080650   0.0000003737  -0.0000012708  -0.0000038579  -0.0000080054
        0.0000057109   0.0000237393  -0.0000023681  -0.0000019877   0.0000008088
       -0.0000006400   0.0000081439   0.0000549865   0.0000330599  -0.0000157625
       -0.0000662691  -0.0000561582  -0.0000196501  -0.0010338195   0.0027531165
       -0.0022997100  -0.0008138995  -0.0000250238   0.0008088815  -0.0000255230
        0.0000687375   0.0000234959  -0.0003938207  -0.0000815817   0.0006361247
       -0.0001336650  -0.0006918002  -0.0010751679  -0.0070998673  -0.0088890037
       -0.0221748804  -0.0472132601  -0.0279244851   0.0068357944  -0.1882098593
        0.0579672931  -0.1031500761  -0.2145998802  -0.0239905354   0.1048820267
        0.0006776698   0.0005647744  -0.0000409335   0.0008627276   0.0004253179
        0.0006057434  -0.0039588587   0.0001289195   0.0039734053  -0.0001773004
        0.0007627505   0.0000872921  -0.0000040383   0.0000141857  -0.0000310951
        0.0000281209   0.0000012979  -0.0000207575   0.0000266375  -0.0000438875
       -0.0000759647  -0.0000153712  -0.0000324722   0.0000273095  -0.0000165502
       -0.0000044973   0.0000047911  -0.0000009201   0.0000001193  -0.0000014098
        0.0000024735  -0.0000002097  -0.0000015438  -0.0000005057   0.0000023671
        0.0000025328  -0.0000006621   0.0000000272  -0.0000001583   0.0000008323
        0.0000009549   0.0000002557  -0.0000003135  -0.0000001246  -0.0000008008
        0.0000002478   0.0000012215   0.0000009066  -0.0000003072   0.0000010643
        0.0000011578  -0.0000013304   0.0000007143   0.0000011850  -0.0000042976
        0.0000016112  -0.0000028069  -0.0000048541  -0.0000111390  -0.0000132614
       -0.0001022007  -0.0001189134   0.0000399307  -0.0001335330   0.0001922735
       -0.0001057915   0.0000096639  -0.0000297655   0.0000001136  -0.0000006121
       -0.0000045899  -0.0000066488  -0.0000024933  -0.0000022939  -0.0000005931
        0.0000014807  -0.0000016035  -0.0000002416   0.0000013894   0.0000018054
       -0.0000039169   0.0000044462   0.0000017991  -0.0000067740   0.0000011964
       -0.0000022307   0.0000049247  -0.0000034870   0.0000201169   0.0000313893
       -0.0001372466   0.0000160396  -0.0001843938   0.0000608484  -0.0000600754
       -0.0001651820   0.0000063355  -0.0000074042   0.0000314220   0.0000083735
       -0.0001959531  -0.0004800471
       -0.0026448575   0.5014669492  -0.0419459649   0.0001924642  -0.0923676966
       -0.0510772863   0.0011022011   0.0007524705  -0.0017901426  -0.0041683531
       -0.0273180577  -0.0210180500  -0.0002604062  -0.0005796124  -0.0010067057
       -0.0008428721   0.0002232716   0.0005232498   0.0000215821  -0.0002125221
        0.0001248715  -0.0011922938  -0.0000480459   0.0009455790   0.0025542886
       -0.0035593787   0.0011053405  -0.0008158716   0.0015941341  -0.0010231954
        0.0000204094   0.0000865798   0.0001111445   0.0000182864   0.0000056541
       -0.0000032570   0.0000078117   0.0000025994   0.0000049794  -0.0000121837
        0.0000066423  -0.0000039113   0.0000568460  -0.0000898826  -0.0000013211
       -0.0000190543   0.0000311354  -0.0000091478  -0.0000187633   0.0000219247
        0.0000079375  -0.0000267951  -0.0000068618  -0.0000009352   0.0000130177
        0.0000103522  -0.0000048764  -0.0000336691  -0.0000073726   0.0000081181
        0.0000306760   0.0000054809  -0.0000046698  -0.0000041524   0.0000078242
        0.0000058675  -0.0000026270  -0.0000016362  -0.0000037222  -0.0000025114
        0.0000012588   0.0000021195   0.0000013462   0.0000020174   0.0000016450
       -0.0000011078  -0.0000008478  -0.0000015847   0.0000026980   0.0000029307
        0.0000031617   0.0000035030  -0.0000021078  -0.0000041889  -0.0000019371
        0.0000015426   0.0000007524   0.0000000475  -0.0000002989  -0.0000014874
       -0.0000026178  -0.0000005215  -0.0000018287   0.0000024516   0.0000028410
        0.0000027219  -0.0000115481  -0.0000105623  -0.0000059953   0.0000207919
        0.0000155558   0.0000035088  -0.0000517427  -0.0000715790   0.0000068380
        0.0000895361   0.0000396212   0.0000245081  -0.0000894160  -0.0000480246
       -0.0000165722  -0.0000004366   0.0000125804   0.0000021050   0.0000242380
       -0.0000653098   0.0000259426  -0.0001612546  -0.0001330156  -0.0000493532
        0.0000612901   0.0000951842   0.0000023787   0.0000345138   0.0000024164
        0.0000130054  -0.0000077165   0.0000079516  -0.0000044165   0.0000075276
        0.0000360568  -0.0000100547   0.0000050644   0.0000033075   0.0000008716
       -0.0000003460  -0.0000118494   0.0000054666  -0.0000109211   0.0000083269
       -0.0000112140   0.0000139976  -0.0000004657   0.0000008419   0.0000029175
        0.0000296224  -0.0000015193  -0.0000154505  -0.0000023323  -0.0000120878
        0.0000082675   0.0000212186   0.0000296436   0.0008302040  -0.0017058529
        0.0008895451   0.0000720514   0.0001728916  -0.0004582628   0.0000977082
       -0.0000244864   0.0002296672  -0.0003627868   0.0003620066  -0.0004210896
        0.0008620685  -0.0013244439   0.0010072634  -0.0018400550   0.0060577593
        0.0024542374  -0.0276159190  -0.2696094153   0.0514245013   0.0581884472
       -0.0659202352   0.0427028788  -0.0241836925  -0.0475115168   0.0160014131
       -0.0001964760   0.0005454107   0.0008415104  -0.0001962481   0.0000580769
        0.0000083453  -0.0003639250   0.0004942661   0.0002681183   0.0001394262
       -0.0009798606  -0.0007548289  -0.0000244278   0.0000134066   0.0000254394
        0.0000832353  -0.0000480504  -0.0002085838   0.0000157047  -0.0002776074
       -0.0000473009   0.0000187002  -0.0000171140  -0.0000149842  -0.0000119704
       -0.0000077202  -0.0000001495   0.0000007661  -0.0000008168   0.0000000086
        0.0000023863  -0.0000001730   0.0000008004  -0.0000006050   0.0000005987
        0.0000003223   0.0000005879   0.0000002730  -0.0000008669   0.0000009361
        0.0000008039  -0.0000000352   0.0000002811   0.0000004976  -0.0000004728
        0.0000007488   0.0000008442   0.0000004363   0.0000003486   0.0000003486
        0.0000005377   0.0000015053  -0.0000014684  -0.0000010006  -0.0000019605
        0.0000010439   0.0000020460   0.0000252723   0.0000130268   0.0000095622
        0.0000039784  -0.0000654249   0.0000209570   0.0000890389   0.0001685230
       -0.0000519211   0.0000078001  -0.0000204655   0.0000141489  -0.0000035773
       -0.0000073375   0.0000004485   0.0000035751  -0.0000055036   0.0000042551
        0.0000037405  -0.0000019243   0.0000022629   0.0000058650   0.0000000360
        0.0000031766   0.0000033500  -0.0000144228  -0.0000007157  -0.0000073491
       -0.0000057269  -0.0000009070   0.0000003911  -0.0000125201   0.0000047164
        0.0000875339  -0.0000324847   0.0000414983   0.0000073598   0.0000335392
        0.0000466777   0.0000368301  -0.0000606937  -0.0000544598   0.0003222828
       -0.0002275564   0.0010616946
       -0.0001677296  -0.0419459649   0.4580074638  -0.0023098315  -0.0481042285
       -0.1393981318   0.0050856324  -0.0105346934  -0.0205260806  -0.0001789754
       -0.0054603031   0.0040843400  -0.0006344584   0.0013423371  -0.0005558786
        0.0000129298  -0.0004635179   0.0001204792  -0.0001489627   0.0001336266
       -0.0000042513   0.0002323994  -0.0004441391   0.0000111285   0.0000787082
        0.0015183910  -0.0009084456   0.0005079173  -0.0011387904   0.0003933585
       -0.0000598177   0.0000338655   0.0001202229   0.0000192730  -0.0000099631
       -0.0000140093  -0.0000221211  -0.0000169561   0.0000039795   0.0000034433
       -0.0000055761   0.0000171758  -0.0000535730   0.0000326127   0.0000002730
        0.0000052322  -0.0000196429   0.0000019359   0.0000094001  -0.0000181931
        0.0000028196   0.0000028893   0.0000020142   0.0000016198  -0.0000020117
        0.0000019515   0.0000002030   0.0000061942  -0.0000009668  -0.0000009406
       -0.0000111078  -0.0000013624   0.0000001453   0.0000013636  -0.0000034079
       -0.0000048579   0.0000013006   0.0000008649   0.0000014861  -0.0000005335
       -0.0000000910  -0.0000007724  -0.0000016906   0.0000001672  -0.0000006499
        0.0000009906   0.0000004047  -0.0000010131  -0.0000020925   0.0000006593
        0.0000001341  -0.0000019719   0.0000011717   0.0000003315  -0.0000000888
        0.0000006827  -0.0000008597  -0.0000012728   0.0000008845  -0.0000004929
        0.0000011428   0.0000010189   0.0000001500  -0.0000002770  -0.0000004351
       -0.0000011383   0.0000054180   0.0000051052   0.0000030913  -0.0000109589
       -0.0000063835   0.0000007172   0.0000112406   0.0000219416  -0.0000010410
       -0.0000354637  -0.0000017595  -0.0000205414   0.0000342591   0.0000341145
       -0.0000022449   0.0000376109   0.0000341032   0.0000062612  -0.0000368583
       -0.0000104910   0.0000336536  -0.0001618622   0.0000600676  -0.0000289797
        0.0000257658  -0.0000459451   0.0000270071  -0.0000405317  -0.0000302568
       -0.0000156414   0.0000026501  -0.0000001268   0.0000040241  -0.0000125830
        0.0000033409  -0.0000064008  -0.0000031114  -0.0000088971   0.0000021930
        0.0000066428   0.0000039514   0.0000025544  -0.0000018172   0.0000085989
       -0.0000038362  -0.0000190316  -0.0000029723  -0.0000084557   0.0000176530
       -0.0000120959  -0.0000066732   0.0000058408  -0.0000042213  -0.0000029793
        0.0000523843  -0.0000035716  -0.0000088732   0.0005572133   0.0021584632
       -0.0016505100  -0.0008615856   0.0001875364   0.0004732520  -0.0001693706
       -0.0000830558  -0.0000094106  -0.0003982062  -0.0001452672   0.0005078045
        0.0000486429  -0.0008005010  -0.0003217903  -0.0116351248  -0.0065577610
       -0.0215830274   0.0069805302   0.0520576883  -0.0532316130  -0.1024105355
        0.0424615010  -0.1160141112   0.1045704714   0.0158743240  -0.1071849809
       -0.0007896629  -0.0004744932   0.0004738721  -0.0009364851   0.0001682891
        0.0007221774   0.0031910680  -0.0001188918  -0.0024170054  -0.0002267825
        0.0004775325   0.0000402677   0.0000016113   0.0000081768  -0.0000696692
       -0.0000020441   0.0000311930   0.0000309611   0.0000149536   0.0000815631
        0.0000378847  -0.0000049714   0.0000232254  -0.0000044640  -0.0000113377
       -0.0000067231   0.0000010095  -0.0000045092  -0.0000029161   0.0000013189
        0.0000011934  -0.0000004400  -0.0000006119  -0.0000003177   0.0000002766
       -0.0000000276  -0.0000012536   0.0000008401   0.0000004828  -0.0000019254
        0.0000009763  -0.0000005099  -0.0000018043   0.0000010655  -0.0000008130
       -0.0000013098   0.0000009783  -0.0000012186  -0.0000000716   0.0000001182
       -0.0000018560   0.0000021844   0.0000005910  -0.0000011563   0.0000011684
        0.0000010560   0.0000000649  -0.0000097064  -0.0000011950   0.0000027097
        0.0001091570   0.0001051614  -0.0000478274   0.0000611807  -0.0002266468
        0.0000115463  -0.0000181827   0.0000256069  -0.0000112574   0.0000026324
       -0.0000034516   0.0000002946  -0.0000003833   0.0000044168  -0.0000008172
       -0.0000021894   0.0000019452  -0.0000011869   0.0000010506  -0.0000009670
       -0.0000012310   0.0000052751   0.0000075021   0.0000000749  -0.0000040025
       -0.0000028754   0.0000012393  -0.0000011040   0.0000154577   0.0000167857
       -0.0000969673   0.0000614866  -0.0000678134   0.0000517292  -0.0000571189
       -0.0001247594   0.0000131307  -0.0000221536   0.0000082608  -0.0002729078
       -0.0001994370  -0.0009058986
       -0.0582472792   0.0001924642  -0.0023098315   0.4593837355  -0.0097054529
        0.0188280934  -0.1372913646  -0.0089951372   0.0479900431  -0.0641574596
       -0.0128070538  -0.0009735450   0.0021898892   0.0196531366  -0.0040394611
       -0.0019591020   0.0008386941  -0.0046267893   0.0002528796  -0.0004868351
        0.0003008444  -0.0025270113  -0.0017963276  -0.0041068446  -0.0009930439
       -0.0225995371   0.0049321652   0.0008926680   0.0033941668   0.0012521733
       -0.0000098142   0.0000520172  -0.0000270026   0.0000567369   0.0000480982
       -0.0000435983   0.0000964117   0.0000491062   0.0000641224   0.0000144175
        0.0000093587  -0.0000592625  -0.0000543110  -0.0000873758  -0.0000347606
        0.0000089835   0.0000285657  -0.0000048791   0.0000202664   0.0000122836
        0.0000455844  -0.0000312114  -0.0000111949   0.0000034117   0.0000262801
        0.0000083825  -0.0000106073  -0.0000658758  -0.0000119224   0.0000148687
        0.0000655047   0.0000054967  -0.0000131346  -0.0000110215   0.0000192450
        0.0000149200  -0.0000028366  -0.0000040583  -0.0000089555  -0.0000059705
        0.0000048754   0.0000073308   0.0000011936   0.0000044808   0.0000032977
       -0.0000028113  -0.0000022480  -0.0000046828   0.0000039894   0.0000063830
        0.0000064991   0.0000070350  -0.0000047303  -0.0000107393  -0.0000036311
        0.0000048518   0.0000022166  -0.0000013047  -0.0000002497  -0.0000039053
       -0.0000053396  -0.0000015034  -0.0000052633   0.0000051805   0.0000064285
        0.0000073341  -0.0000263639  -0.0000219704  -0.0000145692   0.0000220407
        0.0000188155   0.0000094713  -0.0000616442  -0.0000786841   0.0000060705
        0.0001368569   0.0000390457   0.0000534126  -0.0001084375  -0.0000579829
       -0.0000211483   0.0000257519  -0.0000470910   0.0000450985  -0.0000154390
        0.0000227789  -0.0001310211  -0.0000149610  -0.0000675986  -0.0000895902
        0.0000233945   0.0000231039  -0.0000243764   0.0000080523   0.0000314161
       -0.0000081440  -0.0000261719  -0.0000140191  -0.0000076632  -0.0000057028
        0.0000523398  -0.0000235192   0.0000148918  -0.0000110101   0.0000126551
        0.0000137435  -0.0000165106   0.0000174767  -0.0000222402   0.0000235401
       -0.0000220313   0.0000192821   0.0000065442  -0.0000043133   0.0000326048
        0.0000230084  -0.0000049773  -0.0000040331   0.0000222635   0.0000283582
        0.0000924396   0.0001750130  -0.0000291753  -0.0234873355   0.0023168791
       -0.0139372711  -0.0005402239  -0.0041995818  -0.0023281999  -0.0004714371
        0.0007625473  -0.0004890354   0.0021258559  -0.0016242938  -0.0019107612
       -0.0015011859   0.0090991215  -0.0038898706  -0.1351134968   0.0299520083
       -0.0540544710  -0.0003449889  -0.0025235062  -0.0025796679  -0.0031935868
       -0.0109700388  -0.0202790865  -0.0002164964   0.0126845117   0.0211669680
       -0.0061240097  -0.0037401945   0.0040578804  -0.0252374363  -0.0010634078
        0.0109741455  -0.0009487216   0.0011632398   0.0026270379  -0.0005005084
        0.0005679788   0.0010299073  -0.0001364647   0.0011251792  -0.0004361217
       -0.0003106940   0.0001954149   0.0005714495  -0.0002674891  -0.0011322162
        0.0002770581  -0.0000260305  -0.0000498883   0.0000425543   0.0000004559
       -0.0000010679   0.0000038824  -0.0000029597  -0.0000024878   0.0000004982
        0.0000036681   0.0000000248   0.0000022899  -0.0000014469   0.0000002954
       -0.0000007657   0.0000017647  -0.0000004284  -0.0000029182   0.0000021325
        0.0000023000  -0.0000011289   0.0000009289   0.0000014295  -0.0000030261
        0.0000024371   0.0000038131   0.0000007732  -0.0000001755   0.0000024680
        0.0000012216   0.0000015334  -0.0000011020  -0.0000021838   0.0000004196
        0.0000008434   0.0000017003   0.0000077645   0.0000125310   0.0000066554
       -0.0000192607  -0.0000567589   0.0001123318   0.0001027717   0.0000427405
        0.0001114387  -0.0000076644  -0.0000139103   0.0000169080  -0.0000036004
       -0.0000087425   0.0000000030   0.0000043613  -0.0000058574   0.0000065582
        0.0000050859  -0.0000038579   0.0000035699   0.0000134092   0.0000007304
        0.0000031298   0.0000118533  -0.0000005065  -0.0000105133   0.0000111546
       -0.0000104575   0.0000099162  -0.0000308049  -0.0000126380   0.0000450466
       -0.0007973881   0.0004062565  -0.0002808281  -0.0001337894   0.0001436210
        0.0006673093   0.0001242113  -0.0003170953   0.0001155769  -0.0007624600
       -0.0006933074   0.0013683822
       -0.0032830016  -0.0923676966  -0.0481042285  -0.0097054529   0.4832968249
       -0.0230385023  -0.0057059286  -0.0615309307   0.0063606306  -0.0140977104
       -0.1790911289   0.0304503755   0.0066269703  -0.0205894818   0.0095691296
        0.0010514167   0.0011456427   0.0024158173   0.0002702222  -0.0008938866
        0.0003516689  -0.0029028841   0.0010391830   0.0003377803  -0.0111058161
       -0.0200595278   0.0007465499   0.0031993269  -0.0014476651   0.0007596434
       -0.0000762563  -0.0000802422   0.0001820891   0.0001451612  -0.0000011944
       -0.0000162273  -0.0000064269  -0.0000226823  -0.0000246862   0.0000397427
        0.0000035935   0.0000519639  -0.0001476587   0.0000739731  -0.0000105922
        0.0000371242  -0.0000210286  -0.0000054961   0.0000346958  -0.0000215432
        0.0000137094   0.0000176742  -0.0000036767   0.0000046119  -0.0000088695
       -0.0000163476   0.0000004746   0.0000042333   0.0000115645  -0.0000013596
       -0.0000028922  -0.0000080702  -0.0000052540  -0.0000011765   0.0000006441
       -0.0000003209   0.0000015530  -0.0000003680   0.0000013746   0.0000002368
        0.0000002592   0.0000006693  -0.0000003626   0.0000004320  -0.0000006706
       -0.0000008094   0.0000016591   0.0000003888   0.0000015109   0.0000011120
       -0.0000007655  -0.0000027202   0.0000008012  -0.0000012518   0.0000007844
        0.0000018856  -0.0000007579  -0.0000005016   0.0000018248  -0.0000009104
       -0.0000017690   0.0000014862  -0.0000000367  -0.0000013137   0.0000000418
       -0.0000001245   0.0000055581   0.0000045463   0.0000023724  -0.0000198054
       -0.0000110354  -0.0000001805   0.0000359825   0.0000639402  -0.0000011008
       -0.0000846149  -0.0000429209  -0.0000262638   0.0000890391   0.0000284606
        0.0000280498  -0.0000005915  -0.0000091050   0.0000015853  -0.0000101355
        0.0000638290  -0.0000324283   0.0000268725   0.0000311107   0.0000886469
       -0.0000007488  -0.0000677537   0.0000234942  -0.0000242012  -0.0000353327
        0.0000001558  -0.0000015779  -0.0000026893  -0.0000056636  -0.0000024866
       -0.0000192241  -0.0000005479  -0.0000025822  -0.0000040992  -0.0000019278
        0.0000053140   0.0000154870  -0.0000060954   0.0000052681  -0.0000074410
        0.0000059780  -0.0000184535   0.0000047306  -0.0000061428   0.0000224898
       -0.0000318380  -0.0000041523   0.0000569686   0.0000093477  -0.0000031031
        0.0001128314   0.0000025987   0.0000740008  -0.0085722967   0.0093058253
       -0.0073677962  -0.0031944922  -0.0016809378   0.0012944033   0.0000617224
        0.0003883385  -0.0001662375  -0.0021526525  -0.0041540877   0.0027770110
        0.0217709101  -0.0145340758   0.0164087670   0.0317294911  -0.0777916945
        0.0255464980  -0.0021767261  -0.0204452097  -0.0241488491  -0.0004870206
        0.0039479550   0.0056625518   0.0011487969   0.0007539707   0.0002341637
       -0.0236721367  -0.0058360031   0.0159490884   0.0080379166   0.0006348187
       -0.0049368249   0.0125710238   0.0010632292  -0.0089339173  -0.0008439631
        0.0000713787  -0.0013622184  -0.0001501663  -0.0004129080   0.0000206018
        0.0001804582   0.0001344764  -0.0004083410   0.0001520551  -0.0004750359
        0.0001112354  -0.0000459858  -0.0000042980  -0.0000227205  -0.0000020058
        0.0000049446  -0.0000039401  -0.0000023545   0.0000004875   0.0000004447
        0.0000001405   0.0000001798  -0.0000007280   0.0000001863  -0.0000003421
       -0.0000012034  -0.0000001355   0.0000011998  -0.0000007176  -0.0000005212
        0.0000019800  -0.0000009162  -0.0000006436   0.0000023320  -0.0000013298
       -0.0000009416   0.0000023666  -0.0000016396  -0.0000009307   0.0000013239
       -0.0000017354   0.0000012098   0.0000013185  -0.0000005149   0.0000036841
       -0.0000010212  -0.0000006895  -0.0000206377  -0.0000112524  -0.0000056532
       -0.0000065135   0.0000496787   0.0000015911  -0.0000123462  -0.0001058786
       -0.0000768753  -0.0000035114   0.0000108017   0.0000116166   0.0000014724
        0.0000018856   0.0000056714   0.0000018059   0.0000007519  -0.0000001206
        0.0000022273   0.0000019271   0.0000017531   0.0000003670  -0.0000001617
       -0.0000005977   0.0000077542   0.0000196981  -0.0000023473   0.0000050085
        0.0000045494   0.0000026504  -0.0000275708   0.0000161192  -0.0000078226
       -0.0008152704   0.0001906881  -0.0004912193   0.0001618693  -0.0001129124
       -0.0004081612   0.0009662328  -0.0007228046   0.0007476411   0.0008102617
        0.0002583301  -0.0005949420
       -0.0082379124  -0.0510772863  -0.1393981318   0.0188280934  -0.0230385023
        0.4422528762   0.0533492748   0.0091812132  -0.0925177715   0.0004035208
        0.0327616072  -0.0639741341  -0.0007290418   0.0160986433  -0.0055007610
       -0.0049276021   0.0015643692   0.0036384297   0.0005185376  -0.0001815690
        0.0002790635  -0.0038701984   0.0008816269   0.0042522222   0.0004513062
       -0.0058403155   0.0034688406   0.0013863425   0.0006127115  -0.0029036196
       -0.0001881419   0.0000574491   0.0001138186   0.0001274488   0.0000466549
        0.0000483757   0.0000170749  -0.0000269069  -0.0000666306   0.0000293239
        0.0000056668   0.0000324874  -0.0001037290   0.0000385129   0.0000886125
        0.0000257610  -0.0000029764  -0.0000388283   0.0000222920  -0.0000280781
       -0.0000479110   0.0000091907   0.0000020596  -0.0000039175   0.0000007255
       -0.0000069426  -0.0000019351   0.0000126515   0.0000082475  -0.0000015121
       -0.0000123966  -0.0000082762  -0.0000086464  -0.0000031733  -0.0000014563
        0.0000011266   0.0000059964   0.0000017328   0.0000007295   0.0000033444
        0.0000014375   0.0000005700  -0.0000029440  -0.0000005087  -0.0000012543
        0.0000002165   0.0000012620   0.0000006726   0.0000015934  -0.0000001297
       -0.0000012149  -0.0000049448   0.0000015337   0.0000019196   0.0000024382
        0.0000012548   0.0000004137  -0.0000005477   0.0000000138  -0.0000009861
        0.0000013369   0.0000015626   0.0000012572  -0.0000025518   0.0000003273
       -0.0000006721   0.0000147457   0.0000077571   0.0000085626  -0.0000228434
       -0.0000153812  -0.0000023637   0.0000327553   0.0000724405   0.0000070898
       -0.0001087168  -0.0000370351  -0.0000688571   0.0001072574   0.0000124271
        0.0000581584  -0.0000065478   0.0000173899  -0.0000316371   0.0000117881
       -0.0000130320   0.0000335087  -0.0000163810  -0.0000006041   0.0000177519
        0.0000642798   0.0000122210   0.0000191217  -0.0000310752  -0.0000578258
       -0.0000073465  -0.0000115386   0.0000056079  -0.0000089154  -0.0000055231
        0.0000043571  -0.0000097754  -0.0000124533  -0.0000163040  -0.0000043964
        0.0000132593   0.0000028187   0.0000043514   0.0000090186   0.0000151996
       -0.0000057224  -0.0000426482  -0.0000067748   0.0000013704   0.0000108089
       -0.0000209311  -0.0000116181   0.0000314772  -0.0000189760  -0.0000426453
        0.0000254920  -0.0000561698   0.0000961409  -0.0092569527  -0.0005961139
       -0.0030351658  -0.0022785690   0.0006931015   0.0049364123  -0.0003567023
        0.0000911750  -0.0002396378  -0.0013121115   0.0028675699   0.0048608745
       -0.0082517434   0.0098783910  -0.0083467424  -0.0551555052   0.0244201236
       -0.0927973261  -0.0004407997  -0.0001746262   0.0031266265  -0.0043941710
       -0.0090902940  -0.0183938055   0.0021081876  -0.0095694499  -0.0175863026
        0.0080515428   0.0030124608  -0.0054269859  -0.0109386387  -0.0010319584
        0.0071842459   0.0218175031   0.0007446998  -0.0171183946   0.0014756496
       -0.0004687037  -0.0018847906  -0.0001021265   0.0007231741  -0.0000819293
        0.0006243333  -0.0002975095  -0.0011314466   0.0000703349  -0.0004741163
       -0.0003121104   0.0000382061   0.0000186807  -0.0000629903   0.0000080143
       -0.0000013410  -0.0000046167  -0.0000023643  -0.0000014310   0.0000027697
       -0.0000033347  -0.0000007195   0.0000004448  -0.0000008136  -0.0000017594
       -0.0000023989  -0.0000006865  -0.0000001892   0.0000001749  -0.0000022246
        0.0000000657  -0.0000002585  -0.0000009638   0.0000000163  -0.0000004806
       -0.0000013353  -0.0000002838  -0.0000009217  -0.0000005488  -0.0000013428
       -0.0000020709   0.0000018867   0.0000002266   0.0000000643   0.0000042357
       -0.0000004716   0.0000001356  -0.0000053971   0.0000060788   0.0000094320
        0.0000360129   0.0000332825  -0.0000375774  -0.0000267026  -0.0000547056
       -0.0000556868  -0.0000105741   0.0000054818  -0.0000003626   0.0000001813
       -0.0000056392   0.0000047355  -0.0000025564   0.0000067867  -0.0000003845
       -0.0000061914   0.0000026808  -0.0000022090  -0.0000026894  -0.0000030577
        0.0000006849   0.0000029982   0.0000058249   0.0000097932  -0.0000016725
       -0.0000091091  -0.0000005024  -0.0000378563  -0.0000168643  -0.0000549302
        0.0001078079   0.0000613074  -0.0003545450   0.0006036476  -0.0004327048
       -0.0010490613  -0.0003320687   0.0001174593  -0.0000446666   0.0007983172
       -0.0014183195  -0.0018743603
       -0.0025803023   0.0011022011   0.0050856324  -0.1372913646  -0.0057059286
        0.0533492748   0.4650601213  -0.0067769326   0.0424992457  -0.0064652020
       -0.0108191830   0.0069100785  -0.0010876095   0.0012645864  -0.0004743271
        0.0000560550  -0.0005361359  -0.0001587909  -0.0000176276   0.0000625876
       -0.0002130212   0.0000203845  -0.0005651085  -0.0001385799   0.0001273175
        0.0004458213   0.0008080307   0.0003028179  -0.0008636457   0.0005178301
        0.0001235951   0.0000195660  -0.0000701518   0.0000148342  -0.0000139632
       -0.0000047448   0.0000144881   0.0000061053   0.0000114205  -0.0000011515
       -0.0000115633  -0.0000241285   0.0000097125   0.0000454896   0.0000092211
       -0.0000109386  -0.0000271294   0.0000069438  -0.0000080545  -0.0000263110
       -0.0000165616  -0.0000041870   0.0000042321   0.0000012925  -0.0000068387
        0.0000073816   0.0000026877   0.0000184704  -0.0000042665  -0.0000034411
       -0.0000238810  -0.0000017544   0.0000023309   0.0000050309  -0.0000075606
       -0.0000089567   0.0000032588   0.0000021553   0.0000040152   0.0000020764
       -0.0000010077  -0.0000021351  -0.0000029203   0.0000001224  -0.0000001808
       -0.0000009206   0.0000008436   0.0000001251  -0.0000036026  -0.0000009573
       -0.0000017345  -0.0000043266   0.0000012771   0.0000011793   0.0000003015
        0.0000004368  -0.0000006948  -0.0000027324   0.0000010964   0.0000003016
        0.0000031431   0.0000013372   0.0000006236  -0.0000008129  -0.0000017745
       -0.0000032077   0.0000120592   0.0000105136   0.0000072946  -0.0000135614
       -0.0000073127   0.0000010057   0.0000132531   0.0000174956  -0.0000041920
       -0.0000247020  -0.0000013215  -0.0000095941   0.0000384044   0.0000028819
        0.0000136689   0.0000274105   0.0000203985   0.0000332739   0.0000100260
        0.0000141999  -0.0000046141  -0.0000093409  -0.0000166651  -0.0000104196
        0.0000360594  -0.0000267433   0.0000390761  -0.0000049080  -0.0000131782
        0.0000092713   0.0000017141  -0.0000031156   0.0000059102  -0.0000085357
        0.0000083719  -0.0000037640  -0.0000032274  -0.0000096340   0.0000025688
        0.0000055335   0.0000038244   0.0000027890  -0.0000029476   0.0000092385
       -0.0000041411  -0.0000149427  -0.0000031548  -0.0000104149   0.0000204049
       -0.0000152995  -0.0000064438  -0.0000275225  -0.0000027475  -0.0000072813