      -----------------------------------------------------------      
     |                   =====================                   |     
     |                           x T B                           |     
     |                   =====================                   |     
     |                         S. Grimme                         |     
     |          Mulliken Center for Theoretical Chemistry        |     
     |                    University of Bonn                     |     
      -----------------------------------------------------------      

   * xtb version 6.7.1 (edcfbbe) compiled by 'albert@albert-system' on 2024-07-22

   xtb is free software: you can redistribute it and/or modify it under
   the terms of the GNU Lesser General Public License as published by
   the Free Software Foundation, either version 3 of the License, or
   (at your option) any later version.
   
   xtb is distributed in the hope that it will be useful,
   but WITHOUT ANY WARRANTY; without even the implied warranty of
   MERCHANTABILITY or FITNESS FOR A PARTICULAR PURPOSE.  See the
   GNU Lesser General Public License for more details.
   
   Cite this work as:
   * C. Bannwarth, E. Caldeweyher, S. Ehlert, A. Hansen, P. Pracht,
     J. Seibert, S. Spicher, S. Grimme, WIREs Comput. Mol. Sci., 2020, 11,
     e01493. DOI: 10.1002/wcms.1493
   
   for GFN2-xTB:
   * C. Bannwarth, S. Ehlert and S. Grimme., J. Chem. Theory Comput., 2019,
     15, 1652-1671. DOI: 10.1021/acs.jctc.8b01176
   for GFN1-xTB:
   * S. Grimme, C. Bannwarth, P. Shushkov, J. Chem. Theory Comput., 2017,
     13, 1989-2009. DOI: 10.1021/acs.jctc.7b00118
   for GFN0-xTB:
   * P. Pracht, E. Caldeweyher, S. Ehlert, S. Grimme, ChemRxiv, 2019, preprint.
     DOI: 10.26434/chemrxiv.8326202.v1
   for GFN-FF:
   * S. Spicher and S. Grimme, Angew. Chem. Int. Ed., 2020, 59, 15665-15673.
     DOI: 10.1002/anie.202004239
   
   for ALPB and GBSA implicit solvation:
   * S. Ehlert, M. Stahn, S. Spicher, S. Grimme, J. Chem. Theory Comput.,
     2021, 17, 4250-4261. DOI: 10.1021/acs.jctc.1c00471
   
   for ddCOSMO and CPCM-X implicit solvation:
   * M. Stahn, S. Ehlert, S. Grimme, J. Phys. Chem. A,
     2023, XX, XXXX-XXXX. DOI: 10.1021/acs.jpca.3c04382
   
   for DFT-D4:
   * E. Caldeweyher, C. Bannwarth and S. Grimme, J. Chem. Phys., 2017,
     147, 034112. DOI: 10.1063/1.4993215
   * E. Caldeweyher, S. Ehlert, A. Hansen, H. Neugebauer, S. Spicher,
     C. Bannwarth and S. Grimme, J. Chem. Phys., 2019, 150, 154122.
     DOI: 10.1063/1.5090222
   * E. Caldeweyher, J.-M. Mewes, S. Ehlert and S. Grimme, Phys. Chem. Chem. Phys.
     2020, 22, 8499-8512. DOI: 10.1039/D0CP00502A
   
   for sTDA-xTB:
   * S. Grimme and C. Bannwarth, J. Chem. Phys., 2016, 145, 054103.
     DOI: 10.1063/1.4959605
   
   in the mass-spec context:
   * V. Asgeirsson, C. Bauer and S. Grimme, Chem. Sci., 2017, 8, 4879.
     DOI: 10.1039/c7sc00601b
   * J. Koopman and S. Grimme, ACS Omega 2019, 4, 12, 15120-15133.
     DOI: 10.1021/acsomega.9b02011
   
   for metadynamics refer to:
   * S. Grimme, J. Chem. Theory Comput., 2019, 155, 2847-2862
     DOI: 10.1021/acs.jctc.9b00143
   
   for SPH calculations refer to:
   * S. Spicher and S. Grimme, J. Chem. Theory Comput., 2021, 17, 1701-1714
     DOI: 10.1021/acs.jctc.0c01306
   
   for ONIOM refer to:
   * C. Plett, A. Katbashev, S. Ehlert, S. Grimme, M. Bursch,
     Phys. Chem. Chem. Phys., 2023, 25, 17860-17868. DOI: 10.1039/D3CP02178E
   
   for DIPRO refer to:
   * J. Kohn, N. Gildemeister, S. Grimme, D. Fazzi, A. Hansen,
     J. Chem. Phys., 2023, just accepted.
   
   for PTB refer to:
   * S. Grimme, M. Mueller, A. Hansen, J. Chem. Phys., 2023, 158, 124111.
     DOI: 10.1063/5.0137838
   
   with help from (in alphabetical order)
   P. Atkinson, C. Bannwarth, F. Bohle, G. Brandenburg, E. Caldeweyher
   M. Checinski, S. Dohm, S. Ehlert, S. Ehrlich, I. Gerasimov, C. Hölzer
   A. Katbashev, J. Kohn, J. Koopman, C. Lavigne, S. Lehtola, F. März, M. Müller,
   F. Musil, H. Neugebauer, J. Pisarek, C. Plett, P. Pracht, F. Pultar,
   J. Seibert, P. Shushkov, S. Spicher, M. Stahn, M. Steiner, T. Strunk,
   J. Stückrath, T. Rose, and J. Unsleber
   
 * started run on 2025/09/09 at 05:52:00.854     
   ID    Z sym.   atoms
    1    7 N      1, 5, 13, 22, 30, 39, 47
    2    6 C      2-4, 6-12, 14-21, 23-29, 31-38, 40-46, 48-53
    3    1 H      54-82

           -------------------------------------------------
          |                Calculation Setup                |
           -------------------------------------------------

          program call               : xtb data2507/toluene/iTPBI-CN/iTPBI-CN_toluene_S0_crest.xyz --gfn 2 --gbsa toluene --ohess vtight --parallel 40 --molden --ceasefiles --namespace data2507/toluene/iTPBI-CN/iTPBI-CN_toluene_S0_finalOpt
          calculation namespace      : data2507/toluene/iTPBI-CN/iTPBI-CN_toluene_S0_finalOpt
          coordinate file            : data2507/toluene/iTPBI-CN/iTPBI-CN_toluene_S0_crest.xyz
          omp threads                :                    40


           -------------------------------------------------
          |                 G F N 2 - x T B                 |
           -------------------------------------------------

        Reference                      10.1021/acs.jctc.8b01176
      * Hamiltonian:
        H0-scaling (s, p, d)           1.850000    2.230000    2.230000
        zeta-weighting                 0.500000
      * Dispersion:
        s8                             2.700000
        a1                             0.520000
        a2                             5.000000
        s9                             5.000000
      * Repulsion:
        kExp                           1.500000    1.000000
        rExp                           1.000000
      * Coulomb:
        alpha                          2.000000
        third order                    shell-resolved
        anisotropic                    true
        a3                             3.000000
        a5                             4.000000
        cn-shift                       1.200000
        cn-exp                         4.000000
        max-rad                        5.000000

      * Solvation model:               GBSA
        Solvent                        toluene
        Parameter file                 internal GFN2-xTB/GBSA
        Dielectric constant                7.0000E+00
        Reference state                gsolv [1 M gas/solution]
        Free energy shift                  4.5239E-03 Eh       2.8388E+00 kcal/mol
        Temperature                        2.9815E+02 K
        Density                            8.6700E-01 kg/L
        Solvent mass                       9.2140E+01 g/mol
        Interaction kernel             Still
        Born radius scaling (c1)           1.5686E+00
        Born radii integrator          GBOBC
        Born offset                        0.0000E+00 a0       0.0000E+00 AA
        H-bond correction              false
        Ion screening                  false
        Surface tension                    1.0000E-05 Eh       1.5569E+01 dyn/cm
        Grid points                               230 per atom

          ...................................................
          :                      SETUP                      :
          :.................................................:
          :  # basis functions                 241          :
          :  # atomic orbitals                 241          :
          :  # shells                          135          :
          :  # electrons                       248          :
          :  max. iterations                   250          :
          :  Hamiltonian                  GFN2-xTB          :
          :  restarted?                      false          :
          :  GBSA solvation                   true          :
          :  PC potential                    false          :
          :  electronic temp.          300.0000000     K    :
          :  accuracy                    1.0000000          :
          :  -> integral cutoff          0.2500000E+02      :
          :  -> integral neglect         0.1000000E-07      :
          :  -> SCF convergence          0.1000000E-05 Eh   :
          :  -> wf. convergence          0.1000000E-03 e    :
          :  Broyden damping             0.4000000          :
          :  net charge                          0          :
          :  unpaired electrons                  0          :
          ...................................................

 iter      E             dE          RMSdq      gap      omega  full diag
   1   -136.1551052 -0.136155E+03  0.426E+00    2.81       0.0  T
   2   -136.2949994 -0.139894E+00  0.262E+00    2.44       1.0  T
   3   -136.2672105  0.277889E-01  0.134E+00    2.52       1.0  T
   4   -136.3314663 -0.642558E-01  0.345E-01    2.37       1.0  T
   5   -136.3382871 -0.682075E-02  0.140E-01    2.29       1.0  T
   6   -136.3393751 -0.108803E-02  0.866E-02    2.36       1.0  T
   7   -136.3398401 -0.464956E-03  0.205E-02    2.36       1.0  T
   8   -136.3398450 -0.496208E-05  0.113E-02    2.36       1.0  T
   9   -136.3398479 -0.287436E-05  0.364E-03    2.36       3.0  T
  10   -136.3398485 -0.539481E-06  0.179E-03    2.36       6.2  T
  11   -136.3398486 -0.124902E-06  0.834E-04    2.36      13.2  T
  12   -136.3398486 -0.100250E-07  0.438E-04    2.36      25.2  T

   *** convergence criteria satisfied after 12 iterations ***

         #    Occupation            Energy/Eh            Energy/eV
      -------------------------------------------------------------
         1        2.0000           -0.7203706             -19.6023
       ...           ...                  ...                  ...
       118        2.0000           -0.4005222             -10.8988
       119        2.0000           -0.3982655             -10.8374
       120        2.0000           -0.3980723             -10.8321
       121        2.0000           -0.3976957             -10.8219
       122        2.0000           -0.3965030             -10.7894
       123        2.0000           -0.3960947             -10.7783
       124        2.0000           -0.3958677             -10.7721 (HOMO)
       125                         -0.3091463              -8.4123 (LUMO)
       126                         -0.2869292              -7.8077
       127                         -0.2756363              -7.5004
       128                         -0.2726811              -7.4200
       129                         -0.2693407              -7.3291
       ...                                ...                  ...
       241                          1.1385063              30.9803
      -------------------------------------------------------------
                  HL-Gap            0.0867214 Eh            2.3598 eV
             Fermi-level           -0.3525070 Eh           -9.5922 eV

 SCC (total)                   0 d,  0 h,  0 min,  0.161 sec
 SCC setup                      ...        0 min,  0.008 sec (  4.817%)
 Dispersion                     ...        0 min,  0.004 sec (  2.178%)
 classical contributions        ...        0 min,  0.000 sec (  0.073%)
 integral evaluation            ...        0 min,  0.008 sec (  5.208%)
 iterations                     ...        0 min,  0.128 sec ( 79.353%)
 molecular gradient             ...        0 min,  0.013 sec (  7.914%)
 printout                       ...        0 min,  0.001 sec (  0.397%)

         :::::::::::::::::::::::::::::::::::::::::::::::::::::
         ::                     SUMMARY                     ::
         :::::::::::::::::::::::::::::::::::::::::::::::::::::
         :: total energy            -133.868179575105 Eh    ::
         :: total w/o Gsasa/hb      -133.819630736281 Eh    ::
         :: gradient norm              0.008095399609 Eh/a0 ::
         :: HOMO-LUMO gap              2.359810686176 eV    ::
         ::.................................................::
         :: SCC energy              -136.335729193198 Eh    ::
         :: -> isotropic ES            0.058326263134 Eh    ::
         :: -> anisotropic ES          0.011634892911 Eh    ::
         :: -> anisotropic XC          0.096474765663 Eh    ::
         :: -> dispersion             -0.131482572565 Eh    ::
         :: -> Gsolv                  -0.056799158282 Eh    ::
         ::    -> Gelec               -0.008250319458 Eh    ::
         ::    -> Gsasa               -0.053072718697 Eh    ::
         ::    -> Ghb                  0.000000000000 Eh    ::
         ::    -> Gshift               0.004523879872 Eh    ::
         :: repulsion energy           2.467549618093 Eh    ::
         :: add. restraining           0.000000000000 Eh    ::
         :: total charge               0.000000000000 e     ::
         :::::::::::::::::::::::::::::::::::::::::::::::::::::

      ----------------------------------------------------------- 
     |                   =====================                   |
     |                        A N C O P T                        |
     |                   =====================                   |
     |               Approximate Normal Coordinate               |
     |                Rational Function Optimizer                |
      ----------------------------------------------------------- 

Optimization log is written to '/dev/null'
      ----------------------------------------------------------- 
     |                   =====================                   |
     |                        A N C O P T                        |
     |                   =====================                   |
     |               Approximate Normal Coordinate               |
     |                Rational Function Optimizer                |
      ----------------------------------------------------------- 

          ...................................................
          :                      SETUP                      :
          :.................................................:
          :   optimization level         verytight          :
          :   max. optcycles                  1640          :
          :   ANC micro-cycles                  20          :
          :   degrees of freedom               240          :
          :.................................................:
          :   RF solver                   davidson          :
          :   write xtbopt.log                true          :
          :   linear?                        false          :
          :   energy convergence         0.1000000E-06 Eh   :
          :   grad. convergence          0.2000000E-03 Eh/α :
          :   maxmium RF displ.          1.0000000          :
          :   Hlow (freq-cutoff)         0.1000000E-01      :
          :   Hmax (freq-cutoff)         5.0000000          :
          :   S6 in model hess.         20.0000000          :
          ...................................................

generating ANC from exact Hessian ...
Using Lindh-Hessian (1995)
 Shifting diagonal of input Hessian by   9.919873040676354E-003
 Lowest  eigenvalues of input Hessian
    0.000000    0.000000    0.000000    0.000000    0.000000    0.000000
    0.010000    0.010087    0.010173    0.010380    0.010465    0.010718
    0.010911    0.011063    0.011193    0.011314    0.011369    0.011759
 Highest eigenvalues
    2.217646    2.219444    2.232673    2.273922    2.278583    2.631948
 

........................................................................
.............................. CYCLE    1 ..............................
........................................................................

 iter      E             dE          RMSdq      gap      omega  full diag
   1   -136.3398486 -0.136340E+03  0.164E-04    2.36       0.0  T
   2   -136.3398486 -0.630223E-09  0.107E-04    2.36     103.1  T
   3   -136.3398486 -0.633918E-09  0.588E-05    2.36     187.8  T
     SCC iter.                  ...        0 min,  0.032 sec
     gradient                   ...        0 min,  0.012 sec
 * total energy  :  -133.8681796 Eh     change       -0.4711040E-08 Eh
   gradient norm :     0.0080940 Eh/α   predicted     0.0000000E+00 (-100.00%)
   displ. norm   :     0.0621434 α      lambda       -0.7956180E-04
   maximum displ.:     0.0225752 α      in ANC's #7, #18, #43, ...

........................................................................
.............................. CYCLE    2 ..............................
........................................................................

 iter      E             dE          RMSdq      gap      omega  full diag
   1   -136.3356006 -0.136336E+03  0.164E-02    2.36       0.0  T
   2   -136.3356033 -0.272047E-05  0.995E-03    2.36       1.1  T
   3   -136.3356028  0.534423E-06  0.468E-03    2.36       2.4  T
   4   -136.3356034 -0.660239E-06  0.208E-03    2.36       5.3  T
   5   -136.3356038 -0.334240E-06  0.648E-04    2.36      17.0  T
   6   -136.3356038 -0.306999E-07  0.190E-04    2.36      58.1  T
     SCC iter.                  ...        0 min,  0.057 sec
     gradient                   ...        0 min,  0.011 sec
 * total energy  :  -133.8682768 Eh     change       -0.9725866E-04 Eh
   gradient norm :     0.0037555 Eh/α   predicted    -0.6512933E-04 ( -33.03%)
   displ. norm   :     0.1076977 α      lambda       -0.9854551E-04
   maximum displ.:     0.0479619 α      in ANC's #7, #18, #9, ...

........................................................................
.............................. CYCLE    3 ..............................
........................................................................

 iter      E             dE          RMSdq      gap      omega  full diag
   1   -136.3321459 -0.136332E+03  0.217E-02    2.36       0.0  T
   2   -136.3321506 -0.472459E-05  0.130E-02    2.36       1.0  T
   3   -136.3321499  0.718520E-06  0.586E-03    2.36       1.9  T
   4   -136.3321508 -0.867737E-06  0.265E-03    2.36       4.2  T
   5   -136.3321514 -0.563607E-06  0.760E-04    2.36      14.5  T
   6   -136.3321514 -0.420153E-07  0.232E-04    2.36      47.7  T
     SCC iter.                  ...        0 min,  0.057 sec
     gradient                   ...        0 min,  0.011 sec
 * total energy  :  -133.8683378 Eh     change       -0.6093147E-04 Eh
   gradient norm :     0.0017144 Eh/α   predicted    -0.4984459E-04 ( -18.20%)
   displ. norm   :     0.1142013 α      lambda       -0.2801456E-04
   maximum displ.:     0.0592907 α      in ANC's #7, #9, #18, ...

........................................................................
.............................. CYCLE    4 ..............................
........................................................................

 iter      E             dE          RMSdq      gap      omega  full diag
   1   -136.3315993 -0.136332E+03  0.211E-02    2.36       0.0  T
   2   -136.3316007 -0.136826E-05  0.124E-02    2.37       1.0  T
   3   -136.3315999  0.813246E-06  0.381E-03    2.36       2.9  T
   4   -136.3316008 -0.852066E-06  0.146E-03    2.37       7.6  T
   5   -136.3316009 -0.188865E-06  0.415E-04    2.36      26.6  T
   6   -136.3316010 -0.107423E-07  0.169E-04    2.36      65.3  T
     SCC iter.                  ...        0 min,  0.057 sec
     gradient                   ...        0 min,  0.011 sec
 * total energy  :  -133.8683681 Eh     change       -0.3029912E-04 Eh
   gradient norm :     0.0028776 Eh/α   predicted    -0.1443107E-04 ( -52.37%)
   displ. norm   :     0.0872121 α      lambda       -0.3009068E-04
   maximum displ.:     0.0463165 α      in ANC's #7, #9, #11, ...

........................................................................
.............................. CYCLE    5 ..............................
........................................................................

 iter      E             dE          RMSdq      gap      omega  full diag
   1   -136.3325055 -0.136333E+03  0.178E-02    2.36       0.0  T
   2   -136.3325056 -0.102998E-06  0.105E-02    2.36       1.1  T
   3   -136.3325054  0.216543E-06  0.155E-03    2.36       7.1  T
   4   -136.3325057 -0.261628E-06  0.308E-04    2.36      35.8  T
   5   -136.3325057 -0.227072E-08  0.197E-04    2.36      56.1  T
     SCC iter.                  ...        0 min,  0.048 sec
     gradient                   ...        0 min,  0.011 sec
 * total energy  :  -133.8683930 Eh     change       -0.2490873E-04 Eh
   gradient norm :     0.0021630 Eh/α   predicted    -0.1516027E-04 ( -39.14%)
   displ. norm   :     0.1557188 α      lambda       -0.4068413E-04
   maximum displ.:     0.0828181 α      in ANC's #7, #9, #11, ...

........................................................................
.............................. CYCLE    6 ..............................
........................................................................

 iter      E             dE          RMSdq      gap      omega  full diag
   1   -136.3335715 -0.136334E+03  0.330E-02    2.36       0.0  T
   2   -136.3335718 -0.367575E-06  0.193E-02    2.36       1.0  T
   3   -136.3335714  0.447154E-06  0.236E-03    2.36       4.7  T
   4   -136.3335719 -0.537375E-06  0.680E-04    2.36      16.2  T
   5   -136.3335720 -0.294914E-07  0.337E-04    2.36      32.8  T
     SCC iter.                  ...        0 min,  0.048 sec
     gradient                   ...        0 min,  0.012 sec
 * total energy  :  -133.8684211 Eh     change       -0.2809122E-04 Eh
   gradient norm :     0.0014138 Eh/α   predicted    -0.2083754E-04 ( -25.82%)
   displ. norm   :     0.1663174 α      lambda       -0.1713115E-04
   maximum displ.:     0.0915471 α      in ANC's #7, #11, #9, ...

........................................................................
.............................. CYCLE    7 ..............................
........................................................................

 iter      E             dE          RMSdq      gap      omega  full diag
   1   -136.3338154 -0.136334E+03  0.356E-02    2.36       0.0  T
   2   -136.3338158 -0.404715E-06  0.209E-02    2.36       1.0  T
   3   -136.3338155  0.289365E-06  0.206E-03    2.36       5.4  T
   4   -136.3338158 -0.345219E-06  0.783E-04    2.36      14.1  T
   5   -136.3338159 -0.481384E-07  0.320E-04    2.36      34.5  T
     SCC iter.                  ...        0 min,  0.048 sec
     gradient                   ...        0 min,  0.013 sec
 * total energy  :  -133.8684363 Eh     change       -0.1519980E-04 Eh
   gradient norm :     0.0013467 Eh/α   predicted    -0.8671204E-05 ( -42.95%)
   displ. norm   :     0.1653490 α      lambda        0.9368879E-05
   maximum displ.:     0.0909868 α      in ANC's #7, #11, #9, ...

........................................................................
.............................. CYCLE    8 ..............................
........................................................................

 iter      E             dE          RMSdq      gap      omega  full diag
   1   -136.3337587 -0.136334E+03  0.354E-02    2.36       0.0  T
   2   -136.3337591 -0.401216E-06  0.208E-02    2.36       1.0  T
   3   -136.3337588  0.305645E-06  0.209E-03    2.36       5.3  T
   4   -136.3337592 -0.360357E-06  0.793E-04    2.35      13.9  T
   5   -136.3337592 -0.496448E-07  0.321E-04    2.36      34.4  T
     SCC iter.                  ...        0 min,  0.048 sec
     gradient                   ...        0 min,  0.012 sec
 * total energy  :  -133.8684309 Eh     change        0.5376686E-05 Eh
   gradient norm :     0.0024235 Eh/α   predicted     0.4741058E-05 ( -11.82%)
   displ. norm   :     0.0579252 α      lambda       -0.1557477E-04
   maximum displ.:     0.0258681 α      in ANC's #7, #9, #18, ...

........................................................................
.............................. CYCLE    9 ..............................
........................................................................

 iter      E             dE          RMSdq      gap      omega  full diag
   1   -136.3337853 -0.136334E+03  0.165E-02    2.36       0.0  T
   2   -136.3337855 -0.176887E-06  0.945E-03    2.36       1.2  T
   3   -136.3337850  0.487279E-06  0.226E-03    2.36       4.9  T
   4   -136.3337856 -0.574407E-06  0.479E-04    2.36      23.0  T
   5   -136.3337856 -0.913388E-08  0.280E-04    2.36      39.4  T
     SCC iter.                  ...        0 min,  0.048 sec
     gradient                   ...        0 min,  0.013 sec
 * total energy  :  -133.8684422 Eh     change       -0.1126044E-04 Eh
   gradient norm :     0.0014216 Eh/α   predicted    -0.7816570E-05 ( -30.58%)
   displ. norm   :     0.1062978 α      lambda       -0.1234348E-04
   maximum displ.:     0.0486612 α      in ANC's #18, #9, #7, ...

........................................................................
.............................. CYCLE   10 ..............................
........................................................................

 iter      E             dE          RMSdq      gap      omega  full diag
   1   -136.3333573 -0.136333E+03  0.237E-02    2.36       0.0  T
   2   -136.3333576 -0.353429E-06  0.139E-02    2.36       1.0  T
   3   -136.3333570  0.596512E-06  0.254E-03    2.36       4.3  T
   4   -136.3333576 -0.642032E-06  0.780E-04    2.36      14.2  T
   5   -136.3333577 -0.549968E-07  0.316E-04    2.36      34.9  T
     SCC iter.                  ...        0 min,  0.048 sec
     gradient                   ...        0 min,  0.012 sec
 * total energy  :  -133.8684499 Eh     change       -0.7764419E-05 Eh
   gradient norm :     0.0008888 Eh/α   predicted    -0.6205658E-05 ( -20.08%)
   displ. norm   :     0.0549064 α      lambda       -0.3913959E-05
   maximum displ.:     0.0326964 α      in ANC's #7, #8, #11, ...

........................................................................
.............................. CYCLE   11 ..............................
........................................................................

 iter      E             dE          RMSdq      gap      omega  full diag
   1   -136.3333635 -0.136333E+03  0.115E-02    2.36       0.0  T
   2   -136.3333636 -0.586037E-07  0.668E-03    2.36       1.7  T
   3   -136.3333635  0.116363E-06  0.119E-03    2.36       9.3  T
   4   -136.3333636 -0.136914E-06  0.281E-04    2.36      39.2  T
   5   -136.3333636 -0.406317E-08  0.147E-04    2.36      75.0  T
     SCC iter.                  ...        0 min,  0.049 sec
     gradient                   ...        0 min,  0.012 sec
 * total energy  :  -133.8684548 Eh     change       -0.4900680E-05 Eh
   gradient norm :     0.0005459 Eh/α   predicted    -0.1959864E-05 ( -60.01%)
   displ. norm   :     0.1056318 α      lambda       -0.7358925E-05
   maximum displ.:     0.0599923 α      in ANC's #7, #8, #11, ...

........................................................................
.............................. CYCLE   12 ..............................
........................................................................

 iter      E             dE          RMSdq      gap      omega  full diag
   1   -136.3333760 -0.136333E+03  0.199E-02    2.36       0.0  T
   2   -136.3333761 -0.127930E-06  0.116E-02    2.36       1.0  T
   3   -136.3333759  0.214202E-06  0.174E-03    2.36       6.4  T
   4   -136.3333761 -0.250668E-06  0.451E-04    2.36      24.5  T
   5   -136.3333761 -0.119615E-07  0.228E-04    2.36      48.4  T
     SCC iter.                  ...        0 min,  0.049 sec
     gradient                   ...        0 min,  0.013 sec
 * total energy  :  -133.8684631 Eh     change       -0.8294694E-05 Eh
   gradient norm :     0.0004127 Eh/α   predicted    -0.3699792E-05 ( -55.40%)
   displ. norm   :     0.1221703 α      lambda       -0.5829786E-05
   maximum displ.:     0.0670328 α      in ANC's #7, #8, #5, ...

........................................................................
.............................. CYCLE   13 ..............................
........................................................................

 iter      E             dE          RMSdq      gap      omega  full diag
   1   -136.3332881 -0.136333E+03  0.224E-02    2.36       0.0  T
   2   -136.3332882 -0.108523E-06  0.131E-02    2.36       1.0  T
   3   -136.3332881  0.101558E-06  0.133E-03    2.36       8.3  T
   4   -136.3332883 -0.142422E-06  0.313E-04    2.36      35.3  T
   5   -136.3332883 -0.170982E-08  0.188E-04    2.36      58.7  T
     SCC iter.                  ...        0 min,  0.048 sec
     gradient                   ...        0 min,  0.013 sec
 * total energy  :  -133.8684693 Eh     change       -0.6176922E-05 Eh
   gradient norm :     0.0004153 Eh/α   predicted    -0.2934879E-05 ( -52.49%)
   displ. norm   :     0.0817159 α      lambda       -0.2843990E-05
   maximum displ.:     0.0448886 α      in ANC's #7, #8, #5, ...

........................................................................
.............................. CYCLE   14 ..............................
........................................................................

 iter      E             dE          RMSdq      gap      omega  full diag
   1   -136.3333507 -0.136333E+03  0.158E-02    2.36       0.0  T
   2   -136.3333508 -0.644280E-07  0.926E-03    2.36       1.2  T
   3   -136.3333507  0.425958E-07  0.861E-04    2.36      12.8  T
   4   -136.3333508 -0.641590E-07  0.242E-04    2.36      45.7  T
     SCC iter.                  ...        0 min,  0.039 sec
     gradient                   ...        0 min,  0.013 sec
 * total energy  :  -133.8684724 Eh     change       -0.3117354E-05 Eh
   gradient norm :     0.0003420 Eh/α   predicted    -0.1426641E-05 ( -54.24%)
   displ. norm   :     0.0632761 α      lambda       -0.2178950E-05
   maximum displ.:     0.0319537 α      in ANC's #7, #8, #5, ...

........................................................................
.............................. CYCLE   15 ..............................
........................................................................

 iter      E             dE          RMSdq      gap      omega  full diag
   1   -136.3332756 -0.136333E+03  0.136E-02    2.36       0.0  T
   2   -136.3332757 -0.432707E-07  0.799E-03    2.36       1.4  T
   3   -136.3332756  0.462205E-07  0.822E-04    2.36      13.4  T
   4   -136.3332757 -0.611585E-07  0.198E-04    2.36      55.7  T
     SCC iter.                  ...        0 min,  0.039 sec
     gradient                   ...        0 min,  0.013 sec
 * total energy  :  -133.8684749 Eh     change       -0.2510827E-05 Eh
   gradient norm :     0.0003005 Eh/α   predicted    -0.1095738E-05 ( -56.36%)
   displ. norm   :     0.0728453 α      lambda       -0.2487590E-05
   maximum displ.:     0.0318884 α      in ANC's #7, #5, #8, ...

........................................................................
.............................. CYCLE   16 ..............................
........................................................................

 iter      E             dE          RMSdq      gap      omega  full diag
   1   -136.3333511 -0.136333E+03  0.169E-02    2.36       0.0  T
   2   -136.3333511 -0.538816E-07  0.992E-03    2.36       1.1  T
   3   -136.3333510  0.778667E-07  0.108E-03    2.36      10.3  T
   4   -136.3333511 -0.101122E-06  0.226E-04    2.36      48.8  T
   5   -136.3333511 -0.941696E-09  0.129E-04    2.36      85.6  T
     SCC iter.                  ...        0 min,  0.048 sec
     gradient                   ...        0 min,  0.013 sec
 * total energy  :  -133.8684777 Eh     change       -0.2797761E-05 Eh
   gradient norm :     0.0003701 Eh/α   predicted    -0.1247255E-05 ( -55.42%)
   displ. norm   :     0.0752457 α      lambda       -0.2389932E-05
   maximum displ.:     0.0290924 α      in ANC's #5, #7, #3, ...

........................................................................
.............................. CYCLE   17 ..............................
........................................................................

 iter      E             dE          RMSdq      gap      omega  full diag
   1   -136.3332016 -0.136333E+03  0.177E-02    2.36       0.0  T
   2   -136.3332016 -0.478904E-07  0.104E-02    2.36       1.1  T
   3   -136.3332015  0.787595E-07  0.110E-03    2.35      10.0  T
   4   -136.3332016 -0.985137E-07  0.276E-04    2.36      40.0  T
   5   -136.3332016 -0.313401E-08  0.152E-04    2.35      72.7  T
     SCC iter.                  ...        0 min,  0.048 sec
     gradient                   ...        0 min,  0.013 sec
 * total energy  :  -133.8684803 Eh     change       -0.2624351E-05 Eh
   gradient norm :     0.0005006 Eh/α   predicted    -0.1198633E-05 ( -54.33%)
   displ. norm   :     0.0615197 α      lambda       -0.1902167E-05
   maximum displ.:     0.0230220 α      in ANC's #3, #1, #5, ...

........................................................................
.............................. CYCLE   18 ..............................
........................................................................

 iter      E             dE          RMSdq      gap      omega  full diag
   1   -136.3333412 -0.136333E+03  0.139E-02    2.35       0.0  T
   2   -136.3333412 -0.370419E-07  0.816E-03    2.35       1.4  T
   3   -136.3333412  0.383746E-07  0.821E-04    2.35      13.5  T
   4   -136.3333413 -0.522063E-07  0.192E-04    2.35      57.5  T
     SCC iter.                  ...        0 min,  0.039 sec
     gradient                   ...        0 min,  0.013 sec
 * total energy  :  -133.8684824 Eh     change       -0.2040635E-05 Eh
   gradient norm :     0.0003159 Eh/α   predicted    -0.9561383E-06 ( -53.15%)
   displ. norm   :     0.0412579 α      lambda       -0.1167574E-05
   maximum displ.:     0.0178184 α      in ANC's #11, #1, #3, ...

........................................................................
.............................. CYCLE   19 ..............................
........................................................................

 iter      E             dE          RMSdq      gap      omega  full diag
   1   -136.3332954 -0.136333E+03  0.842E-03    2.35       0.0  T
   2   -136.3332954 -0.204922E-07  0.493E-03    2.35       2.2  T
   3   -136.3332953  0.944069E-07  0.109E-03    2.35      10.1  T
   4   -136.3332954 -0.102625E-06  0.218E-04    2.35      50.7  T
   5   -136.3332954 -0.383272E-08  0.741E-05    2.35     149.0  T
     SCC iter.                  ...        0 min,  0.048 sec
     gradient                   ...        0 min,  0.013 sec
 * total energy  :  -133.8684836 Eh     change       -0.1245968E-05 Eh
   gradient norm :     0.0002010 Eh/α   predicted    -0.5881873E-06 ( -52.79%)
   displ. norm   :     0.0283275 α      lambda       -0.6964024E-06
   maximum displ.:     0.0130476 α      in ANC's #1, #3, #11, ...

........................................................................
.............................. CYCLE   20 ..............................
........................................................................

 iter      E             dE          RMSdq      gap      omega  full diag
   1   -136.3332766 -0.136333E+03  0.518E-03    2.35       0.0  T
   2   -136.3332766 -0.665443E-08  0.303E-03    2.35       3.6  T
   3   -136.3332766  0.202402E-07  0.519E-04    2.35      21.3  T
   4   -136.3332766 -0.234922E-07  0.107E-04    2.35     103.4  T
     SCC iter.                  ...        0 min,  0.039 sec
     gradient                   ...        0 min,  0.013 sec
 * total energy  :  -133.8684844 Eh     change       -0.8063368E-06 Eh
   gradient norm :     0.0001606 Eh/α   predicted    -0.3527225E-06 ( -56.26%)
   displ. norm   :     0.0313008 α      lambda       -0.7224190E-06
   maximum displ.:     0.0150399 α      in ANC's #1, #3, #11, ...
 * RMSD in coord.:     0.1237084 α      energy gain  -0.3048574E-03 Eh

generating ANC from exact Hessian ...
Using Lindh-Hessian (1995)
 Shifting diagonal of input Hessian by   9.914929608212905E-003
 Lowest  eigenvalues of input Hessian
    0.000000    0.000000    0.000000    0.000000    0.000000    0.000000
    0.010000    0.010082    0.010162    0.010348    0.010439    0.010644
    0.010866    0.011053    0.011161    0.011280    0.011349    0.011737
 Highest eigenvalues
    2.210455    2.211650    2.224201    2.262826    2.269182    2.633011
 

........................................................................
.............................. CYCLE   21 ..............................
........................................................................

 iter      E             dE          RMSdq      gap      omega  full diag
   1   -136.3332836 -0.136333E+03  0.505E-03    2.35       0.0  T
   2   -136.3332836 -0.455145E-08  0.296E-03    2.35       3.7  T
   3   -136.3332835  0.332237E-07  0.653E-04    2.35      16.9  T
   4   -136.3332836 -0.369687E-07  0.938E-05    2.35     117.8  T
     SCC iter.                  ...        0 min,  0.039 sec
     gradient                   ...        0 min,  0.013 sec
 * total energy  :  -133.8684853 Eh     change       -0.8681585E-06 Eh
   gradient norm :     0.0001577 Eh/α   predicted     0.0000000E+00 (-100.00%)
   displ. norm   :     0.0071133 α      lambda       -0.2334451E-07
   maximum displ.:     0.0031627 α      in ANC's #18, #1, #3, ...

........................................................................
.............................. CYCLE   22 ..............................
........................................................................

 iter      E             dE          RMSdq      gap      omega  full diag
   1   -136.3333224 -0.136333E+03  0.134E-03    2.35       0.0  T
   2   -136.3333224 -0.133724E-08  0.782E-04    2.35      14.1  T
   3   -136.3333224  0.301705E-08  0.185E-04    2.35      59.7  T
     SCC iter.                  ...        0 min,  0.029 sec
     gradient                   ...        0 min,  0.012 sec
 * total energy  :  -133.8684857 Eh     change       -0.4147682E-06 Eh
   gradient norm :     0.0000997 Eh/α   predicted    -0.1622968E-06 ( -60.87%)
   displ. norm   :     0.0302607 α      lambda       -0.1049947E-05
   maximum displ.:     0.0137226 α      in ANC's #18, #1, #3, ...

........................................................................
.............................. CYCLE   23 ..............................
........................................................................

 iter      E             dE          RMSdq      gap      omega  full diag
   1   -136.3332874 -0.136333E+03  0.520E-03    2.35       0.0  T
   2   -136.3332874 -0.137431E-07  0.302E-03    2.35       3.7  T
   3   -136.3332874  0.636305E-08  0.361E-04    2.35      30.6  T
   4   -136.3332874 -0.102782E-07  0.116E-04    2.35      94.8  T
     SCC iter.                  ...        0 min,  0.038 sec
     gradient                   ...        0 min,  0.013 sec
 * total energy  :  -133.8684866 Eh     change       -0.8550278E-06 Eh
   gradient norm :     0.0002046 Eh/α   predicted    -0.5254941E-06 ( -38.54%)
   displ. norm   :     0.0157940 α      lambda       -0.3917123E-06
   maximum displ.:     0.0079704 α      in ANC's #1, #3, #18, ...

........................................................................
.............................. CYCLE   24 ..............................
........................................................................

 iter      E             dE          RMSdq      gap      omega  full diag
   1   -136.3332557 -0.136333E+03  0.393E-03    2.35       0.0  T
   2   -136.3332558 -0.105453E-07  0.222E-03    2.35       5.0  T
   3   -136.3332557  0.271979E-07  0.540E-04    2.35      20.5  T
   4   -136.3332558 -0.337466E-07  0.995E-05    2.35     110.9  T
     SCC iter.                  ...        0 min,  0.038 sec
     gradient                   ...        0 min,  0.013 sec
 * total energy  :  -133.8684869 Eh     change       -0.3134472E-06 Eh
   gradient norm :     0.0001688 Eh/α   predicted    -0.1961010E-06 ( -37.44%)
   displ. norm   :     0.0126873 α      lambda       -0.3029911E-06
   maximum displ.:     0.0070294 α      in ANC's #1, #3, #2, ...

........................................................................
.............................. CYCLE   25 ..............................
........................................................................

 iter      E             dE          RMSdq      gap      omega  full diag
   1   -136.3333093 -0.136333E+03  0.253E-03    2.35       0.0  T
   2   -136.3333093 -0.303390E-08  0.146E-03    2.35       7.5  T
   3   -136.3333093  0.105431E-07  0.331E-04    2.35      33.3  T
   4   -136.3333093 -0.122359E-07  0.691E-05    2.35     159.9  T
     SCC iter.                  ...        0 min,  0.039 sec
     gradient                   ...        0 min,  0.013 sec
 * total energy  :  -133.8684873 Eh     change       -0.3820562E-06 Eh
   gradient norm :     0.0001524 Eh/α   predicted    -0.1521817E-06 ( -60.17%)
   displ. norm   :     0.0253070 α      lambda       -0.6090546E-06
   maximum displ.:     0.0143588 α      in ANC's #1, #3, #2, ...

........................................................................
.............................. CYCLE   26 ..............................
........................................................................

 iter      E             dE          RMSdq      gap      omega  full diag
   1   -136.3333718 -0.136333E+03  0.505E-03    2.35       0.0  T
   2   -136.3333718 -0.105794E-07  0.293E-03    2.35       3.8  T
   3   -136.3333718  0.256283E-07  0.551E-04    2.35      20.0  T
   4   -136.3333718 -0.310606E-07  0.103E-04    2.35     106.7  T
     SCC iter.                  ...        0 min,  0.038 sec
     gradient                   ...        0 min,  0.014 sec
 * total energy  :  -133.8684879 Eh     change       -0.6153218E-06 Eh
   gradient norm :     0.0001028 Eh/α   predicted    -0.3059472E-06 ( -50.28%)
   displ. norm   :     0.0206556 α      lambda       -0.2539033E-06
   maximum displ.:     0.0124521 α      in ANC's #1, #3, #2, ...

........................................................................
.............................. CYCLE   27 ..............................
........................................................................

 iter      E             dE          RMSdq      gap      omega  full diag
   1   -136.3333250 -0.136333E+03  0.314E-03    2.35       0.0  T
   2   -136.3333250 -0.196130E-08  0.183E-03    2.35       6.0  T
   3   -136.3333250  0.896546E-08  0.330E-04    2.35      33.4  T
   4   -136.3333250 -0.103830E-07  0.567E-05    2.35     194.6  T
     SCC iter.                  ...        0 min,  0.046 sec
     gradient                   ...        0 min,  0.013 sec
 * total energy  :  -133.8684882 Eh     change       -0.3166069E-06 Eh
   gradient norm :     0.0001039 Eh/α   predicted    -0.1294142E-06 ( -59.12%)
   displ. norm   :     0.0190628 α      lambda       -0.2583886E-06
   maximum displ.:     0.0120134 α      in ANC's #1, #3, #2, ...

........................................................................
.............................. CYCLE   28 ..............................
........................................................................

 iter      E             dE          RMSdq      gap      omega  full diag
   1   -136.3333160 -0.136333E+03  0.230E-03    2.35       0.0  T
   2   -136.3333160 -0.122927E-08  0.134E-03    2.35       8.2  T
   3   -136.3333160  0.480446E-08  0.245E-04    2.35      45.1  T
   4   -136.3333160 -0.549818E-08  0.473E-05    2.35     233.6  T
     SCC iter.                  ...        0 min,  0.044 sec
     gradient                   ...        0 min,  0.013 sec
 * total energy  :  -133.8684886 Eh     change       -0.3589473E-06 Eh
   gradient norm :     0.0000865 Eh/α   predicted    -0.1306979E-06 ( -63.59%)
   displ. norm   :     0.0265471 α      lambda       -0.4151273E-06
   maximum displ.:     0.0167256 α      in ANC's #1, #3, #2, ...

........................................................................
.............................. CYCLE   29 ..............................
........................................................................

 iter      E             dE          RMSdq      gap      omega  full diag
   1   -136.3333046 -0.136333E+03  0.278E-03    2.35       0.0  T
   2   -136.3333046 -0.321410E-08  0.162E-03    2.35       6.8  T
   3   -136.3333046  0.495891E-08  0.276E-04    2.35      40.0  T
   4   -136.3333046 -0.605493E-08  0.653E-05    2.35     169.1  T
     SCC iter.                  ...        0 min,  0.043 sec
     gradient                   ...        0 min,  0.013 sec
 * total energy  :  -133.8684891 Eh     change       -0.5485000E-06 Eh
   gradient norm :     0.0000788 Eh/α   predicted    -0.2090196E-06 ( -61.89%)
   displ. norm   :     0.0403149 α      lambda       -0.5472114E-06
   maximum displ.:     0.0255410 α      in ANC's #1, #3, #2, ...

........................................................................
.............................. CYCLE   30 ..............................
........................................................................

 iter      E             dE          RMSdq      gap      omega  full diag
   1   -136.3332995 -0.136333E+03  0.406E-03    2.35       0.0  T
   2   -136.3332995 -0.643601E-08  0.236E-03    2.35       4.7  T
   3   -136.3332995  0.963666E-08  0.396E-04    2.35      27.9  T
   4   -136.3332995 -0.118163E-07  0.905E-05    2.35     122.0  T
     SCC iter.                  ...        0 min,  0.043 sec
     gradient                   ...        0 min,  0.013 sec
 * total energy  :  -133.8684898 Eh     change       -0.6632206E-06 Eh
   gradient norm :     0.0000910 Eh/α   predicted    -0.2750198E-06 ( -58.53%)
   displ. norm   :     0.0368722 α      lambda       -0.3782620E-06
   maximum displ.:     0.0237952 α      in ANC's #1, #3, #2, ...

........................................................................
.............................. CYCLE   31 ..............................
........................................................................

 iter      E             dE          RMSdq      gap      omega  full diag
   1   -136.3333066 -0.136333E+03  0.365E-03    2.35       0.0  T
   2   -136.3333066 -0.448708E-08  0.213E-03    2.35       5.2  T
   3   -136.3333066  0.659915E-08  0.331E-04    2.35      33.4  T
   4   -136.3333066 -0.802879E-08  0.823E-05    2.35     134.2  T
     SCC iter.                  ...        0 min,  0.043 sec
     gradient                   ...        0 min,  0.013 sec
 * total energy  :  -133.8684902 Eh     change       -0.4510523E-06 Eh
   gradient norm :     0.0000877 Eh/α   predicted    -0.1940358E-06 ( -56.98%)
   displ. norm   :     0.0274885 α      lambda       -0.2510955E-06
   maximum displ.:     0.0179571 α      in ANC's #1, #3, #2, ...

........................................................................
.............................. CYCLE   32 ..............................
........................................................................

 iter      E             dE          RMSdq      gap      omega  full diag
   1   -136.3333199 -0.136333E+03  0.279E-03    2.35       0.0  T
   2   -136.3333199 -0.217435E-08  0.163E-03    2.35       6.8  T
   3   -136.3333199  0.245754E-08  0.200E-04    2.35      55.3  T
   4   -136.3333199 -0.315367E-08  0.567E-05    2.35     194.7  T
     SCC iter.                  ...        0 min,  0.044 sec
     gradient                   ...        0 min,  0.013 sec
 * total energy  :  -133.8684906 Eh     change       -0.3358966E-06 Eh
   gradient norm :     0.0000732 Eh/α   predicted    -0.1264135E-06 ( -62.37%)
   displ. norm   :     0.0281175 α      lambda       -0.2859538E-06
   maximum displ.:     0.0185460 α      in ANC's #1, #3, #2, ...

........................................................................
.............................. CYCLE   33 ..............................
........................................................................

 iter      E             dE          RMSdq      gap      omega  full diag
   1   -136.3333239 -0.136333E+03  0.306E-03    2.35       0.0  T
   2   -136.3333239 -0.262611E-08  0.178E-03    2.35       6.2  T
   3   -136.3333239  0.164042E-08  0.176E-04    2.35      62.9  T
   4   -136.3333239 -0.251552E-08  0.557E-05    2.35     198.2  T
     SCC iter.                  ...        0 min,  0.043 sec
     gradient                   ...        0 min,  0.012 sec
 * total energy  :  -133.8684909 Eh     change       -0.3853643E-06 Eh
   gradient norm :     0.0000639 Eh/α   predicted    -0.1470427E-06 ( -61.84%)
   displ. norm   :     0.0333595 α      lambda       -0.3423177E-06
   maximum displ.:     0.0221053 α      in ANC's #1, #2, #3, ...

........................................................................
.............................. CYCLE   34 ..............................
........................................................................

 iter      E             dE          RMSdq      gap      omega  full diag
   1   -136.3333508 -0.136333E+03  0.387E-03    2.35       0.0  T
   2   -136.3333508 -0.387044E-08  0.226E-03    2.35       4.9  T
   3   -136.3333508  0.253411E-08  0.217E-04    2.35      51.0  T
   4   -136.3333508 -0.400348E-08  0.682E-05    2.35     162.0  T
     SCC iter.                  ...        0 min,  0.043 sec
     gradient                   ...        0 min,  0.013 sec
 * total energy  :  -133.8684914 Eh     change       -0.4447828E-06 Eh
   gradient norm :     0.0000659 Eh/α   predicted    -0.1753045E-06 ( -60.59%)
   displ. norm   :     0.0347476 α      lambda       -0.2997256E-06
   maximum displ.:     0.0231963 α      in ANC's #1, #2, #3, ...

........................................................................
.............................. CYCLE   35 ..............................
........................................................................

 iter      E             dE          RMSdq      gap      omega  full diag
   1   -136.3333419 -0.136333E+03  0.422E-03    2.35       0.0  T
   2   -136.3333419 -0.432757E-08  0.246E-03    2.35       4.5  T
   3   -136.3333419  0.846291E-08  0.328E-04    2.35      33.7  T
   4   -136.3333419 -0.104036E-07  0.854E-05    2.35     129.4  T
     SCC iter.                  ...        0 min,  0.043 sec
     gradient                   ...        0 min,  0.012 sec
 * total energy  :  -133.8684918 Eh     change       -0.3719228E-06 Eh
   gradient norm :     0.0000628 Eh/α   predicted    -0.1538022E-06 ( -58.65%)
   displ. norm   :     0.0268759 α      lambda       -0.1825756E-06
   maximum displ.:     0.0182787 α      in ANC's #1, #2, #3, ...

........................................................................
.............................. CYCLE   36 ..............................
........................................................................

 iter      E             dE          RMSdq      gap      omega  full diag
   1   -136.3333761 -0.136333E+03  0.340E-03    2.35       0.0  T
   2   -136.3333761 -0.235562E-08  0.199E-03    2.35       5.6  T
   3   -136.3333761  0.111766E-07  0.365E-04    2.35      30.3  T
   4   -136.3333761 -0.128243E-07  0.632E-05    2.35     174.7  T
     SCC iter.                  ...        0 min,  0.043 sec
     gradient                   ...        0 min,  0.013 sec
 * total energy  :  -133.8684920 Eh     change       -0.2187016E-06 Eh
   gradient norm :     0.0000583 Eh/α   predicted    -0.9226559E-07 ( -57.81%)
   displ. norm   :     0.0146839 α      lambda       -0.8600047E-07
   maximum displ.:     0.0103175 α      in ANC's #1, #2, #3, ...

........................................................................
.............................. CYCLE   37 ..............................
........................................................................

 iter      E             dE          RMSdq      gap      omega  full diag
   1   -136.3333612 -0.136333E+03  0.195E-03    2.35       0.0  T
   2   -136.3333612 -0.824741E-09  0.114E-03    2.35       9.7  T
   3   -136.3333611  0.279226E-08  0.176E-04    2.35      62.6  T
   4   -136.3333612 -0.329433E-08  0.369E-05    2.35     299.4  T
     SCC iter.                  ...        0 min,  0.043 sec
     gradient                   ...        0 min,  0.013 sec
 * total energy  :  -133.8684921 Eh     change       -0.1144684E-06 Eh
   gradient norm :     0.0000351 Eh/α   predicted    -0.4496512E-07 ( -60.72%)
   displ. norm   :     0.0094606 α      lambda       -0.6632995E-07
   maximum displ.:     0.0067897 α      in ANC's #1, #2, #3, ...

........................................................................
.............................. CYCLE   38 ..............................
........................................................................

 iter      E             dE          RMSdq      gap      omega  full diag
   1   -136.3333685 -0.136333E+03  0.137E-03    2.35       0.0  T
   2   -136.3333685 -0.485812E-09  0.802E-04    2.35      13.8  T
   3   -136.3333685  0.183280E-08  0.150E-04    2.35      73.9  T
     SCC iter.                  ...        0 min,  0.033 sec
     gradient                   ...        0 min,  0.012 sec
 * total energy  :  -133.8684922 Eh     change       -0.9467786E-07 Eh
   gradient norm :     0.0000288 Eh/α   predicted    -0.3502919E-07 ( -63.00%)
   displ. norm   :     0.0101165 α      lambda       -0.7958069E-07
   maximum displ.:     0.0070966 α      in ANC's #1, #7, #8, ...

   *** GEOMETRY OPTIMIZATION CONVERGED AFTER 38 ITERATIONS ***

------------------------------------------------------------------------
 total energy gain   :        -0.0003126 Eh       -0.1962 kcal/mol
 total RMSD          :         0.1358838 a0        0.0719 Å
 total power (kW/mol):        -0.0215989 (step)   -0.3165 (real)
------------------------------------------------------------------------

 ANCopt (total)                0 d,  0 h,  0 min,  2.594 sec
 optimizer setup                ...        0 min,  0.000 sec (  0.013%)
 model hessian                  ...        0 min,  0.097 sec (  3.726%)
 ANC generation                 ...        0 min,  0.020 sec (  0.781%)
 coordinate transformation      ...        0 min,  0.003 sec (  0.125%)
 single point calculation       ...        0 min,  2.447 sec ( 94.359%)
 optimization log               ...        0 min,  0.010 sec (  0.399%)
 hessian update                 ...        0 min,  0.006 sec (  0.215%)
 rational function              ...        0 min,  0.006 sec (  0.223%)

================
 final structure:
================
82
 xtb: 6.7.1 (edcfbbe)
N            2.34243426394362        2.55804613645214       -1.65475795678966
C            1.65556579545600        1.80660660605785       -1.12520957716904
C            0.76428383706782        0.87854756909008       -0.55035903727073
C            1.04119531194028       -0.49988104336067       -0.61414549554753
N            2.23913010811529       -0.94152094105112       -1.17723386352332
C            3.53048596320012       -0.52685173253075       -0.88331487721303
C            3.87084479273953        0.30436084612087        0.25994546793210
C            3.16503765030642        0.22643609311996        1.45958657428349
C            3.54501153578953        1.00327946766031        2.53954247196153
C            4.62818774874017        1.86082187041426        2.43598404818573
C            5.34091369669085        1.93304397400005        1.24922707545010
C            4.97087969717925        1.15651574383457        0.16843289953188
N            4.41409344341890       -1.03424938506822       -1.69193747219330
C            3.72536334142275       -1.81615270752782       -2.58114592612643
C            4.18100073848963       -2.57011103484812       -3.65702264506599
C            3.24319268434170       -3.26071821166541       -4.39653627079024
C            1.88254958735475       -3.20613012499189       -4.08979561452085
C            1.40840184579569       -2.46370936556759       -3.02495347793315
C            2.34733231929480       -1.78142873954925       -2.27042774780713
C            0.10445328938553       -1.41819202593369       -0.16967937444504
C           -1.10337905963005       -0.98197091064254        0.37646936685880
N           -2.02449285281539       -1.91130754019559        0.84951127565539
C           -1.75781127437790       -3.06431235127346        1.58041424909891
C           -0.44599431779711       -3.39298151400244        2.12524123758393
C           -0.01511314196337       -4.71810580998211        2.10109348253987
C            1.21587964770318       -5.05875547795512        2.63016991246280
C            2.02142686609552       -4.08609603308495        3.20029929664391
C            1.58645147251869       -2.77141698201274        3.25207366543159
C            0.36047697192028       -2.42133135941588        2.71677591343960
N           -2.81944710894835       -3.78308099264528        1.78921988463643
C           -3.86129681128880       -3.12212171236989        1.19089649590979
C           -5.20599208495954       -3.46377810914720        1.10915951459263
C           -6.04179648101264       -2.60769329788751        0.42173692973079
C           -5.55941837807051       -1.44679633075182       -0.18352353484704
C           -4.22626438429986       -1.08875006083835       -0.11257070960652
C           -3.38615381324728       -1.93090266460830        0.59615530439719
C           -1.37787573922368        0.38094551076458        0.45804618099384
C           -0.45746230453073        1.30987411844185       -0.00800162818370
N           -0.74757031774491        2.67243512150143        0.07115431842156
C           -1.89925205645016        3.31287937481200       -0.36494891525337
C           -2.91767723019612        2.67151003185123       -1.18396012212803
C           -2.58270261265589        1.75364761926262       -2.17900574548807
C           -3.57094093046315        1.19653494455102       -2.97060301352464
C           -4.89819883623596        1.54625230276648       -2.77936451866382
C           -5.23575936901562        2.46858296449357       -1.80110448044011
C           -4.25320765153673        3.03337797307938       -1.01001954092073
N           -1.93260569984038        4.56819482897353       -0.02718725513983
C           -0.77509202144963        4.81580118022542        0.66294344268290
C           -0.31527800678879        5.98698968095651        1.25427662591452
C            0.89962712893222        5.93883647472461        1.90569831112925
C            1.64369585278964        4.76038982392877        1.98197493389739
C            1.20489559569954        3.58541558864519        1.40273636718183
C           -0.00409808457291        3.63319350525225        0.73134377109838
H            2.33688636682025       -0.46139828388728        1.55823355516197
H            2.99327982129101        0.93782871819168        3.46612619767786
H            4.91874486316051        2.46609802366660        3.28130654097618
H            6.18954722710785        2.59491086920291        1.16709103018880
H            5.51576039098755        1.19682577821230       -0.76135508184560
H            5.23187569129757       -2.59890762408629       -3.89600454304306
H            3.56408636499996       -3.85523633479421       -5.23858326788366
H            1.18276944358645       -3.75644097785322       -4.70031470130172
H            0.35350532371668       -2.41765761379321       -2.79811627230052
H            0.32288940879802       -2.47248528075149       -0.23621702545197
H           -0.65702911399555       -5.46571114313197        1.66128338019348
H            1.54607976687725       -6.08610983868342        2.60014925476424
H            2.98270971016724       -4.35128637255411        3.61367495351883
H            2.20432528955736       -2.01790251180228        3.71702948048405
H            0.01476793488064       -1.39867335831492        2.78094413302223
H           -5.56644644490803       -4.37078349698683        1.56712834682269
H           -7.09249858006089       -2.84209703276537        0.34109436144644
H           -6.24285648311708       -0.80895848648071       -0.72225422065563
H           -3.86608076426353       -0.19601412960624       -0.59888741908473
H           -2.29897562187864        0.72477347966410        0.90188412670752
H           -1.54724225059589        1.49755294651303       -2.35535238323733
H           -3.30103392213976        0.49008075794097       -3.74153062153113
H           -5.66491242671957        1.10566395572235       -3.39838291713172
H           -6.26748655257593        2.75090302929748       -1.65595480467631
H           -4.49770338895947        3.75936757321063       -0.25037265931934
H           -0.89975704262422        6.89127930336235        1.19966231849761
H            1.28691541785319        6.83152767686519        2.37322615163769
H            2.58710530246959        4.76512031309363        2.50534696754612
H            1.78880737465387        2.67949936948484        1.46660899706511
 
 Bond Distances (Angstroems)
 ---------------------------
N1-C2=1.1476         C2-N1=1.1476         C2-C3=1.4093         C3-C2=1.4093         C3-C4=1.4074         C3-C38=1.4046        
C4-C3=1.4074         C4-N5=1.3954         C4-C20=1.3850        N5-C4=1.3954         N5-C6=1.3878         N5-C19=1.3828        
C6-N5=1.3878         C6-C7=1.4539         C6-N13=1.3008        C7-C6=1.4539         C7-C8=1.3940         C7-C12=1.3945        
C8-C7=1.3940         C8-C9=1.3835         C8-H54=1.0811        C9-C8=1.3835         C9-C10=1.3854        C9-H55=1.0804        
C10-C9=1.3854        C10-C11=1.3862       C10-H56=1.0795       C11-C10=1.3862       C11-C12=1.3813       C11-H57=1.0793       
C12-C7=1.3945        C12-C11=1.3813       C12-H58=1.0784       N13-C6=1.3008        N13-C14=1.3698       C14-N13=1.3698       
C14-C15=1.3905       C14-C19=1.4131       C15-C14=1.3905       C15-C16=1.3796       C15-H59=1.0781       C16-C15=1.3796       
C16-C17=1.3959       C16-H60=1.0796       C17-C16=1.3959       C17-C18=1.3820       C17-H61=1.0795       C18-C17=1.3820       
C18-C19=1.3843       C18-H62=1.0800       C19-N5=1.3828        C19-C14=1.4131       C19-C18=1.3843       C20-C4=1.3850        
C20-C21=1.3955       C20-H63=1.0787       C21-C20=1.3955       C21-N22=1.3914       C21-C37=1.3927       N22-C21=1.3914       
N22-C23=1.3910       N22-C36=1.3852       C23-N22=1.3910       C23-C24=1.4580       C23-N30=1.2990       C24-C23=1.4580       
C24-C25=1.3936       C24-C29=1.3944       C25-C24=1.3936       C25-C26=1.3825       C25-H64=1.0791       C26-C25=1.3825       
C26-C27=1.3856       C26-H65=1.0795       C27-C26=1.3856       C27-C28=1.3857       C27-H66=1.0795       C28-C27=1.3857       
C28-C29=1.3828       C28-H67=1.0797       C29-C24=1.3944       C29-C28=1.3828       C29-H68=1.0814       N30-C23=1.2990       
N30-C31=1.3712       C31-N30=1.3712       C31-C32=1.3898       C31-C36=1.4137       C32-C31=1.3898       C32-C33=1.3799       
C32-H69=1.0781       C33-C32=1.3799       C33-C34=1.3952       C33-H70=1.0795       C34-C33=1.3952       C34-C35=1.3822       
C34-H71=1.0790       C35-C34=1.3822       C35-C36=1.3847       C35-H72=1.0785       C36-N22=1.3852       C36-C31=1.4137       
C36-C35=1.3847       C37-C21=1.3927       C37-C38=1.3883       C37-H73=1.0787       C38-C3=1.4046        C38-C37=1.3883       
C38-N39=1.3953       N39-C38=1.3953       N39-C40=1.3881       N39-C53=1.3826       C40-N39=1.3881       C40-C41=1.4558       
C40-N47=1.3004       C41-C40=1.4558       C41-C42=1.3946       C41-C46=1.3946       C42-C41=1.3946       C42-C43=1.3833       
C42-H74=1.0811       C43-C42=1.3833       C43-C44=1.3858       C43-H75=1.0799       C44-C43=1.3858       C44-C45=1.3862       
C44-H76=1.0794       C45-C44=1.3862       C45-C46=1.3821       C45-H77=1.0795       C46-C41=1.3946       C46-C45=1.3821       
C46-H78=1.0788       N47-C40=1.3004       N47-C48=1.3702       C48-N47=1.3702       C48-C49=1.3902       C48-C53=1.4134       
C49-C48=1.3902       C49-C50=1.3794       C49-H79=1.0781       C50-C49=1.3794       C50-C51=1.3958       C50-H80=1.0796       
C51-C50=1.3958       C51-C52=1.3815       C51-H81=1.0789       C52-C51=1.3815       C52-C53=1.3837       C52-H82=1.0797       
C53-N39=1.3826       C53-C48=1.4134       C53-C52=1.3837       H54-C8=1.0811        H55-C9=1.0804        H56-C10=1.0795       
H57-C11=1.0793       H58-C12=1.0784       H59-C15=1.0781       H60-C16=1.0796       H61-C17=1.0795       H62-C18=1.0800       
H63-C20=1.0787       H64-C25=1.0791       H65-C26=1.0795       H66-C27=1.0795       H67-C28=1.0797       H68-C29=1.0814       
H69-C32=1.0781       H70-C33=1.0795       H71-C34=1.0790       H72-C35=1.0785       H73-C37=1.0787       H74-C42=1.0811       
H75-C43=1.0799       H76-C44=1.0794       H77-C45=1.0795       H78-C46=1.0788       H79-C49=1.0781       H80-C50=1.0796       
H81-C51=1.0789       H82-C52=1.0797       
 C  H  Rav=1.0794 sigma=0.0008  Rmin=1.0781  Rmax=1.0814    29
 C  C  Rav=1.3948 sigma=0.0185  Rmin=1.3794  Rmax=1.4580    46
 N  C  Rav=1.3537 sigma=0.0629  Rmin=1.1476  Rmax=1.3954    16
 
 selected bond angles (degree)
 --------------------
C3-C2-N1=176.36                C4-C3-C2=120.14                C38-C3-C2=120.36               C38-C3-C4=119.30               
N5-C4-C3=119.81                C20-C4-C3=120.12               C20-C4-N5=120.02               C6-N5-C4=128.23                
C19-N5-C4=125.34               C19-N5-C6=106.03               C7-C6-N5=123.72                N13-C6-N5=112.57               
N13-C6-C7=123.56               C8-C7-C6=121.75                C12-C7-C6=118.84               C12-C7-C8=119.34               
C9-C8-C7=120.09                H54-C8-C7=120.13               H54-C8-C9=119.76               C10-C9-C8=120.26               
H55-C9-C8=119.68               H55-C9-C10=120.06              C11-C10-C9=119.88              H56-C10-C9=119.93              
H56-C10-C11=120.18             
 
 selected dihedral angles (degree)
 ---------------------------------
C4-C3-C2-N1= 91.69            C38-C3-C2-N1=276.95           N5-C4-C3-C2=  3.82            N5-C4-C3-C38=178.62           
C20-C4-C3-C2=186.47           C20-C4-C3-C38=  1.26          C6-N5-C4-C3= 51.23            C6-N5-C4-C20=228.59           
C19-N5-C4-C3=239.57           C19-N5-C4-C20= 56.93          C7-C6-N5-C4= 11.23            C7-C6-N5-C19=184.16           
N13-C6-N5-C4=187.03           N13-C6-N5-C19=359.96          C8-C7-C6-N5= 32.32            C8-C7-C6-N13=216.97           
C12-C7-C6-N5=209.37           C12-C7-C6-N13= 34.02          C9-C8-C7-C6=177.95            C9-C8-C7-C12=  0.91           
H54-C8-C7-C6=359.70           H54-C8-C7-C12=182.66          C10-C9-C8-C7=359.93           C10-C9-C8-H54=178.19          
H55-C9-C8-C7=179.99           H55-C9-C8-H54=358.25          C11-C10-C9-C8=359.48          C11-C10-C9-H55=179.42         
H56-C10-C9-C8=179.87          H56-C10-C9-H55=359.81         
           -------------------------------------------------
          |                Final Singlepoint                |
           -------------------------------------------------

          ...................................................
          :                      SETUP                      :
          :.................................................:
          :  # basis functions                 241          :
          :  # atomic orbitals                 241          :
          :  # shells                          135          :
          :  # electrons                       248          :
          :  max. iterations                   250          :
          :  Hamiltonian                  GFN2-xTB          :
          :  restarted?                      false          :
          :  GBSA solvation                   true          :
          :  PC potential                    false          :
          :  electronic temp.          300.0000000     K    :
          :  accuracy                    1.0000000          :
          :  -> integral cutoff          0.2500000E+02      :
          :  -> integral neglect         0.1000000E-07      :
          :  -> SCF convergence          0.1000000E-05 Eh   :
          :  -> wf. convergence          0.1000000E-03 e    :
          :  Broyden damping             0.4000000          :
          :  net charge                          0          :
          :  unpaired electrons                  0          :
          ...................................................

 iter      E             dE          RMSdq      gap      omega  full diag
   1   -136.3333685 -0.136333E+03  0.278E-05    2.35       0.0  T
   2   -136.3333685  0.224532E-11  0.200E-05    2.35     551.7  T
   3   -136.3333685 -0.207478E-10  0.116E-05    2.35     956.0  T

   *** convergence criteria satisfied after 3 iterations ***

         #    Occupation            Energy/Eh            Energy/eV
      -------------------------------------------------------------
         1        2.0000           -0.7198017             -19.5868
       ...           ...                  ...                  ...
       118        2.0000           -0.4005349             -10.8991
       119        2.0000           -0.3985434             -10.8449
       120        2.0000           -0.3979101             -10.8277
       121        2.0000           -0.3974039             -10.8139
       122        2.0000           -0.3967944             -10.7973
       123        2.0000           -0.3958516             -10.7717
       124        2.0000           -0.3956064             -10.7650 (HOMO)
       125                         -0.3092025              -8.4138 (LUMO)
       126                         -0.2868487              -7.8055
       127                         -0.2757044              -7.5023
       128                         -0.2724073              -7.4126
       129                         -0.2693621              -7.3297
       ...                                ...                  ...
       241                          1.1389513              30.9924
      -------------------------------------------------------------
                  HL-Gap            0.0864038 Eh            2.3512 eV
             Fermi-level           -0.3524044 Eh           -9.5894 eV

 SCC (total)                   0 d,  0 h,  0 min,  0.053 sec
 SCC setup                      ...        0 min,  0.001 sec (  1.846%)
 Dispersion                     ...        0 min,  0.001 sec (  2.181%)
 classical contributions        ...        0 min,  0.000 sec (  0.071%)
 integral evaluation            ...        0 min,  0.005 sec (  8.928%)
 iterations                     ...        0 min,  0.033 sec ( 62.215%)
 molecular gradient             ...        0 min,  0.012 sec ( 23.333%)
 printout                       ...        0 min,  0.001 sec (  1.189%)

         :::::::::::::::::::::::::::::::::::::::::::::::::::::
         ::                     SUMMARY                     ::
         :::::::::::::::::::::::::::::::::::::::::::::::::::::
         :: total energy            -133.868492187607 Eh    ::
         :: total w/o Gsasa/hb      -133.819514939528 Eh    ::
         :: gradient norm              0.000029989481 Eh/a0 ::
         :: HOMO-LUMO gap              2.351167667736 eV    ::
         ::.................................................::
         :: SCC energy              -136.329347175307 Eh    ::
         :: -> isotropic ES            0.058529975506 Eh    ::
         :: -> anisotropic ES          0.011664771037 Eh    ::
         :: -> anisotropic XC          0.096571464846 Eh    ::
         :: -> dispersion             -0.130418022611 Eh    ::
         :: -> Gsolv                  -0.057346055111 Eh    ::
         ::    -> Gelec               -0.008368807032 Eh    ::
         ::    -> Gsasa               -0.053501127951 Eh    ::
         ::    -> Ghb                  0.000000000000 Eh    ::
         ::    -> Gshift               0.004523879872 Eh    ::
         :: repulsion energy           2.460854987700 Eh    ::
         :: add. restraining           0.000000000000 Eh    ::
         :: total charge              -0.000000000000 e     ::
         :::::::::::::::::::::::::::::::::::::::::::::::::::::

           ------------------------------------------------- 
          |                Numerical Hessian                |
           ------------------------------------------------- 
step length          :   0.00500
SCC accuracy         :   0.30000
Hessian scale factor :   1.00000
frozen atoms in %    :   0.00000    0
RMS gradient         :   0.00003
estimated CPU  time     25.88 min
estimated wall time      0.65 min

writing file <hessian>.

 projected vibrational frequencies (cm⁻¹)
eigval :       -0.00    -0.00    -0.00     0.00     0.00     0.00
eigval :       13.86    19.28    19.64    27.38    30.41    31.97
eigval :       39.96    47.47    53.27    56.36    58.99    60.23
eigval :       66.60    68.24    77.07    83.74    89.04    92.86
eigval :      104.70   124.63   150.06   152.77   169.96   185.51
eigval :      187.83   194.52   213.82   226.14   233.20   251.78
eigval :      258.85   267.12   284.74   287.63   289.56   297.45
eigval :      301.42   308.06   322.29   348.46   355.88   360.63
eigval :      370.28   371.06   373.53   374.33   404.96   408.15
eigval :      412.42   419.79   473.56   477.29   483.86   495.36
eigval :      515.96   533.89   537.89   540.97   542.49   543.58
eigval :      544.58   553.52   560.66   583.72   585.76   586.20
eigval :      590.81   605.93   611.10   625.08   626.90   648.87
eigval :      652.22   654.69   664.50   667.99   670.33   671.67
eigval :      673.89   675.52   679.53   686.46   704.93   706.97
eigval :      709.38   711.98   759.87   762.37   762.70   772.02
eigval :      772.53   776.16   787.18   817.79   848.27   862.88
eigval :      863.77   864.85   866.73   869.13   874.32   874.71
eigval :      875.48   878.00   881.37   887.24   889.37   890.31
eigval :      899.01   899.32   904.21   905.82   906.16   908.61
eigval :      919.79   921.32   923.59   925.32   926.72   929.64
eigval :      932.26   932.60   934.78   954.44   978.26   978.64
eigval :      993.51  1048.77  1057.85  1061.32  1065.29  1075.02
eigval :     1080.53  1080.77  1083.85  1108.57  1117.70  1118.29
eigval :     1119.88  1126.45  1129.19  1129.80  1136.12  1166.99
eigval :     1168.70  1169.97  1175.27  1176.01  1177.12  1178.30
eigval :     1188.74  1191.07  1194.19  1197.32  1200.43  1203.20
eigval :     1223.29  1247.08  1250.81  1266.37  1276.36  1276.63
eigval :     1278.95  1285.90  1287.07  1288.72  1295.28  1301.50
eigval :     1304.05  1311.65  1316.92  1317.05  1320.71  1331.14
eigval :     1337.21  1357.17  1358.10  1359.53  1405.23  1408.05
eigval :     1408.37  1424.50  1425.94  1426.25  1437.52  1441.33
eigval :     1453.95  1461.73  1462.59  1463.47  1480.77  1481.19
eigval :     1482.68  1523.17  1541.05  1544.12  1546.55  1558.87
eigval :     1577.45  1578.42  1578.87  1587.43  1587.84  1588.09
eigval :     1594.41  1594.49  1594.90  1613.99  1614.37  1615.85
eigval :     2358.53  3065.61  3068.43  3072.36  3074.74  3081.04
eigval :     3082.99  3083.07  3083.38  3086.17  3086.74  3087.47
eigval :     3087.56  3088.12  3088.17  3096.28  3096.65  3097.40
eigval :     3097.59  3097.98  3101.75  3103.96  3105.39  3106.11
eigval :     3108.32  3108.86  3109.61  3111.05  3111.31  3112.35
           -------------------------------------------------
          |                Property Printout                |
           -------------------------------------------------

    * Orbital Energies and Occupations

         #    Occupation            Energy/Eh            Energy/eV
      -------------------------------------------------------------
         1        2.0000           -0.7198015             -19.5868
       ...           ...                  ...                  ...
       112        2.0000           -0.4275822             -11.6351
       113        2.0000           -0.4242405             -11.5442
       114        2.0000           -0.4236936             -11.5293
       115        2.0000           -0.4222203             -11.4892
       116        2.0000           -0.4031555             -10.9704
       117        2.0000           -0.4025153             -10.9530
       118        2.0000           -0.4005348             -10.8991
       119        2.0000           -0.3985434             -10.8449
       120        2.0000           -0.3979100             -10.8277
       121        2.0000           -0.3974039             -10.8139
       122        2.0000           -0.3967944             -10.7973
       123        2.0000           -0.3958516             -10.7717
       124        2.0000           -0.3956063             -10.7650 (HOMO)
       125                         -0.3092024              -8.4138 (LUMO)
       126                         -0.2868485              -7.8055
       127                         -0.2757043              -7.5023
       128                         -0.2724073              -7.4126
       129                         -0.2693620              -7.3297
       130                         -0.2423917              -6.5958
       131                         -0.2416488              -6.5756
       132                         -0.2407025              -6.5498
       133                         -0.2367596              -6.4426
       134                         -0.2338210              -6.3626
       135                         -0.2324382              -6.3250
       ...                                ...                  ...
       241                          1.1389516              30.9925
      -------------------------------------------------------------
                  HL-Gap            0.0864039 Eh            2.3512 eV
             Fermi-level           -0.3524043 Eh           -9.5894 eV

     #   Z          covCN         q      C6AA      α(0)
     1   7 N        0.911    -0.264    26.842     7.493
     2   6 C        1.909     0.129    27.933     8.536
     3   6 C        2.974    -0.016    28.406     8.742
     4   6 C        2.915     0.079    26.236     8.399
     5   7 N        2.826    -0.066    22.520     7.048
     6   6 C        3.165     0.148    24.470     8.084
     7   6 C        2.975    -0.005    28.131     8.700
     8   6 C        2.922    -0.038    28.948     8.823
     9   6 C        2.918    -0.028    28.707     8.786
    10   6 C        2.920    -0.025    28.629     8.774
    11   6 C        2.918    -0.024    28.593     8.769
    12   6 C        2.926    -0.024    28.596     8.770
    13   7 N        1.886    -0.302    28.680     7.939
    14   6 C        3.186     0.070    25.988     8.318
    15   6 C        2.911    -0.044    29.080     8.843
    16   6 C        2.923    -0.038    28.934     8.821
    17   6 C        2.927    -0.035    28.882     8.813
    18   6 C        2.908    -0.054    29.344     8.882
    19   6 C        3.077     0.034    27.162     8.545
    20   6 C        2.923    -0.061    29.516     8.909
    21   6 C        2.908     0.080    26.225     8.397
    22   7 N        2.823    -0.052    22.243     7.005
    23   6 C        3.165     0.139    24.652     8.114
    24   6 C        2.975    -0.003    28.096     8.695
    25   6 C        2.926    -0.026    28.662     8.780
    26   6 C        2.918    -0.025    28.617     8.772
    27   6 C        2.920    -0.025    28.634     8.775
    28   6 C        2.919    -0.028    28.699     8.785
    29   6 C        2.922    -0.034    28.838     8.806
    30   7 N        1.884    -0.293    28.448     7.907
    31   6 C        3.187     0.069    26.020     8.323
    32   6 C        2.910    -0.043    29.056     8.839
    33   6 C        2.923    -0.036    28.902     8.816
    34   6 C        2.927    -0.035    28.861     8.810
[...]
    20   6 C       63   1 H                                       1.0787382
    25   6 C       64   1 H                                       1.0790751
    26   6 C       65   1 H                                       1.0795326
    27   6 C       66   1 H                                       1.0794769
    28   6 C       67   1 H                                       1.0796927
    29   6 C       68   1 H                                       1.0814166
    32   6 C       69   1 H                                       1.0781103
    33   6 C       70   1 H                                       1.0795478
    34   6 C       71   1 H                                       1.0789605
    35   6 C       72   1 H                                       1.0785239
    37   6 C       73   1 H                                       1.0787191
    42   6 C       74   1 H                                       1.0811387
    43   6 C       75   1 H                                       1.0799337
    44   6 C       76   1 H                                       1.0794220
    45   6 C       77   1 H                                       1.0794602
    46   6 C       78   1 H                                       1.0788432
    49   6 C       79   1 H                                       1.0781180
    50   6 C       80   1 H                                       1.0795704
    51   6 C       81   1 H                                       1.0788708
    52   6 C       82   1 H                                       1.0796838

 * 3 distinct bonds (by element types)

   Z      Z             #   av. dist./Å        max./Å        min./Å
   1 H    6 C          29     1.0794038     1.0814166     1.0780909
   6 C    6 C          42     1.3901135     1.4136765     1.3793708
   6 C    7 N          16     1.3536570     1.3954076     1.1475502

           -------------------------------------------------
          |               Frequency Printout                |
           -------------------------------------------------
 projected vibrational frequencies (cm⁻¹)
eigval :       -0.00    -0.00    -0.00     0.00     0.00     0.00
eigval :       13.86    19.28    19.64    27.38    30.41    31.97
eigval :       39.96    47.47    53.27    56.36    58.99    60.23
eigval :       66.60    68.24    77.07    83.74    89.04    92.86
eigval :      104.70   124.63   150.06   152.77   169.96   185.51
eigval :      187.83   194.52   213.82   226.14   233.20   251.78
eigval :      258.85   267.12   284.74   287.63   289.56   297.45
eigval :      301.42   308.06   322.29   348.46   355.88   360.63
eigval :      370.28   371.06   373.53   374.33   404.96   408.15
eigval :      412.42   419.79   473.56   477.29   483.86   495.36
eigval :      515.96   533.89   537.89   540.97   542.49   543.58
eigval :      544.58   553.52   560.66   583.72   585.76   586.20
eigval :      590.81   605.93   611.10   625.08   626.90   648.87
eigval :      652.22   654.69   664.50   667.99   670.33   671.67
eigval :      673.89   675.52   679.53   686.46   704.93   706.97
eigval :      709.38   711.98   759.87   762.37   762.70   772.02
eigval :      772.53   776.16   787.18   817.79   848.27   862.88
eigval :      863.77   864.85   866.73   869.13   874.32   874.71
eigval :      875.48   878.00   881.37   887.24   889.37   890.31
eigval :      899.01   899.32   904.21   905.82   906.16   908.61
eigval :      919.79   921.32   923.59   925.32   926.72   929.64
eigval :      932.26   932.60   934.78   954.44   978.26   978.64
eigval :      993.51  1048.77  1057.85  1061.32  1065.29  1075.02
eigval :     1080.53  1080.77  1083.85  1108.57  1117.70  1118.29
eigval :     1119.88  1126.45  1129.19  1129.80  1136.12  1166.99
eigval :     1168.70  1169.97  1175.27  1176.01  1177.12  1178.30
eigval :     1188.74  1191.07  1194.19  1197.32  1200.43  1203.20
eigval :     1223.29  1247.08  1250.81  1266.37  1276.36  1276.63
eigval :     1278.95  1285.90  1287.07  1288.72  1295.28  1301.50
eigval :     1304.05  1311.65  1316.92  1317.05  1320.71  1331.14
eigval :     1337.21  1357.17  1358.10  1359.53  1405.23  1408.05
eigval :     1408.37  1424.50  1425.94  1426.25  1437.52  1441.33
eigval :     1453.95  1461.73  1462.59  1463.47  1480.77  1481.19
eigval :     1482.68  1523.17  1541.05  1544.12  1546.55  1558.87
eigval :     1577.45  1578.42  1578.87  1587.43  1587.84  1588.09
eigval :     1594.41  1594.49  1594.90  1613.99  1614.37  1615.85
eigval :     2358.53  3065.61  3068.43  3072.36  3074.74  3081.04
eigval :     3082.99  3083.07  3083.38  3086.17  3086.74  3087.47
eigval :     3087.56  3088.12  3088.17  3096.28  3096.65  3097.40
eigval :     3097.59  3097.98  3101.75  3103.96  3105.39  3106.11
eigval :     3108.32  3108.86  3109.61  3111.05  3111.31  3112.35
 reduced masses (amu)
   1: 11.70   2: 11.62   3: 11.77   4: 11.65   5: 11.60   6: 11.62   7: 11.03   8: 11.03
   9: 11.13  10: 10.95  11: 10.91  12: 11.04  13: 10.75  14: 11.11  15: 10.60  16: 11.21
  17: 11.00  18: 10.92  19: 11.52  20: 10.71  21: 11.48  22: 10.67  23: 10.62  24: 10.73
  25: 11.77  26: 12.95  27: 10.84  28: 10.75  29: 10.88  30: 10.70  31: 10.71  32: 10.86
  33: 11.44  34: 11.35  35: 11.13  36: 11.51  37: 10.76  38: 11.15  39: 11.61  40: 11.34
  41: 11.40  42: 11.40  43: 11.53  44: 11.06  45: 12.09  46: 11.60  47: 11.00  48: 10.92
  49:  8.97  50:  8.93  51: 10.49  52:  9.54  53: 10.52  54:  9.68  55:  9.97  56: 10.32
  57: 10.96  58: 10.81  59: 10.92  60: 11.75  61: 11.43  62: 11.52  63: 11.45  64: 11.18
  65: 11.04  66: 10.72  67: 10.58  68: 11.30  69: 11.72  70: 11.36  71: 11.22  72: 11.22
  73: 11.60  74: 11.51  75: 11.55  76: 11.62  77: 11.34  78: 11.38  79: 11.54  80: 11.60
  81: 11.34  82: 11.62  83: 11.29  84: 10.38  85:  9.46  86:  9.65  87: 10.24  88: 11.49
  89: 11.65  90: 11.73  91: 11.70  92: 11.71  93:  5.44  94:  5.25  95:  5.18  96:  3.86
  97:  3.96  98:  3.87  99: 11.57 100: 11.57 101:  4.23 102:  9.83 103: 10.45 104: 11.15
 105:  5.07 106:  3.69 107:  3.47 108:  3.34 109:  3.37 110:  3.32 111:  9.52 112:  5.99
 113: 11.87 114: 11.89 115:  3.91 116:  3.91 117:  3.72 118:  3.75 119:  3.55 120:  3.64
 121:  3.12 122:  3.12 123:  3.10 124:  4.07 125:  4.11 126:  4.02 127:  3.19 128:  3.18
 129:  3.18 130: 12.04 131: 11.13 132: 11.12 133: 11.37 134:  8.49 135:  5.89 136:  6.00
 137:  6.96 138: 10.95 139:  7.35 140:  7.16 141:  6.70 142:  8.17 143:  4.22 144:  4.32
 145:  4.23 146:  8.22 147:  6.86 148:  6.65 149:  6.89 150:  6.11 151:  3.75 152:  2.85
 153:  2.99 154:  1.46 155:  1.50 156:  1.42 157:  5.40 158:  1.94 159:  2.00 160:  5.05
 161:  6.38 162:  2.61 163:  8.35 164:  6.35 165:  6.54 166:  6.90 167:  3.85 168:  3.89
 169:  4.04 170:  9.31 171:  8.65 172:  9.54 173: 10.70 174: 10.64 175: 11.52 176: 10.97
 177: 11.93 178: 11.90 179: 11.92 180: 11.60 181: 11.67 182: 11.40 183: 11.28 184: 11.30
 185:  9.47 186:  9.47 187:  9.38 188:  9.22 189:  9.17 190:  8.98 191: 11.51 192: 11.96
 193: 10.82 194:  9.25 195:  9.30 196:  9.77 197: 10.53 198: 10.47 199: 10.59 200: 11.84
 201: 12.13 202: 12.20 203: 12.19 204: 11.65 205: 11.51 206: 11.52 207: 11.52 208: 11.60
 209: 11.61 210: 11.59 211: 11.53 212: 11.54 213: 11.51 214: 11.83 215: 11.83 216: 11.82
 217: 12.79 218:  1.80 219:  1.79 220:  1.77 221:  1.80 222:  1.82 223:  1.79 224:  1.79
 225:  1.78 226:  1.79 227:  1.77 228:  1.82 229:  1.80 230:  1.82 231:  1.83 232:  1.81
 233:  1.87 234:  1.88 235:  1.88 236:  1.89 237:  1.86 238:  1.89 239:  1.87 240:  1.88
 241:  1.88 242:  1.89 243:  1.90 244:  1.87 245:  1.84 246:  1.83
 IR intensities (km·mol⁻¹)
   1:  0.07   2:  0.00   3:  0.01   4:  0.05   5:  0.07   6:  0.01   7:  0.08   8:  0.33
   9:  0.09  10:  0.37  11:  0.25  12:  0.27  13:  0.19  14:  0.20  15:  1.20  16:  0.80
  17:  1.87  18:  0.38  19:  1.47  20:  1.50  21:  1.68  22:  1.38  23:  0.72  24:  0.02
  25:  2.79  26:  4.16  27:  0.22  28:  0.06  29:  0.51  30:  2.33  31:  2.53  32:  0.39
  33:  1.38  34:  0.14  35:  3.27  36:  1.64  37:  1.45  38:  4.80  39:  0.65  40:  1.33
  41:  0.81  42:  5.18  43:  9.08  44:  1.87  45:  2.31  46:  0.90  47:  0.75  48:  0.37
  49:  0.14  50:  0.35  51:  2.94  52:  2.36  53:  0.30  54:  0.18  55:  2.78  56:  0.12
  57:  0.43  58:  1.00  59:  0.69  60:  2.38  61:  0.46  62:  0.88  63:  1.21  64:  1.53
  65:  1.04  66:  0.38  67:  2.36  68:  4.10  69:  7.98  70:  1.75  71:  0.17  72:  0.10
  73:  3.18  74:  7.07  75:  1.07  76:  0.87  77:  2.63  78:  0.07  79:  9.52  80:  5.69
  81: 13.74  82:  3.92  83:  4.57  84:  0.16  85: 36.21  86:  4.90  87:  9.11  88:  0.80
  89:  1.59  90:  5.18  91:  2.14  92:  7.57  93: 50.23  94:  6.67  95: 27.57  96: 11.47
  97: 52.07  98: 36.74  99: 16.97 100:  8.71 101: 10.22 102:  8.50 103: 16.99 104:  6.04
 105:  2.03 106:  1.47 107:  4.67 108:  1.37 109:  3.72 110:  2.95 111:  0.16 112:  0.19
 113: 19.49 114: 18.44 115:  0.19 116:  0.15 117:  0.06 118:  0.02 119:  0.35 120:  0.47
 121:  0.03 122:  0.02 123:  0.05 124:  0.67 125:  1.09 126:  0.93 127:  0.02 128:  0.08
 129:  0.27 130:  1.26 131: 12.78 132: 11.11 133:  0.33 134: 18.86 135:  4.69 136:  0.91
 137:  0.38 138: 10.01 139:  0.65 140:  0.92 141:  6.76 142:  7.30 143:  2.61 144:  1.82
 145:  3.56 146: 16.41 147:  8.82 148:  5.60 149:  0.47 150: 22.40 151: 22.21 152:  0.60
 153:  5.19 154:  0.56 155:  1.31 156:  0.34 157: 73.50 158: 17.75 159: 12.29 160: 28.55
 161:  0.42 162:  2.90 163: 11.24 164:  1.11 165:  1.19 166:  1.20 167:  8.81 168:  3.20
 169:  3.19 170: 45.37 171: 41.83 172: 10.97 173:189.57 174:205.84 175:368.82 176: 10.91
 177:  9.75 178: 14.21 179:  4.53 180:418.41 181:796.56 182: 76.76 183: 94.23 184:  3.34
 185:  2.62 186: 23.87 187: 76.25 188:  6.31 189: 27.18 190:  4.88 191:659.12 192:  7.58
 193:297.96 194:  2.89 195: 26.08 196:  9.47 197: 42.04 198: 10.33 199: 21.55 200:300.02
 201:101.00 202:  4.81 203: 97.00 204:517.90 205:  1.82 206:  0.29 207:  1.25 208:  3.59
 209:  3.09 210:  1.32 211:  1.58 212:  2.45 213:  1.26 214: 52.20 215: 36.61 216: 24.87
 217:377.44 218: 38.83 219: 41.00 220: 19.74 221: 33.27 222: 24.80 223:  0.71 224: 23.22
 225:  7.97 226: 23.42 227: 14.73 228: 28.51 229: 48.58 230: 56.20 231: 57.02 232: 37.28
 233: 94.11 234: 52.73 235:124.05 236: 40.42 237: 70.24 238: 37.06 239: 42.75 240: 40.26
 241: 57.03 242: 65.91 243: 52.21 244: 34.87 245:  6.35 246:  1.33
 Raman intensities (Ä⁴*amu⁻¹)
   1:  0.00   2:  0.00   3:  0.00   4:  0.00   5:  0.00   6:  0.00   7:  0.00   8:  0.00
   9:  0.00  10:  0.00  11:  0.00  12:  0.00  13:  0.00  14:  0.00  15:  0.00  16:  0.00
  17:  0.00  18:  0.00  19:  0.00  20:  0.00  21:  0.00  22:  0.00  23:  0.00  24:  0.00
  25:  0.00  26:  0.00  27:  0.00  28:  0.00  29:  0.00  30:  0.00  31:  0.00  32:  0.00
  33:  0.00  34:  0.00  35:  0.00  36:  0.00  37:  0.00  38:  0.00  39:  0.00  40:  0.00
  41:  0.00  42:  0.00  43:  0.00  44:  0.00  45:  0.00  46:  0.00  47:  0.00  48:  0.00
  49:  0.00  50:  0.00  51:  0.00  52:  0.00  53:  0.00  54:  0.00  55:  0.00  56:  0.00
  57:  0.00  58:  0.00  59:  0.00  60:  0.00  61:  0.00  62:  0.00  63:  0.00  64:  0.00
  65:  0.00  66:  0.00  67:  0.00  68:  0.00  69:  0.00  70:  0.00  71:  0.00  72:  0.00
  73:  0.00  74:  0.00  75:  0.00  76:  0.00  77:  0.00  78:  0.00  79:  0.00  80:  0.00
  81:  0.00  82:  0.00  83:  0.00  84:  0.00  85:  0.00  86:  0.00  87:  0.00  88:  0.00
  89:  0.00  90:  0.00  91:  0.00  92:  0.00  93:  0.00  94:  0.00  95:  0.00  96:  0.00
  97:  0.00  98:  0.00  99:  0.00 100:  0.00 101:  0.00 102:  0.00 103:  0.00 104:  0.00
 105:  0.00 106:  0.00 107:  0.00 108:  0.00 109:  0.00 110:  0.00 111:  0.00 112:  0.00
 113:  0.00 114:  0.00 115:  0.00 116:  0.00 117:  0.00 118:  0.00 119:  0.00 120:  0.00
 121:  0.00 122:  0.00 123:  0.00 124:  0.00 125:  0.00 126:  0.00 127:  0.00 128:  0.00
 129:  0.00 130:  0.00 131:  0.00 132:  0.00 133:  0.00 134:  0.00 135:  0.00 136:  0.00
 137:  0.00 138:  0.00 139:  0.00 140:  0.00 141:  0.00 142:  0.00 143:  0.00 144:  0.00
 145:  0.00 146:  0.00 147:  0.00 148:  0.00 149:  0.00 150:  0.00 151:  0.00 152:  0.00
 153:  0.00 154:  0.00 155:  0.00 156:  0.00 157:  0.00 158:  0.00 159:  0.00 160:  0.00
 161:  0.00 162:  0.00 163:  0.00 164:  0.00 165:  0.00 166:  0.00 167:  0.00 168:  0.00
 169:  0.00 170:  0.00 171:  0.00 172:  0.00 173:  0.00 174:  0.00 175:  0.00 176:  0.00
 177:  0.00 178:  0.00 179:  0.00 180:  0.00 181:  0.00 182:  0.00 183:  0.00 184:  0.00
 185:  0.00 186:  0.00 187:  0.00 188:  0.00 189:  0.00 190:  0.00 191:  0.00 192:  0.00
 193:  0.00 194:  0.00 195:  0.00 196:  0.00 197:  0.00 198:  0.00 199:  0.00 200:  0.00
 201:  0.00 202:  0.00 203:  0.00 204:  0.00 205:  0.00 206:  0.00 207:  0.00 208:  0.00
 209:  0.00 210:  0.00 211:  0.00 212:  0.00 213:  0.00 214:  0.00 215:  0.00 216:  0.00
 217:  0.00 218:  0.00 219:  0.00 220:  0.00 221:  0.00 222:  0.00 223:  0.00 224:  0.00
 225:  0.00 226:  0.00 227:  0.00 228:  0.00 229:  0.00 230:  0.00 231:  0.00 232:  0.00
 233:  0.00 234:  0.00 235:  0.00 236:  0.00 237:  0.00 238:  0.00 239:  0.00 240:  0.00
 241:  0.00 242:  0.00 243:  0.00 244:  0.00 245:  0.00 246:  0.00
 output can be read by thermo (or use thermo option).
 writing <g98.out> molden fake output.
 recommended (thermochemical) frequency scaling factor: 1.0
           -------------------------------------------------
          |             Thermodynamic Functions             |
           -------------------------------------------------

Molecule has no symmetry elements
It seems to be the C1 point group
c1  symmetry found (for desy threshold:  0.10E+00) used in thermo

          ...................................................
          :                      SETUP                      :
          :.................................................:
          :  # frequencies                         240      :
          :  # imaginary freq.                       0      :
          :  linear?                             false      :
          :  only rotor calc.                    false      :
          :  symmetry                               c1      :
          :  rotational number                       1      :
          :  scaling factor                  1.0000000      :
          :  rotor cutoff                   50.0000000 cm⁻¹ :
          :  imag. cutoff                  -20.0000000 cm⁻¹ :
          :.................................................:

    mode    ω/cm⁻¹     T·S(HO)/kcal·mol⁻¹    T·S(FR)/kcal·mol⁻¹   T·S(vib)
   ------------------------------------------------------------------------
       1     13.86    -2.19528 (  0.59%)    -1.43666 ( 99.41%)    -1.44111
       2     19.28    -1.99969 (  2.16%)    -1.33883 ( 97.84%)    -1.35313
       3     19.64    -1.98884 (  2.32%)    -1.33340 ( 97.68%)    -1.34863
       4     27.38    -1.79208 (  8.25%)    -1.23492 ( 91.75%)    -1.28089
       5     30.41    -1.72992 ( 12.04%)    -1.20379 ( 87.96%)    -1.26715
       6     31.97    -1.70040 ( 14.32%)    -1.18901 ( 85.68%)    -1.26226
       7     39.96    -1.56854 ( 28.98%)    -1.12291 ( 71.02%)    -1.25207
       8     47.47    -1.46687 ( 44.84%)    -1.07189 ( 55.16%)    -1.24898
       9     53.27    -1.39891 ( 56.31%)    -1.03775 ( 43.69%)    -1.24112
      10     56.36    -1.36579 ( 61.74%)    -1.02109 ( 38.26%)    -1.23392
      11     58.99    -1.33892 ( 65.95%)    -1.00757 ( 34.05%)    -1.22611
      12     60.23    -1.32663 ( 67.80%)    -1.00138 ( 32.20%)    -1.22191
      13     66.60    -1.26758 ( 75.89%)    -0.97163 ( 24.11%)    -1.19622
      14     68.24    -1.25323 ( 77.63%)    -0.96439 ( 22.37%)    -1.18862
      15     77.07    -1.18193 ( 84.95%)    -0.92837 ( 15.05%)    -1.14377
      16     83.74    -1.13332 ( 88.72%)    -0.90377 ( 11.28%)    -1.10744
      17     89.04    -1.09752 ( 90.95%)    -0.88560 (  9.05%)    -1.07835
      18     92.86    -1.07299 ( 92.25%)    -0.87314 (  7.75%)    -1.05750
      19    104.70    -1.00324 ( 95.06%)    -0.83760 (  4.94%)    -0.99505
      20    124.63    -0.90259 ( 97.47%)    -0.78599 (  2.53%)    -0.89965
      21    150.06    -0.79651 ( 98.78%)    -0.73098 (  1.22%)    -0.79572
      22    152.77    -0.78635 ( 98.87%)    -0.72567 (  1.13%)    -0.78566
      23    169.96    -0.72628 ( 99.26%)    -0.69409 (  0.74%)    -0.72604
      24    185.51    -0.67746 ( 99.48%)    -0.66815 (  0.52%)    -0.67741
      25    187.83    -0.67058 ( 99.50%)    -0.66447 (  0.50%)    -0.67055
      26    194.52    -0.65125 ( 99.57%)    -0.65410 (  0.43%)    -0.65127
      27    213.82    -0.59953 ( 99.70%)    -0.62608 (  0.30%)    -0.59961
      28    226.14    -0.56927 ( 99.76%)    -0.60947 (  0.24%)    -0.56936
      29    233.20    -0.55282 ( 99.79%)    -0.60037 (  0.21%)    -0.55292
      30    251.78    -0.51224 ( 99.84%)    -0.57766 (  0.16%)    -0.51234
      31    258.85    -0.49777 ( 99.86%)    -0.56946 (  0.14%)    -0.49787
      32    267.12    -0.48143 ( 99.88%)    -0.56014 (  0.12%)    -0.48153
      33    284.74    -0.44873 ( 99.91%)    -0.54122 (  0.09%)    -0.44882
      34    287.63    -0.44361 ( 99.91%)    -0.53823 (  0.09%)    -0.44370
      35    289.56    -0.44023 ( 99.91%)    -0.53625 (  0.09%)    -0.44032
      36    297.45    -0.42672 ( 99.92%)    -0.52829 (  0.08%)    -0.42680
   ------------------------------------------------------------------------

   temp. (K)  partition function   enthalpy   heat capacity  entropy
                                   cal/mol     cal/K/mol   cal/K/mol   J/K/mol
 298.15  VIB  0.916E+19            24384.595    152.061    152.655
         ROT  0.711E+08              888.752      2.981     38.911
         INT  0.652E+27            25273.348    155.042    191.565
         TR   0.171E+29             1481.254      4.968     45.410
         TOT                       26754.6016   160.0098   236.9758   991.5068

       T/K    H(0)-H(T)+PV         H(T)/Eh          T*S/Eh         G(T)/Eh
   ------------------------------------------------------------------------
    298.15    0.426362E-01    0.657599E+00    0.112595E+00    0.545004E+00
   ------------------------------------------------------------------------

         :::::::::::::::::::::::::::::::::::::::::::::::::::::
         ::                  THERMODYNAMIC                  ::
         :::::::::::::::::::::::::::::::::::::::::::::::::::::
         :: total free energy        -133.323487732343 Eh   ::
         ::.................................................::
         :: total energy             -133.868492187744 Eh   ::
         :: zero point energy           0.614963134373 Eh   ::
         :: G(RRHO) w/o ZPVE           -0.069958678972 Eh   ::
         :: G(RRHO) contrib.            0.545004455400 Eh   ::
         :::::::::::::::::::::::::::::::::::::::::::::::::::::

optimized geometry written to: xtbopt.xyz


           -------------------------------------------------
          | TOTAL ENERGY             -133.868492187744 Eh   |
          | TOTAL ENTHALPY           -133.210892881783 Eh   |
          | TOTAL FREE ENERGY        -133.323487732343 Eh   |
          | GRADIENT NORM               0.000030038220 Eh/α |
          | HOMO-LUMO GAP               2.351169456997 eV   |
           -------------------------------------------------

------------------------------------------------------------------------
 * finished run on 2025/09/09 at 05:52:08.487     
------------------------------------------------------------------------
 total:
 * wall-time:     0 d,  0 h,  0 min,  7.631 sec
 *  cpu-time:     0 d,  0 h,  4 min, 35.787 sec
 * ratio c/w:    36.140 speedup
 SCF:
 * wall-time:     0 d,  0 h,  0 min,  0.162 sec
 *  cpu-time:     0 d,  0 h,  0 min,  6.222 sec
 * ratio c/w:    38.402 speedup
 ANC optimizer:
 * wall-time:     0 d,  0 h,  0 min,  2.649 sec
 *  cpu-time:     0 d,  0 h,  1 min, 45.934 sec
 * ratio c/w:    39.992 speedup
 analytical hessian:
 * wall-time:     0 d,  0 h,  0 min,  4.638 sec
 *  cpu-time:     0 d,  0 h,  2 min, 36.987 sec
 * ratio c/w:    33.850 speedup

