      -----------------------------------------------------------      
     |                   =====================                   |     
     |                           x T B                           |     
     |                   =====================                   |     
     |                         S. Grimme                         |     
     |          Mulliken Center for Theoretical Chemistry        |     
     |                    University of Bonn                     |     
      -----------------------------------------------------------      

   * xtb version 6.7.1 (edcfbbe) compiled by 'albert@albert-system' on 2024-07-22

   xtb is free software: you can redistribute it and/or modify it under
   the terms of the GNU Lesser General Public License as published by
   the Free Software Foundation, either version 3 of the License, or
   (at your option) any later version.
   
   xtb is distributed in the hope that it will be useful,
   but WITHOUT ANY WARRANTY; without even the implied warranty of
   MERCHANTABILITY or FITNESS FOR A PARTICULAR PURPOSE.  See the
   GNU Lesser General Public License for more details.
   
   Cite this work as:
   * C. Bannwarth, E. Caldeweyher, S. Ehlert, A. Hansen, P. Pracht,
     J. Seibert, S. Spicher, S. Grimme, WIREs Comput. Mol. Sci., 2020, 11,
     e01493. DOI: 10.1002/wcms.1493
   
   for GFN2-xTB:
   * C. Bannwarth, S. Ehlert and S. Grimme., J. Chem. Theory Comput., 2019,
     15, 1652-1671. DOI: 10.1021/acs.jctc.8b01176
   for GFN1-xTB:
   * S. Grimme, C. Bannwarth, P. Shushkov, J. Chem. Theory Comput., 2017,
     13, 1989-2009. DOI: 10.1021/acs.jctc.7b00118
   for GFN0-xTB:
   * P. Pracht, E. Caldeweyher, S. Ehlert, S. Grimme, ChemRxiv, 2019, preprint.
     DOI: 10.26434/chemrxiv.8326202.v1
   for GFN-FF:
   * S. Spicher and S. Grimme, Angew. Chem. Int. Ed., 2020, 59, 15665-15673.
     DOI: 10.1002/anie.202004239
   
   for ALPB and GBSA implicit solvation:
   * S. Ehlert, M. Stahn, S. Spicher, S. Grimme, J. Chem. Theory Comput.,
     2021, 17, 4250-4261. DOI: 10.1021/acs.jctc.1c00471
   
   for ddCOSMO and CPCM-X implicit solvation:
   * M. Stahn, S. Ehlert, S. Grimme, J. Phys. Chem. A,
     2023, XX, XXXX-XXXX. DOI: 10.1021/acs.jpca.3c04382
   
   for DFT-D4:
   * E. Caldeweyher, C. Bannwarth and S. Grimme, J. Chem. Phys., 2017,
     147, 034112. DOI: 10.1063/1.4993215
   * E. Caldeweyher, S. Ehlert, A. Hansen, H. Neugebauer, S. Spicher,
     C. Bannwarth and S. Grimme, J. Chem. Phys., 2019, 150, 154122.
     DOI: 10.1063/1.5090222
   * E. Caldeweyher, J.-M. Mewes, S. Ehlert and S. Grimme, Phys. Chem. Chem. Phys.
     2020, 22, 8499-8512. DOI: 10.1039/D0CP00502A
   
   for sTDA-xTB:
   * S. Grimme and C. Bannwarth, J. Chem. Phys., 2016, 145, 054103.
     DOI: 10.1063/1.4959605
   
   in the mass-spec context:
   * V. Asgeirsson, C. Bauer and S. Grimme, Chem. Sci., 2017, 8, 4879.
     DOI: 10.1039/c7sc00601b
   * J. Koopman and S. Grimme, ACS Omega 2019, 4, 12, 15120-15133.
     DOI: 10.1021/acsomega.9b02011
   
   for metadynamics refer to:
   * S. Grimme, J. Chem. Theory Comput., 2019, 155, 2847-2862
     DOI: 10.1021/acs.jctc.9b00143
   
   for SPH calculations refer to:
   * S. Spicher and S. Grimme, J. Chem. Theory Comput., 2021, 17, 1701-1714
     DOI: 10.1021/acs.jctc.0c01306
   
   for ONIOM refer to:
   * C. Plett, A. Katbashev, S. Ehlert, S. Grimme, M. Bursch,
     Phys. Chem. Chem. Phys., 2023, 25, 17860-17868. DOI: 10.1039/D3CP02178E
   
   for DIPRO refer to:
   * J. Kohn, N. Gildemeister, S. Grimme, D. Fazzi, A. Hansen,
     J. Chem. Phys., 2023, just accepted.
   
   for PTB refer to:
   * S. Grimme, M. Mueller, A. Hansen, J. Chem. Phys., 2023, 158, 124111.
     DOI: 10.1063/5.0137838
   
   with help from (in alphabetical order)
   P. Atkinson, C. Bannwarth, F. Bohle, G. Brandenburg, E. Caldeweyher
   M. Checinski, S. Dohm, S. Ehlert, S. Ehrlich, I. Gerasimov, C. Hölzer
   A. Katbashev, J. Kohn, J. Koopman, C. Lavigne, S. Lehtola, F. März, M. Müller,
   F. Musil, H. Neugebauer, J. Pisarek, C. Plett, P. Pracht, F. Pultar,
   J. Seibert, P. Shushkov, S. Spicher, M. Stahn, M. Steiner, T. Strunk,
   J. Stückrath, T. Rose, and J. Unsleber
   
 * started run on 2025/08/24 at 23:35:56.203     
   ID    Z sym.   atoms
    1    6 C      1-22, 24-32, 34-48
    2    7 N      23, 33
    3    1 H      49-86

           -------------------------------------------------
          |                Calculation Setup                |
           -------------------------------------------------

          program call               : xtb data2507/toluene/DMTAC/DMTAC_toluene_S0_finalOpt.xtbopt.xyz --gfn 2 --uhf 2 --gbsa toluene --ohess vtight --parallel 40 --molden --ceasefiles --namespace data2507/toluene/DMTAC/DMTAC_toluene_T1_preOpt
          calculation namespace      : data2507/toluene/DMTAC/DMTAC_toluene_T1_preOpt
          coordinate file            : data2507/toluene/DMTAC/DMTAC_toluene_S0_finalOpt.xtbopt.xyz
          omp threads                :                    40


           -------------------------------------------------
          |                 G F N 2 - x T B                 |
           -------------------------------------------------

        Reference                      10.1021/acs.jctc.8b01176
      * Hamiltonian:
        H0-scaling (s, p, d)           1.850000    2.230000    2.230000
        zeta-weighting                 0.500000
      * Dispersion:
        s8                             2.700000
        a1                             0.520000
        a2                             5.000000
        s9                             5.000000
      * Repulsion:
        kExp                           1.500000    1.000000
        rExp                           1.000000
      * Coulomb:
        alpha                          2.000000
        third order                    shell-resolved
        anisotropic                    true
        a3                             3.000000
        a5                             4.000000
        cn-shift                       1.200000
        cn-exp                         4.000000
        max-rad                        5.000000

      * Solvation model:               GBSA
        Solvent                        toluene
        Parameter file                 internal GFN2-xTB/GBSA
        Dielectric constant                7.0000E+00
        Reference state                gsolv [1 M gas/solution]
        Free energy shift                  4.5239E-03 Eh       2.8388E+00 kcal/mol
        Temperature                        2.9815E+02 K
        Density                            8.6700E-01 kg/L
        Solvent mass                       9.2140E+01 g/mol
        Interaction kernel             Still
        Born radius scaling (c1)           1.5686E+00
        Born radii integrator          GBOBC
        Born offset                        0.0000E+00 a0       0.0000E+00 AA
        H-bond correction              false
        Ion screening                  false
        Surface tension                    1.0000E-05 Eh       1.5569E+01 dyn/cm
        Grid points                               230 per atom

          ...................................................
          :                      SETUP                      :
          :.................................................:
          :  # basis functions                 230          :
          :  # atomic orbitals                 230          :
          :  # shells                          134          :
          :  # electrons                       232          :
          :  max. iterations                   250          :
          :  Hamiltonian                  GFN2-xTB          :
          :  restarted?                      false          :
          :  GBSA solvation                   true          :
          :  PC potential                    false          :
          :  electronic temp.          300.0000000     K    :
          :  accuracy                    1.0000000          :
          :  -> integral cutoff          0.2500000E+02      :
          :  -> integral neglect         0.1000000E-07      :
          :  -> SCF convergence          0.1000000E-05 Eh   :
          :  -> wf. convergence          0.1000000E-03 e    :
          :  Broyden damping             0.4000000          :
          :  net charge                          0          :
          :  unpaired electrons                  2          :
          ...................................................

 iter      E             dE          RMSdq      gap      omega  full diag
   1   -125.9189572 -0.125919E+03  0.377E+00    0.15       0.0  T
   2   -126.0048957 -0.859386E-01  0.236E+00    0.39       1.0  T
   3   -125.8872677  0.117628E+00  0.141E+00    0.48       1.0  T
   4   -126.0158927 -0.128625E+00  0.615E-01    0.35       1.0  T
   5   -126.0498819 -0.339892E-01  0.238E-01    0.33       1.0  T
   6   -126.0552227 -0.534085E-02  0.801E-02    0.31       1.0  T
   7   -126.0554292 -0.206460E-03  0.395E-02    0.32       1.0  T
   8   -126.0554640 -0.348406E-04  0.244E-02    0.32       1.0  T
   9   -126.0554990 -0.349549E-04  0.114E-02    0.32       1.0  T
  10   -126.0555063 -0.732718E-05  0.384E-03    0.32       2.8  T
  11   -126.0555070 -0.671437E-06  0.190E-03    0.32       5.7  T
  12   -126.0555071 -0.122832E-06  0.108E-03    0.32      10.0  T
  13   -126.0555071 -0.371434E-07  0.562E-04    0.32      19.2  T
  14   -126.0555071 -0.770532E-08  0.225E-04    0.32      48.0  T

   *** convergence criteria satisfied after 14 iterations ***

         #    Occupation            Energy/Eh            Energy/eV
      -------------------------------------------------------------
         1        2.0000           -0.6555688             -17.8389
       ...           ...                  ...                  ...
       111        2.0000           -0.3832313             -10.4283
       112        2.0000           -0.3812328             -10.3739
       113        2.0000           -0.3791565             -10.3174
       114        2.0000           -0.3685265             -10.0281
       115        2.0000           -0.3632761              -9.8852
       116        1.0000           -0.3398026              -9.2465
       117        0.9978           -0.2569840              -6.9929 (HOMO)
       118        0.0022           -0.2453960              -6.6776 (LUMO)
       119                         -0.2339571              -6.3663
       120                         -0.2214053              -6.0247
       121                         -0.2183867              -5.9426
       122                         -0.2169212              -5.9027
       ...                                ...                  ...
       230                          0.7208336              19.6149
      -------------------------------------------------------------
                  HL-Gap            0.0115879 Eh            0.3153 eV
             Fermi-level           -0.3013637 Eh           -8.2005 eV
 
 transition dipole moment (au) for excitation:         116         117
     X       Y       Z   
  -1.7146   1.6557   0.5543  total (au/Debye):    2.447   6.220
 dE (eV)             :    2.254
 oscillator strength :  0.46758E+00

 SCC (total)                   0 d,  0 h,  0 min,  0.240 sec
 SCC setup                      ...        0 min,  0.008 sec (  3.427%)
 Dispersion                     ...        0 min,  0.004 sec (  1.683%)
 classical contributions        ...        0 min,  0.000 sec (  0.121%)
 integral evaluation            ...        0 min,  0.009 sec (  3.754%)
 iterations                     ...        0 min,  0.177 sec ( 73.533%)
 molecular gradient             ...        0 min,  0.013 sec (  5.325%)
 printout                       ...        0 min,  0.029 sec ( 12.118%)

         :::::::::::::::::::::::::::::::::::::::::::::::::::::
         ::                     SUMMARY                     ::
         :::::::::::::::::::::::::::::::::::::::::::::::::::::
         :: total energy            -123.732140991787 Eh    ::
         :: total w/o Gsasa/hb      -123.687096202026 Eh    ::
         :: gradient norm              0.109116129625 Eh/a0 ::
         :: HOMO-LUMO gap              0.315324091904 eV    ::
         ::.................................................::
         :: SCC energy              -126.052778184490 Eh    ::
         :: -> isotropic ES            0.025214827249 Eh    ::
         :: -> anisotropic ES          0.022623033216 Eh    ::
         :: -> anisotropic XC          0.070253206147 Eh    ::
         :: -> dispersion             -0.129982112395 Eh    ::
         :: -> Gsolv                  -0.047309096916 Eh    ::
         ::    -> Gelec               -0.002264307155 Eh    ::
         ::    -> Gsasa               -0.049568669633 Eh    ::
         ::    -> Ghb                  0.000000000000 Eh    ::
         ::    -> Gshift               0.004523879872 Eh    ::
         :: repulsion energy           2.320637192703 Eh    ::
         :: add. restraining           0.000000000000 Eh    ::
         :: total charge               0.000000000000 e     ::
         :::::::::::::::::::::::::::::::::::::::::::::::::::::

      ----------------------------------------------------------- 
     |                   =====================                   |
     |                        A N C O P T                        |
     |                   =====================                   |
     |               Approximate Normal Coordinate               |
     |                Rational Function Optimizer                |
      ----------------------------------------------------------- 

Optimization log is written to '/dev/null'
      ----------------------------------------------------------- 
     |                   =====================                   |
     |                        A N C O P T                        |
     |                   =====================                   |
     |               Approximate Normal Coordinate               |
     |                Rational Function Optimizer                |
      ----------------------------------------------------------- 

          ...................................................
          :                      SETUP                      :
          :.................................................:
          :   optimization level         verytight          :
          :   max. optcycles                  1720          :
          :   ANC micro-cycles                  20          :
          :   degrees of freedom               252          :
          :.................................................:
          :   RF solver                   davidson          :
          :   write xtbopt.log                true          :
          :   linear?                        false          :
          :   energy convergence         0.1000000E-06 Eh   :
          :   grad. convergence          0.2000000E-03 Eh/α :
          :   maxmium RF displ.          1.0000000          :
          :   Hlow (freq-cutoff)         0.1000000E-01      :
          :   Hmax (freq-cutoff)         5.0000000          :
          :   S6 in model hess.         20.0000000          :
          ...................................................

generating ANC from exact Hessian ...
Using Lindh-Hessian (1995)
 Shifting diagonal of input Hessian by   9.922983816431231E-003
 Lowest  eigenvalues of input Hessian
    0.000000    0.000000    0.000000    0.000000    0.000000    0.000000
    0.010000    0.010081    0.010246    0.010283    0.010309    0.010359
    0.010599    0.010627    0.010756    0.010801    0.011140    0.011644
 Highest eigenvalues
    2.035194    2.040660    2.061343    2.070930    2.100988    2.151891
 

........................................................................
.............................. CYCLE    1 ..............................
........................................................................

 iter      E             dE          RMSdq      gap      omega  full diag
   1   -126.0555071 -0.126056E+03  0.106E-04    0.32       0.0  T
   2   -126.0555071  0.534030E-09  0.970E-05    0.32     111.1  T
   3   -126.0555071 -0.826205E-09  0.605E-05    0.32     178.3  T
     SCC iter.                  ...        0 min,  0.031 sec
     gradient                   ...        0 min,  0.013 sec
 * total energy  :  -123.7321410 Eh     change       -0.3248900E-08 Eh
   gradient norm :     0.1091156 Eh/α   predicted     0.0000000E+00 (-100.00%)
   displ. norm   :     0.1824218 α      lambda       -0.8153702E-02
   maximum displ.:     0.0507859 α      in ANC's #43, #24, #37, ...

........................................................................
.............................. CYCLE    2 ..............................
........................................................................

 iter      E             dE          RMSdq      gap      omega  full diag
   1   -126.0517587 -0.126052E+03  0.665E-02    0.45       0.0  T
   2   -126.0517767 -0.180689E-04  0.402E-02    0.45       1.0  T
   3   -126.0517429  0.338939E-04  0.297E-02    0.45       1.0  T
   4   -126.0517843 -0.414698E-04  0.102E-02    0.45       1.1  T
   5   -126.0517946 -0.102739E-04  0.353E-03    0.45       3.1  T
   6   -126.0517958 -0.120088E-05  0.105E-03    0.45      10.3  T
   7   -126.0517958 -0.318649E-07  0.599E-04    0.45      18.0  T
   8   -126.0517958 -0.139265E-07  0.223E-04    0.45      48.3  T
     SCC iter.                  ...        0 min,  0.076 sec
     gradient                   ...        0 min,  0.012 sec
 * total energy  :  -123.7380188 Eh     change       -0.5877773E-02 Eh
   gradient norm :     0.0506333 Eh/α   predicted    -0.4212944E-02 ( -28.32%)
   displ. norm   :     0.2131937 α      lambda       -0.3572078E-02
   maximum displ.:     0.0636625 α      in ANC's #43, #13, #24, ...

........................................................................
.............................. CYCLE    3 ..............................
........................................................................

 iter      E             dE          RMSdq      gap      omega  full diag
   1   -126.0513217 -0.126051E+03  0.643E-02    0.56       0.0  T
   2   -126.0513295 -0.784813E-05  0.395E-02    0.56       1.0  T
   3   -126.0512728  0.567801E-04  0.334E-02    0.56       1.0  T
   4   -126.0513501 -0.773933E-04  0.103E-02    0.56       1.0  T
   5   -126.0513596 -0.942635E-05  0.226E-03    0.56       4.8  T
   6   -126.0513599 -0.320803E-06  0.907E-04    0.56      11.9  T
   7   -126.0513599 -0.914248E-08  0.539E-04    0.56      20.0  T
     SCC iter.                  ...        0 min,  0.067 sec
     gradient                   ...        0 min,  0.012 sec
 * total energy  :  -123.7400658 Eh     change       -0.2047079E-02 Eh
   gradient norm :     0.0099457 Eh/α   predicted    -0.1867372E-02 (  -8.78%)
   displ. norm   :     0.1321995 α      lambda       -0.3993226E-03
   maximum displ.:     0.0648166 α      in ANC's #13, #46, #43, ...

........................................................................
.............................. CYCLE    4 ..............................
........................................................................

 iter      E             dE          RMSdq      gap      omega  full diag
   1   -126.0499081 -0.126050E+03  0.359E-02    0.57       0.0  T
   2   -126.0499057  0.235679E-05  0.238E-02    0.57       1.0  T
   3   -126.0498854  0.203052E-04  0.200E-02    0.57       1.0  T
   4   -126.0499184 -0.329299E-04  0.460E-03    0.57       2.3  T
   5   -126.0499200 -0.165346E-05  0.893E-04    0.57      12.1  T
   6   -126.0499200 -0.227210E-07  0.454E-04    0.57      23.7  T
   7   -126.0499200 -0.377524E-08  0.228E-04    0.57      47.3  T
     SCC iter.                  ...        0 min,  0.070 sec
     gradient                   ...        0 min,  0.012 sec
 * total energy  :  -123.7403746 Eh     change       -0.3087945E-03 Eh
   gradient norm :     0.0086459 Eh/α   predicted    -0.2031643E-03 ( -34.21%)
   displ. norm   :     0.2448098 α      lambda       -0.4703705E-03
   maximum displ.:     0.1369998 α      in ANC's #13, #5, #46, ...

........................................................................
.............................. CYCLE    5 ..............................
........................................................................

 iter      E             dE          RMSdq      gap      omega  full diag
   1   -126.0478111 -0.126048E+03  0.645E-02    0.57       0.0  T
   2   -126.0478014  0.967010E-05  0.424E-02    0.58       1.0  T
   3   -126.0477265  0.749404E-04  0.365E-02    0.57       1.0  T
   4   -126.0478408 -0.114349E-03  0.682E-03    0.57       1.6  T
   5   -126.0478442 -0.338105E-05  0.136E-03    0.58       7.9  T
   6   -126.0478443 -0.370380E-07  0.723E-04    0.58      14.9  T
   7   -126.0478443 -0.109706E-07  0.344E-04    0.58      31.3  T
     SCC iter.                  ...        0 min,  0.070 sec
     gradient                   ...        0 min,  0.012 sec
 * total energy  :  -123.7406911 Eh     change       -0.3164612E-03 Eh
   gradient norm :     0.0081055 Eh/α   predicted    -0.2492819E-03 ( -21.23%)
   displ. norm   :     0.2000509 α      lambda       -0.2206518E-03
   maximum displ.:     0.1210537 α      in ANC's #13, #5, #16, ...

........................................................................
.............................. CYCLE    6 ..............................
........................................................................

 iter      E             dE          RMSdq      gap      omega  full diag
   1   -126.0478532 -0.126048E+03  0.510E-02    0.57       0.0  T
   2   -126.0478480  0.518373E-05  0.324E-02    0.57       1.0  T
   3   -126.0477853  0.627661E-04  0.295E-02    0.57       1.0  T
   4   -126.0478668 -0.814912E-04  0.393E-03    0.57       2.7  T
   5   -126.0478679 -0.108927E-05  0.903E-04    0.57      11.9  T
   6   -126.0478679 -0.162691E-07  0.470E-04    0.57      22.9  T
   7   -126.0478679 -0.405639E-08  0.233E-04    0.57      46.3  T
     SCC iter.                  ...        0 min,  0.070 sec
     gradient                   ...        0 min,  0.012 sec
 * total energy  :  -123.7408550 Eh     change       -0.1639124E-03 Eh
   gradient norm :     0.0063686 Eh/α   predicted    -0.1147573E-03 ( -29.99%)
   displ. norm   :     0.2226730 α      lambda       -0.1943411E-03
   maximum displ.:     0.1317087 α      in ANC's #13, #5, #16, ...

........................................................................
.............................. CYCLE    7 ..............................
........................................................................

 iter      E             dE          RMSdq      gap      omega  full diag
   1   -126.0495077 -0.126050E+03  0.555E-02    0.56       0.0  T
   2   -126.0495040  0.369256E-05  0.341E-02    0.57       1.0  T
   3   -126.0494178  0.862631E-04  0.314E-02    0.56       1.0  T
   4   -126.0495179 -0.100094E-03  0.290E-03    0.56       3.7  T
   5   -126.0495185 -0.616560E-06  0.817E-04    0.57      13.2  T
   6   -126.0495185 -0.181751E-07  0.398E-04    0.57      27.1  T
     SCC iter.                  ...        0 min,  0.063 sec
     gradient                   ...        0 min,  0.012 sec
 * total energy  :  -123.7409955 Eh     change       -0.1405171E-03 Eh
   gradient norm :     0.0045740 Eh/α   predicted    -0.1019905E-03 ( -27.42%)
   displ. norm   :     0.2070834 α      lambda       -0.1216009E-03
   maximum displ.:     0.1124908 α      in ANC's #13, #5, #16, ...

........................................................................
.............................. CYCLE    8 ..............................
........................................................................

 iter      E             dE          RMSdq      gap      omega  full diag
   1   -126.0511698 -0.126051E+03  0.504E-02    0.56       0.0  T
   2   -126.0511684  0.140547E-05  0.303E-02    0.56       1.0  T
   3   -126.0511042  0.641383E-04  0.259E-02    0.56       1.0  T
   4   -126.0511751 -0.708718E-04  0.215E-03    0.56       5.0  T
   5   -126.0511755 -0.364107E-06  0.666E-04    0.56      16.2  T
   6   -126.0511755 -0.161033E-07  0.330E-04    0.56      32.7  T
     SCC iter.                  ...        0 min,  0.062 sec
     gradient                   ...        0 min,  0.013 sec
 * total energy  :  -123.7410835 Eh     change       -0.8795203E-04 Eh
   gradient norm :     0.0041009 Eh/α   predicted    -0.6340813E-04 ( -27.91%)
   displ. norm   :     0.1872989 α      lambda       -0.8068972E-04
   maximum displ.:     0.0944941 α      in ANC's #5, #13, #16, ...

........................................................................
.............................. CYCLE    9 ..............................
........................................................................

 iter      E             dE          RMSdq      gap      omega  full diag
   1   -126.0524226 -0.126052E+03  0.443E-02    0.56       0.0  T
   2   -126.0524223  0.361527E-06  0.263E-02    0.56       1.0  T
   3   -126.0523845  0.377328E-04  0.195E-02    0.56       1.0  T
   4   -126.0524252 -0.407185E-04  0.185E-03    0.56       5.8  T
   5   -126.0524255 -0.297793E-06  0.551E-04    0.56      19.6  T
   6   -126.0524256 -0.123546E-07  0.272E-04    0.56      39.6  T
     SCC iter.                  ...        0 min,  0.060 sec
     gradient                   ...        0 min,  0.013 sec
 * total energy  :  -123.7411435 Eh     change       -0.5999163E-04 Eh
   gradient norm :     0.0033104 Eh/α   predicted    -0.4176047E-04 ( -30.39%)
   displ. norm   :     0.1749802 α      lambda       -0.6408093E-04
   maximum displ.:     0.0971991 α      in ANC's #5, #13, #16, ...

........................................................................
.............................. CYCLE   10 ..............................
........................................................................

 iter      E             dE          RMSdq      gap      omega  full diag
   1   -126.0529233 -0.126053E+03  0.394E-02    0.56       0.0  T
   2   -126.0529232  0.134408E-06  0.233E-02    0.56       1.0  T
   3   -126.0528999  0.233002E-04  0.150E-02    0.56       1.0  T
   4   -126.0529247 -0.248634E-04  0.144E-03    0.56       7.5  T
   5   -126.0529249 -0.180879E-06  0.436E-04    0.56      24.8  T
   6   -126.0529249 -0.753232E-08  0.217E-04    0.56      49.7  T
     SCC iter.                  ...        0 min,  0.061 sec
     gradient                   ...        0 min,  0.013 sec
 * total energy  :  -123.7411934 Eh     change       -0.4993862E-04 Eh
   gradient norm :     0.0026767 Eh/α   predicted    -0.3302177E-04 ( -33.88%)
   displ. norm   :     0.1732323 α      lambda       -0.6134692E-04
   maximum displ.:     0.1026731 α      in ANC's #5, #3, #4, ...

........................................................................
.............................. CYCLE   11 ..............................
........................................................................

 iter      E             dE          RMSdq      gap      omega  full diag
   1   -126.0529818 -0.126053E+03  0.355E-02    0.57       0.0  T
   2   -126.0529818  0.203027E-07  0.209E-02    0.57       1.0  T
   3   -126.0529707  0.111168E-04  0.100E-02    0.57       1.1  T
   4   -126.0529825 -0.117577E-04  0.821E-04    0.57      13.1  T
   5   -126.0529825 -0.491404E-07  0.317E-04    0.57      34.0  T
   6   -126.0529825 -0.285087E-08  0.166E-04    0.57      65.1  T
     SCC iter.                  ...        0 min,  0.058 sec
     gradient                   ...        0 min,  0.013 sec
 * total energy  :  -123.7412422 Eh     change       -0.4875483E-04 Eh
   gradient norm :     0.0032612 Eh/α   predicted    -0.3159504E-04 ( -35.20%)
   displ. norm   :     0.1847397 α      lambda       -0.6027388E-04
   maximum displ.:     0.1118119 α      in ANC's #5, #3, #4, ...

........................................................................
.............................. CYCLE   12 ..............................
........................................................................

 iter      E             dE          RMSdq      gap      omega  full diag
   1   -126.0523019 -0.126052E+03  0.343E-02    0.57       0.0  T
   2   -126.0523019  0.557071E-07  0.203E-02    0.57       1.0  T
   3   -126.0522920  0.985716E-05  0.943E-03    0.57       1.1  T
   4   -126.0523024 -0.104288E-04  0.726E-04    0.57      14.8  T
   5   -126.0523025 -0.305045E-07  0.292E-04    0.57      36.9  T
   6   -126.0523025 -0.789925E-09  0.157E-04    0.57      68.7  T
     SCC iter.                  ...        0 min,  0.059 sec
     gradient                   ...        0 min,  0.013 sec
 * total energy  :  -123.7412904 Eh     change       -0.4826056E-04 Eh
   gradient norm :     0.0034356 Eh/α   predicted    -0.3117341E-04 ( -35.41%)
   displ. norm   :     0.1930958 α      lambda       -0.5750830E-04
   maximum displ.:     0.1179751 α      in ANC's #5, #3, #4, ...

........................................................................
.............................. CYCLE   13 ..............................
........................................................................

 iter      E             dE          RMSdq      gap      omega  full diag
   1   -126.0518475 -0.126052E+03  0.318E-02    0.57       0.0  T
   2   -126.0518477 -0.199039E-06  0.187E-02    0.57       1.0  T
   3   -126.0518428  0.493816E-05  0.732E-03    0.57       1.5  T
   4   -126.0518480 -0.524227E-05  0.124E-03    0.57       8.7  T
   5   -126.0518482 -0.134642E-06  0.343E-04    0.57      31.4  T
   6   -126.0518482 -0.189354E-08  0.203E-04    0.57      53.1  T
     SCC iter.                  ...        0 min,  0.058 sec
     gradient                   ...        0 min,  0.013 sec
 * total energy  :  -123.7413363 Eh     change       -0.4589603E-04 Eh
   gradient norm :     0.0031113 Eh/α   predicted    -0.2983684E-04 ( -34.99%)
   displ. norm   :     0.2000602 α      lambda       -0.5395712E-04
   maximum displ.:     0.1227789 α      in ANC's #5, #3, #4, ...

........................................................................
.............................. CYCLE   14 ..............................
........................................................................

 iter      E             dE          RMSdq      gap      omega  full diag
   1   -126.0512134 -0.126051E+03  0.311E-02    0.58       0.0  T
   2   -126.0512137 -0.246126E-06  0.184E-02    0.58       1.0  T
   3   -126.0512058  0.787268E-05  0.954E-03    0.58       1.1  T
   4   -126.0512142 -0.842659E-05  0.156E-03    0.58       6.9  T
   5   -126.0512145 -0.231187E-06  0.372E-04    0.58      29.0  T
   6   -126.0512145 -0.496586E-08  0.210E-04    0.58      51.3  T
     SCC iter.                  ...        0 min,  0.059 sec
     gradient                   ...        0 min,  0.013 sec
 * total energy  :  -123.7413795 Eh     change       -0.4312904E-04 Eh
   gradient norm :     0.0021472 Eh/α   predicted    -0.2806342E-04 ( -34.93%)
   displ. norm   :     0.2110359 α      lambda       -0.5239127E-04
   maximum displ.:     0.1297573 α      in ANC's #5, #3, #4, ...

........................................................................
.............................. CYCLE   15 ..............................
........................................................................

 iter      E             dE          RMSdq      gap      omega  full diag
   1   -126.0513846 -0.126051E+03  0.301E-02    0.58       0.0  T
   2   -126.0513851 -0.491907E-06  0.177E-02    0.58       1.0  T
   3   -126.0513807  0.439318E-05  0.757E-03    0.58       1.4  T
   4   -126.0513856 -0.488012E-05  0.107E-03    0.58      10.1  T
   5   -126.0513857 -0.840429E-07  0.466E-04    0.58      23.1  T
   6   -126.0513857 -0.134255E-07  0.240E-04    0.58      44.9  T
     SCC iter.                  ...        0 min,  0.059 sec
     gradient                   ...        0 min,  0.013 sec
 * total energy  :  -123.7414214 Eh     change       -0.4197520E-04 Eh
   gradient norm :     0.0021725 Eh/α   predicted    -0.2736569E-04 ( -34.81%)
   displ. norm   :     0.2265919 α      lambda       -0.5290550E-04
   maximum displ.:     0.1388475 α      in ANC's #5, #3, #4, ...

........................................................................
.............................. CYCLE   16 ..............................
........................................................................

 iter      E             dE          RMSdq      gap      omega  full diag
   1   -126.0515107 -0.126052E+03  0.312E-02    0.59       0.0  T
   2   -126.0515111 -0.415766E-06  0.183E-02    0.58       1.0  T
   3   -126.0515068  0.433721E-05  0.718E-03    0.59       1.5  T
   4   -126.0515115 -0.467784E-05  0.122E-03    0.59       8.8  T
   5   -126.0515116 -0.130935E-06  0.464E-04    0.58      23.3  T
   6   -126.0515116 -0.130659E-07  0.226E-04    0.58      47.7  T
     SCC iter.                  ...        0 min,  0.058 sec
     gradient                   ...        0 min,  0.013 sec
 * total energy  :  -123.7414644 Eh     change       -0.4296820E-04 Eh
   gradient norm :     0.0028351 Eh/α   predicted    -0.2781145E-04 ( -35.27%)
   displ. norm   :     0.2627554 α      lambda       -0.5792132E-04
   maximum displ.:     0.1599431 α      in ANC's #5, #3, #4, ...

........................................................................
.............................. CYCLE   17 ..............................
........................................................................

 iter      E             dE          RMSdq      gap      omega  full diag
   1   -126.0520509 -0.126052E+03  0.336E-02    0.59       0.0  T
   2   -126.0520514 -0.580844E-06  0.197E-02    0.59       1.0  T
   3   -126.0520498  0.168248E-05  0.437E-03    0.59       2.5  T
   4   -126.0520517 -0.196636E-05  0.709E-04    0.59      15.2  T
   5   -126.0520517 -0.190216E-07  0.366E-04    0.59      29.5  T
   6   -126.0520517 -0.188241E-08  0.158E-04    0.59      68.4  T
     SCC iter.                  ...        0 min,  0.059 sec
     gradient                   ...        0 min,  0.013 sec
 * total energy  :  -123.7415107 Eh     change       -0.4626174E-04 Eh
   gradient norm :     0.0032202 Eh/α   predicted    -0.3096081E-04 ( -33.07%)
   displ. norm   :     0.2846341 α      lambda       -0.5535349E-04
   maximum displ.:     0.1725774 α      in ANC's #5, #3, #4, ...

........................................................................
.............................. CYCLE   18 ..............................
........................................................................

 iter      E             dE          RMSdq      gap      omega  full diag
   1   -126.0521590 -0.126052E+03  0.358E-02    0.59       0.0  T
   2   -126.0521596 -0.550652E-06  0.210E-02    0.59       1.0  T
   3   -126.0521584  0.122197E-05  0.374E-03    0.59       2.9  T
   4   -126.0521598 -0.144480E-05  0.766E-04    0.59      14.1  T
   5   -126.0521598 -0.264074E-07  0.433E-04    0.59      24.9  T
   6   -126.0521598 -0.434528E-08  0.245E-04    0.59      44.1  T
     SCC iter.                  ...        0 min,  0.057 sec
     gradient                   ...        0 min,  0.013 sec
 * total energy  :  -123.7415531 Eh     change       -0.4247991E-04 Eh
   gradient norm :     0.0028118 Eh/α   predicted    -0.2992056E-04 ( -29.57%)
   displ. norm   :     0.2657312 α      lambda       -0.4469650E-04
   maximum displ.:     0.1601342 α      in ANC's #5, #3, #4, ...

........................................................................
.............................. CYCLE   19 ..............................
........................................................................

 iter      E             dE          RMSdq      gap      omega  full diag
   1   -126.0523242 -0.126052E+03  0.329E-02    0.59       0.0  T
   2   -126.0523247 -0.483142E-06  0.193E-02    0.59       1.0  T
   3   -126.0523228  0.184210E-05  0.455E-03    0.59       2.4  T
   4   -126.0523249 -0.207975E-05  0.828E-04    0.59      13.0  T
   5   -126.0523249 -0.429557E-07  0.389E-04    0.59      27.7  T
   6   -126.0523250 -0.298154E-08  0.199E-04    0.59      54.1  T
     SCC iter.                  ...        0 min,  0.059 sec
     gradient                   ...        0 min,  0.013 sec
 * total energy  :  -123.7415870 Eh     change       -0.3384465E-04 Eh
   gradient norm :     0.0018761 Eh/α   predicted    -0.2392878E-04 ( -29.30%)
   displ. norm   :     0.3586468 α      lambda       -0.3465308E-04
   maximum displ.:     0.2137651 α      in ANC's #5, #3, #4, ...

........................................................................
.............................. CYCLE   20 ..............................
........................................................................

 iter      E             dE          RMSdq      gap      omega  full diag
   1   -126.0520989 -0.126052E+03  0.457E-02    0.60       0.0  T
   2   -126.0520997 -0.793943E-06  0.269E-02    0.60       1.0  T
   3   -126.0520923  0.737773E-05  0.836E-03    0.60       1.3  T
   4   -126.0521003 -0.794857E-05  0.150E-03    0.60       7.2  T
   5   -126.0521005 -0.177784E-06  0.660E-04    0.60      16.3  T
   6   -126.0521005 -0.209465E-07  0.385E-04    0.60      28.0  T
     SCC iter.                  ...        0 min,  0.059 sec
     gradient                   ...        0 min,  0.013 sec
 * total energy  :  -123.7416184 Eh     change       -0.3139047E-04 Eh
   gradient norm :     0.0020263 Eh/α   predicted    -0.1831762E-04 ( -41.65%)
   displ. norm   :     0.0874256 α      lambda       -0.1411245E-04
   maximum displ.:     0.0489110 α      in ANC's #5, #1, #3, ...
 * RMSD in coord.:     0.3613651 α      energy gain  -0.9477383E-02 Eh

generating ANC from exact Hessian ...
Using Lindh-Hessian (1995)
 Shifting diagonal of input Hessian by   9.926230374091759E-003
 Lowest  eigenvalues of input Hessian
    0.000000    0.000000    0.000000    0.000000    0.000000    0.000000
    0.010000    0.010079    0.010242    0.010287    0.010322    0.010374
    0.010604    0.010617    0.010762    0.010822    0.011209    0.011612
 Highest eigenvalues
    2.036035    2.039132    2.059235    2.070790    2.098177    2.135049
 

........................................................................
.............................. CYCLE   21 ..............................
........................................................................

 iter      E             dE          RMSdq      gap      omega  full diag
   1   -126.0524270 -0.126052E+03  0.115E-02    0.60       0.0  T
   2   -126.0524271 -0.544093E-07  0.684E-03    0.60       1.6  T
   3   -126.0524257  0.135652E-05  0.359E-03    0.60       3.0  T
   4   -126.0524272 -0.144450E-05  0.686E-04    0.60      15.7  T
   5   -126.0524272 -0.436906E-07  0.166E-04    0.60      65.1  T
   6   -126.0524272 -0.848871E-09  0.102E-04    0.60     105.7  T
     SCC iter.                  ...        0 min,  0.067 sec
     gradient                   ...        0 min,  0.013 sec
 * total energy  :  -123.7416305 Eh     change       -0.1207722E-04 Eh
   gradient norm :     0.0018592 Eh/α   predicted     0.0000000E+00 (-100.00%)
   displ. norm   :     0.0276716 α      lambda       -0.5422062E-05
   maximum displ.:     0.0112740 α      in ANC's #1, #9, #13, ...

........................................................................
.............................. CYCLE   22 ..............................
........................................................................

 iter      E             dE          RMSdq      gap      omega  full diag
   1   -126.0524663 -0.126052E+03  0.586E-03    0.60       0.0  T
   2   -126.0524663 -0.552626E-07  0.347E-03    0.60       3.1  T
   3   -126.0524660  0.349477E-06  0.251E-03    0.60       4.3  T
   4   -126.0524664 -0.419605E-06  0.725E-04    0.60      14.9  T
   5   -126.0524664 -0.510401E-07  0.131E-04    0.60      82.5  T
     SCC iter.                  ...        0 min,  0.048 sec
     gradient                   ...        0 min,  0.012 sec
 * total energy  :  -123.7416403 Eh     change       -0.9842062E-05 Eh
   gradient norm :     0.0007952 Eh/α   predicted    -0.4236592E-05 ( -56.95%)
   displ. norm   :     0.0632315 α      lambda       -0.9470723E-05
   maximum displ.:     0.0289907 α      in ANC's #1, #9, #13, ...

........................................................................
.............................. CYCLE   23 ..............................
........................................................................

 iter      E             dE          RMSdq      gap      omega  full diag
   1   -126.0524255 -0.126052E+03  0.117E-02    0.60       0.0  T
   2   -126.0524256 -0.179144E-06  0.693E-03    0.60       1.6  T
   3   -126.0524238  0.183919E-05  0.514E-03    0.60       2.1  T
   4   -126.0524259 -0.211784E-05  0.137E-03    0.60       7.9  T
   5   -126.0524261 -0.179909E-06  0.262E-04    0.60      41.2  T
   6   -126.0524261 -0.141836E-08  0.148E-04    0.60      72.9  T
     SCC iter.                  ...        0 min,  0.060 sec
     gradient                   ...        0 min,  0.012 sec
 * total energy  :  -123.7416500 Eh     change       -0.9747224E-05 Eh
   gradient norm :     0.0009271 Eh/α   predicted    -0.5198199E-05 ( -46.67%)
   displ. norm   :     0.0414049 α      lambda       -0.3194573E-05
   maximum displ.:     0.0228421 α      in ANC's #1, #9, #6, ...

........................................................................
.............................. CYCLE   24 ..............................
........................................................................

 iter      E             dE          RMSdq      gap      omega  full diag
   1   -126.0524842 -0.126052E+03  0.664E-03    0.60       0.0  T
   2   -126.0524842 -0.492691E-07  0.391E-03    0.60       2.8  T
   3   -126.0524837  0.561526E-06  0.241E-03    0.60       4.5  T
   4   -126.0524843 -0.612062E-06  0.551E-04    0.60      19.6  T
   5   -126.0524843 -0.283488E-07  0.152E-04    0.60      70.9  T
     SCC iter.                  ...        0 min,  0.048 sec
     gradient                   ...        0 min,  0.012 sec
 * total energy  :  -123.7416539 Eh     change       -0.3831614E-05 Eh
   gradient norm :     0.0008900 Eh/α   predicted    -0.1598665E-05 ( -58.28%)
   displ. norm   :     0.0564125 α      lambda       -0.3950286E-05
   maximum displ.:     0.0332585 α      in ANC's #1, #9, #6, ...

........................................................................
.............................. CYCLE   25 ..............................
........................................................................

 iter      E             dE          RMSdq      gap      omega  full diag
   1   -126.0525766 -0.126053E+03  0.822E-03    0.60       0.0  T
   2   -126.0525767 -0.618528E-07  0.486E-03    0.60       2.2  T
   3   -126.0525758  0.894550E-06  0.309E-03    0.60       3.5  T
   4   -126.0525768 -0.100020E-05  0.547E-04    0.60      19.7  T
   5   -126.0525768 -0.268431E-07  0.217E-04    0.60      49.6  T
   6   -126.0525768 -0.335527E-08  0.941E-05    0.60     114.6  T
     SCC iter.                  ...        0 min,  0.059 sec
     gradient                   ...        0 min,  0.013 sec
 * total energy  :  -123.7416586 Eh     change       -0.4685795E-05 Eh
   gradient norm :     0.0004731 Eh/α   predicted    -0.1981027E-05 ( -57.72%)
   displ. norm   :     0.0631409 α      lambda       -0.3546567E-05
   maximum displ.:     0.0389246 α      in ANC's #1, #9, #6, ...

........................................................................
.............................. CYCLE   26 ..............................
........................................................................

 iter      E             dE          RMSdq      gap      omega  full diag
   1   -126.0526543 -0.126053E+03  0.812E-03    0.60       0.0  T
   2   -126.0526544 -0.439362E-07  0.479E-03    0.60       2.2  T
   3   -126.0526536  0.783366E-06  0.293E-03    0.60       3.7  T
   4   -126.0526545 -0.873113E-06  0.454E-04    0.60      23.7  T
   5   -126.0526545 -0.195261E-07  0.184E-04    0.60      58.7  T
     SCC iter.                  ...        0 min,  0.048 sec
     gradient                   ...        0 min,  0.013 sec
 * total energy  :  -123.7416628 Eh     change       -0.4232537E-05 Eh
   gradient norm :     0.0004548 Eh/α   predicted    -0.1777273E-05 ( -58.01%)
   displ. norm   :     0.0662152 α      lambda       -0.3213784E-05
   maximum displ.:     0.0416069 α      in ANC's #1, #9, #6, ...

........................................................................
.............................. CYCLE   27 ..............................
........................................................................

 iter      E             dE          RMSdq      gap      omega  full diag
   1   -126.0526934 -0.126053E+03  0.756E-03    0.60       0.0  T
   2   -126.0526934 -0.112900E-07  0.446E-03    0.60       2.4  T
   3   -126.0526928  0.623402E-06  0.248E-03    0.60       4.3  T
   4   -126.0526935 -0.676453E-06  0.332E-04    0.60      32.4  T
   5   -126.0526935 -0.110062E-07  0.116E-04    0.60      92.9  T
     SCC iter.                  ...        0 min,  0.049 sec
     gradient                   ...        0 min,  0.013 sec
 * total energy  :  -123.7416668 Eh     change       -0.4054614E-05 Eh
   gradient norm :     0.0006795 Eh/α   predicted    -0.1611359E-05 ( -60.26%)
   displ. norm   :     0.0778455 α      lambda       -0.3666224E-05
   maximum displ.:     0.0491801 α      in ANC's #1, #9, #6, ...

........................................................................
.............................. CYCLE   28 ..............................
........................................................................

 iter      E             dE          RMSdq      gap      omega  full diag
   1   -126.0526720 -0.126053E+03  0.804E-03    0.60       0.0  T
   2   -126.0526720 -0.110159E-07  0.473E-03    0.60       2.3  T
   3   -126.0526717  0.340763E-06  0.177E-03    0.60       6.1  T
   4   -126.0526720 -0.362556E-06  0.249E-04    0.60      43.3  T
   5   -126.0526720 -0.567294E-08  0.101E-04    0.60     106.5  T
     SCC iter.                  ...        0 min,  0.049 sec
     gradient                   ...        0 min,  0.013 sec
 * total energy  :  -123.7416715 Eh     change       -0.4625593E-05 Eh
   gradient norm :     0.0007323 Eh/α   predicted    -0.1842554E-05 ( -60.17%)
   displ. norm   :     0.0843782 α      lambda       -0.3689684E-05
   maximum displ.:     0.0542349 α      in ANC's #1, #9, #6, ...

........................................................................
.............................. CYCLE   29 ..............................
........................................................................

 iter      E             dE          RMSdq      gap      omega  full diag
   1   -126.0525934 -0.126053E+03  0.799E-03    0.60       0.0  T
   2   -126.0525935 -0.352544E-07  0.467E-03    0.60       2.3  T
   3   -126.0525934  0.116723E-06  0.118E-03    0.60       9.2  T
   4   -126.0525935 -0.127481E-06  0.287E-04    0.60      37.6  T
   5   -126.0525935 -0.595983E-08  0.142E-04    0.60      75.9  T
     SCC iter.                  ...        0 min,  0.048 sec
     gradient                   ...        0 min,  0.013 sec
 * total energy  :  -123.7416760 Eh     change       -0.4483075E-05 Eh
   gradient norm :     0.0005388 Eh/α   predicted    -0.1854655E-05 ( -58.63%)
   displ. norm   :     0.0713465 α      lambda       -0.2705786E-05
   maximum displ.:     0.0470954 α      in ANC's #1, #6, #9, ...

........................................................................
.............................. CYCLE   30 ..............................
........................................................................

 iter      E             dE          RMSdq      gap      omega  full diag
   1   -126.0525214 -0.126053E+03  0.622E-03    0.60       0.0  T
   2   -126.0525215 -0.413023E-07  0.362E-03    0.60       3.0  T
   3   -126.0525213  0.201540E-06  0.167E-03    0.60       6.5  T
   4   -126.0525215 -0.228654E-06  0.256E-04    0.60      42.0  T
   5   -126.0525215 -0.386331E-08  0.137E-04    0.60      78.9  T
     SCC iter.                  ...        0 min,  0.049 sec
     gradient                   ...        0 min,  0.013 sec
 * total energy  :  -123.7416792 Eh     change       -0.3261243E-05 Eh
   gradient norm :     0.0002605 Eh/α   predicted    -0.1360813E-05 ( -58.27%)
   displ. norm   :     0.0565078 α      lambda       -0.2014996E-05
   maximum displ.:     0.0385288 α      in ANC's #1, #5, #6, ...

........................................................................
.............................. CYCLE   31 ..............................
........................................................................

 iter      E             dE          RMSdq      gap      omega  full diag
   1   -126.0524658 -0.126052E+03  0.467E-03    0.60       0.0  T
   2   -126.0524658 -0.277507E-07  0.271E-03    0.60       4.0  T
   3   -126.0524656  0.158310E-06  0.149E-03    0.60       7.2  T
   4   -126.0524658 -0.183920E-06  0.209E-04    0.60      51.6  T
   5   -126.0524658 -0.289144E-08  0.112E-04    0.60      96.5  T
     SCC iter.                  ...        0 min,  0.048 sec
     gradient                   ...        0 min,  0.013 sec
 * total energy  :  -123.7416817 Eh     change       -0.2519036E-05 Eh
   gradient norm :     0.0002104 Eh/α   predicted    -0.1010575E-05 ( -59.88%)
   displ. norm   :     0.0481755 α      lambda       -0.1781377E-05
   maximum displ.:     0.0328218 α      in ANC's #1, #5, #6, ...

........................................................................
.............................. CYCLE   32 ..............................
........................................................................

 iter      E             dE          RMSdq      gap      omega  full diag
   1   -126.0524383 -0.126052E+03  0.427E-03    0.60       0.0  T
   2   -126.0524383 -0.128310E-07  0.249E-03    0.60       4.3  T
   3   -126.0524382  0.109183E-06  0.120E-03    0.60       9.0  T
   4   -126.0524383 -0.123997E-06  0.130E-04    0.60      83.3  T
   5   -126.0524383 -0.983647E-09  0.668E-05    0.60     161.5  T
     SCC iter.                  ...        0 min,  0.049 sec
     gradient                   ...        0 min,  0.013 sec
 * total energy  :  -123.7416840 Eh     change       -0.2299439E-05 Eh
   gradient norm :     0.0003344 Eh/α   predicted    -0.8964011E-06 ( -61.02%)
   displ. norm   :     0.0551741 α      lambda       -0.1967544E-05
   maximum displ.:     0.0373251 α      in ANC's #1, #5, #10, ...

........................................................................
.............................. CYCLE   33 ..............................
........................................................................

 iter      E             dE          RMSdq      gap      omega  full diag
   1   -126.0524306 -0.126052E+03  0.540E-03    0.60       0.0  T
   2   -126.0524306 -0.643392E-08  0.316E-03    0.60       3.4  T
   3   -126.0524305  0.656602E-07  0.875E-04    0.60      12.3  T
   4   -126.0524306 -0.720981E-07  0.127E-04    0.60      84.7  T
     SCC iter.                  ...        0 min,  0.038 sec
     gradient                   ...        0 min,  0.012 sec
 * total energy  :  -123.7416865 Eh     change       -0.2511178E-05 Eh
   gradient norm :     0.0003763 Eh/α   predicted    -0.9897678E-06 ( -60.59%)
   displ. norm   :     0.0526333 α      lambda       -0.1700640E-05
   maximum displ.:     0.0358558 α      in ANC's #1, #10, #5, ...

........................................................................
.............................. CYCLE   34 ..............................
........................................................................

 iter      E             dE          RMSdq      gap      omega  full diag
   1   -126.0524420 -0.126052E+03  0.538E-03    0.60       0.0  T
   2   -126.0524420 -0.294101E-08  0.316E-03    0.60       3.4  T
   3   -126.0524419  0.153324E-06  0.119E-03    0.60       9.0  T
   4   -126.0524420 -0.162233E-06  0.161E-04    0.60      67.0  T
   5   -126.0524420 -0.223663E-08  0.558E-05    0.60     193.3  T
     SCC iter.                  ...        0 min,  0.054 sec
     gradient                   ...        0 min,  0.013 sec
 * total energy  :  -123.7416887 Eh     change       -0.2149171E-05 Eh
   gradient norm :     0.0002995 Eh/α   predicted    -0.8541113E-06 ( -60.26%)
   displ. norm   :     0.0441779 α      lambda       -0.1331598E-05
   maximum displ.:     0.0306480 α      in ANC's #1, #10, #5, ...

........................................................................
.............................. CYCLE   35 ..............................
........................................................................

 iter      E             dE          RMSdq      gap      omega  full diag
   1   -126.0524801 -0.126052E+03  0.475E-03    0.60       0.0  T
   2   -126.0524801 -0.332660E-08  0.279E-03    0.60       3.9  T
   3   -126.0524798  0.302309E-06  0.171E-03    0.60       6.3  T
   4   -126.0524801 -0.324373E-06  0.237E-04    0.60      45.4  T
   5   -126.0524801 -0.510687E-08  0.731E-05    0.60     147.6  T
     SCC iter.                  ...        0 min,  0.048 sec
     gradient                   ...        0 min,  0.013 sec
 * total energy  :  -123.7416904 Eh     change       -0.1688035E-05 Eh
   gradient norm :     0.0001705 Eh/α   predicted    -0.6689496E-06 ( -60.37%)
   displ. norm   :     0.0373856 α      lambda       -0.1094666E-05
   maximum displ.:     0.0269273 α      in ANC's #1, #10, #5, ...

........................................................................
.............................. CYCLE   36 ..............................
........................................................................

 iter      E             dE          RMSdq      gap      omega  full diag
   1   -126.0525189 -0.126053E+03  0.421E-03    0.60       0.0  T
   2   -126.0525189 -0.463385E-08  0.249E-03    0.60       4.3  T
   3   -126.0525186  0.313402E-06  0.182E-03    0.60       5.9  T
   4   -126.0525189 -0.344973E-06  0.288E-04    0.60      37.4  T
   5   -126.0525189 -0.770464E-08  0.837E-05    0.60     128.9  T
     SCC iter.                  ...        0 min,  0.048 sec
     gradient                   ...        0 min,  0.012 sec
 * total energy  :  -123.7416918 Eh     change       -0.1389652E-05 Eh
   gradient norm :     0.0001203 Eh/α   predicted    -0.5489470E-06 ( -60.50%)
   displ. norm   :     0.0294845 α      lambda       -0.8598456E-06
   maximum displ.:     0.0220023 α      in ANC's #1, #10, #9, ...

........................................................................
.............................. CYCLE   37 ..............................
........................................................................

 iter      E             dE          RMSdq      gap      omega  full diag
   1   -126.0525470 -0.126053E+03  0.368E-03    0.60       0.0  T
   2   -126.0525470 -0.142656E-08  0.219E-03    0.60       4.9  T
   3   -126.0525467  0.267506E-06  0.168E-03    0.60       6.4  T
   4   -126.0525470 -0.296014E-06  0.251E-04    0.60      42.9  T
   5   -126.0525470 -0.573039E-08  0.705E-05    0.60     153.1  T
     SCC iter.                  ...        0 min,  0.048 sec
     gradient                   ...        0 min,  0.012 sec
 * total energy  :  -123.7416929 Eh     change       -0.1117133E-05 Eh
   gradient norm :     0.0001549 Eh/α   predicted    -0.4320779E-06 ( -61.32%)
   displ. norm   :     0.0256723 α      lambda       -0.7534636E-06
   maximum displ.:     0.0194355 α      in ANC's #1, #9, #13, ...

........................................................................
.............................. CYCLE   38 ..............................
........................................................................

 iter      E             dE          RMSdq      gap      omega  full diag
   1   -126.0525700 -0.126053E+03  0.355E-03    0.60       0.0  T
   2   -126.0525700  0.112014E-08  0.211E-03    0.60       5.1  T
   3   -126.0525698  0.249280E-06  0.157E-03    0.60       6.8  T
   4   -126.0525700 -0.271851E-06  0.198E-04    0.60      54.4  T
   5   -126.0525700 -0.350317E-08  0.519E-05    0.60     207.8  T
     SCC iter.                  ...        0 min,  0.049 sec
     gradient                   ...        0 min,  0.012 sec
 * total energy  :  -123.7416939 Eh     change       -0.9980020E-06 Eh
   gradient norm :     0.0001691 Eh/α   predicted    -0.3783611E-06 ( -62.09%)
   displ. norm   :     0.0237349 α      lambda       -0.6850544E-06
   maximum displ.:     0.0174750 α      in ANC's #1, #9, #13, ...

........................................................................
.............................. CYCLE   39 ..............................
........................................................................

 iter      E             dE          RMSdq      gap      omega  full diag
   1   -126.0525786 -0.126053E+03  0.352E-03    0.60       0.0  T
   2   -126.0525786  0.757296E-10  0.208E-03    0.60       5.2  T
   3   -126.0525784  0.165990E-06  0.125E-03    0.60       8.6  T
   4   -126.0525786 -0.177035E-06  0.144E-04    0.60      75.0  T
   5   -126.0525786 -0.191964E-08  0.355E-05    0.60     304.1  T
     SCC iter.                  ...        0 min,  0.048 sec
     gradient                   ...        0 min,  0.013 sec
 * total energy  :  -123.7416948 Eh     change       -0.9252929E-06 Eh
   gradient norm :     0.0001507 Eh/α   predicted    -0.3445471E-06 ( -62.76%)
   displ. norm   :     0.0243204 α      lambda       -0.6804860E-06
   maximum displ.:     0.0171088 α      in ANC's #1, #9, #6, ...

........................................................................
.............................. CYCLE   40 ..............................
........................................................................

 iter      E             dE          RMSdq      gap      omega  full diag
   1   -126.0525805 -0.126053E+03  0.365E-03    0.60       0.0  T
   2   -126.0525805 -0.176179E-08  0.216E-03    0.60       5.0  T
   3   -126.0525804  0.979775E-07  0.980E-04    0.60      11.0  T
   4   -126.0525805 -0.104318E-06  0.125E-04    0.60      86.2  T
     SCC iter.                  ...        0 min,  0.039 sec
     gradient                   ...        0 min,  0.012 sec
 * total energy  :  -123.7416957 Eh     change       -0.9212953E-06 Eh
   gradient norm :     0.0001210 Eh/α   predicted    -0.3432345E-06 ( -62.74%)
   displ. norm   :     0.0260887 α      lambda       -0.7032082E-06
   maximum displ.:     0.0177888 α      in ANC's #1, #9, #6, ...

........................................................................
.............................. CYCLE   41 ..............................
........................................................................

 iter      E             dE          RMSdq      gap      omega  full diag
   1   -126.0525769 -0.126053E+03  0.386E-03    0.60       0.0  T
   2   -126.0525769 -0.468063E-08  0.228E-03    0.60       4.7  T
   3   -126.0525768  0.688599E-07  0.831E-04    0.60      13.0  T
   4   -126.0525769 -0.757765E-07  0.752E-05    0.60     143.4  T
     SCC iter.                  ...        0 min,  0.039 sec
     gradient                   ...        0 min,  0.012 sec
 * total energy  :  -123.7416967 Eh     change       -0.9426735E-06 Eh
   gradient norm :     0.0001097 Eh/α   predicted    -0.3540646E-06 ( -62.44%)
   displ. norm   :     0.0268016 α      lambda       -0.6874539E-06
   maximum displ.:     0.0181087 α      in ANC's #1, #6, #9, ...

........................................................................
.............................. CYCLE   42 ..............................
........................................................................

 iter      E             dE          RMSdq      gap      omega  full diag
   1   -126.0525715 -0.126053E+03  0.384E-03    0.60       0.0  T
   2   -126.0525715 -0.436785E-08  0.227E-03    0.60       4.8  T
   3   -126.0525714  0.145850E-06  0.118E-03    0.60       9.1  T
   4   -126.0525715 -0.158165E-06  0.160E-04    0.60      67.6  T
   5   -126.0525715 -0.241114E-08  0.633E-05    0.60     170.4  T
     SCC iter.                  ...        0 min,  0.047 sec
     gradient                   ...        0 min,  0.012 sec
 * total energy  :  -123.7416976 Eh     change       -0.9159994E-06 Eh
   gradient norm :     0.0001204 Eh/α   predicted    -0.3449761E-06 ( -62.34%)
   displ. norm   :     0.0264814 α      lambda       -0.6503098E-06
   maximum displ.:     0.0178564 α      in ANC's #1, #6, #9, ...
 * RMSD in coord.:     0.0869442 α      energy gain  -0.7921789E-04 Eh

generating ANC from exact Hessian ...
Using Lindh-Hessian (1995)
 Shifting diagonal of input Hessian by   9.926331904261461E-003
 Lowest  eigenvalues of input Hessian
    0.000000    0.000000    0.000000    0.000000    0.000000    0.000000
    0.010000    0.010078    0.010242    0.010287    0.010322    0.010374
    0.010605    0.010615    0.010757    0.010821    0.011213    0.011599
 Highest eigenvalues
    2.035885    2.039414    2.058848    2.071769    2.099323    2.135687
 

........................................................................
.............................. CYCLE   43 ..............................
........................................................................

 iter      E             dE          RMSdq      gap      omega  full diag
   1   -126.0525686 -0.126053E+03  0.373E-03    0.60       0.0  T
   2   -126.0525686 -0.173372E-08  0.221E-03    0.60       4.9  T
   3   -126.0525684  0.218848E-06  0.146E-03    0.60       7.4  T
   4   -126.0525686 -0.237725E-06  0.202E-04    0.60      53.4  T
   5   -126.0525687 -0.398855E-08  0.612E-05    0.60     176.2  T
     SCC iter.                  ...        0 min,  0.048 sec
     gradient                   ...        0 min,  0.013 sec
 * total energy  :  -123.7416985 Eh     change       -0.8664768E-06 Eh
   gradient norm :     0.0001228 Eh/α   predicted     0.0000000E+00 (-100.00%)
   displ. norm   :     0.0001843 α      lambda        0.0000000E+00
   maximum displ.:     0.0001052 α      in ANC's #251, #1, #246, ...

........................................................................
.............................. CYCLE   44 ..............................
........................................................................

 iter      E             dE          RMSdq      gap      omega  full diag
   1   -126.0525655 -0.126053E+03  0.240E-04    0.60       0.0  T
   2   -126.0525655 -0.607301E-09  0.136E-04    0.60      79.3  T
   3   -126.0525655 -0.447741E-09  0.968E-05    0.60     111.3  T
     SCC iter.                  ...        0 min,  0.029 sec
     gradient                   ...        0 min,  0.013 sec
 * total energy  :  -123.7416985 Eh     change       -0.1337902E-07 Eh
   gradient norm :     0.0000721 Eh/α   predicted    -0.4985066E-08 ( -62.74%)
   displ. norm   :     0.0001843 α      lambda        0.0000000E+00
   maximum displ.:     0.0001052 α      in ANC's #251, #1, #246, ...

   *** GEOMETRY OPTIMIZATION CONVERGED AFTER 44 ITERATIONS ***

------------------------------------------------------------------------
 total energy gain   :        -0.0095575 Eh       -5.9974 kcal/mol
 total RMSD          :         0.4014830 a0        0.2125 Å
 total power (kW/mol):        -0.5702992 (step)   -7.1509 (real)
------------------------------------------------------------------------

 ANCopt (total)                0 d,  0 h,  0 min,  3.510 sec
 optimizer setup                ...        0 min,  0.000 sec (  0.007%)
 model hessian                  ...        0 min,  0.173 sec (  4.925%)
 ANC generation                 ...        0 min,  0.024 sec (  0.689%)
 coordinate transformation      ...        0 min,  0.003 sec (  0.092%)
 single point calculation       ...        0 min,  3.279 sec ( 93.439%)
 optimization log               ...        0 min,  0.012 sec (  0.347%)
 hessian update                 ...        0 min,  0.006 sec (  0.167%)
 rational function              ...        0 min,  0.007 sec (  0.188%)

================
 final structure:
================
86
 xtb: 6.7.1 (edcfbbe)
C            4.58298238970245        5.03520828521228       -0.03402417363535
C            3.72587671953909        3.80572325095011       -0.04982135821777
C            3.82625931984119        2.86663772001541        0.96773181385489
C            3.04197314320959        1.72980182153993        0.97909561653227
C            2.12672382572331        1.49952275593804       -0.04301053986013
C            1.26866463475781        0.30203615806127       -0.04482803529919
C            1.83185835141580       -0.96823185281615       -0.00485674180109
C            3.30003622589435       -1.10603125468341        0.11747254271571
C            4.14376335434926       -0.59597360180409       -0.86446905849130
C            5.51590007765234       -0.71582159772628       -0.74373598827452
C            6.06537152971735       -1.34289073358509        0.36197558759106
C            5.23382750358675       -1.85002746736505        1.34658454802725
C            3.86151485389383       -1.73471381528164        1.22451324780947
C            1.02723793763599       -2.11595503977373       -0.08787838229616
C            1.66619720533467       -3.43155006066178        0.04024261552523
C            2.71609349587591       -3.82427659638026       -0.79550997075583
C            3.33573252978832       -5.04661781295813       -0.62207654541844
C            2.92941541121229       -5.90091060892432        0.39155099719234
C            1.88947841583557       -5.52365451041829        1.22893761735808
C            1.26318221326679       -4.30617469989168        1.05669106034386
C           -0.38678939461174       -1.97651776949081       -0.21098804460367
C           -1.25151813614720       -3.01897080561606       -0.62302563668308
N           -0.79997261749571       -4.25327678148689       -1.01413434566508
C           -2.65310783234642       -2.80597512058154       -0.70771180624998
C           -3.24671148368249       -1.63830521720986       -0.30578944113251
C           -4.68594042435478       -1.42978864358920       -0.30252890246553
C           -5.55215749001912       -2.26410681213114       -1.00314758806966
C           -6.92653545782562       -2.06829001398843       -0.98433224363259
C           -7.46120532500028       -1.01231466346808       -0.26555881287673
C           -6.62767639126873       -0.15721752467533        0.42653348154315
C           -5.23276688150664       -0.34111071480303        0.42781755031231
C           -4.34748779047705        0.52512058748680        1.13722173456185
N           -4.82245550845788        1.55714332101835        1.90637685819133
C           -2.96078338666276        0.39930168794338        0.97177773029351
C           -2.39572320512317       -0.58868253628292        0.19769891912067
C           -0.96056243167808       -0.68275823470389       -0.01911528350255
C           -0.14520875074530        0.44562267751951       -0.03199505387992
C           -0.71234924048531        1.80413038491059       -0.10694037351831
C           -1.58305882782658        2.13768960310369       -1.14105667135467
C           -2.07519030239705        3.42261274920419       -1.24994817504925
C           -1.71731502134728        4.41438015820934       -0.34529100161392
C           -2.25731561389352        5.80486045256036       -0.49179669468994
C           -0.84352007348642        4.09123090708295        0.69742028506416
C           -0.42474984532406        5.12981645992105        1.69433125608345
C           -0.35672470740399        2.79808333731279        0.80102351851877
C            2.02908402804435        2.44016714588001       -1.06464504679758
C            2.80922987094706        3.58426071195240       -1.08300985725079
C            2.66128772754260        4.57413257917833       -2.19908256169045
H            5.19236861150552        5.09102075207490       -0.93576501960893
H            3.96607044534811        5.93307605683015        0.00381162139415
H            5.24299647208230        5.03225042026999        0.83016932231264
H            4.52974630688482        3.03046966177766        1.77316868438564
H            3.12700579903938        1.02406990200279        1.79314029234302
H            3.71735908918613       -0.10832378854286       -1.72984384721502
H            6.15904947962203       -0.31744855453422       -1.51573528020500
H            7.13783573483850       -1.43551038474928        0.45658903227558
H            5.65577407866612       -2.33800057669788        2.21394911861179
H            3.21517667823282       -2.12647031584109        1.99745124046533
H            3.03235541357235       -3.16759528407979       -1.59327340470480
H            4.14327662297881       -5.33421283628517       -1.28042694550063
H            3.42087580498375       -6.85278569552986        0.52933115953785
H            1.57302427336912       -6.18157090345832        2.02589776168649
H            0.45888504747368       -4.00862763224255        1.71451652910298
H            0.18131799008434       -4.36075057646528       -1.21246747189386
H           -1.43675934376011       -4.81757598139325       -1.55318828471840
H           -3.24678833264783       -3.63473062747983       -1.06241068164530
H           -5.15677399708298       -3.07724627209530       -1.59177215092036
H           -7.57222591311595       -2.73537064777907       -1.53634204104061
H           -8.52969362238936       -0.85105601158303       -0.25062818894582
H           -7.06317249528506        0.67509181245381        0.95890322490394
H           -4.15204891766448        2.03082746064634        2.48961449204391
H           -5.75909497082052        1.49839628647627        2.26816136054299
H           -2.32978426037215        1.11166149009692        1.47986485982260
H           -1.86583417278359        1.38382468563930       -1.86272703884418
H           -2.74768339367359        3.66409143595967       -2.06196412281103
H           -2.81073753271278        6.09988875935382        0.39948367163627
H           -2.92256822783484        5.86971319740089       -1.34935136754530
H           -1.44561619982140        6.51954559135008       -0.62782551999247
H            0.26124941228289        4.70610303617688        2.42394092098636
H           -1.28997345638599        5.53411671688280        2.21964308177073
H            0.07477012863496        5.95853156415512        1.19353203308520
H            0.31008744920318        2.54917346894540        1.61529990253361
H            1.32669648708188        2.26671051509520       -1.86856461594234
H            1.88722879758641        4.25549732304638       -2.89304035550186
H            3.59816593306968        4.68212953174491       -2.74566779375853
H            2.39170646535911        5.55433203981022       -1.80712162604365
 
 Bond Distances (Angstroems)
 ---------------------------
C1-C2=1.4988         C1-H49=1.0898        C1-H50=1.0900        C1-H51=1.0874        C2-C1=1.4988         C2-C3=1.3883         
C2-C47=1.3988        C3-C2=1.3883         C3-C4=1.3812         C3-H52=1.0819        C4-C3=1.3812         C4-C5=1.3912         
C4-H53=1.0807        C5-C4=1.3912         C5-C6=1.4732         C5-C46=1.3922        C6-C5=1.4732         C6-C7=1.3901         
C6-C37=1.4212        C7-C6=1.3901         C7-C8=1.4797         C7-C14=1.4041        C8-C7=1.4797         C8-C9=1.3915         
C8-C13=1.3914        C9-C8=1.3915         C9-C10=1.3826        C9-H54=1.0810        C10-C9=1.3826        C10-C11=1.3848       
C10-H55=1.0809       C11-C10=1.3848       C11-C12=1.3850       C11-H56=1.0806       C12-C11=1.3850       C12-C13=1.3825       
C12-H57=1.0810       C13-C8=1.3914        C13-C12=1.3825       C13-H58=1.0810       C14-C7=1.4041        C14-C15=1.4682       
C14-C21=1.4262       C15-C14=1.4682       C15-C16=1.3982       C15-C20=1.4002       C16-C15=1.3982       C16-C17=1.3814       
C16-H59=1.0806       C17-C16=1.3814       C17-C18=1.3865       C17-H60=1.0809       C18-C17=1.3865       C18-C19=1.3874       
C18-H61=1.0801       C19-C18=1.3874       C19-C20=1.3799       C19-H62=1.0808       C20-C15=1.4002       C20-C19=1.3799       
C20-H63=1.0808       C21-C14=1.4262       C21-C22=1.4157       C21-C36=1.4282       C22-C21=1.4157       C22-N23=1.3713       
C22-C24=1.4202       N23-C22=1.3713       N23-H64=1.0069       N23-H65=1.0072       C24-C22=1.4202       C24-C25=1.3702       
C24-H66=1.0794       C25-C24=1.3702       C25-C26=1.4543       C25-C35=1.4420       C26-C25=1.4543       C26-C27=1.3919       
C26-C31=1.4204       C27-C26=1.3919       C27-C28=1.3884       C27-H67=1.0789       C28-C27=1.3884       C28-C29=1.3848       
C28-H68=1.0801       C29-C28=1.3848       C29-C30=1.3802       C29-H69=1.0807       C30-C29=1.3802       C30-C31=1.4070       
C30-H70=1.0797       C31-C26=1.4204       C31-C30=1.4070       C31-C32=1.4274       C32-C31=1.4274       C32-N33=1.3720       
C32-C34=1.4022       N33-C32=1.3720       N33-H71=1.0070       N33-H72=1.0058       C34-C32=1.4022       C34-C35=1.3764       
C34-H73=1.0788       C35-C25=1.4420       C35-C34=1.3764       C35-C36=1.4545       C36-C21=1.4282       C36-C35=1.4545       
C36-C37=1.3922       C37-C6=1.4212        C37-C36=1.3922       C37-C38=1.4740       C38-C37=1.4740       C38-C39=1.3924       
C38-C45=1.3924       C39-C38=1.3924       C39-C40=1.3802       C39-H74=1.0812       C40-C39=1.3802       C40-C41=1.3893       
C40-H75=1.0816       C41-C40=1.3893       C41-C42=1.4988       C41-C43=1.3983       C42-C41=1.4988       C42-H76=1.0898       
C42-H77=1.0873       C42-H78=1.0900       C43-C41=1.3983       C43-C44=1.4993       C43-C45=1.3856       C44-C43=1.4993       
C44-H79=1.0874       C44-H80=1.0900       C44-H81=1.0895       C45-C38=1.3924       C45-C43=1.3856       C45-H82=1.0815       
C46-C5=1.3922        C46-C47=1.3849       C46-H83=1.0815       C47-C2=1.3988        C47-C46=1.3849       C47-C48=1.4991       
C48-C47=1.4991       C48-H84=1.0873       C48-H85=1.0900       C48-H86=1.0895       H49-C1=1.0898        H50-C1=1.0900        
H51-C1=1.0874        H52-C3=1.0819        H53-C4=1.0807        H54-C9=1.0810        H55-C10=1.0809       H56-C11=1.0806       
H57-C12=1.0810       H58-C13=1.0810       H59-C16=1.0806       H60-C17=1.0809       H61-C18=1.0801       H62-C19=1.0808       
H63-C20=1.0808       H64-N23=1.0069       H65-N23=1.0072       H66-C24=1.0794       H67-C27=1.0789       H68-C28=1.0801       
H69-C29=1.0807       H70-C30=1.0797       H71-N33=1.0070       H72-N33=1.0058       H73-C34=1.0788       H74-C39=1.0812       
H75-C40=1.0816       H76-C42=1.0898       H77-C42=1.0873       H78-C42=1.0900       H79-C44=1.0874       H80-C44=1.0900       
H81-C44=1.0895       H82-C45=1.0815       H83-C46=1.0815       H84-C48=1.0873       H85-C48=1.0900       H86-C48=1.0895       
 C  H  Rav=1.0836 sigma=0.0041  Rmin=1.0788  Rmax=1.0900    34
 C  C  Rav=1.4116 sigma=0.0368  Rmin=1.3702  Rmax=1.4993    53
 N  H  Rav=1.0067 sigma=0.0005  Rmin=1.0058  Rmax=1.0072     4
 N  C  Rav=1.3716 sigma=0.0003  Rmin=1.3713  Rmax=1.3720     2
 
 selected bond angles (degree)
 --------------------
H49-C1-C2=110.67               H50-C1-C2=110.63               H50-C1-H49=107.64              H51-C1-C2=110.69               
H51-C1-H49=108.56              H51-C1-H50=108.55              C3-C2-C1=120.38                C47-C2-C1=120.82               
C47-C2-C3=118.79               C4-C3-C2=121.45                H52-C3-C2=119.36               H52-C3-C4=119.19               
C5-C4-C3=120.25                H53-C4-C3=119.93               H53-C4-C5=119.81               C6-C5-C4=121.24                
C46-C5-C4=118.26               C46-C5-C6=120.50               C7-C6-C5=120.45                C37-C6-C5=119.82               
C37-C6-C7=119.68               C8-C7-C6=119.31                C14-C7-C6=120.87               C14-C7-C8=119.82               
C9-C8-C7=120.61                C13-C8-C7=120.55               C13-C8-C9=118.84               C10-C9-C8=120.55               
H54-C9-C8=119.41               H54-C9-C10=120.03              C11-C10-C9=120.18              H55-C10-C9=119.75              
H55-C10-C11=120.07             
 
 selected dihedral angles (degree)
 ---------------------------------
C3-C2-C1-H49=121.53           C3-C2-C1-H50=240.75           C3-C2-C1-H51=  1.12           C47-C2-C1-H49=301.31          
C47-C2-C1-H50= 60.53          C47-C2-C1-H51=180.90          C4-C3-C2-C1=179.63            C4-C3-C2-C47=359.85           
H52-C3-C2-C1=  0.00           H52-C3-C2-C47=180.21          C5-C4-C3-C2=  0.13            C5-C4-C3-H52=179.77           
H53-C4-C3-C2=181.16           H53-C4-C3-H52=  0.80          C6-C5-C4-C3=180.69            C6-C5-C4-H53=359.67           
C46-C5-C4-C3=  0.03           C46-C5-C4-H53=179.00          C7-C6-C5-C4=302.80            C7-C6-C5-C46=123.48           
C37-C6-C5-C4=120.21           C37-C6-C5-C46=300.89          C8-C7-C6-C5=  3.46            C8-C7-C6-C37=186.05           
C14-C7-C6-C5=183.89           C14-C7-C6-C37=  6.47          C9-C8-C7-C6=298.56            C9-C8-C7-C14=118.14           
C13-C8-C7-C6=117.82           C13-C8-C7-C14=297.40          C10-C9-C8-C7=179.47           C10-C9-C8-C13=  0.20          
H54-C9-C8-C7=359.09           H54-C9-C8-C13=179.82          C11-C10-C9-C8=359.78          C11-C10-C9-H54=180.16         
H55-C10-C9-C8=179.82          H55-C10-C9-H54=  0.20         
           -------------------------------------------------
          |                Final Singlepoint                |
           -------------------------------------------------

          ...................................................
          :                      SETUP                      :
          :.................................................:
          :  # basis functions                 230          :
          :  # atomic orbitals                 230          :
          :  # shells                          134          :
          :  # electrons                       232          :
          :  max. iterations                   250          :
          :  Hamiltonian                  GFN2-xTB          :
          :  restarted?                      false          :
          :  GBSA solvation                   true          :
          :  PC potential                    false          :
          :  electronic temp.          300.0000000     K    :
          :  accuracy                    1.0000000          :
          :  -> integral cutoff          0.2500000E+02      :
          :  -> integral neglect         0.1000000E-07      :
          :  -> SCF convergence          0.1000000E-05 Eh   :
          :  -> wf. convergence          0.1000000E-03 e    :
          :  Broyden damping             0.4000000          :
          :  net charge                          0          :
          :  unpaired electrons                  2          :
          ...................................................

 iter      E             dE          RMSdq      gap      omega  full diag
   1   -126.0525655 -0.126053E+03  0.221E-05    0.60       0.0  T
   2   -126.0525655 -0.687805E-11  0.167E-05    0.60     643.9  T
   3   -126.0525655 -0.210747E-10  0.737E-06    0.60    1463.6  T

   *** convergence criteria satisfied after 3 iterations ***

         #    Occupation            Energy/Eh            Energy/eV
[...]
    42   6 C       77   1 H                                       1.0872751
    42   6 C       78   1 H                                       1.0900160
    44   6 C       79   1 H                                       1.0874091
    44   6 C       80   1 H                                       1.0899648
    44   6 C       81   1 H                                       1.0895361
    45   6 C       82   1 H                                       1.0814993
    46   6 C       83   1 H                                       1.0815370
    48   6 C       84   1 H                                       1.0873239
    48   6 C       85   1 H                                       1.0900274
    48   6 C       86   1 H                                       1.0895406

 * 4 distinct bonds (by element types)

   Z      Z             #   av. dist./Å        max./Å        min./Å
   1 H    6 C          34     1.0835844     1.0900361     1.0787813
   6 C    6 C          42     1.3945967     1.4282313     1.3701680
   1 H    7 N           4     1.0067209     1.0072290     1.0057996
   6 C    7 N           2     1.3716114     1.3719567     1.3712662

           -------------------------------------------------
          |               Frequency Printout                |
           -------------------------------------------------
 projected vibrational frequencies (cm⁻¹)
eigval :       -0.00    -0.00    -0.00    -0.00     0.00     0.00
eigval :       16.79    21.94    26.39    28.41    33.66    37.46
eigval :       46.42    48.47    58.82    59.03    65.29    75.55
eigval :       79.18    92.48   105.11   106.59   116.06   122.93
eigval :      130.29   133.89   150.66   164.96   167.73   171.29
eigval :      180.66   187.56   191.38   201.81   206.00   211.15
eigval :      222.00   233.48   237.19   250.71   266.87   285.90
eigval :      292.03   300.45   301.93   318.09   332.91   346.94
eigval :      348.49   371.79   373.76   375.88   380.74   390.42
eigval :      393.49   408.08   412.88   415.64   419.38   426.19
eigval :      441.85   449.98   462.86   472.39   480.34   485.51
eigval :      491.10   503.24   505.75   513.07   517.72   526.61
eigval :      543.21   550.02   555.93   565.61   569.97   584.05
eigval :      588.39   597.44   604.11   608.03   619.36   629.87
eigval :      650.03   657.86   663.74   671.64   675.82   689.96
eigval :      702.55   712.53   716.62   726.11   749.02   756.43
eigval :      757.08   770.74   783.39   784.58   787.16   799.04
eigval :      825.18   826.43   830.17   835.70   847.78   856.81
eigval :      874.65   876.72   884.21   886.14   890.84   891.72
eigval :      897.38   898.89   907.83   919.56   921.87   927.05
eigval :      927.54   929.46   930.02   937.82   962.98   981.22
eigval :      989.44  1002.35  1003.92  1009.25  1010.76  1015.71
eigval :     1018.77  1022.03  1024.56  1033.39  1035.18  1054.35
eigval :     1080.47  1082.57  1089.89  1100.29  1110.51  1118.78
eigval :     1120.46  1130.99  1136.34  1146.00  1168.59  1175.08
eigval :     1179.66  1180.01  1186.37  1194.69  1197.62  1199.06
eigval :     1205.44  1223.58  1232.28  1244.11  1245.17  1252.38
eigval :     1261.02  1272.79  1273.15  1276.75  1280.98  1284.44
eigval :     1288.36  1305.67  1313.47  1315.89  1317.59  1320.70
eigval :     1321.44  1352.36  1360.48  1374.11  1379.70  1385.16
eigval :     1397.94  1398.78  1401.92  1403.80  1406.06  1408.22
eigval :     1412.19  1416.88  1420.84  1426.15  1431.39  1440.85
eigval :     1444.99  1464.88  1469.91  1471.60  1472.73  1473.27
eigval :     1478.74  1480.12  1484.79  1485.93  1486.21  1490.05
eigval :     1492.56  1492.85  1499.12  1501.87  1527.13  1534.97
eigval :     1538.82  1552.80  1564.31  1565.86  1571.54  1580.62
eigval :     1582.86  1599.31  1601.73  1603.73  2991.72  2992.11
eigval :     2994.43  2995.67  3006.20  3006.92  3011.49  3012.11
eigval :     3038.04  3038.92  3039.29  3039.82  3054.61  3055.99
eigval :     3062.50  3063.83  3064.46  3064.62  3065.32  3066.07
eigval :     3066.12  3071.29  3072.32  3074.24  3075.73  3076.16
eigval :     3076.92  3079.26  3081.04  3083.83  3085.29  3088.36
eigval :     3095.71  3099.47  3437.06  3458.00  3503.01  3517.32
 reduced masses (amu)
   1: 10.76   2: 11.29   3: 11.40   4: 11.36   5: 11.24   6: 11.24   7: 10.64   8: 10.86
   9: 10.67  10: 10.85  11: 10.28  12: 10.48  13: 10.36  14: 10.52  15:  9.28  16:  9.00
  17: 10.52  18:  9.86  19: 10.17  20: 10.27  21: 10.33  22:  2.10  23: 10.05  24:  2.37
  25: 10.62  26:  9.86  27:  9.60  28:  7.27  29:  7.15  30:  8.83  31:  2.71  32: 10.18
  33: 10.86  34: 10.59  35: 10.79  36: 10.47  37:  9.57  38: 10.32  39:  9.23  40: 10.27
  41: 10.39  42: 10.56  43:  9.78  44:  8.53  45:  8.58  46: 10.25  47: 10.90  48:  9.96
  49:  5.30  50:  9.19  51:  9.13  52:  9.16  53:  9.27  54:  7.56  55: 10.74  56: 10.13
  57:  5.97  58:  7.64  59:  9.14  60:  9.15  61:  5.29  62:  8.56  63:  6.17  64: 10.33
  65: 10.26  66: 10.11  67: 10.42  68: 10.45  69: 10.37  70: 10.69  71: 10.70  72: 10.62
  73: 10.83  74: 10.78  75: 10.37  76: 10.91  77: 10.97  78: 11.14  79: 11.17  80: 11.12
  81: 11.22  82: 11.17  83: 11.15  84: 11.39  85: 10.89  86: 11.16  87: 10.49  88: 10.28
  89: 10.45  90: 10.80  91: 11.35  92: 11.00  93:  8.66  94:  9.94  95:  4.10  96:  8.09
  97:  7.67  98:  7.70  99: 10.25 100: 10.14 101: 10.89 102:  4.35 103:  4.12 104:  4.40
 105:  3.93 106: 10.17 107:  3.85 108: 10.65 109:  3.28 110:  3.30 111:  6.43 112:  8.44
 113:  3.23 114:  3.85 115:  3.11 116:  3.80 117:  3.32 118:  3.47 119:  3.38 120:  3.65
 121:  3.55 122:  3.50 123:  2.97 124: 10.73 125: 10.13 126:  9.50 127:  9.09 128:  5.11
 129:  5.90 130:  5.04 131:  5.15 132:  5.16 133:  5.98 134:  4.40 135:  4.37 136:  4.87
 137:  4.82 138:  8.98 139:  7.17 140:  7.29 141:  9.52 142:  8.24 143:  6.29 144:  4.35
 145:  4.39 146:  7.61 147:  7.71 148:  8.58 149:  6.68 150:  6.73 151:  1.32 152:  1.35
 153:  1.85 154:  3.85 155:  3.25 156:  2.27 157:  5.55 158:  7.63 159:  6.37 160:  8.19
 161:  4.93 162:  8.15 163:  8.27 164:  3.63 165:  3.76 166:  5.63 167:  4.36 168:  4.90
 169:  8.89 170: 10.52 171: 11.50 172: 11.55 173: 11.60 174: 11.11 175: 11.02 176: 11.19
 177:  9.95 178: 10.69 179: 10.31 180:  9.90 181:  4.12 182:  4.45 183:  8.65 184:  9.78
 185:  3.28 186:  3.17 187: 10.15 188:  9.27 189:  9.35 190:  9.19 191:  9.11 192:  9.65
 193: 10.12 194:  8.59 195:  7.92 196:  1.60 197:  1.62 198:  8.08 199:  2.69 200:  2.71
 201:  8.21 202:  1.61 203:  1.62 204:  1.91 205:  9.87 206:  2.16 207:  9.58 208: 10.16
 209: 10.81 210: 11.25 211: 11.14 212: 11.30 213: 11.46 214: 11.47 215: 11.62 216: 11.48
 217: 11.42 218: 11.47 219: 11.43 220: 11.44 221:  1.92 222:  1.92 223:  1.92 224:  1.92
 225:  1.59 226:  1.58 227:  1.54 228:  1.55 229:  1.66 230:  1.65 231:  1.63 232:  1.63
 233:  1.79 234:  1.77 235:  1.74 236:  1.79 237:  1.80 238:  1.75 239:  1.78 240:  1.82
 241:  1.75 242:  1.86 243:  1.83 244:  1.80 245:  1.87 246:  1.83 247:  1.86 248:  1.86
 249:  1.83 250:  1.86 251:  1.92 252:  1.91 253:  1.85 254:  1.81 255:  1.44 256:  1.44
 257:  2.17 258:  2.16
 IR intensities (km·mol⁻¹)
   1:  0.19   2:  0.41   3:  0.05   4:  0.70   5:  0.02   6:  0.21   7:  0.08   8:  0.11
   9:  0.81  10:  0.13  11:  0.42  12:  0.21  13:  1.91  14:  2.44  15:  1.38  16:  0.35
  17:  1.43  18:  2.56  19:  1.51  20:  4.72  21:  4.69  22:  0.35  23:  1.03  24:  0.42
  25:  0.66  26:  0.61  27:  1.34  28:  0.74  29:  0.26  30:  1.37  31:  1.14  32:  1.46
  33:  1.09  34:  1.43  35:  1.55  36:  2.88  37:  0.20  38:  0.78  39:  0.55  40:  0.92
  41:  3.45  42:  3.59  43: 28.00  44:  2.85  45:  5.06  46:  3.08  47:  1.04  48:  5.59
  49: 55.95  50:  0.21  51:  6.61  52: 18.48  53: 22.02  54:194.14  55: 14.41  56: 21.20
  57: 31.03  58:  1.53  59: 11.17  60: 16.07  61:415.27  62:108.93  63:198.98  64: 26.45
  65:  2.45  66:  7.26  67: 34.06  68: 34.20  69:  3.44  70:  9.12  71: 11.11  72:  0.55
  73:  0.07  74: 11.81  75:  0.80  76:  3.25  77:  0.45  78:  0.29  79:  0.47  80:  0.96
  81:  2.85  82:  0.72  83:  1.80  84:  1.00  85:  0.57  86:  1.47  87:  0.41  88:  0.92
  89:  2.35  90:  2.39  91:  1.22  92:  1.44  93: 10.68  94: 10.71  95: 22.25  96:  2.38
  97:  2.38  98: 10.44  99:  2.44 100:  9.64 101:  2.05 102:  9.01 103:  2.61 104:  5.01
 105:  0.76 106:  0.18 107: 30.06 108:  5.70 109: 15.99 110:  1.14 111:  1.06 112:  1.05
 113:  0.45 114:  1.28 115:  1.61 116:  0.46 117:  1.44 118:  1.21 119:  2.75 120:  1.45
 121:  3.60 122:  8.47 123:  0.33 124:  5.89 125:  0.65 126:  0.54 127: 22.03 128: 40.46
 129:  6.74 130:  9.59 131:  6.01 132: 17.77 133: 47.18 134: 25.18 135:  2.47 136:  0.11
 137:  0.20 138:  7.23 139:  2.93 140:  2.78 141: 11.81 142: 27.92 143:  2.62 144:  5.45
 145:  0.88 146: 13.58 147:  0.75 148: 33.45 149: 17.13 150: 36.81 151:  0.42 152:  0.19
 153:  1.25 154: 49.73 155: 19.55 156: 13.81 157:  8.64 158:189.03 159:147.99 160: 84.12
 161:231.20 162:102.13 163: 50.40 164:  6.47 165: 11.84 166: 52.43 167:  7.55 168:  2.05
 169:211.80 170:  8.26 171:  3.49 172: 14.95 173:  3.55 174:  9.14 175: 53.71 176:708.40
 177: 56.34 178:191.62 179: 99.03 180: 62.77 181: 33.82 182: 11.31 183:310.85 184: 11.64
 185:  2.50 186:  3.35 187: 19.14 188: 16.04 189: 12.93 190:  7.32 191: 13.83 192:128.28
 193:  7.53 194:290.76 195: 75.82 196:  0.02 197:  0.76 198:132.93 199:  2.96 200:  2.98
 201: 73.29 202:  4.11 203:  0.69 204:  5.90 205:  4.19 206:  7.14 207: 81.42 208: 41.05
 209:401.05 210:257.78 211:175.79 212:  0.72 213:  3.26 214:  5.81 215: 25.09 216: 49.53
 217:341.36 218: 32.33 219: 22.53 220: 26.96 221:115.63 222: 16.91 223:  4.45 224:  5.41
 225: 10.29 226: 15.77 227: 62.32 228:195.87 229: 20.65 230: 26.65 231: 44.83 232: 75.16
 233:125.72 234: 42.33 235: 15.54 236: 62.08 237:128.78 238: 59.68 239:  9.84 240: 91.20
 241: 28.50 242: 30.31 243:153.90 244: 89.62 245:325.02 246: 73.98 247: 25.89 248:113.64
 249:164.94 250: 86.82 251:108.38 252:101.49 253:188.59 254: 14.55 255:102.67 256:197.43
 257: 47.76 258: 19.47
 Raman intensities (Ä⁴*amu⁻¹)
   1:  0.00   2:  0.00   3:  0.00   4:  0.00   5:  0.00   6:  0.00   7:  0.00   8:  0.00
   9:  0.00  10:  0.00  11:  0.00  12:  0.00  13:  0.00  14:  0.00  15:  0.00  16:  0.00
  17:  0.00  18:  0.00  19:  0.00  20:  0.00  21:  0.00  22:  0.00  23:  0.00  24:  0.00
  25:  0.00  26:  0.00  27:  0.00  28:  0.00  29:  0.00  30:  0.00  31:  0.00  32:  0.00
  33:  0.00  34:  0.00  35:  0.00  36:  0.00  37:  0.00  38:  0.00  39:  0.00  40:  0.00
  41:  0.00  42:  0.00  43:  0.00  44:  0.00  45:  0.00  46:  0.00  47:  0.00  48:  0.00
  49:  0.00  50:  0.00  51:  0.00  52:  0.00  53:  0.00  54:  0.00  55:  0.00  56:  0.00
  57:  0.00  58:  0.00  59:  0.00  60:  0.00  61:  0.00  62:  0.00  63:  0.00  64:  0.00
  65:  0.00  66:  0.00  67:  0.00  68:  0.00  69:  0.00  70:  0.00  71:  0.00  72:  0.00
  73:  0.00  74:  0.00  75:  0.00  76:  0.00  77:  0.00  78:  0.00  79:  0.00  80:  0.00
  81:  0.00  82:  0.00  83:  0.00  84:  0.00  85:  0.00  86:  0.00  87:  0.00  88:  0.00
  89:  0.00  90:  0.00  91:  0.00  92:  0.00  93:  0.00  94:  0.00  95:  0.00  96:  0.00
  97:  0.00  98:  0.00  99:  0.00 100:  0.00 101:  0.00 102:  0.00 103:  0.00 104:  0.00
 105:  0.00 106:  0.00 107:  0.00 108:  0.00 109:  0.00 110:  0.00 111:  0.00 112:  0.00
 113:  0.00 114:  0.00 115:  0.00 116:  0.00 117:  0.00 118:  0.00 119:  0.00 120:  0.00
 121:  0.00 122:  0.00 123:  0.00 124:  0.00 125:  0.00 126:  0.00 127:  0.00 128:  0.00
 129:  0.00 130:  0.00 131:  0.00 132:  0.00 133:  0.00 134:  0.00 135:  0.00 136:  0.00
 137:  0.00 138:  0.00 139:  0.00 140:  0.00 141:  0.00 142:  0.00 143:  0.00 144:  0.00
 145:  0.00 146:  0.00 147:  0.00 148:  0.00 149:  0.00 150:  0.00 151:  0.00 152:  0.00
 153:  0.00 154:  0.00 155:  0.00 156:  0.00 157:  0.00 158:  0.00 159:  0.00 160:  0.00
 161:  0.00 162:  0.00 163:  0.00 164:  0.00 165:  0.00 166:  0.00 167:  0.00 168:  0.00
 169:  0.00 170:  0.00 171:  0.00 172:  0.00 173:  0.00 174:  0.00 175:  0.00 176:  0.00
 177:  0.00 178:  0.00 179:  0.00 180:  0.00 181:  0.00 182:  0.00 183:  0.00 184:  0.00
 185:  0.00 186:  0.00 187:  0.00 188:  0.00 189:  0.00 190:  0.00 191:  0.00 192:  0.00
 193:  0.00 194:  0.00 195:  0.00 196:  0.00 197:  0.00 198:  0.00 199:  0.00 200:  0.00
 201:  0.00 202:  0.00 203:  0.00 204:  0.00 205:  0.00 206:  0.00 207:  0.00 208:  0.00
 209:  0.00 210:  0.00 211:  0.00 212:  0.00 213:  0.00 214:  0.00 215:  0.00 216:  0.00
 217:  0.00 218:  0.00 219:  0.00 220:  0.00 221:  0.00 222:  0.00 223:  0.00 224:  0.00
 225:  0.00 226:  0.00 227:  0.00 228:  0.00 229:  0.00 230:  0.00 231:  0.00 232:  0.00
 233:  0.00 234:  0.00 235:  0.00 236:  0.00 237:  0.00 238:  0.00 239:  0.00 240:  0.00
 241:  0.00 242:  0.00 243:  0.00 244:  0.00 245:  0.00 246:  0.00 247:  0.00 248:  0.00
 249:  0.00 250:  0.00 251:  0.00 252:  0.00 253:  0.00 254:  0.00 255:  0.00 256:  0.00
 257:  0.00 258:  0.00
 output can be read by thermo (or use thermo option).
 writing <g98.out> molden fake output.
 recommended (thermochemical) frequency scaling factor: 1.0
           -------------------------------------------------
          |             Thermodynamic Functions             |
           -------------------------------------------------

Refinement of some symmetry elements was terminated before convergence was reached.
Some symmetry elements may remain unidentified.
Molecule has no symmetry elements
It seems to be the C1 point group
c1  symmetry found (for desy threshold:  0.10E+00) used in thermo

          ...................................................
          :                      SETUP                      :
          :.................................................:
          :  # frequencies                         252      :
          :  # imaginary freq.                       0      :
          :  linear?                             false      :
          :  only rotor calc.                    false      :
          :  symmetry                               c1      :
          :  rotational number                       1      :
          :  scaling factor                  1.0000000      :
          :  rotor cutoff                   50.0000000 cm⁻¹ :
          :  imag. cutoff                  -20.0000000 cm⁻¹ :
          :.................................................:

    mode    ω/cm⁻¹     T·S(HO)/kcal·mol⁻¹    T·S(FR)/kcal·mol⁻¹   T·S(vib)
   ------------------------------------------------------------------------
       1     16.79    -2.08173 (  1.25%)    -1.37987 ( 98.75%)    -1.38867
       2     21.94    -1.92328 (  3.57%)    -1.30060 ( 96.43%)    -1.32284
       3     26.39    -1.81380 (  7.21%)    -1.24580 ( 92.79%)    -1.28672
       4     28.41    -1.77034 (  9.43%)    -1.22404 ( 90.57%)    -1.27558
       5     33.66    -1.66997 ( 17.04%)    -1.17376 ( 82.96%)    -1.25831
       6     37.46    -1.60675 ( 23.96%)    -1.14207 ( 76.04%)    -1.25340
       7     46.42    -1.48009 ( 42.63%)    -1.07853 ( 57.37%)    -1.24972
       8     48.47    -1.45467 ( 46.89%)    -1.06577 ( 53.11%)    -1.24812
       9     58.82    -1.34057 ( 65.70%)    -1.00840 ( 34.30%)    -1.22664
      10     59.03    -1.33853 ( 66.01%)    -1.00737 ( 33.99%)    -1.22598
      11     65.29    -1.27923 ( 74.41%)    -0.97750 ( 25.59%)    -1.20201
      12     75.55    -1.19359 ( 83.90%)    -0.93427 ( 16.10%)    -1.15185
      13     79.18    -1.16609 ( 86.28%)    -0.92036 ( 13.72%)    -1.13237
      14     92.48    -1.07542 ( 92.13%)    -0.87437 (  7.87%)    -1.05959
      15    105.11    -1.00097 ( 95.13%)    -0.83644 (  4.87%)    -0.99296
      16    106.59    -0.99284 ( 95.38%)    -0.83229 (  4.62%)    -0.98543
      17    116.06    -0.94365 ( 96.67%)    -0.80710 (  3.33%)    -0.93910
      18    122.93    -0.91048 ( 97.34%)    -0.79005 (  2.66%)    -0.90727
      19    130.29    -0.87710 ( 97.88%)    -0.77283 (  2.12%)    -0.87489
      20    133.89    -0.86148 ( 98.09%)    -0.76476 (  1.91%)    -0.85964
      21    150.66    -0.79422 ( 98.80%)    -0.72978 (  1.20%)    -0.79345
      22    164.96    -0.74302 ( 99.16%)    -0.70292 (  0.84%)    -0.74268
      23    167.73    -0.73367 ( 99.22%)    -0.69799 (  0.78%)    -0.73339
      24    171.29    -0.72191 ( 99.28%)    -0.69178 (  0.72%)    -0.72169
      25    180.66    -0.69218 ( 99.42%)    -0.67600 (  0.58%)    -0.69209
      26    187.56    -0.67138 ( 99.50%)    -0.66490 (  0.50%)    -0.67135
      27    191.38    -0.66022 ( 99.54%)    -0.65892 (  0.46%)    -0.66021
      28    201.81    -0.63103 ( 99.62%)    -0.64319 (  0.38%)    -0.63108
      29    206.00    -0.61981 ( 99.65%)    -0.63712 (  0.35%)    -0.61987
      30    211.15    -0.60635 ( 99.69%)    -0.62980 (  0.31%)    -0.60642
      31    222.00    -0.57921 ( 99.74%)    -0.61495 (  0.26%)    -0.57931
      32    233.48    -0.55218 ( 99.79%)    -0.60002 (  0.21%)    -0.55228
      33    237.19    -0.54379 ( 99.80%)    -0.59535 (  0.20%)    -0.54389
      34    250.71    -0.51448 ( 99.84%)    -0.57892 (  0.16%)    -0.51458
      35    266.87    -0.48192 ( 99.88%)    -0.56042 (  0.12%)    -0.48202
      36    285.90    -0.44666 ( 99.91%)    -0.54001 (  0.09%)    -0.44674
      37    292.03    -0.43595 ( 99.91%)    -0.53374 (  0.09%)    -0.43604
   ------------------------------------------------------------------------

   temp. (K)  partition function   enthalpy   heat capacity  entropy
                                   cal/mol     cal/K/mol   cal/K/mol   J/K/mol
 298.15  VIB  0.266E+19            25277.696    158.246    155.882
         ROT  0.639E+08              888.752      2.981     38.698
         INT  0.170E+27            26166.448    161.227    194.580
         TR   0.149E+29             1481.254      4.968     45.130
         TOT                       27647.7019   166.1952   239.7106  1002.9493

       T/K    H(0)-H(T)+PV         H(T)/Eh          T*S/Eh         G(T)/Eh
   ------------------------------------------------------------------------
    298.15    0.440594E-01    0.727099E+00    0.113894E+00    0.613204E+00
   ------------------------------------------------------------------------

         :::::::::::::::::::::::::::::::::::::::::::::::::::::
         ::                  THERMODYNAMIC                  ::
         :::::::::::::::::::::::::::::::::::::::::::::::::::::
         :: total free energy        -123.128494167781 Eh   ::
         ::.................................................::
         :: total energy             -123.741698470617 Eh   ::
         :: zero point energy           0.683039146122 Eh   ::
         :: G(RRHO) w/o ZPVE           -0.069834843286 Eh   ::
         :: G(RRHO) contrib.            0.613204302836 Eh   ::
         :::::::::::::::::::::::::::::::::::::::::::::::::::::

optimized geometry written to: xtbopt.xyz


           -------------------------------------------------
          | TOTAL ENERGY             -123.741698470617 Eh   |
          | TOTAL ENTHALPY           -123.014599907026 Eh   |
          | TOTAL FREE ENERGY        -123.128494167781 Eh   |
          | GRADIENT NORM               0.000073815771 Eh/α |
          | HOMO-LUMO GAP               0.602101199967 eV   |
           -------------------------------------------------

------------------------------------------------------------------------
 * finished run on 2025/08/24 at 23:36:04.598     
------------------------------------------------------------------------
 total:
 * wall-time:     0 d,  0 h,  0 min,  8.394 sec
 *  cpu-time:     0 d,  0 h,  5 min,  9.242 sec
 * ratio c/w:    36.841 speedup
 SCF:
 * wall-time:     0 d,  0 h,  0 min,  0.241 sec
 *  cpu-time:     0 d,  0 h,  0 min,  8.956 sec
 * ratio c/w:    37.119 speedup
 ANC optimizer:
 * wall-time:     0 d,  0 h,  0 min,  3.588 sec
 *  cpu-time:     0 d,  0 h,  2 min, 23.485 sec
 * ratio c/w:    39.992 speedup
 analytical hessian:
 * wall-time:     0 d,  0 h,  0 min,  4.390 sec
 *  cpu-time:     0 d,  0 h,  2 min, 30.414 sec
 * ratio c/w:    34.266 speedup

