$hessian                                                                        
        0.5001119038   0.0263362043  -0.0239806510  -0.1069080093   0.0476686063
       -0.0385242753   0.0069969619  -0.0090008100   0.0070281219  -0.0121434303
        0.0081157261  -0.0139558710   0.0003518712  -0.0001355551   0.0002485800
       -0.0000039787   0.0001695441  -0.0000496478   0.0000378421   0.0000116330
       -0.0000016752   0.0000075632   0.0000075523  -0.0000249847   0.0000184199
        0.0000002766  -0.0000165582   0.0000073053  -0.0000005098  -0.0000076486
        0.0000168809  -0.0000052442   0.0000015277  -0.0000028466   0.0000024011
       -0.0000051098   0.0000024124   0.0000006796   0.0000039242  -0.0000035527
        0.0000002673  -0.0000031716   0.0000009492  -0.0000004135   0.0000022075
        0.0000011305   0.0000001199   0.0000015952  -0.0000009905   0.0000017664
        0.0000019022  -0.0000041283  -0.0000004368  -0.0000035679   0.0000058048
       -0.0000011067   0.0000030614  -0.0000006899   0.0000002823  -0.0000007465
        0.0000006793  -0.0000003460  -0.0000009896   0.0000023884   0.0000000530
       -0.0000018784   0.0000012882   0.0000003069  -0.0000001330   0.0000028931
       -0.0000008783  -0.0000013530   0.0000029670   0.0000022292   0.0000001722
        0.0000058117  -0.0000045686  -0.0000003508   0.0000027354   0.0000063057
       -0.0000039186   0.0000040963  -0.0000080664   0.0000042329  -0.1315030204
        0.0756326064   0.0855290396  -0.1252883388  -0.0877991228   0.0750880083
       -0.1160533073  -0.0713275814  -0.0821271904  -0.0142254203   0.0160483591
       -0.0102525185  -0.0009480554  -0.0030881006   0.0021988228   0.0007949527
       -0.0008235438   0.0002359070   0.0005950716  -0.0004591435   0.0008476191
       -0.0016909856  -0.0014942724  -0.0026364669   0.0008448013   0.0002895063
        0.0012032944  -0.0007954295  -0.0001723032  -0.0008153051  -0.0001408990
        0.0000806714  -0.0000470506  -0.0000428176   0.0000417667   0.0000295051
        0.0000029983  -0.0000613368  -0.0000539543   0.0000015153  -0.0000118539
        0.0000304526   0.0000024930  -0.0000192332   0.0000018595  -0.0000136529
       -0.0000189662   0.0000136065  -0.0000122843   0.0000134634   0.0000119627
       -0.0000137747  -0.0000029661   0.0000111713  -0.0000132164   0.0000341524
       -0.0000196728  -0.0000170017  -0.0000287029   0.0000139907  -0.0000112183
       -0.0000045457   0.0000077157  -0.0000008089   0.0000038907  -0.0000069494
       -0.0000062799  -0.0000025256   0.0000043356   0.0000031315  -0.0000023942
       -0.0000025240  -0.0000026449  -0.0000037658   0.0000006631   0.0000004156
        0.0000037611   0.0000034571  -0.0000014707   0.0000004751   0.0000007038
        0.0000016956  -0.0000007573   0.0000001872   0.0000001916   0.0000003706
       -0.0000004903  -0.0000002963   0.0000001602   0.0000003694  -0.0000011397
        0.0000011076  -0.0000000124   0.0000001600   0.0000004471   0.0000007849
        0.0000009493  -0.0000007471   0.0000000524   0.0000007088  -0.0000008321
        0.0000005083   0.0000008171   0.0000014567   0.0000014210   0.0000020844
        0.0000007623  -0.0000013154  -0.0000005251  -0.0000007320  -0.0000003616
        0.0000011687  -0.0000006571   0.0000031512  -0.0000026677  -0.0000010578
        0.0000005145   0.0000033711  -0.0000042290   0.0000003120   0.0000008630
        0.0000001661   0.0000033555  -0.0000061701  -0.0000041724  -0.0000021481
        0.0000013785   0.0000029191   0.0000132091  -0.0000044836  -0.0000057891
       -0.0000018447   0.0000155376  -0.0000035859   0.0000296398   0.0000073257
        0.0000208568  -0.0000306102
        0.0263362043   0.5008359425   0.0208407603   0.0465934816  -0.1144060224
        0.0419269279   0.0082734128  -0.0187637415   0.0161362306  -0.0056413264
        0.0076247647  -0.0057587072   0.0001799552  -0.0000320958   0.0000059060
       -0.0001209299   0.0000613150   0.0001100835   0.0000214431   0.0000176572
       -0.0000324938   0.0000171451  -0.0000030902   0.0000076319   0.0000125612
       -0.0000151822  -0.0000244749  -0.0000148917  -0.0000169438   0.0000072132
        0.0000044913  -0.0000066965   0.0000047802  -0.0000069176   0.0000108027
       -0.0000035767  -0.0000009904  -0.0000035920   0.0000043871  -0.0000058210
        0.0000044703  -0.0000028237   0.0000050452  -0.0000017668   0.0000002076
        0.0000031598  -0.0000007769   0.0000046002  -0.0000045493  -0.0000005757
       -0.0000001770   0.0000008739   0.0000006504  -0.0000006307  -0.0000000726
       -0.0000033596  -0.0000004536  -0.0000005456  -0.0000002610   0.0000014886
       -0.0000004479  -0.0000007928  -0.0000001817   0.0000023416  -0.0000013863
       -0.0000014324  -0.0000020847   0.0000009272  -0.0000010627   0.0000020118
        0.0000026530   0.0000008539   0.0000007956  -0.0000031515   0.0000024533
        0.0000012372   0.0000091548   0.0000036820   0.0000113686  -0.0000055691
        0.0000045600  -0.0000371189  -0.0000036795   0.0000027522   0.0754524855
       -0.1110408829  -0.0747168268  -0.0875822459  -0.1362124922   0.0775371096
       -0.0718841926  -0.1135933167  -0.0834529289   0.0128640476  -0.0126214118
        0.0085200460  -0.0022761615  -0.0031706711   0.0028121957   0.0005663892
        0.0008929283  -0.0006897821   0.0008838020   0.0002568954   0.0004463075
       -0.0020360673  -0.0005421376  -0.0026137628  -0.0008950115   0.0007587902
       -0.0004301482  -0.0005525153  -0.0001173124  -0.0006155018  -0.0001355943
        0.0000758918  -0.0000288692   0.0000184859   0.0000673191   0.0000439461
        0.0000078667  -0.0000467631  -0.0000655010  -0.0000166314  -0.0000121485
        0.0000151172  -0.0000094038  -0.0000082358  -0.0000013487  -0.0000034886
       -0.0000150376   0.0000028777  -0.0000053904   0.0000143926   0.0000044147
       -0.0000138550  -0.0000027971   0.0000169440  -0.0000257147   0.0000267907
       -0.0000405758   0.0000002273  -0.0000128261   0.0000087950  -0.0000034011
        0.0000006766   0.0000080367  -0.0000053705   0.0000068370  -0.0000042879
        0.0000031483  -0.0000007933   0.0000021492  -0.0000003792   0.0000002483
       -0.0000022775  -0.0000000677  -0.0000014711  -0.0000000964  -0.0000010253
        0.0000026621   0.0000029366  -0.0000012758   0.0000011434   0.0000014692
       -0.0000003533  -0.0000000084  -0.0000004339  -0.0000000697   0.0000001889
        0.0000001089   0.0000000194   0.0000001511   0.0000003495  -0.0000007077
        0.0000017089   0.0000024807   0.0000003396  -0.0000008957   0.0000002336
        0.0000001914   0.0000002657  -0.0000001769  -0.0000005684  -0.0000001102
       -0.0000005316   0.0000005906  -0.0000000875   0.0000012012  -0.0000008061
       -0.0000013393  -0.0000016040  -0.0000012546   0.0000010467  -0.0000001745
        0.0000000695  -0.0000014361   0.0000008311   0.0000010471  -0.0000011835
        0.0000010281   0.0000015781  -0.0000013937  -0.0000004089  -0.0000007166
        0.0000003426  -0.0000015873   0.0000012998  -0.0000037133   0.0000027779
        0.0000037509   0.0000009076   0.0000074509  -0.0000060521   0.0000089716
        0.0000040458   0.0000179006  -0.0000044591   0.0000164737   0.0000052486
       -0.0000048889  -0.0000310066
       -0.0239806510   0.0208407603   0.5048448141  -0.0381831206   0.0429436336
       -0.1040257157  -0.0063922457   0.0144590296  -0.0116511397  -0.0151068506
        0.0100169709  -0.0161384218   0.0000241948   0.0000388164   0.0000163526
       -0.0000697876   0.0001091195  -0.0000371040   0.0000436963   0.0000033916
        0.0000191200  -0.0000021233   0.0000099009   0.0000317623   0.0000287779
       -0.0000020278  -0.0000074254   0.0000039536   0.0000182812  -0.0000099717
       -0.0000086394  -0.0000027703  -0.0000054335  -0.0000008311   0.0000031662
       -0.0000028091  -0.0000013948   0.0000004025   0.0000016676  -0.0000057383
        0.0000037327  -0.0000023775   0.0000039914  -0.0000028336   0.0000018643
        0.0000036211  -0.0000008002   0.0000013699  -0.0000036336  -0.0000008408
       -0.0000010233   0.0000045584   0.0000017387   0.0000016464  -0.0000072674
        0.0000005890  -0.0000013749   0.0000000819   0.0000006605  -0.0000005931
        0.0000000750   0.0000012216   0.0000000092   0.0000028570   0.0000000455
       -0.0000004787   0.0000006907   0.0000010332   0.0000004472   0.0000010638
        0.0000028399  -0.0000006532   0.0000008725   0.0000022626   0.0000027743
        0.0000015830   0.0000056100  -0.0000013622   0.0000166479   0.0000082717
        0.0000040678  -0.0000049715   0.0000073805   0.0000033275   0.0862279177
       -0.0752661653  -0.1274161418   0.0749656471   0.0773329932  -0.1098826648
       -0.0822585834  -0.0833062896  -0.1398756992   0.0086094760  -0.0091429016
        0.0075579478   0.0012395765   0.0026516113  -0.0016232586  -0.0008454324
        0.0001870891   0.0003168801  -0.0003895773  -0.0008391642   0.0005721194
       -0.0030828808  -0.0014142563  -0.0031856398  -0.0005036663   0.0011086754
        0.0006180087  -0.0001640232   0.0003607516  -0.0000154436  -0.0001087179
       -0.0000765551  -0.0000310476  -0.0000368194   0.0000436922   0.0000155659
       -0.0000041217  -0.0000413487  -0.0000677731  -0.0000137332  -0.0000045357
       -0.0000060247  -0.0000128084  -0.0000181069  -0.0000056887   0.0000188347
        0.0000377677  -0.0000128637  -0.0000078194   0.0000002892  -0.0000081854
       -0.0000110592  -0.0000076858   0.0000069750   0.0000173206  -0.0000463434
       -0.0000088536   0.0000041430   0.0000055676  -0.0000031698  -0.0000052832
        0.0000013914   0.0000061714  -0.0000094789  -0.0000008973   0.0000008554
       -0.0000005637  -0.0000022709   0.0000043743  -0.0000006272  -0.0000020968
       -0.0000019119  -0.0000003063  -0.0000000230   0.0000004682  -0.0000016668
       -0.0000025180   0.0000002240  -0.0000030563  -0.0000002495   0.0000020710
        0.0000000673   0.0000002917   0.0000000657  -0.0000016440  -0.0000002923
        0.0000008044  -0.0000012701  -0.0000008012   0.0000000711   0.0000033356
        0.0000000703  -0.0000022684  -0.0000000405  -0.0000000922  -0.0000010043
        0.0000007627   0.0000007161  -0.0000009471  -0.0000000577   0.0000011897
       -0.0000004721   0.0000021684   0.0000013253   0.0000005039  -0.0000001525
       -0.0000023457  -0.0000016629  -0.0000019373   0.0000015004   0.0000011584
        0.0000026278   0.0000000616   0.0000018445  -0.0000003387  -0.0000014302
        0.0000010438   0.0000039694  -0.0000032208   0.0000001777  -0.0000027050
        0.0000008170  -0.0000022921  -0.0000028464  -0.0000032329   0.0000017050
        0.0000057453   0.0000040989   0.0000066574  -0.0000127428   0.0000010043
        0.0000050118   0.0000219792  -0.0000019147   0.0000160431  -0.0000090220
       -0.0000257518  -0.0000270739
       -0.1069080093   0.0465934816  -0.0381831206   0.4995992739  -0.0250505624
       -0.0253351730  -0.1100519535  -0.0492199868   0.0372522516  -0.0948128331
       -0.0268036660  -0.0425045506  -0.0143921534  -0.0128710440  -0.0111110470
       -0.0023988302  -0.0025519263   0.0015005071  -0.0004446450  -0.0003707205
       -0.0008394817   0.0000145689   0.0000463687  -0.0000117543   0.0000414379
       -0.0000140529  -0.0000460519   0.0000047006  -0.0000153467   0.0000010633
        0.0000097912  -0.0000389122   0.0000131609  -0.0000113192  -0.0000042179
       -0.0000063962  -0.0000034541  -0.0000178162   0.0000061307   0.0000011979
       -0.0000082640   0.0000003182  -0.0000079666   0.0000080355   0.0000046971
       -0.0000082615   0.0000021326   0.0000011679   0.0000062860   0.0000056389
        0.0000054216  -0.0000198849  -0.0000063126  -0.0000064917   0.0000228819
        0.0000049255   0.0000120755   0.0000004015  -0.0000016364   0.0000009752
        0.0000021689  -0.0000002143  -0.0000025703  -0.0000053980  -0.0000026159
       -0.0000006948  -0.0000049034   0.0000009259  -0.0000069277  -0.0000048156
       -0.0000072996  -0.0000027911  -0.0000040268  -0.0000065531  -0.0000002443
        0.0000057021   0.0000111787  -0.0000080613   0.0000002031  -0.0000517719
       -0.0000083074   0.0000159465   0.0000653978  -0.0000402281  -0.0150625867
        0.0155078654  -0.0086935865   0.0090331224  -0.0097167323   0.0090076301
       -0.0123206915   0.0091670234  -0.0123387026  -0.1306801272   0.0684119585
        0.0831338790   0.0084780874   0.0099112582  -0.0070487037  -0.0161679753
       -0.0122445805   0.0131837172  -0.0120715645  -0.0131403036   0.0054039859
       -0.0099357802  -0.0060471050  -0.0147102078   0.0078235584   0.0085876500
        0.0121338326   0.0004900657   0.0004925646  -0.0002873897   0.0000144748
       -0.0004722326  -0.0008442787  -0.0001056954   0.0000177248   0.0001479483
        0.0000897642  -0.0000363779   0.0000385510  -0.0001711731  -0.0002166735
        0.0000526944   0.0000364072   0.0000303971   0.0000090336   0.0000016308
       -0.0000235890  -0.0000059444  -0.0000385599  -0.0000003296   0.0000223677
        0.0000145308   0.0000618428   0.0000304585  -0.0000474156  -0.0000850593
        0.0000381227   0.0000133084   0.0000529721  -0.0000256694   0.0000068030
        0.0000181692  -0.0000165286  -0.0000303643   0.0000243303   0.0000184484
        0.0000221178   0.0000330527   0.0000016489  -0.0000099835   0.0000163262
       -0.0000019977   0.0000018536   0.0000079488  -0.0000035786  -0.0000023083
        0.0000014603   0.0000088056   0.0000058117  -0.0000018539  -0.0000059564
       -0.0000002801  -0.0000016793   0.0000004596   0.0000022164  -0.0000004037
       -0.0000031040   0.0000027831   0.0000035370  -0.0000017067  -0.0000059525
       -0.0000041019  -0.0000024688   0.0000034776   0.0000035889   0.0000042600
       -0.0000015815  -0.0000017870  -0.0000007725   0.0000018045  -0.0000027459
        0.0000027886  -0.0000018679   0.0000006027   0.0000017109  -0.0000002809
        0.0000056047   0.0000048560   0.0000056811  -0.0000049218  -0.0000005730
       -0.0000029242  -0.0000001680  -0.0000002214   0.0000061348   0.0000128017
        0.0000012689  -0.0000083733   0.0000049016  -0.0000099537   0.0000095971
        0.0000048206   0.0000146398   0.0000191466   0.0000292657   0.0000061485
        0.0000031534  -0.0000076399   0.0000202888  -0.0000170160  -0.0000120891
        0.0000056321   0.0000095070  -0.0000234844   0.0000135710  -0.0000586419
       -0.0000589746   0.0000107192
        0.0476686063  -0.1144060224   0.0429436336  -0.0250505624   0.4822012571
        0.0158594258  -0.0487811054  -0.1209250046   0.0374375422  -0.0279298655
       -0.0939676732  -0.0452873185  -0.0127064062  -0.0109680376  -0.0102165603
       -0.0020402807  -0.0018662883   0.0010885057  -0.0005568365  -0.0001289448
       -0.0005748917   0.0000407751   0.0000639755  -0.0000387810  -0.0000231243
       -0.0000190290   0.0000027128   0.0000336574   0.0000009768  -0.0000252572
        0.0000272931   0.0000348841  -0.0000015672   0.0000053580  -0.0000071532
        0.0000001985   0.0000091283   0.0000181899  -0.0000019975   0.0000057852
        0.0000019805   0.0000029761   0.0000004721  -0.0000040136  -0.0000003299
        0.0000014300  -0.0000017666   0.0000039955  -0.0000013223   0.0000012104
       -0.0000004584  -0.0000033393   0.0000048274  -0.0000015551   0.0000028639
       -0.0000068977  -0.0000013051  -0.0000011053   0.0000005098  -0.0000015829
        0.0000003091  -0.0000000291  -0.0000011142   0.0000018870   0.0000081867
       -0.0000032415   0.0000071293  -0.0000000791   0.0000033849   0.0000017607
       -0.0000024316  -0.0000002126   0.0000025879   0.0000110282   0.0000010054
        0.0000009308  -0.0000079077  -0.0000038347   0.0000026989   0.0000190007
       -0.0000112256   0.0000586108  -0.0000060284   0.0000069869   0.0134819932
       -0.0137302965   0.0075113100   0.0095345633  -0.0147941546   0.0130182427
       -0.0079901283   0.0084059803  -0.0075081910   0.0681579002  -0.0945334170
       -0.0646061172  -0.0104264586  -0.0164428642   0.0121040978   0.0063539608
        0.0087382984  -0.0048295800  -0.0127116045  -0.0137647776   0.0060605302
        0.0088455892   0.0072948554   0.0131071754  -0.0071268230  -0.0115668268
       -0.0159848130   0.0003144312  -0.0001888637  -0.0000583584   0.0010579381
        0.0008007155  -0.0003534413  -0.0000835888  -0.0000508995   0.0001200435
       -0.0000278523  -0.0000535518   0.0001034456  -0.0000821597  -0.0001541521
        0.0000503286   0.0000516642   0.0000617188   0.0000141209  -0.0000428411
       -0.0000477600   0.0000559633  -0.0000029946  -0.0000239409  -0.0000350851
        0.0000043744   0.0000180233   0.0000135935  -0.0000606827   0.0000513412
        0.0000435880  -0.0000036543  -0.0000157774   0.0000097813   0.0000041431
       -0.0000049180  -0.0000065176   0.0000146292  -0.0000246166  -0.0000134524
       -0.0000058365  -0.0000076783  -0.0000034451   0.0000004848  -0.0000113566
        0.0000026923  -0.0000024016  -0.0000062271   0.0000012811  -0.0000014907
        0.0000009315  -0.0000059067   0.0000020522   0.0000011217  -0.0000017325
        0.0000010057  -0.0000008142   0.0000014153   0.0000015542  -0.0000003615
       -0.0000022111  -0.0000000782  -0.0000015967  -0.0000003004   0.0000005834
        0.0000040146   0.0000010561  -0.0000006196   0.0000000501  -0.0000014435
        0.0000011245  -0.0000009854   0.0000004790   0.0000016942  -0.0000011157
        0.0000017776  -0.0000001713   0.0000000688  -0.0000022579  -0.0000032724
        0.0000006523  -0.0000015806   0.0000030646  -0.0000023662   0.0000002371
       -0.0000012427   0.0000015363   0.0000005347  -0.0000018458  -0.0000038660
       -0.0000016223  -0.0000023890  -0.0000053753   0.0000049864   0.0000033272
       -0.0000002874   0.0000026220   0.0000013273   0.0000014810  -0.0000026615
       -0.0000003365  -0.0000035348   0.0000022461   0.0000283192  -0.0000292544
       -0.0000090337  -0.0000303047  -0.0000037784  -0.0000059019  -0.0000342833
        0.0000459051   0.0000229707
       -0.0385242753   0.0419269279  -0.1040257157  -0.0253351730   0.0158594258
        0.4963123860   0.0377924794   0.0385278580  -0.0919367195  -0.0406142647
       -0.0431042685  -0.1235407796   0.0029946124   0.0023040883   0.0072643796
        0.0015491274   0.0013948119  -0.0006790773   0.0002988742   0.0001556339
        0.0004934950   0.0000727015   0.0000188792   0.0000156779  -0.0000413236
        0.0000114177   0.0000413159   0.0000591981  -0.0000018974  -0.0000298999
        0.0000036144   0.0000379886   0.0000031853   0.0000051760  -0.0000213792
        0.0000115682   0.0000082508   0.0000187538  -0.0000067333   0.0000132998
       -0.0000014591   0.0000109474  -0.0000014524  -0.0000052706   0.0000031500
       -0.0000028532  -0.0000005189   0.0000062985   0.0000019131   0.0000014079
       -0.0000001005  -0.0000066016   0.0000012539   0.0000046655   0.0000028392
       -0.0000001340  -0.0000021845  -0.0000005331  -0.0000015750  -0.0000010991
        0.0000006413   0.0000001101  -0.0000002341  -0.0000018961   0.0000069831
       -0.0000030782   0.0000070415  -0.0000012131   0.0000045979  -0.0000055501
       -0.0000045454   0.0000016442   0.0000001305   0.0000025143  -0.0000015034
        0.0000058970  -0.0000198742  -0.0000035939  -0.0000262291   0.0000232918
       -0.0000068853   0.0000974543  -0.0000206937   0.0000024132   0.0089200443
       -0.0098907459   0.0090720278  -0.0079632093   0.0125941388  -0.0108619533
       -0.0146736684   0.0112862671  -0.0142841920   0.0824811354  -0.0646835556
       -0.1210992983   0.0081312724   0.0132310148  -0.0098147905   0.0148890835
        0.0116093263  -0.0118569733  -0.0117194400  -0.0128449234   0.0078377497
       -0.0124616112  -0.0070597077  -0.0171205948  -0.0070785098  -0.0127505630
       -0.0165601970   0.0000531672   0.0003414872   0.0000881465   0.0010676237
        0.0008337775   0.0006006325  -0.0001412706   0.0000441738   0.0000334225
        0.0000140961  -0.0000529840   0.0000230272   0.0001467377   0.0001822899
        0.0000422905   0.0000357379   0.0000492418  -0.0000001732  -0.0000330816
       -0.0000242790  -0.0000073286  -0.0000049511  -0.0000264957  -0.0000060376
        0.0000235823   0.0000250788  -0.0000257814  -0.0000049239   0.0000165960
        0.0000841908  -0.0000091905   0.0000139452   0.0000004083   0.0000091770
        0.0000080777  -0.0000224629   0.0000203569  -0.0000394504  -0.0000023127
       -0.0000139099  -0.0000054295  -0.0000033311  -0.0000012872  -0.0000100478
        0.0000068225  -0.0000022076   0.0000012258   0.0000018053  -0.0000030796
       -0.0000051403  -0.0000147512   0.0000073140   0.0000002439  -0.0000084032
       -0.0000011596   0.0000002758   0.0000020813   0.0000032829  -0.0000015269
       -0.0000052811   0.0000018667  -0.0000001803  -0.0000028917   0.0000019581
       -0.0000019142  -0.0000015406   0.0000000588   0.0000006879  -0.0000005331
       -0.0000000409  -0.0000005111   0.0000006369   0.0000015540  -0.0000018157
        0.0000027986  -0.0000010336  -0.0000017082  -0.0000065529  -0.0000041712
        0.0000016641   0.0000017280   0.0000049106  -0.0000052430   0.0000011186
       -0.0000013577   0.0000042114  -0.0000068127  -0.0000029926   0.0000004031
       -0.0000026970  -0.0000033335  -0.0000005288   0.0000018221   0.0000016474
        0.0000010962   0.0000012026  -0.0000096941   0.0000047420  -0.0000019679
       -0.0000001335   0.0000033681  -0.0000268229   0.0000289263  -0.0000341505
        0.0000014809  -0.0000171282   0.0000177864  -0.0000539013  -0.0000452460
        0.0000612639   0.0000560689
        0.0069969619   0.0082734128  -0.0063922457  -0.1100519535  -0.0487811054
        0.0377924794   0.4999761218  -0.0276386918   0.0216487332  -0.0138682916
       -0.0149313320   0.0033843421  -0.0014067412  -0.0019292753  -0.0022711207
       -0.0005232509  -0.0006117803   0.0002738967  -0.0001039871  -0.0000540776
       -0.0002047289  -0.0000021847   0.0000018967   0.0000040324   0.0000253755
       -0.0000010016  -0.0000002116   0.0000176625   0.0000126604   0.0000112364
       -0.0000004803  -0.0000062330  -0.0000062175   0.0000055251   0.0000030487
       -0.0000010075  -0.0000008877  -0.0000055827   0.0000009135  -0.0000043525
        0.0000016420  -0.0000024772   0.0000033094  -0.0000014485   0.0000018889
       -0.0000002730   0.0000020347  -0.0000006936  -0.0000006462  -0.0000004683
       -0.0000000845   0.0000019134  -0.0000014124   0.0000002799  -0.0000009426
        0.0000035602  -0.0000008772   0.0000007727   0.0000005553   0.0000002537
        0.0000001367   0.0000015667   0.0000004877   0.0000014579  -0.0000034731
        0.0000003559  -0.0000013792   0.0000024832   0.0000002478  -0.0000007802
        0.0000023222   0.0000000830  -0.0000024797  -0.0000044846  -0.0000005241
       -0.0000033708   0.0000003453   0.0000018525   0.0000225549  -0.0000027443
        0.0000043470   0.0000071454   0.0000282099   0.0000154034   0.0007340794
        0.0004826520  -0.0007470655  -0.0008266366   0.0027214322  -0.0024359175
        0.0007108666   0.0009619846  -0.0002783631  -0.0152173027  -0.0135435321
        0.0129777130  -0.1190908559   0.0857700275  -0.0721375053  -0.1410150549
        0.0719921094   0.0913867381  -0.1068272190  -0.0622887255  -0.0841561522
        0.0000091216  -0.0008033235   0.0008901394   0.0005594729   0.0005492361
        0.0003943460  -0.0002063187  -0.0000416766  -0.0000135542   0.0001895188
       -0.0000342025  -0.0001577467  -0.0000243440   0.0000011293   0.0000298190
        0.0000206704  -0.0000323369   0.0000329273  -0.0000530659  -0.0000791189
        0.0000095261  -0.0000035637  -0.0000083776  -0.0000038853  -0.0000155422
        0.0000183110  -0.0000203174  -0.0000194772   0.0000192959   0.0000055759
       -0.0000087945   0.0000023376   0.0000025822   0.0000060141   0.0000159638
       -0.0000372249  -0.0000215590  -0.0000095254  -0.0000088861  -0.0000090679
       -0.0000025043   0.0000013058   0.0000083545  -0.0000035563  -0.0000028888
       -0.0000003470   0.0000036254  -0.0000015158   0.0000035330  -0.0000002222
        0.0000011429   0.0000007748   0.0000018741  -0.0000009151   0.0000026072
       -0.0000013816  -0.0000007649  -0.0000028009  -0.0000003569   0.0000004256
       -0.0000005679   0.0000009635  -0.0000005243  -0.0000005100   0.0000001017
        0.0000006309   0.0000002854   0.0000004542  -0.0000002060   0.0000001462
       -0.0000011970  -0.0000000113   0.0000000172   0.0000001455  -0.0000003985
        0.0000014796   0.0000012581  -0.0000010572  -0.0000020126   0.0000013059
       -0.0000009679   0.0000018296   0.0000000550   0.0000010287   0.0000033038
       -0.0000024058   0.0000023503  -0.0000028007   0.0000008822   0.0000000308
        0.0000010024  -0.0000012108  -0.0000010482   0.0000013816   0.0000026420
       -0.0000015817   0.0000021916   0.0000002423   0.0000017271  -0.0000044639
        0.0000003438  -0.0000012489   0.0000011032   0.0000045492  -0.0000035140
        0.0000040506  -0.0000036064   0.0000101350  -0.0000266788  -0.0000020368
       -0.0000001667  -0.0000001679  -0.0000219356   0.0000071565   0.0000304113
       -0.0000323166  -0.0000025180
       -0.0090008100  -0.0187637415   0.0144590296  -0.0492199868  -0.1209250046
        0.0385278580  -0.0276386918   0.4936798908   0.0208792714  -0.0149440894
       -0.0152808891   0.0040477788  -0.0013490743  -0.0012655733  -0.0021092425
       -0.0006096720  -0.0004815168   0.0003198189  -0.0001014115  -0.0000519018
       -0.0001749055  -0.0000015291   0.0000085129   0.0000182464   0.0000192865
       -0.0000056076  -0.0000017779   0.0000142342   0.0000139237   0.0000058797
       -0.0000010579  -0.0000024957  -0.0000041208   0.0000003342   0.0000039943
        0.0000010221   0.0000000197  -0.0000010051   0.0000002625  -0.0000054522
        0.0000042713  -0.0000026712   0.0000064218  -0.0000032891   0.0000014614
        0.0000024370  -0.0000006463   0.0000024756  -0.0000042419  -0.0000018990
       -0.0000011840   0.0000047575   0.0000008714   0.0000009592  -0.0000048355
       -0.0000034379  -0.0000046371   0.0000003737   0.0000005984   0.0000009021
       -0.0000001605   0.0000007517   0.0000003521   0.0000031628  -0.0000009955
       -0.0000013814   0.0000001505   0.0000008972   0.0000002572   0.0000011934
        0.0000033144   0.0000008896   0.0000000438   0.0000013391   0.0000014587
       -0.0000002691   0.0000066328   0.0000019342   0.0000168470   0.0000018195
        0.0000026454   0.0000012956   0.0000131982   0.0000050628  -0.0008641304
        0.0003926140   0.0001054922   0.0017783421  -0.0029046881   0.0027539505
       -0.0006686051   0.0007670867  -0.0008443063   0.0060269531   0.0068476869
       -0.0047400523   0.0854942754  -0.1385123933   0.0793898660   0.0727923492
       -0.0968966648  -0.0689332051  -0.0621913550  -0.1073899654  -0.0852178537
        0.0007622089   0.0007393117   0.0008501298  -0.0002042521   0.0001743481
        0.0006222010  -0.0000233470  -0.0000082406   0.0000697993  -0.0000137887
       -0.0000666336  -0.0000725149  -0.0000121021   0.0000026539   0.0000504168
        0.0000261971  -0.0000221305   0.0000242474  -0.0000441648  -0.0000549848
        0.0000041260  -0.0000036762   0.0000016840  -0.0000057692   0.0000032004
        0.0000165233  -0.0000216880  -0.0000108652   0.0000117115   0.0000072741
       -0.0000026224   0.0000041782   0.0000054736  -0.0000071066  -0.0000311411
       -0.0000183027   0.0000008948   0.0000079247  -0.0000087102  -0.0000045037
        0.0000021439   0.0000022973  -0.0000090340  -0.0000016058  -0.0000023154
        0.0000017742   0.0000005539   0.0000010674  -0.0000012216  -0.0000007351
       -0.0000018336   0.0000007019   0.0000000896  -0.0000001116  -0.0000005711
       -0.0000013919   0.0000004389  -0.0000037171   0.0000003158   0.0000023099
       -0.0000007483   0.0000008676  -0.0000008154  -0.0000013564  -0.0000004436
        0.0000010393  -0.0000004649  -0.0000009800   0.0000001160   0.0000001472
        0.0000027331   0.0000030842  -0.0000007268  -0.0000012997  -0.0000015676
        0.0000012230   0.0000006172  -0.0000008245  -0.0000014625   0.0000012947
       -0.0000011965   0.0000018732   0.0000003370   0.0000005746  -0.0000003543
       -0.0000022543  -0.0000013628  -0.0000029012   0.0000018551   0.0000004250
        0.0000012775  -0.0000003494   0.0000013164   0.0000006887  -0.0000010868
        0.0000002230   0.0000017443  -0.0000019981   0.0000007529  -0.0000032957
        0.0000012948  -0.0000026273   0.0000012279  -0.0000005963   0.0000003376
        0.0000036215   0.0000007446   0.0000073054  -0.0000119233  -0.0000005874
       -0.0000015216   0.0000076485  -0.0000042349   0.0000139584  -0.0000073284
       -0.0000261773  -0.0000192898
        0.0070281219   0.0161362306  -0.0116511397   0.0372522516   0.0374375422
       -0.0919367195   0.0216487332   0.0208792714   0.5103412446  -0.0108981192
       -0.0112394648   0.0059616850  -0.0019908614  -0.0020285182  -0.0020681947
       -0.0006368146  -0.0005364263   0.0004214002  -0.0001331066  -0.0000623450
       -0.0001825075  -0.0000405441  -0.0000216861  -0.0000069825   0.0000164103
       -0.0000145427  -0.0000092688  -0.0000303517   0.0000099618   0.0000050399
       -0.0000033118  -0.0000019224  -0.0000021473   0.0000042328   0.0000094032
       -0.0000026080  -0.0000025427  -0.0000046341   0.0000041191  -0.0000128547
        0.0000082156  -0.0000043880   0.0000129972  -0.0000052854   0.0000013067
        0.0000078854  -0.0000006915   0.0000101839  -0.0000094258  -0.0000001771
       -0.0000009299   0.0000040924  -0.0000001632   0.0000042064  -0.0000085890
        0.0000024580  -0.0000008616  -0.0000000354  -0.0000008185   0.0000006180
       -0.0000011437   0.0000000712  -0.0000010552   0.0000038216  -0.0000025810