$hessian                                                                        
        0.4930971381  -0.0130083944   0.0186872234  -0.1070801841  -0.0719415705
       -0.0021864843   0.0014057108  -0.0028205692   0.0010476035   0.0040811155
       -0.0014678343  -0.0031901859  -0.0003550016  -0.0002383841   0.0000495814
       -0.0006342734   0.0006843400   0.0006177971   0.0000883026   0.0001698009
        0.0000116733   0.0000233969  -0.0000034380   0.0000388462  -0.0000085250
       -0.0000057146  -0.0000221302  -0.0000576588   0.0000022399  -0.0000046981
        0.0000403356  -0.0000104804   0.0000197349   0.0000011655  -0.0000127429
        0.0000137813  -0.0000156377   0.0000145983  -0.0000379849  -0.0000340363
        0.0000297003  -0.0000656819  -0.0000082762   0.0000116235  -0.0000052070
        0.0000141910   0.0000022788  -0.0000095218   0.0000000865   0.0000181234
       -0.0000111516   0.0000081512  -0.0000133403   0.0000041009  -0.0000056611
        0.0000040217   0.0000065347   0.0000045295  -0.0000037703   0.0000049447
        0.0000460261  -0.0000338658   0.0000049688  -0.0000518657   0.0000559058
        0.0000214629   0.0000206877  -0.0000722670  -0.0000024577   0.0000397641
       -0.0000168069  -0.0000172644  -0.0000355986   0.0000340061   0.0000173659
        0.0000280651  -0.0000052090   0.0000078467   0.0000163726  -0.0000052799
       -0.0000045788  -0.0000263351  -0.0000043161  -0.0000061824  -0.0000072849
       -0.0000117846  -0.0000026082  -0.0000095263   0.0000074413   0.0000053631
        0.0000284372   0.0000164439   0.0000103781   0.0000174549  -0.0000640329
       -0.0000665383  -0.0000272747   0.0000564819   0.0000802018   0.0000016078
        0.0000147807  -0.0000002296   0.0000111865  -0.0000301464   0.0000076033
       -0.0000620819   0.0000497271  -0.0000092244  -0.0001097707  -0.0001260046
       -0.0000475386   0.0000604707  -0.0000035683   0.0000179190   0.0000015560
        0.0000132021   0.0000369398   0.0000080907  -0.0000444721  -0.0000087130
        0.0000347459  -0.0000409210   0.0000274463  -0.0000088870   0.0000281894
        0.0000052760  -0.0000100756  -0.0000656359  -0.0000641563   0.0000652943
        0.0000271603   0.0000104597   0.0000461571  -0.0000380577  -0.0000384808
        0.0010870850  -0.0019927021  -0.0054064311  -0.0151794907  -0.0188089773
       -0.0046145639  -0.0014920190   0.0000789574   0.0021189984  -0.1282480863
        0.1166897517   0.0065725864  -0.1376339646   0.0007321248  -0.1169025694
       -0.1080665314  -0.0088668925   0.1030334404  -0.0005228647   0.0022521067
        0.0004963234   0.0000248556   0.0002110042  -0.0000871989  -0.0000162872
        0.0000107323   0.0000229062   0.0000157550  -0.0000091024  -0.0000083193
        0.0000094796  -0.0000025193   0.0000080056   0.0000109851   0.0000018172
       -0.0000008416   0.0000071364  -0.0000030290   0.0000073238  -0.0000026044
        0.0000005013   0.0000052778   0.0000016323  -0.0000016673   0.0000010544
        0.0000017150   0.0000013419   0.0000001890   0.0000016156  -0.0000022311
       -0.0000006266   0.0000016782  -0.0000001065  -0.0000016188  -0.0000111993
        0.0000163493   0.0000003109   0.0000041681   0.0000172218  -0.0000033901
       -0.0000007258   0.0000034607   0.0000004745  -0.0000026651   0.0000006305
        0.0000014554   0.0000005910   0.0000000245   0.0000031683  -0.0000002040
       -0.0000016638   0.0000004908  -0.0000003338  -0.0000011587  -0.0000008505
        0.0000002000  -0.0000099116  -0.0000186989   0.0000002738  -0.0000059108
       -0.0000163616  -0.0000002017  -0.0000040965  -0.0000023599   0.0000022532
        0.0000111948   0.0000058251  -0.0000039098   0.0000024710   0.0000016970
        0.0000009386   0.0000030667   0.0000091368  -0.0000042416   0.0000169915
       -0.0000082741  -0.0000122476   0.0000045785   0.0000009717  -0.0000040154
       -0.0000068536   0.0000046392  -0.0000068563  -0.0000020926   0.0000178446
       -0.0000208887   0.0000286954  -0.0000044901  -0.0000099581  -0.0000005247
       -0.0000072636  -0.0006338557  -0.0009224099  -0.0000458791  -0.0004203497
       -0.0000683509  -0.0008139666  -0.0000380788  -0.0003548882   0.0001580776
        0.0005191321  -0.0001693916   0.0005194721
       -0.0130083944   0.4725165574  -0.0059644111  -0.0683039611  -0.1705300176
        0.0025125846  -0.0132303719  -0.0263651431   0.0066158487  -0.0006070628
        0.0005035714   0.0047251112  -0.0005367919  -0.0006627252  -0.0002991666
        0.0005725399   0.0000052891  -0.0004301050  -0.0000516392  -0.0001327735
        0.0000074206  -0.0000312584   0.0000499973  -0.0000120449  -0.0000404421
        0.0000105329   0.0000542759  -0.0000805054   0.0000172172   0.0000144765
        0.0000185641   0.0000036937   0.0000001705  -0.0000313426  -0.0000061096
        0.0000095350  -0.0000183381   0.0000326017  -0.0000638536  -0.0000265879
        0.0000112645   0.0000500068  -0.0000296562   0.0000094883  -0.0000228333
        0.0000183624  -0.0000111584  -0.0000073069  -0.0000034702   0.0000318546
       -0.0000103354   0.0000070169  -0.0000183520   0.0000088723  -0.0000121008
        0.0000246873   0.0000023199   0.0000169506  -0.0000216412   0.0000014376
        0.0000654968  -0.0000193780   0.0000071991  -0.0001314123   0.0000978007
        0.0000188007   0.0000423461  -0.0001290876   0.0000034630   0.0000941387
       -0.0000024664  -0.0000081828  -0.0000530120   0.0000092313   0.0000103149
        0.0000229079  -0.0000227056  -0.0000118850   0.0001079926   0.0000032739
        0.0000017073  -0.0001265031   0.0000204513   0.0000063305  -0.0000166611
       -0.0000623475  -0.0000390863  -0.0000320498   0.0000390180   0.0000282265
        0.0001065514   0.0000576541   0.0000354017  -0.0000392044  -0.0001718742
       -0.0001496517  -0.0000636167   0.0001284788   0.0001869300   0.0000948557
       -0.0000112860  -0.0000161029   0.0000080002   0.0000260758   0.0000354077
       -0.0000101875   0.0000045379   0.0000315438   0.0001195034   0.0000288788
       -0.0000087793   0.0000084240   0.0000278479  -0.0000060969   0.0000518094
       -0.0000169472   0.0000633477   0.0000090244  -0.0000093322  -0.0000015987
        0.0000090751  -0.0000290009   0.0000080394  -0.0000152537   0.0000298140
        0.0000007459  -0.0000103852  -0.0001087568  -0.0000529858   0.0000010932
        0.0000104185   0.0000160493   0.0000324999  -0.0000191652   0.0000074945
       -0.0022054797   0.0022956060   0.0009093390  -0.0100918060  -0.0080676140
       -0.0061638945   0.0014379402  -0.0018371177   0.0006760039   0.1117286966
       -0.1859612039  -0.0126367681   0.0007222184  -0.0430959511  -0.0005078079
       -0.0074792742  -0.0390140654   0.0110054092   0.0001668761   0.0003135904
       -0.0019891469  -0.0006088604  -0.0009115538   0.0000411802  -0.0000058450
       -0.0000058614   0.0000264166   0.0000295390  -0.0000049637  -0.0000112731
        0.0000224762  -0.0000091279   0.0000087649   0.0000150513  -0.0000046337
        0.0000028209   0.0000145523   0.0000055445  -0.0000015470  -0.0000010516
        0.0000032130   0.0000079864   0.0000092390  -0.0000073398  -0.0000035593
        0.0000067617  -0.0000081541   0.0000002815   0.0000006715  -0.0000099475
        0.0000037114   0.0000018685  -0.0000005418  -0.0000049866  -0.0000214989
        0.0000263819  -0.0000077883   0.0000053472   0.0000211886  -0.0000073730
       -0.0000079623   0.0000001891  -0.0000065608  -0.0000035966   0.0000000106
        0.0000013249  -0.0000026492  -0.0000018894   0.0000011859  -0.0000048905
       -0.0000008792  -0.0000000847  -0.0000008582  -0.0000003685   0.0000004843
        0.0000005728  -0.0000153751  -0.0000401304   0.0000093919  -0.0000048102
       -0.0000365978  -0.0000006240  -0.0000008033  -0.0000084213  -0.0000083287
        0.0000043301  -0.0000059179  -0.0000143987   0.0000142603  -0.0000035865
       -0.0000048740   0.0000090708   0.0000015628   0.0000114586   0.0000113723
        0.0000047325  -0.0000076790   0.0000091792   0.0000029352  -0.0000121349
       -0.0000239515   0.0000175448  -0.0000033499   0.0000179175   0.0000212309
        0.0000320062   0.0000321730  -0.0000155626   0.0000054746  -0.0000222694
       -0.0000412353  -0.0000305790  -0.0002317040   0.0001003682   0.0006419469
        0.0007599388   0.0011600110   0.0001389447  -0.0001198662   0.0002558138
        0.0006177634   0.0004860585  -0.0001155012
        0.0186872234  -0.0059644111   0.5152671813  -0.0049573821  -0.0021674996
       -0.0641486905   0.0093425533   0.0199636310  -0.0017697007  -0.0037998380
        0.0037840451  -0.0003757372   0.0002340200   0.0001997708  -0.0000207468
        0.0005702892  -0.0004364308  -0.0003386156  -0.0000982489  -0.0001488356
       -0.0000048911  -0.0000068081  -0.0000220018  -0.0000355822  -0.0000127172
        0.0000319854  -0.0000140103   0.0000261994   0.0000065125   0.0000089965
        0.0000147509  -0.0000009310  -0.0000095657   0.0000258612  -0.0000037633
        0.0000169160  -0.0000145479   0.0000095436   0.0000351523   0.0000270636
       -0.0000066255   0.0000337773   0.0000068864  -0.0000212462   0.0000013964
       -0.0000104854   0.0000104354   0.0000037427   0.0000054533  -0.0000111004
        0.0000016336   0.0000001995  -0.0000001429  -0.0000000520   0.0000029388
       -0.0000071609   0.0000055383  -0.0000006233   0.0000114641  -0.0000045010
        0.0000012706   0.0000016192  -0.0000055053   0.0000472851  -0.0000268968
       -0.0000087432  -0.0000078574   0.0000289340  -0.0000001966  -0.0000507678
        0.0000042129   0.0000069147   0.0000341048  -0.0000197875  -0.0000031368
       -0.0000194522  -0.0000047088  -0.0000114010   0.0000023097  -0.0000002776
        0.0000039405   0.0000021439  -0.0000080919  -0.0000036101  -0.0000025028
        0.0000093684   0.0000082972  -0.0000136189   0.0000000883   0.0000017122
        0.0000017177   0.0000043626   0.0000048518  -0.0000428294   0.0000167160
        0.0000242786   0.0000108436  -0.0000094347  -0.0000241207   0.0000428365
       -0.0000183781   0.0000028209  -0.0000319807   0.0000252700   0.0000013399
        0.0000891551   0.0000078222   0.0000066486   0.0000927037   0.0001320824
        0.0000314107  -0.0000032176   0.0000540612  -0.0000088341   0.0000005563
       -0.0000090273   0.0000359185   0.0000114436   0.0000019205   0.0000292203
       -0.0000019864  -0.0000066638  -0.0000095170   0.0000068767  -0.0000047946
        0.0000003531  -0.0000096643  -0.0000266096  -0.0000186019  -0.0000072504
       -0.0000063706  -0.0000084326  -0.0000414432   0.0000046341  -0.0000374233
       -0.0051823418   0.0011283906  -0.0009769250  -0.0117781255  -0.0170854122
       -0.0008538476   0.0009926704  -0.0010351325  -0.0010578740   0.0070151683
       -0.0122899756  -0.0426302625  -0.1169347088  -0.0005601569  -0.1914937670
        0.1053720173   0.0150552223  -0.2106463300   0.0022396912   0.0006871275
       -0.0001000032   0.0005519865   0.0008841061  -0.0001484415  -0.0000256673
        0.0000195102  -0.0000128303  -0.0000038646  -0.0000024141   0.0000040815
       -0.0000161412   0.0000016782   0.0000014324  -0.0000056639   0.0000058947
       -0.0000065452  -0.0000038268  -0.0000076676   0.0000053008  -0.0000020718
        0.0000004517  -0.0000047222  -0.0000027391   0.0000009090   0.0000017917
       -0.0000031059   0.0000043297  -0.0000000101   0.0000009706   0.0000033875
       -0.0000024349  -0.0000008158  -0.0000025173   0.0000012476   0.0000028225
       -0.0000060553   0.0000000779  -0.0000038938  -0.0000045945   0.0000044469
        0.0000016351   0.0000021684   0.0000004923  -0.0000012922   0.0000022409
        0.0000020187   0.0000027303   0.0000020988   0.0000017300   0.0000046895
       -0.0000006753   0.0000002619   0.0000021741  -0.0000044188  -0.0000019996
       -0.0000013078  -0.0000027939   0.0000040109   0.0000004489  -0.0000021488
        0.0000039304  -0.0000057265  -0.0000010231  -0.0000089711   0.0000085583
        0.0000051136   0.0000044313   0.0000067473  -0.0000005108   0.0000036828
        0.0000055116  -0.0000011509   0.0000014440  -0.0000046058  -0.0000090506
       -0.0000047901  -0.0000033191   0.0000007946   0.0000024630  -0.0000103164
       -0.0000005592   0.0000269970   0.0000178139   0.0000050548   0.0000060603
       -0.0000237103   0.0000120246  -0.0000181545  -0.0000282042   0.0000028051
        0.0000059063  -0.0007141915  -0.0009936465  -0.0001668516  -0.0001173351
       -0.0006411949  -0.0000460314  -0.0002004788  -0.0003445664   0.0000372637
       -0.0013056461  -0.0002049322  -0.0006087054
       -0.1070801841  -0.0683039611  -0.0049573821   0.3862418437   0.1449347826
        0.1895157973  -0.0739377148  -0.0144431164  -0.0219496978   0.0218510341
        0.0092921383   0.0208167267  -0.0138169102   0.0132305357  -0.0229110747
       -0.0007411005  -0.0013786750   0.0000700776   0.0000225706   0.0008336610
       -0.0002298919  -0.0000269500   0.0000199568  -0.0000954465  -0.0001114553
        0.0001130502   0.0000767317   0.0001860231  -0.0000054189   0.0000376818
        0.0000180852   0.0000469416  -0.0001048435  -0.0001076585  -0.0000040613
        0.0000564460   0.0000784837  -0.0000752054   0.0000503675  -0.0002615562
       -0.0002846334  -0.0000007312   0.0000022373   0.0000395886   0.0000652499
        0.0000153709   0.0000228244  -0.0000051346   0.0000161421  -0.0000073134
       -0.0000164765   0.0000124852  -0.0000213898   0.0000023521  -0.0000212396
       -0.0000088279   0.0000120934  -0.0000106470  -0.0000263509   0.0000080681
        0.0001838445   0.0002027483   0.0000469031  -0.0000173291  -0.0001911489
       -0.0000354784  -0.0000187791   0.0000881041  -0.0000063984  -0.0001578510
        0.0000519844   0.0000448920   0.0000576557  -0.0001695452  -0.0000589605
       -0.0001044857   0.0000087665  -0.0000400272   0.0000451834   0.0000126833
        0.0000097723  -0.0000405644   0.0000147368   0.0000135696  -0.0000320750
       -0.0000452804  -0.0000381409   0.0000642085   0.0000316523   0.0000298427
       -0.0000731528  -0.0000429500  -0.0000360853  -0.0000906293   0.0000576012
        0.0000960679   0.0000397469  -0.0000291416  -0.0000869123   0.0001210191
       -0.0000477904  -0.0000180674   0.0000284377   0.0001186345   0.0000310668
        0.0000570604  -0.0001042170   0.0000093981   0.0001926899   0.0002221026
        0.0002778937  -0.0002508164  -0.0001762147  -0.0000689056   0.0000861084
       -0.0000927833   0.0000373162  -0.0000217415   0.0000359572  -0.0000231666
       -0.0000701109   0.0000570173  -0.0000548503   0.0000369025  -0.0000249408
        0.0000008991  -0.0000444781   0.0000857920   0.0001275491   0.0000259659
        0.0000008153  -0.0000774910  -0.0000531621   0.0000652960  -0.0002554891
       -0.0304071595  -0.0482017893  -0.0004061605  -0.1641017555  -0.0144813583
       -0.1293085435  -0.0045399343   0.0038457924  -0.0089770219   0.0106777907
        0.0100734622   0.0009242098  -0.0137387888  -0.0172360740  -0.0039673437
       -0.0105174489  -0.0170989693   0.0040071860  -0.0046873826   0.0118887686
       -0.0168567279   0.0024313918  -0.0055704963  -0.0023012834  -0.0000418843
       -0.0001049901  -0.0000554945  -0.0000108276  -0.0000060533   0.0000246309
       -0.0000351736  -0.0000001621  -0.0000169472  -0.0000139547   0.0000082048
       -0.0000111278  -0.0000039285  -0.0000095085  -0.0000124122  -0.0000009444
       -0.0000062363  -0.0000022252  -0.0000121573  -0.0000020898   0.0000076808
       -0.0000081893   0.0000151777  -0.0000010359   0.0000032729   0.0000087293
       -0.0000079386   0.0000019399  -0.0000064893   0.0000008526   0.0000182788
       -0.0000044525   0.0000071870  -0.0000098625  -0.0000091875   0.0000099582
        0.0000020193   0.0000160790  -0.0000009608  -0.0000091352   0.0000074490
        0.0000032603   0.0000086167   0.0000071042   0.0000040355   0.0000152888
       -0.0000024348  -0.0000008232   0.0000042368  -0.0000104993   0.0000011639
       -0.0000068385  -0.0000021553   0.0000223693  -0.0000048816  -0.0000092718
        0.0000143064  -0.0000125801  -0.0000116968  -0.0000117081   0.0000323896
        0.0000218425   0.0000536020   0.0000188226  -0.0000016648   0.0000274291
        0.0000156854  -0.0000103667   0.0000090070  -0.0000126664   0.0000040211
        0.0000137769   0.0000225899  -0.0000095673  -0.0000123063   0.0000149200
        0.0000162423   0.0000710903   0.0000441533  -0.0000080672  -0.0000223610
        0.0000140055   0.0000570928   0.0000374501   0.0000815686  -0.0000166578
        0.0001200790   0.0024066539  -0.0050058348  -0.0027380611   0.0003196694
       -0.0013900355  -0.0005272410   0.0002938905   0.0001564257  -0.0010892100
       -0.0005441977  -0.0010146882   0.0006015477
       -0.0719415705  -0.1705300176  -0.0021674996   0.1449347826   0.5387922175
       -0.1344788134   0.0287417691  -0.1879695008   0.1506145062  -0.0240208705
       -0.0498091753   0.0118171264   0.0138435594  -0.0006358540   0.0144275113
       -0.0010495958  -0.0022052042  -0.0000079658   0.0002161597   0.0012291478
       -0.0004524113  -0.0001134123  -0.0000777648   0.0000292735   0.0001279909
       -0.0000903055   0.0001290643   0.0000247103   0.0000661480  -0.0001106537
        0.0000894684  -0.0000295489   0.0000735331   0.0000132200  -0.0000025628
        0.0000123075  -0.0000704379  -0.0000033951  -0.0000052551  -0.0004377605
       -0.0004033411  -0.0001277270  -0.0000263238   0.0000138266   0.0000986916
        0.0000130097   0.0000386912  -0.0000054469   0.0000242759  -0.0000277503
       -0.0000151995   0.0000180968  -0.0000238259  -0.0000054313  -0.0000302832
       -0.0000139448   0.0000175417  -0.0000153500  -0.0000319432   0.0000010589
        0.0003366719   0.0004219736   0.0001315182  -0.0001621790  -0.0003271754
       -0.0000300010  -0.0000303314   0.0001216236  -0.0000326251  -0.0001695294
        0.0000768234   0.0000643582   0.0000241919  -0.0002605975  -0.0001039651
       -0.0001320592   0.0000171240  -0.0000436802   0.0001036851   0.0000110785
        0.0000035682  -0.0001148842   0.0000459294   0.0000340979  -0.0000657164
       -0.0001106203  -0.0000933133   0.0001117896   0.0000791696   0.0000652530
       -0.0001076740  -0.0000890499  -0.0000481511  -0.0001565487   0.0000998456
        0.0001390971   0.0000696517  -0.0000432203  -0.0001465146   0.0002325713
       -0.0000585746  -0.0000396269   0.0001324115   0.0001854635   0.0000483882
        0.0000025267  -0.0003196033  -0.0000457081   0.0007574899   0.0004223101
        0.0003674767   0.0000742031  -0.0000604365  -0.0000054782  -0.0000933653
        0.0000828764  -0.0000405464   0.0000505271  -0.0001267727  -0.0000336140
       -0.0000290630   0.0000847593   0.0000077126   0.0000289947  -0.0000317962
        0.0000071001  -0.0000233314   0.0001981947   0.0000528274  -0.0000260802
       -0.0000076233  -0.0001034157  -0.0000406094   0.0000001182  -0.0000838019
       -0.0165765432   0.0015354736  -0.0235100372  -0.0548078368  -0.0871150798
       -0.0422758237   0.0123388077   0.0027980392   0.0139167766  -0.0111504268
       -0.0299937485   0.0020973254  -0.0041655860  -0.0023834291  -0.0031290685
       -0.0059616446  -0.0073385779   0.0066528319  -0.0003989895   0.0023070677
       -0.0021204724  -0.0051622480  -0.0022021551   0.0019046466  -0.0000548071
       -0.0000021728  -0.0001143665   0.0000219977   0.0000038751  -0.0000047183
       -0.0000364494   0.0000148951  -0.0000255020  -0.0000085479   0.0000121832
       -0.0000351291   0.0000127088   0.0000326082  -0.0000750724  -0.0000036913
       -0.0000123519   0.0000088673  -0.0000158601  -0.0000001466   0.0000111208
       -0.0000085221   0.0000185840  -0.0000023380   0.0000062630   0.0000103406
       -0.0000113574   0.0000124255   0.0000010978  -0.0000057951   0.0000357519
        0.0000013635   0.0000235055  -0.0000190150  -0.0000109719   0.0000073817
        0.0000020532   0.0000179556   0.0000053817  -0.0000085626   0.0000105574
        0.0000063385   0.0000118216   0.0000095895   0.0000149159   0.0000234529
       -0.0000040127  -0.0000000641   0.0000065377  -0.0000164938  -0.0000034201
       -0.0000039681  -0.0000086644   0.0000353664  -0.0000141843  -0.0000195234
        0.0000237529  -0.0000080546  -0.0000218899   0.0000007891   0.0000077992
       -0.0000030578   0.0000383435   0.0000011218  -0.0000089441   0.0000131294
       -0.0000058035  -0.0000119088   0.0000057241  -0.0000024221  -0.0000004049
        0.0000356892   0.0000239825  -0.0000074858  -0.0000183649  -0.0000178565
        0.0000814275   0.0000646650   0.0000239806  -0.0000394229  -0.0000052274
        0.0000752497  -0.0000435638   0.0000510034  -0.0000911208  -0.0001190476
        0.0001417050  -0.0054588391  -0.0025767214   0.0013367861   0.0004984448
       -0.0008417416   0.0004036075   0.0004050160  -0.0026237540   0.0034840649
       -0.0006412161  -0.0001475041   0.0011378719
       -0.0021864843   0.0025125846  -0.0641486905   0.1895157973  -0.1344788134
        0.4941950471  -0.0579081955   0.0944510971  -0.1967195224   0.0484758888
        0.0530135044   0.0167054578  -0.0228922599   0.0133200197  -0.0463599412
       -0.0000972248   0.0001808569  -0.0000332531  -0.0001759149   0.0001097427
        0.0001107827  -0.0000129390   0.0002161264  -0.0000853390  -0.0002146130
        0.0003747585   0.0000185672   0.0002237493  -0.0000285639   0.0001518883
       -0.0000266659   0.0000982507  -0.0002040974  -0.0001256739  -0.0000114044
        0.0000770295   0.0001702500  -0.0000681231   0.0001287905   0.0000338843
       -0.0000687168   0.0001011982   0.0000165835   0.0000559975   0.0000063722
        0.0000171562  -0.0000099785  -0.0000012933   0.0000046967   0.0000119293
       -0.0000088385   0.0000004243  -0.0000093021   0.0000098239  -0.0000071591
        0.0000088892  -0.0000011175   0.0000013084  -0.0000231942   0.0000201136
       -0.0000593370  -0.0001390504  -0.0000642834   0.0001276712   0.0000468151
       -0.0000201326  -0.0000015435   0.0000159776   0.0000221426  -0.0000398182
       -0.0000083026  -0.0000034764   0.0000564342   0.0000293872   0.0000218050
       -0.0000027263  -0.0000015529  -0.0000066992  -0.0000504226  -0.0000002251
        0.0000041969   0.0000637497  -0.0000315661  -0.0000200915   0.0000115465
        0.0000507537   0.0000422897  -0.0000213916  -0.0000283293  -0.0000194469
       -0.0000036966   0.0000201837  -0.0000065527   0.0000632233   0.0000015442
        0.0000062740  -0.0000109348  -0.0000030458   0.0000144172  -0.0000886929
        0.0000123372   0.0000275207  -0.0000593153  -0.0000363720  -0.0000106407
        0.0000913812   0.0001922925   0.0000810535  -0.0004785060  -0.0000606774
        0.0000393346  -0.0005471780  -0.0001522257  -0.0000311207   0.0001681584
       -0.0002270495   0.0001498924  -0.0000651026   0.0001422313   0.0000014933
       -0.0000605859  -0.0000271331  -0.0000877993   0.0000207755  -0.0000097005
       -0.0000067249  -0.0000572010  -0.0000116343   0.0001463355   0.0000063269
       -0.0000072269   0.0000180116  -0.0001675886  -0.0000028837  -0.0001512683
       -0.0254256302  -0.0634159387   0.0187439712  -0.0957429268   0.0098480908
       -0.1831362161  -0.0163402755   0.0027708012  -0.0220137107  -0.0012184692
       -0.0005096593   0.0005902153  -0.0143470829  -0.0194978205  -0.0021778606
        0.0141279470   0.0219567122  -0.0007383336  -0.0068358758   0.0140724221
       -0.0189112380  -0.0025796624   0.0012726253   0.0031442228  -0.0000256445
       -0.0000934608   0.0000497247  -0.0000235783  -0.0000193079   0.0000325023
       -0.0000200191  -0.0000110066   0.0000002390  -0.0000121494   0.0000121470
        0.0000081434  -0.0000160268  -0.0000279207   0.0000410536   0.0000022963
        0.0000030811  -0.0000154449  -0.0000015152  -0.0000029758  -0.0000015902
       -0.0000020204   0.0000032400  -0.0000008724  -0.0000009702   0.0000025696
       -0.0000010869  -0.0000073429  -0.0000067677   0.0000038945  -0.0000113293
       -0.0000090261  -0.0000121849   0.0000039410  -0.0000039740   0.0000062735
        0.0000017690   0.0000018834  -0.0000058756  -0.0000051406   0.0000015989
       -0.0000004605   0.0000017210   0.0000021264  -0.0000076899   0.0000013044
       -0.0000004817  -0.0000019094   0.0000016092  -0.0000014429   0.0000012132
       -0.0000050422  -0.0000004534  -0.0000027381   0.0000091931   0.0000037451
       -0.0000020546  -0.0000087070   0.0000019083  -0.0000215297   0.0000272001
        0.0000273168   0.0000308272   0.0000108581   0.0000035825   0.0000149391
        0.0000121977  -0.0000009945  -0.0000000962  -0.0000101243   0.0000069585
       -0.0000070080   0.0000022259   0.0000004600   0.0000030376   0.0000383473
        0.0000059995  -0.0000279095  -0.0000138633   0.0000134223  -0.0000171020
        0.0000098242   0.0000323173   0.0000272427   0.0001282482   0.0000836786
        0.0000718198  -0.0024623946   0.0021174353   0.0030929278  -0.0005979935
       -0.0007273497   0.0000482140  -0.0013040842   0.0031332635  -0.0030260484
       -0.0010686485  -0.0004690134   0.0001089900
        0.0014057108  -0.0132303719   0.0093425533  -0.0739377148   0.0287417691
       -0.0579081955   0.3961545205   0.1807111169   0.2110037378  -0.1392582112
       -0.1483882443   0.0014350701  -0.0320525585  -0.0181588507  -0.0277377106
        0.0015918379  -0.0015051486  -0.0050810894  -0.0006667374  -0.0010900914
        0.0003315780  -0.0000938082   0.0000489155  -0.0002526431  -0.0001941342
        0.0002982785   0.0001466523   0.0002287409   0.0000548039   0.0000981573
        0.0000405548   0.0000182369  -0.0000781246  -0.0000199182  -0.0000169001
        0.0000835868   0.0000194489   0.0000387689   0.0001686255   0.0002178731
        0.0000447679   0.0004618848   0.0000347933  -0.0000618632  -0.0000513372
       -0.0000124636   0.0000008824   0.0000128956   0.0000249469  -0.0000112015
       -0.0000085703   0.0000059327  -0.0000228044   0.0000080487   0.0000042542
       -0.0000100040   0.0000113184  -0.0000132176   0.0000115763   0.0000067297
       -0.0001694124  -0.0000798903  -0.0000608492   0.0001000504   0.0000904704
       -0.0000482164   0.0000072140  -0.0000323863   0.0000058661  -0.0000298746
       -0.0000170067   0.0000005648   0.0000566999   0.0000209893   0.0000270061
        0.0000000912  -0.0000024714  -0.0000005119  -0.0000224500  -0.0000157819
        0.0000059022   0.0000299505  -0.0000258167  -0.0000196391  -0.0000189571
        0.0000262932   0.0000218807  -0.0000183377   0.0000046123   0.0000062735
        0.0000011591   0.0000087340   0.0000020968  -0.0000438635   0.0000312482
        0.0000462973   0.0000225181  -0.0000317587  -0.0000576808   0.0000264813
       -0.0000063276   0.0000076711  -0.0000921902   0.0000105708  -0.0000077456
        0.0002288536   0.0000446268   0.0002295903  -0.0001456875   0.0000352418
       -0.0001194351  -0.0001305107   0.0000158469  -0.0001044690   0.0000901041
       -0.0000715704   0.0001396369  -0.0000016216   0.0000742936   0.0000612800
       -0.0000385383  -0.0000727509  -0.0000706109   0.0000137259  -0.0000056093
        0.0000131615   0.0000178491  -0.0000188415   0.0000624345   0.0000349616
       -0.0000304034  -0.0000241272  -0.0001813901   0.0000395361  -0.0002325935
       -0.0042036552  -0.0111251453   0.0094764390   0.0025143753   0.0197970617
       -0.0128357916   0.0007443833  -0.0028498390  -0.0052726425  -0.0008377293
       -0.0013615166   0.0003623019   0.0003732336  -0.0011577093   0.0015805353
       -0.0014616289  -0.0023655813   0.0006598967  -0.1522373842  -0.0305762188
       -0.1256966516   0.0020393570   0.0018562517  -0.0001071163  -0.0001071346
       -0.0000045187  -0.0000975812   0.0000217252  -0.0000004053  -0.0000198938
       -0.0000481712  -0.0000048351  -0.0000225168  -0.0000149556   0.0000211126
       -0.0000351159  -0.0000063327  -0.0000115962  -0.0000227412  -0.0000186879
       -0.0000125172  -0.0000083387  -0.0000060513  -0.0000035491   0.0000033315
       -0.0000065128   0.0000100291  -0.0000042818  -0.0000000234   0.0000067641
       -0.0000101835   0.0000023761  -0.0000044052  -0.0000099382  -0.0000165510
        0.0000075322  -0.0000075421  -0.0000006552   0.0000045156   0.0000189257
        0.0000063412   0.0000014427   0.0000004742  -0.0000047408   0.0000043494
        0.0000051104   0.0000053773   0.0000087927   0.0000044553   0.0000111964
       -0.0000021711   0.0000007456   0.0000041095  -0.0000087508  -0.0000058876
       -0.0000027564  -0.0000087540   0.0000135696  -0.0000010912  -0.0000076732
        0.0000097250  -0.0000158802  -0.0000100703  -0.0000220196   0.0000285097
        0.0000121290   0.0000249740   0.0000072864   0.0000024788   0.0000021059
        0.0000094237  -0.0000074991   0.0000027915  -0.0000045836  -0.0000047232
       -0.0000010488   0.0000102639  -0.0000057166   0.0000016146   0.0000250544
        0.0000531543   0.0000639943   0.0000174872  -0.0000149451   0.0000036123
        0.0000153182   0.0000179605  -0.0000003787  -0.0001381710  -0.0000104948
        0.0001547055   0.0002659220   0.0000710512   0.0006008878   0.0002394171
       -0.0007039001   0.0006446550  -0.0001429469   0.0005449139  -0.0008679334
       -0.0002821894   0.0003775113  -0.0004641986
       -0.0028205692  -0.0263651431   0.0199636310  -0.0144431164  -0.1879695008
        0.0944510971   0.1807111169   0.5527788089  -0.1308325014  -0.1040440458
       -0.2586860679   0.0425946650  -0.0494748966  -0.0006716582  -0.0633966001
       -0.0005083707   0.0058744923   0.0012031580  -0.0000057068  -0.0016902114
        0.0010678272   0.0001365333   0.0000848177  -0.0000433018  -0.0003145138
        0.0002226950  -0.0000963406   0.0003264104  -0.0000717581   0.0002186638
       -0.0000675563   0.0001146110  -0.0002022746  -0.0001494835  -0.0000108192