90
 energy: -140.382294903257 gnorm: 0.000037014480 xtb: 6.7.1 (edcfbbe)
C           -6.33568998652471       -4.67910951748103        0.21705733898683
C           -5.70544335932470       -3.73673693288068       -0.57878387960281
C           -6.18796160361529       -2.44316460649068       -0.64389152538593
C           -7.30824565320115       -2.07689791994973        0.10040126171099
C           -7.85176606098045       -0.72651036076983        0.06338178729819
N           -9.12904634910592       -0.46408138104602        0.09162478003756
C           -9.24297168539885        0.89468536949254       -0.01151502600032
C          -10.37264224060825        1.70522130721341       -0.02645774088101
C          -10.18169520128745        3.06701317484068       -0.12558288111572
C           -8.90372891770367        3.62507665011095       -0.19884151472425
C           -7.76824715902685        2.83980826498979       -0.18692594989859
C           -7.95303600706251        1.46911829310476       -0.10730983200794
N           -7.07429883840022        0.41055640957296       -0.05346014088931
C           -5.67673245936130        0.49138898232618       -0.01454561385145
C           -4.96764520123708       -0.16336347939693        0.99111114424184
C           -3.59129464834669       -0.12621939364218        0.99970633429609
C           -2.88230839616830        0.58348077052503        0.02379495233181
C           -1.42335201586473        0.59063212949547        0.01665375067533
C           -0.71423049144791        1.83257495520638        0.03527816536421
C           -1.37717663139130        3.05604579536317        0.15115841143082
C           -0.68751322410448        4.26594676072180        0.09034665033525
C            0.67709805432202        4.26759567755401       -0.09362170909296
C            1.36971744283259        3.05936764364060       -0.15411568509531
C            0.70976009044080        1.83431082232093       -0.03796737449458
C            1.42197291206781        0.59412999986996       -0.01899641486536
C            2.88094849317447        0.59079401503065       -0.02524752814933
C            3.59257376291020       -0.11696414793406       -1.00064157804868
C            4.96902932395024       -0.15018955848828       -0.99114952634809
C            5.67560207820755        0.50667495930319        0.01489398710116
N            7.07340326068981        0.43026976952265        0.05450888787457
C            7.85472590943852       -0.70419277033359       -0.06187910941282
C            7.31597333869593       -2.05647499941337       -0.09887600037576
C            7.96609129395138       -3.01457169226428       -0.87488754602898
C            7.48387957983653       -4.30784598287982       -0.93338568883350
C            6.35314453483954       -4.66232906500955       -0.21522202869350
C            5.71853052538303       -3.72184821840713        0.57938333392591
C            6.19620472171498       -2.42646880019764        0.64434646054822
N            9.13113798553999       -0.43745818680684       -0.08966257600865
C            9.24046044846404        0.92168783550017        0.01330678911228
C           10.36739293099985        1.73602607296692        0.02852365180066
C           10.17182745327849        3.09718141893000        0.12735787333879
C            8.89196233250565        3.65095070632929        0.20007387150545
C            7.75913573115756        2.86186238771973        0.18787074845717
C            7.94856628775891        1.49178898022308        0.10853430044004
C            4.98327395189635        1.23120120554716        0.98157222322118
C            3.60541269235906        1.27808355636467        0.95364773763520
C            0.71377298259757       -0.64912830985559        0.01662968704676
C            1.37943787953200       -1.87315396978835        0.11404979601338
C            0.68839267916290       -3.08290610962170        0.07124055532137
C           -0.68075098764504       -3.08456355384550       -0.07439853491034
C           -1.37474853958496       -1.87649168807500       -0.11691330748430
C           -0.71206773461602       -0.65086856617877       -0.01927034727343
C           -3.60935146037111        1.26873729710112       -0.95460558363631
C           -4.98710011799327        1.21792380798243       -0.98163720003530
C           -7.95398367231495       -3.03695527283426        0.87762589688188
C           -7.46692851259024       -4.32841256595543        0.93628129291778
H           -5.95188888098445       -5.68734599201881        0.26784237347582
H           -4.83575771317476       -4.01173456148336       -1.15785140910574
H           -5.70467191272421       -1.72469079172654       -1.28979362136183
H          -11.35672963472688        1.27073682873770        0.04266293093874
H          -11.03825614553304        3.72466773221068       -0.14067845485753
H           -8.80211932237412        4.69824379992395       -0.26484632085893
H           -6.78146389401114        3.27632008653225       -0.23178214952617
H           -5.50541143678712       -0.70284886918177        1.75657345958911
H           -3.04673649451731       -0.62590465632849        1.78707649591370
H           -2.44631290153186        3.06957511589962        0.29734474229931
H           -1.23220342354115        5.19422260806714        0.17518049435285
H            1.21951903932058        5.19717842517693       -0.17868049854632
H            2.43882597161173        3.07546921852940       -0.30025503584879
H            3.04996177777935       -0.61817744577804       -1.78838418890611
H            5.50883278287352       -0.68816719522800       -1.75624056353470
H            8.84701414693116       -2.72250561868575       -1.42485869275801
H            7.98991051028318       -5.04308251682949       -1.54145176492399
H            5.97313832905710       -5.67200943209636       -0.26585955709358
H            4.84921892865623       -3.99974156585698        1.15762961771726
H            5.70954458091734       -1.70946086297459        1.28934355521526
H           11.35296207057514        1.30484507486857       -0.04017263467082
H           11.02616323599659        3.75771961257872        0.14265191425160
H            8.78671560752416        4.72378001337568        0.26587112989894
H            6.77087366437146        3.29506073537209        0.23229835771456
H            5.53112573835950        1.73004550093464        1.76739447166555
H            3.07231791877068        1.81418487338621        1.72509198577290
H            2.45251791151586       -1.88970980074615        0.22845971058633
H            1.23596492659516       -4.01090547701535        0.13937073496522
H           -1.22605646385152       -4.01388177521325       -0.14273066323703
H           -2.44779421652978       -1.89564266031808       -0.23125363809144
H           -3.07829740153636        1.80629752345088       -1.72644168469758
H           -5.53687498179386        1.71517245353862       -1.76712816743094
H           -8.83536029286931       -2.74785568725190        1.42843965960709
H           -7.96956040721575       -5.06518186760297        1.54531026338966
