 Entering Gaussian System
 *********************************************
 Gaussian 98:
 frequency output generated by the xtb code
 *********************************************
                         Standard orientation:
 --------------------------------------------------------------------
  Center     Atomic     Atomic              Coordinates (Angstroms)
  Number     Number      Type              X           Y           Z
 --------------------------------------------------------------------
    1          7             0       -7.471382    3.177674    1.396153
    2          6             0       -6.350412    3.068785    1.116278
    3          6             0       -5.009203    2.938726    0.782555
    4          6             0       -4.459768    3.658661   -0.307607
    5          6             0       -3.139651    3.525436   -0.635665
    6          6             0       -2.296042    2.670945    0.102235
    7          7             0       -0.955743    2.511042   -0.256854
    8          6             0       -0.216570    3.621766   -0.687798
    9          6             0        0.710506    3.497242   -1.722618
   10          6             0        1.438077    4.594274   -2.140694
   11          6             0        1.245910    5.830293   -1.543702
   12          6             0        0.318346    5.961593   -0.521949
   13          6             0       -0.407354    4.867740   -0.090933
   14          6             0       -0.362859    1.262231   -0.186688
   15          6             0        0.989655    1.126446    0.181822
   16          6             0        1.566349   -0.121065    0.271445
   17          7             0        2.935497   -0.238450    0.626447
   18          6             0        3.924773    0.153088   -0.261538
   19          6             0        3.636383    0.619859   -1.542904
   20          6             0        4.649048    1.005013   -2.398937
   21          6             0        5.978313    0.928735   -1.996588
   22          6             0        6.287996    0.449713   -0.736313
   23          6             0        5.278581    0.056813    0.128692
   24          8             0        5.646983   -0.426671    1.352131
   25          6             0        4.660389   -0.822642    2.209665
   26          6             0        5.046118   -1.312556    3.448077
   27          6             0        4.091970   -1.713357    4.365953
   28          6             0        2.742036   -1.612027    4.048490
   29          6             0        2.347078   -1.122852    2.818101
   30          6             0        3.292469   -0.732985    1.870863
   31          6             0        0.829070   -1.283736    0.014748
   32          6             0       -0.517506   -1.144663   -0.341602
   33          7             0       -1.282192   -2.313704   -0.598647
   34          6             0       -1.078197   -3.035691   -1.762960
   35          6             0       -0.148009   -2.649122   -2.726469
   36          6             0        0.028413   -3.396371   -3.875006
   37          6             0       -0.727344   -4.543557   -4.092114
   38          6             0       -1.668480   -4.934885   -3.156868
   39          6             0       -1.852323   -4.192980   -1.999977
   40          8             0       -2.805075   -4.619882   -1.119413
   41          6             0       -2.992300   -3.897864    0.024663
   42          6             0       -3.955889   -4.344462    0.915731
   43          6             0       -4.179258   -3.663611    2.098832
   44          6             0       -3.426164   -2.533074    2.398455
   45          6             0       -2.465582   -2.079272    1.516510
   46          6             0       -2.236185   -2.739604    0.310756
   47          6             0       -1.108052    0.094868   -0.445764
   48          6             0       -2.837888    1.959971    1.191870
   49          6             0       -4.156319    2.087265    1.527312
   50          1             0       -5.105254    4.310834   -0.879353
   51          1             0       -2.732026    4.070354   -1.475275
   52          1             0        0.843665    2.539214   -2.202466
   53          1             0        2.151907    4.486076   -2.943783
   54          1             0        1.813149    6.687144   -1.874347
   55          1             0        0.163784    6.921232   -0.050839
   56          1             0       -1.123516    4.966345    0.711755
   57          1             0        1.575186    2.006907    0.398216
   58          1             0        2.607924    0.676241   -1.860058
   59          1             0        4.402828    1.364636   -3.385648
   60          1             0        6.768712    1.234236   -2.663226
   61          1             0        7.309430    0.367284   -0.399957
   62          1             0        6.100112   -1.367177    3.670124
   63          1             0        4.398976   -2.095540    5.326283
   64          1             0        1.993545   -1.911798    4.765105
   65          1             0        1.298738   -1.037556    2.582066
   66          1             0        1.284465   -2.257090    0.089907
   67          1             0        0.433991   -1.756090   -2.566131
   68          1             0        0.755772   -3.081571   -4.606727
   69          1             0       -0.588434   -5.126312   -4.988582
   70          1             0       -2.276980   -5.813417   -3.302137
   71          1             0       -4.517408   -5.229198    0.660313
   72          1             0       -4.933062   -4.013748    2.785606
   73          1             0       -3.590267   -2.004169    3.324225
   74          1             0       -1.884193   -1.202994    1.752914
   75          1             0       -2.144855    0.177194   -0.733841
   76          1             0       -2.188994    1.326320    1.778924
   77          1             0       -4.564667    1.550238    2.371851
 --------------------------------------------------------------------
     1 basis functions        1 primitive gaussians
     1 alpha electrons        1 beta electrons
 
 Harmonic frequencies (cm**-1), IR intensities (km*mol⁻¹),
 Raman scattering activities (A**4/amu), Raman depolarization ratios,
 reduced masses (AMU), force constants (mDyne/A) and normal coordinates:
                      1                      2                      3
                        a                      a                      a 
 Frequencies --    11.6303                13.7912                19.2703
 Red. masses --    11.7782                11.2961                11.1908
 Frc consts  --     0.0000                 0.0000                 0.0000
 IR Inten    --     3.5337                 1.8451                 1.3213
 Raman Activ --     0.0000                 0.0000                 0.0000
 Depolar     --     0.0000                 0.0000                 0.0000
 Atom AN      X      Y      Z        X      Y      Z        X      Y      Z
   1   7    -0.12  -0.03  -0.39    -0.03  -0.17  -0.18     0.00  -0.13  -0.01
   2   6    -0.09  -0.02  -0.28    -0.02  -0.12  -0.14     0.01  -0.10   0.00
   3   6    -0.06  -0.01  -0.19    -0.00  -0.09  -0.11     0.01  -0.07   0.01
   4   6     0.01   0.01  -0.14     0.00  -0.06  -0.08     0.01  -0.06   0.02
   5   6     0.03   0.01  -0.05     0.01  -0.02  -0.06     0.01  -0.03   0.03
   6   6    -0.02  -0.00  -0.01     0.02  -0.01  -0.05     0.02  -0.03   0.03
   7   7     0.00  -0.00   0.07     0.02   0.01  -0.04     0.02  -0.02   0.03
   8   6     0.02   0.02   0.14     0.02   0.02  -0.02     0.02  -0.02   0.03
   9   6     0.05   0.06   0.15     0.03   0.04  -0.00     0.04  -0.03   0.05
  10   6     0.06   0.08   0.22     0.03   0.05   0.02     0.05  -0.03   0.05
  11   6     0.05   0.05   0.28     0.00   0.04   0.03     0.03  -0.03   0.04
  12   6     0.02   0.01   0.26    -0.01   0.02   0.02     0.01  -0.02   0.02
  13   6     0.01  -0.01   0.19    -0.01   0.01  -0.01     0.01  -0.02   0.02
  14   6     0.00  -0.00   0.06     0.03   0.01  -0.05     0.02  -0.02   0.02
  15   6     0.00  -0.01   0.05     0.03   0.01  -0.04     0.02  -0.03   0.03
  16   6     0.00  -0.01   0.02     0.03   0.01  -0.03     0.01  -0.03   0.03
  17   7     0.02  -0.01  -0.02     0.02   0.00  -0.01     0.01  -0.03   0.02
  18   6    -0.02  -0.01  -0.06     0.04   0.03   0.03     0.00  -0.09  -0.01
  19   6    -0.06  -0.02  -0.05     0.08   0.06   0.04    -0.01  -0.21  -0.05
  20   6    -0.09  -0.03  -0.09     0.10   0.09   0.07    -0.02  -0.27  -0.09
  21   6    -0.08  -0.02  -0.14     0.09   0.08   0.11    -0.02  -0.22  -0.09
  22   6    -0.03  -0.02  -0.14     0.05   0.04   0.10    -0.00  -0.10  -0.05
  23   6    -0.00  -0.01  -0.11     0.03   0.02   0.06     0.01  -0.03  -0.01
  24   8     0.05  -0.01  -0.13    -0.00  -0.02   0.07     0.02   0.11   0.04
  25   6     0.07  -0.01  -0.08    -0.02  -0.03   0.03     0.03   0.15   0.07
  26   6     0.12  -0.01  -0.10    -0.06  -0.06   0.02     0.04   0.28   0.12
  27   6     0.15  -0.01  -0.06    -0.08  -0.08  -0.01     0.04   0.34   0.16
  28   6     0.14  -0.01  -0.01    -0.07  -0.07  -0.04     0.04   0.27   0.14
  29   6     0.09  -0.01   0.00    -0.04  -0.04  -0.04     0.03   0.14   0.09
  30   6     0.06  -0.01  -0.03    -0.01  -0.02  -0.01     0.02   0.08   0.06
  31   6     0.00  -0.00   0.03     0.02   0.00  -0.04     0.01  -0.03   0.02
  32   6    -0.00  -0.00   0.04     0.03   0.01  -0.04     0.01  -0.02   0.01
  33   7    -0.01   0.00   0.05     0.01   0.01   0.00     0.00  -0.01  -0.01
  34   6     0.00  -0.01   0.06    -0.09   0.03  -0.03    -0.04   0.04  -0.05
  35   6     0.02  -0.03   0.06    -0.16   0.04  -0.09    -0.04   0.06  -0.05
  36   6     0.02  -0.05   0.07    -0.27   0.07  -0.12    -0.08   0.11  -0.09
  37   6     0.02  -0.04   0.08    -0.30   0.08  -0.09    -0.12   0.15  -0.13
  38   6     0.00  -0.02   0.07    -0.22   0.07  -0.02    -0.12   0.13  -0.13
  39   6    -0.00  -0.01   0.06    -0.12   0.04   0.01    -0.08   0.07  -0.09
  40   8    -0.02   0.01   0.06    -0.06   0.04   0.09    -0.08   0.07  -0.11
  41   6    -0.03   0.02   0.04     0.04   0.01   0.11    -0.03   0.01  -0.06
  42   6    -0.04   0.04   0.03     0.11   0.01   0.18    -0.04   0.00  -0.07
  43   6    -0.05   0.05   0.02     0.21  -0.01   0.21    -0.00  -0.04  -0.04
  44   6    -0.04   0.05   0.02     0.24  -0.01   0.16     0.03  -0.07   0.00
  45   6    -0.03   0.03   0.03     0.18  -0.01   0.10     0.03  -0.06   0.01
  46   6    -0.02   0.02   0.04     0.08   0.00   0.07     0.00  -0.02  -0.02
  47   6     0.00   0.00   0.05     0.03   0.01  -0.05     0.02  -0.02   0.01
  48   6    -0.09  -0.02  -0.06     0.01  -0.04  -0.07     0.02  -0.04   0.02
  49   6    -0.11  -0.02  -0.14     0.00  -0.07  -0.10     0.02  -0.06   0.01
  50   1     0.01   0.01  -0.05     0.00  -0.02  -0.02     0.00  -0.02   0.01
  51   1     0.03   0.01  -0.00     0.01  -0.00  -0.01     0.00  -0.01   0.01
  52   1     0.02   0.03   0.03     0.01   0.01  -0.00     0.02  -0.01   0.02
  53   1     0.02   0.03   0.07     0.01   0.02   0.01     0.02  -0.01   0.02
  54   1     0.02   0.02   0.10     0.00   0.02   0.01     0.01  -0.01   0.01
  55   1     0.00  -0.00   0.09    -0.01   0.00   0.01     0.00  -0.00   0.00
  56   1    -0.00  -0.01   0.05    -0.01  -0.00  -0.00    -0.00  -0.00   0.00
  57   1     0.00  -0.00   0.01     0.01   0.00  -0.01     0.01  -0.01   0.01
  58   1    -0.02  -0.01  -0.00     0.02   0.02   0.00    -0.00  -0.07  -0.01
  59   1    -0.04  -0.01  -0.02     0.04   0.03   0.02    -0.01  -0.11  -0.04
  60   1    -0.03  -0.01  -0.05     0.03   0.03   0.04    -0.01  -0.08  -0.04
  61   1    -0.01  -0.00  -0.05     0.01   0.01   0.04    -0.00  -0.01  -0.01
  62   1     0.04  -0.00  -0.04    -0.02  -0.02   0.01     0.01   0.10   0.04
  63   1     0.05  -0.00  -0.02    -0.03  -0.03  -0.00     0.01   0.13   0.06
  64   1     0.05  -0.00   0.00    -0.03  -0.02  -0.02     0.01   0.09   0.05
  65   1     0.02  -0.00   0.01    -0.01  -0.01  -0.02     0.01   0.02   0.02
  66   1     0.00  -0.00   0.01     0.01   0.00  -0.01     0.00  -0.01   0.01
  67   1     0.01  -0.01   0.02    -0.04   0.01  -0.03    -0.00   0.01  -0.00
  68   1     0.01  -0.02   0.02    -0.09   0.02  -0.05    -0.02   0.04  -0.02
  69   1     0.01  -0.02   0.02    -0.11   0.03  -0.03    -0.05   0.05  -0.05
  70   1    -0.00  -0.01   0.02    -0.07   0.02   0.00    -0.04   0.04  -0.05
  71   1    -0.01   0.01   0.01     0.02   0.00   0.06    -0.02   0.01  -0.03
  72   1    -0.02   0.02   0.01     0.08  -0.00   0.08    -0.00  -0.01  -0.01
  73   1    -0.01   0.02   0.00     0.09  -0.01   0.05     0.02  -0.03   0.01
  74   1    -0.01   0.01   0.01     0.06  -0.01   0.02     0.02  -0.03   0.01
  75   1     0.00   0.00   0.01     0.01   0.00  -0.01     0.01  -0.00   0.00
  76   1    -0.04  -0.01  -0.01     0.00  -0.01  -0.02     0.01  -0.01   0.01
  77   1    -0.05  -0.01  -0.05    -0.00  -0.03  -0.03     0.01  -0.02   0.00
                      4                      5                      6
                        a                      a                      a 
 Frequencies --    24.4123                24.7962                27.6309
 Red. masses --    11.7287                11.5786                11.2029
 Frc consts  --     0.0000                 0.0000                 0.0000
 IR Inten    --     1.7924                 0.1201                 2.1386
 Raman Activ --     0.0000                 0.0000                 0.0000
 Depolar     --     0.0000                 0.0000                 0.0000
 Atom AN      X      Y      Z        X      Y      Z        X      Y      Z
   1   7     0.06   0.32   0.06    -0.01   0.16   0.03    -0.06   0.13  -0.18
   2   6     0.04   0.21   0.03    -0.02   0.12   0.02    -0.04   0.10  -0.12
   3   6     0.02   0.12   0.00    -0.02   0.09   0.00    -0.03   0.08  -0.07
   4   6     0.06   0.13   0.03    -0.01   0.11   0.02     0.02   0.09  -0.03
   5   6     0.05   0.06   0.01    -0.02   0.09   0.01     0.03   0.06   0.01
   6   6     0.00  -0.03  -0.03    -0.03   0.06  -0.02    -0.01   0.04   0.02
   7   7    -0.01  -0.07  -0.04    -0.03   0.05  -0.02    -0.01   0.00   0.06
   8   6     0.04  -0.07   0.02    -0.02   0.06   0.03     0.01  -0.04  -0.03
   9   6     0.03  -0.06   0.01    -0.01   0.08   0.03    -0.04  -0.12  -0.06
  10   6     0.08  -0.08   0.06     0.01   0.09   0.07    -0.02  -0.17  -0.15
  11   6     0.15  -0.10   0.14     0.01   0.07   0.11     0.05  -0.13  -0.20
  12   6     0.17  -0.11   0.15     0.00   0.05   0.11     0.10  -0.05  -0.16
  13   6     0.11  -0.10   0.09    -0.01   0.04   0.07     0.08  -0.00  -0.08
  14   6    -0.02  -0.07  -0.04    -0.04   0.05  -0.04    -0.02  -0.00   0.10
  15   6    -0.02  -0.08  -0.04    -0.04   0.04  -0.03    -0.02   0.00   0.11
  16   6    -0.02  -0.08  -0.05    -0.04   0.04  -0.04    -0.02   0.00   0.12
  17   7    -0.02  -0.06  -0.05    -0.05   0.02  -0.02    -0.01   0.01   0.09
  18   6    -0.03   0.03  -0.02    -0.03  -0.06  -0.03    -0.05   0.02   0.05
  19   6    -0.03  -0.01  -0.03    -0.00  -0.06  -0.04    -0.09   0.04   0.07
  20   6    -0.04   0.09  -0.00     0.02  -0.15  -0.05    -0.13   0.05   0.03
  21   6    -0.04   0.23   0.05     0.01  -0.22  -0.06    -0.11   0.05  -0.02
  22   6    -0.04   0.27   0.06    -0.01  -0.21  -0.05    -0.06   0.03  -0.04
  23   6    -0.03   0.17   0.03    -0.03  -0.13  -0.03    -0.03   0.01  -0.01
  24   8    -0.03   0.26   0.06    -0.07  -0.13  -0.02     0.02  -0.01  -0.03
  25   6    -0.02   0.14   0.02    -0.08  -0.04  -0.01     0.05  -0.03  -0.00
  26   6    -0.01   0.20   0.04    -0.11  -0.02   0.01     0.10  -0.07  -0.03
  27   6    -0.00   0.13   0.02    -0.13   0.05   0.02     0.14  -0.10  -0.00
  28   6    -0.00  -0.01  -0.03    -0.13   0.11   0.01     0.12  -0.08   0.05
  29   6    -0.01  -0.07  -0.05    -0.10   0.10  -0.01     0.08  -0.04   0.08
  30   6    -0.01   0.00  -0.03    -0.08   0.03  -0.01     0.04  -0.02   0.06
  31   6    -0.02  -0.08  -0.06    -0.04   0.04  -0.05    -0.02   0.00   0.13
  32   6    -0.02  -0.07  -0.05    -0.04   0.05  -0.06    -0.02  -0.00   0.12
  33   7    -0.02  -0.08  -0.04    -0.03   0.04  -0.06    -0.00  -0.00   0.08
  34   6    -0.04  -0.08  -0.04     0.01   0.02  -0.04    -0.01   0.07   0.03
  35   6    -0.06  -0.08  -0.06    -0.07   0.09  -0.08    -0.05   0.18   0.02
  36   6    -0.08  -0.09  -0.06    -0.03   0.07  -0.06    -0.06   0.26  -0.03
  37   6    -0.08  -0.10  -0.03     0.09  -0.02   0.00    -0.02   0.24  -0.08
  38   6    -0.06  -0.10  -0.01     0.16  -0.09   0.05     0.03   0.14  -0.07
  39   6    -0.04  -0.09  -0.01     0.12  -0.07   0.03     0.04   0.05  -0.02
  40   8    -0.02  -0.10   0.01     0.24  -0.17   0.09     0.11  -0.05  -0.01
  41   6    -0.00  -0.08   0.01     0.16  -0.12   0.06     0.06  -0.09   0.01
  42   6     0.02  -0.08   0.03     0.24  -0.19   0.11     0.07  -0.16  -0.00
  43   6     0.03  -0.07   0.02     0.20  -0.17   0.09     0.03  -0.20   0.01
  44   6     0.02  -0.06  -0.00     0.08  -0.07   0.02    -0.03  -0.16   0.04
  45   6     0.01  -0.06  -0.02     0.01  -0.00  -0.03    -0.04  -0.10   0.06
  46   6    -0.00  -0.07  -0.02     0.05  -0.03  -0.01     0.00  -0.07   0.05
  47   6    -0.02  -0.07  -0.04    -0.04   0.05  -0.05    -0.02  -0.00   0.11
  48   6    -0.04  -0.05  -0.06    -0.04   0.03  -0.04    -0.06   0.03  -0.01
  49   6    -0.03   0.03  -0.05    -0.04   0.05  -0.03    -0.07   0.05  -0.05
  50   1     0.03   0.06   0.02     0.00   0.04   0.01     0.02   0.03  -0.01
  51   1     0.02   0.02   0.01    -0.00   0.03   0.01     0.02   0.02   0.01
  52   1    -0.01  -0.01  -0.01    -0.00   0.03  -0.00    -0.03  -0.04  -0.01
  53   1     0.02  -0.02   0.02     0.00   0.03   0.02    -0.02  -0.07  -0.05
  54   1     0.06  -0.03   0.05     0.01   0.02   0.04     0.02  -0.05  -0.08
  55   1     0.06  -0.04   0.06     0.00   0.01   0.04     0.04  -0.01  -0.06
  56   1     0.04  -0.03   0.03    -0.00   0.01   0.02     0.03   0.02  -0.02
  57   1    -0.01  -0.02  -0.01    -0.01   0.01  -0.01    -0.01   0.00   0.03
  58   1    -0.01  -0.03  -0.02    -0.00  -0.00  -0.01    -0.03   0.01   0.03
  59   1    -0.01   0.01  -0.00     0.01  -0.04  -0.02    -0.05   0.02   0.01
  60   1    -0.02   0.09   0.02     0.01  -0.08  -0.02    -0.04   0.02  -0.01
  61   1    -0.01   0.11   0.03    -0.00  -0.08  -0.01    -0.01   0.01  -0.02
  62   1    -0.00   0.09   0.02    -0.03  -0.02   0.00     0.03  -0.02  -0.02
  63   1     0.00   0.05   0.01    -0.05   0.02   0.01     0.05  -0.04  -0.01
  64   1     0.00  -0.02  -0.01    -0.04   0.05   0.00     0.04  -0.03   0.02
  65   1    -0.00  -0.05  -0.03    -0.03   0.04  -0.00     0.02  -0.01   0.04
  66   1    -0.00  -0.02  -0.02    -0.01   0.01  -0.02    -0.01   0.00   0.04
  67   1    -0.02  -0.02  -0.02    -0.05   0.05  -0.04    -0.02   0.05   0.02
  68   1    -0.03  -0.03  -0.02    -0.02   0.04  -0.03    -0.03   0.10  -0.01
  69   1    -0.03  -0.03  -0.01     0.04  -0.01   0.00    -0.01   0.09  -0.04
  70   1    -0.01  -0.03   0.00     0.07  -0.05   0.03     0.02   0.03  -0.03
  71   1     0.01  -0.02   0.01     0.10  -0.08   0.05     0.03  -0.05  -0.01
  72   1     0.01  -0.02   0.01     0.08  -0.07   0.04     0.01  -0.07  -0.00
  73   1     0.01  -0.01  -0.00     0.01  -0.01  -0.00    -0.02  -0.05   0.01
  74   1     0.00  -0.02  -0.01    -0.02   0.02  -0.02    -0.03  -0.02   0.02
  75   1    -0.01  -0.02  -0.01    -0.01   0.02  -0.01    -0.01  -0.00   0.02
  76   1    -0.02  -0.03  -0.03    -0.02   0.00  -0.02    -0.03   0.00   0.00
  77   1    -0.02   0.00  -0.02    -0.01   0.01  -0.01    -0.03   0.01  -0.02
                      7                      8                      9
                        a                      a                      a 
 Frequencies --    39.8091                44.8383                54.4714
 Red. masses --    11.4113                11.1221                11.3945
 Frc consts  --     0.0000                 0.0000                 0.0000
 IR Inten    --     0.4128                 3.9694                 0.7435
 Raman Activ --     0.0000                 0.0000                 0.0000
 Depolar     --     0.0000                 0.0000                 0.0000
 Atom AN      X      Y      Z        X      Y      Z        X      Y      Z
   1   7     0.03  -0.33  -0.03    -0.11  -0.37  -0.14     0.06  -0.06   0.16
   2   6     0.05  -0.19  -0.01    -0.06  -0.19  -0.04     0.04  -0.05   0.07
   3   6     0.07  -0.07   0.02    -0.03  -0.04   0.05     0.02  -0.05  -0.01
   4   6     0.01  -0.11  -0.04     0.02   0.15   0.20    -0.04  -0.10  -0.08
   5   6     0.02  -0.04  -0.03     0.03   0.21   0.22    -0.05  -0.09  -0.12
   6   6     0.08   0.07   0.03     0.01   0.08   0.11    -0.01  -0.03  -0.11
   7   7     0.08   0.07  -0.00    -0.02   0.05   0.07    -0.02  -0.03  -0.15
   8   6     0.09   0.05  -0.01     0.03   0.00   0.02     0.02  -0.03  -0.08
   9   6     0.17   0.01   0.07    -0.11  -0.06  -0.11     0.10  -0.02  -0.00
  10   6     0.20  -0.00   0.07    -0.03  -0.13  -0.15     0.19  -0.04   0.11
  11   6     0.14   0.02   0.00     0.19  -0.14  -0.06     0.19  -0.06   0.15
  12   6     0.05   0.06  -0.08     0.34  -0.07   0.06     0.09  -0.05   0.05
  13   6     0.03   0.08  -0.09     0.25  -0.00   0.09     0.00  -0.04  -0.06
  14   6     0.03   0.04  -0.01    -0.03   0.04   0.02    -0.01  -0.02  -0.08
  15   6     0.02  -0.02  -0.00    -0.03   0.03  -0.01    -0.02  -0.01  -0.05
  16   6    -0.04  -0.04  -0.01    -0.02   0.03  -0.04    -0.02  -0.00   0.01
  17   7    -0.04  -0.09  -0.03    -0.03   0.03  -0.05    -0.02   0.02   0.00
  18   6    -0.05  -0.05  -0.02    -0.01   0.03  -0.03    -0.02   0.06   0.01
  19   6    -0.06  -0.12  -0.05     0.00   0.08  -0.01    -0.03   0.25   0.08
  20   6    -0.07  -0.06  -0.04     0.02   0.07   0.00    -0.04   0.30   0.09
  21   6    -0.08   0.07  -0.00     0.01   0.02   0.00    -0.03   0.15   0.03
  22   6    -0.07   0.14   0.02    -0.00  -0.02  -0.01    -0.02  -0.05  -0.05
  23   6    -0.05   0.08   0.01    -0.02  -0.02  -0.02    -0.01  -0.09  -0.06
  24   8    -0.05   0.17   0.04    -0.04  -0.06  -0.04     0.01  -0.31  -0.16
  25   6    -0.03   0.05   0.01    -0.05   0.00  -0.03     0.00  -0.09  -0.06
  26   6    -0.01   0.07   0.01    -0.07   0.02  -0.01     0.01  -0.06  -0.05
  27   6    -0.00  -0.02  -0.02    -0.09   0.07  -0.01     0.01   0.14   0.04
  28   6    -0.00  -0.13  -0.04    -0.08   0.10  -0.02     0.01   0.28   0.11
  29   6    -0.02  -0.14  -0.05    -0.06   0.08  -0.03     0.00   0.23   0.09
  30   6    -0.03  -0.06  -0.02    -0.04   0.04  -0.03    -0.00   0.05   0.01
  31   6    -0.09  -0.01  -0.02    -0.02   0.04  -0.05    -0.02  -0.01   0.06
  32   6    -0.08   0.05  -0.01    -0.03   0.04  -0.03    -0.01  -0.03   0.03
  33   7    -0.13   0.08  -0.03    -0.03   0.04  -0.03    -0.00  -0.04   0.05
  34   6    -0.07   0.05  -0.01    -0.00   0.01  -0.00    -0.02  -0.01   0.02
  35   6    -0.14   0.12  -0.04     0.03  -0.03   0.01    -0.04   0.02   0.01
  36   6    -0.08   0.09  -0.02     0.07  -0.07   0.04    -0.06   0.06  -0.01
  37   6     0.04   0.00   0.05     0.07  -0.07   0.05    -0.05   0.05  -0.02
  38   6     0.10  -0.06   0.08     0.03  -0.03   0.04    -0.02   0.01  -0.01
  39   6     0.04  -0.03   0.05     0.00   0.01   0.00    -0.00  -0.02   0.02
  40   8     0.12  -0.12   0.10    -0.04   0.04  -0.02     0.03  -0.07   0.03
  41   6     0.02  -0.04   0.04    -0.02   0.03  -0.01    -0.01  -0.04   0.01
  42   6     0.05  -0.09   0.05    -0.01   0.03   0.00    -0.03  -0.04  -0.01
  43   6    -0.04  -0.04   0.01     0.02   0.02   0.01    -0.08  -0.02  -0.03
  44   6    -0.16   0.06  -0.06     0.04   0.00   0.02    -0.10  -0.00  -0.03
  45   6    -0.19   0.10  -0.07     0.02   0.01   0.00    -0.08  -0.01  -0.00
  46   6    -0.10   0.05  -0.02    -0.01   0.03  -0.01    -0.03  -0.03   0.02
  47   6    -0.03   0.08  -0.01    -0.04   0.04   0.00    -0.01  -0.04  -0.04
  48   6     0.14   0.13   0.10    -0.02  -0.05   0.01     0.05   0.01  -0.05
  49   6     0.14   0.06   0.10    -0.04  -0.12  -0.02     0.06   0.01   0.00
  50   1    -0.01  -0.06  -0.02     0.01   0.07   0.08    -0.02  -0.04  -0.02
  51   1    -0.01  -0.02  -0.02     0.02   0.10   0.09    -0.03  -0.04  -0.05
  52   1     0.06  -0.00   0.03    -0.08  -0.02  -0.05     0.03  -0.00  -0.01
  53   1     0.08  -0.01   0.04    -0.04  -0.05  -0.07     0.07  -0.01   0.05
  54   1     0.05   0.00   0.00     0.08  -0.06  -0.03     0.08  -0.02   0.07
  55   1     0.00   0.02  -0.04     0.15  -0.02   0.03     0.02  -0.02   0.02
  56   1    -0.01   0.03  -0.04     0.10   0.01   0.05    -0.02  -0.01  -0.03
  57   1     0.02  -0.01  -0.00    -0.01   0.01  -0.00    -0.01   0.00  -0.02
  58   1    -0.02  -0.07  -0.02     0.00   0.04  -0.00    -0.01   0.10   0.03
  59   1    -0.02  -0.04  -0.02     0.01   0.03   0.00    -0.01   0.13   0.04
  60   1    -0.03   0.04   0.00     0.01   0.00   0.00    -0.01   0.05   0.01
  61   1    -0.02   0.07   0.01    -0.00  -0.02  -0.00    -0.00  -0.05  -0.03
  62   1    -0.00   0.05   0.01    -0.02  -0.00  -0.00     0.01  -0.05  -0.03
  63   1     0.00  -0.00  -0.00    -0.03   0.02   0.00     0.00   0.05   0.02
  64   1     0.00  -0.06  -0.02    -0.03   0.04  -0.01     0.00   0.12   0.05
  65   1    -0.01  -0.06  -0.02    -0.02   0.03  -0.01    -0.00   0.10   0.04
  66   1    -0.04  -0.01  -0.01    -0.01   0.01  -0.02    -0.00  -0.00   0.03
  67   1    -0.07   0.05  -0.03     0.01  -0.01   0.00    -0.02   0.01   0.01
  68   1    -0.04   0.04  -0.01     0.03  -0.03   0.02    -0.03   0.03  -0.01
  69   1     0.03  -0.01   0.02     0.03  -0.03   0.02    -0.02   0.02  -0.01
  70   1     0.06  -0.04   0.04     0.01  -0.01   0.01    -0.00   0.00  -0.00
  71   1     0.04  -0.05   0.03    -0.00   0.01  -0.00    -0.01  -0.01  -0.00
  72   1    -0.00  -0.02   0.00     0.01   0.00   0.01    -0.03  -0.00  -0.01
  73   1    -0.07   0.03  -0.03     0.02  -0.00   0.01    -0.04   0.00  -0.01
  74   1    -0.08   0.05  -0.03     0.01   0.00   0.00    -0.03   0.00  -0.00
  75   1    -0.01   0.04  -0.00    -0.01   0.01   0.01    -0.00  -0.01  -0.02
  76   1     0.06   0.07   0.04    -0.01  -0.03  -0.01     0.03   0.02  -0.01
  77   1     0.05   0.03   0.04    -0.02  -0.07  -0.03     0.03   0.02   0.02
                     10                     11                     12
                        a                      a                      a 
 Frequencies --    55.0934                66.4213                68.1661
 Red. masses --    11.3334                10.9585                11.5514
 Frc consts  --     0.0000                 0.0000                 0.0000
 IR Inten    --     5.3875                 0.6039                 3.7610
 Raman Activ --     0.0000                 0.0000                 0.0000
 Depolar     --     0.0000                 0.0000                 0.0000
 Atom AN      X      Y      Z        X      Y      Z        X      Y      Z
   1   7     0.03  -0.06   0.18     0.11  -0.09   0.10    -0.07  -0.01   0.16
   2   6     0.01  -0.03   0.08     0.08  -0.05   0.02    -0.08  -0.02   0.07
   3   6    -0.01  -0.01  -0.00     0.07  -0.02  -0.04    -0.10  -0.04   0.00
   4   6    -0.06   0.03   0.00     0.05   0.04  -0.02    -0.12  -0.05  -0.02
   5   6    -0.07   0.05  -0.05     0.04   0.04  -0.06    -0.13  -0.05  -0.04
   6   6    -0.03   0.04  -0.11     0.05  -0.01  -0.13    -0.11  -0.04  -0.06
   7   7    -0.04   0.05  -0.16     0.03  -0.01  -0.20    -0.12  -0.03  -0.07
   8   6    -0.00   0.04  -0.09     0.02   0.03  -0.10    -0.08  -0.04  -0.05
   9   6     0.12   0.01   0.02    -0.08   0.16  -0.20    -0.06  -0.09  -0.02
  10   6     0.22  -0.02   0.11    -0.12   0.22  -0.13     0.09  -0.15   0.06
  11   6     0.19  -0.01   0.08    -0.06   0.14   0.07     0.19  -0.16   0.12
  12   6     0.05   0.03  -0.05     0.06   0.00   0.19     0.13  -0.11   0.06
  13   6    -0.04   0.05  -0.13     0.10  -0.06   0.10    -0.01  -0.05  -0.03
  14   6    -0.04   0.05  -0.08     0.03  -0.00  -0.15    -0.06  -0.00  -0.01
  15   6    -0.07   0.06   0.02     0.04   0.01  -0.19    -0.04   0.07  -0.01
  16   6    -0.07   0.06   0.09     0.01  -0.00  -0.04     0.03   0.11  -0.01
  17   7    -0.08   0.09   0.11     0.00  -0.00  -0.04     0.03   0.19   0.03
  18   6    -0.11   0.03   0.05     0.01  -0.01  -0.02     0.05   0.09   0.01
  19   6    -0.15  -0.04   0.03     0.04  -0.06  -0.05     0.07  -0.01  -0.03
  20   6    -0.18  -0.09  -0.02     0.05  -0.07  -0.04     0.10  -0.15  -0.07
  21   6    -0.16  -0.06  -0.06     0.05  -0.02   0.00     0.09  -0.18  -0.06
  22   6    -0.12   0.00  -0.04     0.02   0.03   0.03     0.06  -0.06  -0.01
  23   6    -0.09   0.04   0.01     0.01   0.03   0.01     0.04   0.08   0.03
  24   8    -0.07   0.10   0.02    -0.01   0.08   0.04     0.02   0.20   0.09
  25   6    -0.03   0.02   0.02    -0.02   0.02  -0.00     0.00   0.08   0.02
  26   6     0.01  -0.07  -0.03    -0.03   0.00  -0.00    -0.02  -0.04  -0.02
  27   6     0.04  -0.14  -0.03    -0.04  -0.04  -0.03    -0.03  -0.15  -0.09
  28   6     0.03  -0.12   0.02    -0.03  -0.05  -0.05    -0.02  -0.13  -0.10
  29   6    -0.01  -0.03   0.07    -0.02  -0.03  -0.04    -0.00  -0.00  -0.06
  30   6    -0.04   0.02   0.06    -0.01  -0.00  -0.03     0.01   0.09  -0.00
  31   6    -0.05   0.05   0.08    -0.04  -0.01   0.14     0.09   0.07   0.00
  32   6    -0.03   0.04  -0.03    -0.04  -0.02   0.13     0.07  -0.01   0.04
  33   7    -0.01   0.04  -0.04    -0.03  -0.03   0.16     0.13  -0.05   0.08
  34   6     0.03   0.01  -0.01    -0.01   0.02   0.12     0.07   0.00   0.04
  35   6     0.14  -0.09   0.06     0.02   0.06   0.17    -0.02   0.07  -0.01
  36   6     0.17  -0.12   0.09     0.05   0.12   0.13    -0.09   0.13  -0.06
  37   6     0.09  -0.05   0.03     0.04   0.14   0.05    -0.08   0.11  -0.05
  38   6    -0.02   0.04  -0.03     0.01   0.10   0.01     0.01   0.04   0.01
  39   6    -0.04   0.06  -0.05    -0.01   0.04   0.04     0.08  -0.01   0.06
  40   8    -0.15   0.16  -0.13    -0.03  -0.00   0.00     0.17  -0.07   0.12
  41   6    -0.02   0.05  -0.03    -0.05  -0.05   0.03     0.06   0.01   0.05
  42   6     0.04   0.01   0.01    -0.08  -0.09  -0.02    -0.03   0.09  -0.01
  43   6     0.16  -0.07   0.08    -0.12  -0.14   0.00    -0.11   0.17  -0.07
  44   6     0.21  -0.11   0.10    -0.13  -0.14   0.07    -0.09   0.15  -0.06
  45   6     0.15  -0.07   0.06    -0.11  -0.11   0.11    -0.00   0.07  -0.00
  46   6     0.04   0.00  -0.00    -0.06  -0.06   0.10     0.07   0.01   0.04
  47   6    -0.02   0.04  -0.11    -0.00  -0.02  -0.01     0.00  -0.04   0.03
  48   6     0.01  -0.01  -0.12     0.07  -0.06  -0.15    -0.09  -0.04  -0.05
  49   6     0.02  -0.04  -0.07     0.08  -0.07  -0.11    -0.09  -0.04  -0.02
  50   1    -0.02   0.01   0.01     0.01   0.02   0.01    -0.04  -0.01  -0.00
  51   1    -0.03   0.03  -0.01     0.01   0.03  -0.01    -0.04  -0.01  -0.01
  52   1     0.04   0.00   0.01    -0.03   0.06  -0.10    -0.04  -0.03  -0.02
  53   1     0.09  -0.02   0.06    -0.06   0.10  -0.06     0.03  -0.06   0.03
  54   1     0.08  -0.01   0.04    -0.03   0.05   0.04     0.09  -0.06   0.06
  55   1     0.01   0.01  -0.02     0.03  -0.02   0.10     0.06  -0.03   0.02
  56   1    -0.04   0.03  -0.06     0.05  -0.05   0.05    -0.01  -0.00  -0.02
  57   1    -0.02   0.02   0.01     0.02   0.00  -0.10    -0.03   0.03  -0.01
  58   1    -0.05  -0.02   0.02     0.01  -0.03  -0.02     0.02   0.00  -0.01
  59   1    -0.06  -0.04  -0.01     0.02  -0.03  -0.02     0.03  -0.07  -0.03
  60   1    -0.05  -0.03  -0.03     0.02  -0.01   0.00     0.03  -0.09  -0.03
  61   1    -0.03   0.01  -0.02     0.00   0.02   0.02     0.02  -0.02   0.00
  62   1     0.01  -0.02  -0.02    -0.01   0.01   0.00    -0.01  -0.01  -0.00
  63   1     0.02  -0.06  -0.02    -0.01  -0.02  -0.01    -0.01  -0.07  -0.04
  64   1     0.02  -0.05   0.01    -0.01  -0.02  -0.02    -0.01  -0.06  -0.04
  65   1    -0.01  -0.01   0.03    -0.01  -0.01  -0.01    -0.00   0.00  -0.02
  66   1    -0.02   0.02   0.04    -0.02  -0.01   0.07     0.04   0.03   0.00
  67   1     0.06  -0.04   0.03     0.01   0.01   0.07    -0.01   0.02  -0.00
  68   1     0.08  -0.06   0.04     0.02   0.04   0.05    -0.05   0.05  -0.03
  69   1     0.03  -0.02   0.01     0.02   0.06   0.01    -0.04   0.05  -0.02
  70   1    -0.02   0.03  -0.02     0.00   0.03  -0.02     0.01   0.01   0.01
  71   1    -0.00   0.01  -0.00    -0.02  -0.02  -0.02    -0.01   0.03  -0.00
  72   1     0.06  -0.03   0.03    -0.04  -0.05  -0.01    -0.06   0.07  -0.04
  73   1     0.09  -0.05   0.04    -0.05  -0.05   0.02    -0.04   0.06  -0.03
  74   1     0.06  -0.03   0.02    -0.03  -0.03   0.05     0.00   0.02   0.00
  75   1     0.00   0.01  -0.06    -0.00  -0.01  -0.01    -0.00  -0.03   0.01
  76   1     0.01  -0.01  -0.05     0.02  -0.02  -0.06    -0.02  -0.01  -0.02
  77   1     0.02  -0.02  -0.02     0.03  -0.03  -0.04    -0.02  -0.01  -0.00
                     13                     14                     15
                        a                      a                      a 
 Frequencies --    69.6570                85.1507               104.3848
 Red. masses --    10.9798                10.0181                11.2367
 Frc consts  --     0.0000                 0.0000                 0.0000
 IR Inten    --     0.7360                 0.5638                 1.5080
 Raman Activ --     0.0000                 0.0000                 0.0000
 Depolar     --     0.0000                 0.0000                 0.0000
 Atom AN      X      Y      Z        X      Y      Z        X      Y      Z
   1   7    -0.06   0.08  -0.11     0.00  -0.00   0.05    -0.07  -0.21  -0.26
   2   6    -0.05   0.04  -0.04    -0.00  -0.00   0.02     0.01   0.02  -0.01
   3   6    -0.03   0.03   0.01    -0.01  -0.01   0.00     0.07   0.18   0.14
   4   6    -0.05  -0.11  -0.09     0.07   0.23   0.20     0.06   0.20   0.15
   5   6    -0.05  -0.11  -0.06     0.06   0.21   0.18     0.03   0.14   0.08
   6   6    -0.03   0.02   0.06     0.01  -0.01  -0.00     0.02   0.06   0.02
   7   7    -0.02   0.00   0.08     0.01   0.01   0.01    -0.02  -0.02  -0.10
   8   6    -0.01  -0.02   0.03     0.01   0.01   0.01    -0.00  -0.02  -0.05
   9   6     0.05  -0.08   0.10     0.19  -0.04   0.17     0.07   0.02   0.01
  10   6     0.12  -0.12   0.11     0.18  -0.04   0.16     0.05   0.05   0.05
  11   6     0.10  -0.09   0.04    -0.02   0.02  -0.04    -0.04   0.05   0.03
  12   6     0.01  -0.02  -0.05    -0.21   0.08  -0.22    -0.11   0.01  -0.02
  13   6    -0.05   0.02  -0.06    -0.17   0.07  -0.18    -0.07  -0.02  -0.05
  14   6    -0.03   0.00   0.08     0.01  -0.00  -0.00    -0.03  -0.03  -0.06
  15   6     0.01   0.00  -0.05     0.02  -0.01  -0.02    -0.03   0.01  -0.04
  16   6     0.02   0.01  -0.13     0.02  -0.01  -0.04    -0.00   0.03   0.01
  17   7     0.03  -0.01  -0.16     0.03  -0.03  -0.07    -0.00   0.11   0.04
  18   6     0.06   0.00  -0.10     0.05  -0.01  -0.04    -0.00   0.06   0.02
  19   6     0.12   0.01  -0.11     0.07  -0.01  -0.04     0.00   0.03   0.01
  20   6     0.16   0.02  -0.06     0.09   0.02  -0.02     0.00  -0.03  -0.01
  21   6     0.14   0.03   0.00     0.08   0.04   0.02     0.01  -0.05  -0.02
  22   6     0.08   0.02   0.01     0.05   0.03   0.01     0.01  -0.00  -0.00
  23   6     0.04   0.01  -0.04     0.04  -0.01  -0.02     0.00   0.05   0.02
  24   8    -0.01   0.01  -0.03     0.03  -0.03  -0.02    -0.00   0.07   0.02
  25   6    -0.05   0.02  -0.06     0.01  -0.01  -0.03     0.00   0.03   0.01
  26   6    -0.11   0.04  -0.03    -0.01   0.01  -0.02     0.00  -0.07  -0.03
  27   6    -0.15   0.05  -0.07    -0.03   0.03  -0.02    -0.00  -0.09  -0.04
  28   6    -0.14   0.04  -0.14    -0.02   0.03  -0.04    -0.01   0.02  -0.00
  29   6    -0.08   0.02  -0.17     0.00   0.01  -0.06    -0.01   0.10   0.03
  30   6    -0.03   0.01  -0.13     0.02  -0.01  -0.05    -0.01   0.09   0.03
  31   6     0.01   0.01  -0.08     0.00  -0.02   0.00     0.04   0.00   0.03
  32   6    -0.04   0.00   0.08    -0.01  -0.01   0.04     0.03  -0.06   0.01
  33   7    -0.03   0.00   0.08    -0.02  -0.01   0.06     0.09  -0.12   0.04
  34   6     0.01   0.02   0.07    -0.02   0.01   0.05     0.09  -0.14   0.05
  35   6     0.09   0.00   0.13    -0.05   0.05   0.04     0.16  -0.23   0.08
  36   6     0.13   0.02   0.13    -0.03   0.06   0.03     0.01  -0.14  -0.00
  37   6     0.09   0.07   0.05     0.02   0.03   0.04    -0.21   0.04  -0.13
  38   6    -0.00   0.09  -0.02     0.04  -0.01   0.04    -0.21   0.07  -0.12
  39   6    -0.03   0.07  -0.01     0.01  -0.01   0.04    -0.02  -0.05  -0.01
  40   8    -0.12   0.11  -0.10     0.02  -0.04   0.04     0.05  -0.12   0.03
  41   6    -0.05  -0.01  -0.01    -0.03  -0.02   0.02     0.06  -0.10   0.03
  42   6    -0.03  -0.07  -0.02    -0.08  -0.00  -0.02     0.07  -0.12   0.03
  43   6     0.03  -0.17   0.05    -0.11  -0.01  -0.03    -0.01  -0.06  -0.02
  44   6     0.04  -0.20   0.12    -0.08  -0.04   0.02    -0.12   0.01  -0.08
  45   6     0.02  -0.13   0.12    -0.04  -0.05   0.05    -0.09   0.00  -0.07
  46   6    -0.02  -0.04   0.06    -0.03  -0.02   0.05     0.02  -0.07  -0.00
  47   6    -0.06   0.00   0.17     0.00  -0.01   0.01    -0.00  -0.06  -0.02
  48   6    -0.01   0.15   0.16    -0.07  -0.24  -0.18     0.06   0.14   0.08
  49   6    -0.01   0.16   0.14    -0.08  -0.26  -0.20     0.08   0.20   0.15
  50   1    -0.02  -0.06  -0.05     0.04   0.12   0.10     0.02   0.07   0.05
  51   1    -0.02  -0.06  -0.04     0.03   0.11   0.09     0.01   0.04   0.02
  52   1     0.02  -0.03   0.04     0.10  -0.02   0.09     0.04   0.01   0.00
  53   1     0.05  -0.05   0.05     0.10  -0.03   0.09     0.03   0.02   0.03
  54   1     0.05  -0.03   0.02    -0.01   0.01  -0.02    -0.02   0.02   0.02
  55   1    -0.00   0.00  -0.03    -0.11   0.04  -0.11    -0.05   0.00  -0.01
  56   1    -0.03   0.02  -0.03    -0.08   0.04  -0.08    -0.03  -0.01  -0.02
  57   1     0.01   0.00  -0.02     0.01  -0.01  -0.01    -0.02   0.01  -0.02
  58   1     0.04   0.00  -0.04     0.02  -0.01  -0.02     0.00   0.01   0.00
  59   1     0.06   0.01  -0.02     0.03   0.01  -0.01     0.00  -0.02  -0.01
  60   1     0.05   0.01   0.01     0.03   0.02   0.01     0.00  -0.03  -0.01
  61   1     0.02   0.01   0.02     0.01   0.01   0.01     0.00  -0.01  -0.00
  62   1    -0.03   0.01   0.01    -0.00   0.00  -0.00     0.00  -0.04  -0.02
  63   1    -0.06   0.02  -0.02    -0.01   0.02  -0.00    -0.00  -0.05  -0.02
  64   1    -0.05   0.01  -0.05    -0.01   0.01  -0.01    -0.00   0.01   0.00
  65   1    -0.02   0.01  -0.06     0.00   0.00  -0.02    -0.00   0.05   0.02
  66   1     0.01   0.00  -0.04    -0.00  -0.00   0.00     0.02   0.01   0.02
  67   1     0.03  -0.01   0.05    -0.02   0.02   0.01     0.09  -0.10   0.04
  68   1     0.06   0.00   0.06    -0.02   0.03   0.01     0.02  -0.06   0.01
  69   1     0.03   0.02   0.01     0.01   0.01   0.01    -0.11   0.04  -0.06
  70   1    -0.01   0.04  -0.03     0.02  -0.01   0.01    -0.10   0.05  -0.05
  71   1    -0.01  -0.01  -0.02    -0.02   0.00  -0.02     0.04  -0.05   0.02
  72   1     0.01  -0.06   0.01    -0.04   0.00  -0.02    -0.00  -0.02  -0.01
  73   1     0.02  -0.08   0.05    -0.03  -0.02   0.01    -0.06   0.02  -0.04
  74   1     0.01  -0.05   0.05    -0.01  -0.02   0.02    -0.05   0.02  -0.03
  75   1    -0.03  -0.00   0.08     0.00  -0.00   0.00    -0.00  -0.03  -0.01
  76   1     0.00   0.07   0.07    -0.04  -0.11  -0.09     0.02   0.04   0.02
  77   1     0.00   0.07   0.06    -0.04  -0.13  -0.10     0.03   0.07   0.05
                     16                     17                     18
                        a                      a                      a 
 Frequencies --   110.6659               111.0186               131.1657
 Red. masses --    10.3694                 9.9130                11.4020
 Frc consts  --     0.0000                 0.0000                 0.0000
 IR Inten    --     3.2774                 1.7026                 1.3592
 Raman Activ --     0.0000                 0.0000                 0.0000
 Depolar     --     0.0000                 0.0000                 0.0000
 Atom AN      X      Y      Z        X      Y      Z        X      Y      Z
   1   7    -0.02  -0.11  -0.18    -0.01   0.03  -0.07    -0.04  -0.11   0.10
   2   6     0.03   0.02  -0.01     0.00   0.01  -0.00    -0.05   0.02   0.01
   3   6     0.06   0.11   0.09     0.01  -0.00   0.03    -0.05   0.08  -0.03
   4   6     0.04   0.09   0.06     0.01  -0.01   0.02    -0.04   0.06  -0.03
   5   6     0.02   0.05   0.01     0.00  -0.02   0.01    -0.04   0.04  -0.03
   6   6     0.02   0.04  -0.01     0.00  -0.01   0.02    -0.04   0.03  -0.03
   7   7    -0.01  -0.02  -0.10     0.00  -0.01   0.01    -0.04   0.02  -0.01
   8   6     0.01  -0.02  -0.05    -0.00  -0.01   0.01    -0.03   0.01  -0.01
   9   6     0.04   0.03  -0.03    -0.01  -0.01  -0.00    -0.03   0.01  -0.01
  10   6     0.02   0.05   0.02    -0.01  -0.00  -0.00    -0.01  -0.00   0.00
  11   6    -0.03   0.04   0.03    -0.01  -0.01   0.00     0.02  -0.01   0.02
  12   6    -0.05  -0.00   0.01     0.00  -0.01   0.01     0.01   0.00   0.01
  13   6    -0.03  -0.03  -0.03     0.01  -0.01   0.01    -0.02   0.01  -0.01
  14   6    -0.03  -0.03  -0.04     0.01  -0.01  -0.00    -0.02   0.02   0.01
  15   6    -0.03  -0.01  -0.02     0.01   0.00  -0.03    -0.01   0.02  -0.00
  16   6    -0.01   0.00   0.01     0.00   0.00  -0.01     0.01   0.02   0.01
  17   7    -0.02   0.05   0.03    -0.00  -0.00  -0.00     0.05   0.09   0.04
  18   6    -0.02   0.07   0.03    -0.01  -0.11  -0.04     0.08   0.07   0.05
  19   6    -0.04   0.13   0.06    -0.02  -0.34  -0.13     0.15   0.05   0.03
  20   6    -0.04   0.06   0.02    -0.04  -0.20  -0.08     0.19  -0.04   0.02
  21   6    -0.03  -0.09  -0.05    -0.05   0.21   0.08     0.19  -0.09   0.03
  22   6    -0.03  -0.11  -0.05    -0.03   0.31   0.11     0.13  -0.02   0.06
  23   6    -0.03   0.00  -0.01    -0.01   0.06   0.03     0.09   0.07   0.06
  24   8    -0.02   0.04   0.01    -0.02  -0.03  -0.01     0.11   0.12   0.07
  25   6    -0.02   0.04   0.02    -0.01  -0.09  -0.04     0.09   0.05   0.02
  26   6    -0.01   0.07   0.03    -0.02  -0.31  -0.12     0.14  -0.10  -0.05
  27   6    -0.01   0.01   0.01    -0.04  -0.17  -0.08     0.17  -0.12  -0.03
  28   6     0.00  -0.07  -0.01    -0.05   0.22   0.07     0.16   0.05   0.05
  29   6    -0.00  -0.06  -0.01    -0.04   0.33   0.11     0.13   0.15   0.10
  30   6    -0.01   0.01   0.01    -0.02   0.10   0.03     0.09   0.12   0.05
  31   6     0.01  -0.01  -0.00     0.01  -0.00   0.02    -0.01   0.02  -0.01
  32   6     0.01  -0.04   0.01     0.02  -0.01   0.00    -0.03   0.01  -0.01
  33   7     0.04  -0.07   0.03     0.04  -0.02   0.00    -0.12   0.05  -0.07
  34   6    -0.03   0.00  -0.02     0.00   0.00  -0.02    -0.16   0.04  -0.08
  35   6    -0.17   0.11  -0.11    -0.05   0.05  -0.04    -0.20   0.03  -0.12
  36   6    -0.13   0.09  -0.09    -0.04   0.04  -0.04    -0.10  -0.08  -0.03
  37   6     0.08  -0.09   0.05     0.04  -0.01   0.01     0.05  -0.20   0.08
  38   6     0.16  -0.16   0.10     0.07  -0.04   0.03     0.01  -0.14   0.07
  39   6     0.05  -0.08   0.03     0.04  -0.01   0.01    -0.12  -0.00  -0.04
  40   8     0.01  -0.05  -0.00     0.03  -0.01   0.01    -0.21   0.05  -0.11
  41   6    -0.04  -0.01  -0.04     0.01   0.02  -0.00    -0.12   0.00  -0.07
  42   6    -0.23   0.15  -0.15    -0.06   0.08  -0.05    -0.01  -0.12  -0.02
  43   6    -0.15   0.09  -0.11    -0.04   0.08  -0.04     0.03  -0.21   0.04
  44   6     0.15  -0.14   0.08     0.07  -0.01   0.02    -0.07  -0.14  -0.00
  45   6     0.26  -0.24   0.16     0.11  -0.06   0.04    -0.16  -0.02  -0.05
  46   6     0.11  -0.12   0.06     0.05  -0.03   0.02    -0.14   0.02  -0.07
  47   6    -0.02  -0.05   0.01     0.01  -0.01   0.00    -0.02   0.02   0.01
  48   6     0.07   0.11   0.06     0.01   0.01   0.03    -0.05   0.06  -0.01
  49   6     0.09   0.16   0.11     0.01   0.01   0.04    -0.05   0.08  -0.02
  50   1     0.01   0.02   0.02     0.00  -0.01   0.00    -0.01   0.02  -0.01
  51   1    -0.00   0.00  -0.01     0.00  -0.01   0.00    -0.01   0.01  -0.01
  52   1     0.02   0.01  -0.01    -0.00  -0.00   0.00    -0.01   0.00  -0.01
  53   1     0.01   0.03   0.01    -0.01  -0.00  -0.00    -0.00  -0.00   0.00
  54   1    -0.01   0.02   0.02    -0.00  -0.00  -0.00     0.01  -0.00   0.01
  55   1    -0.03  -0.00   0.01     0.00  -0.00   0.00     0.01   0.00   0.01
  56   1    -0.01  -0.02  -0.01     0.00  -0.00   0.01    -0.01   0.01  -0.00
  57   1    -0.01   0.00  -0.01     0.01   0.00  -0.02    -0.01   0.01  -0.00
  58   1    -0.01   0.06   0.03    -0.00  -0.17  -0.06     0.05   0.03  -0.00
  59   1    -0.01   0.03   0.01    -0.01  -0.11  -0.04     0.06  -0.02   0.00
  60   1    -0.01  -0.05  -0.02    -0.02   0.12   0.04     0.06  -0.05   0.01
  61   1    -0.01  -0.06  -0.03    -0.01   0.16   0.05     0.03  -0.02   0.03
  62   1    -0.00   0.03   0.01    -0.00  -0.16  -0.06     0.04  -0.05  -0.04
  63   1     0.00   0.01   0.00    -0.01  -0.10  -0.04     0.06  -0.07  -0.03
  64   1     0.00  -0.04  -0.01    -0.02   0.12   0.04     0.05   0.02   0.02
  65   1    -0.00  -0.03  -0.01    -0.01   0.16   0.05     0.03   0.06   0.05
  66   1     0.01  -0.00  -0.00     0.00   0.00   0.01    -0.00   0.00  -0.00
  67   1    -0.09   0.06  -0.05    -0.03   0.02  -0.02    -0.08   0.03  -0.06
  68   1    -0.07   0.05  -0.05    -0.02   0.02  -0.02    -0.03  -0.03  -0.01
  69   1     0.05  -0.04   0.03     0.02  -0.01   0.01     0.05  -0.09   0.05
  70   1     0.08  -0.07   0.05     0.03  -0.02   0.02     0.02  -0.06   0.04
  71   1    -0.12   0.08  -0.08    -0.04   0.04  -0.02     0.02  -0.05  -0.01
  72   1    -0.09   0.06  -0.06    -0.03   0.04  -0.02     0.04  -0.09   0.03
  73   1     0.07  -0.07   0.04     0.03  -0.01   0.01    -0.02  -0.05   0.00
  74   1     0.12  -0.11   0.08     0.05  -0.03   0.02    -0.07   0.01  -0.01
  75   1    -0.01  -0.02   0.01     0.00  -0.01   0.00    -0.00   0.01   0.00
  76   1     0.02   0.03   0.01     0.00   0.00   0.01    -0.02   0.02  -0.00
  77   1     0.03   0.06   0.04     0.01   0.01   0.01    -0.01   0.03  -0.00
                     19                     20                     21
                        a                      a                      a 
 Frequencies --   132.9983               138.2380               161.3480
 Red. masses --    12.2901                11.4357                11.3155
 Frc consts  --     0.0000                 0.0000                 0.0000
 IR Inten    --     7.2357                 2.4173                 5.0234
 Raman Activ --     0.0000                 0.0000                 0.0000
 Depolar     --     0.0000                 0.0000                 0.0000
 Atom AN      X      Y      Z        X      Y      Z        X      Y      Z
   1   7    -0.02   0.44  -0.45     0.17   0.06   0.18     0.08  -0.18  -0.01
   2   6     0.05  -0.05   0.03     0.09  -0.04  -0.06     0.09   0.05  -0.02
   3   6     0.07  -0.25   0.20     0.05  -0.12  -0.17     0.10   0.13   0.01
   4   6    -0.00  -0.20   0.19     0.08  -0.11  -0.15     0.13   0.11   0.01
   5   6    -0.02  -0.11   0.13     0.12  -0.02  -0.02     0.10  -0.04  -0.04
   6   6     0.04  -0.08   0.08     0.10   0.05   0.07     0.03  -0.13  -0.05
   7   7     0.02  -0.00  -0.05     0.12   0.06   0.19     0.01  -0.18  -0.04
   8   6    -0.03   0.02  -0.06     0.15   0.03   0.16     0.03  -0.17   0.01
   9   6    -0.02   0.02  -0.05     0.11   0.00   0.13     0.05  -0.14   0.04
  10   6     0.04   0.01  -0.00    -0.00   0.02  -0.03    -0.03  -0.09   0.04
  11   6     0.07  -0.00   0.04    -0.06   0.06  -0.14    -0.15  -0.10   0.03
  12   6     0.02   0.00  -0.00     0.04   0.07  -0.05    -0.14  -0.16   0.04
  13   6    -0.03   0.01  -0.06     0.15   0.05   0.10    -0.04  -0.21   0.05
  14   6     0.03   0.01  -0.11     0.01   0.01   0.12     0.02  -0.13   0.00
  15   6     0.02   0.02  -0.09    -0.01   0.01   0.12     0.01  -0.10   0.00
  16   6    -0.00   0.02  -0.00    -0.00   0.02   0.01     0.02  -0.09  -0.02
  17   7    -0.01   0.07   0.03    -0.01   0.13   0.02     0.01   0.01  -0.01
  18   6    -0.01   0.09   0.03    -0.04   0.15   0.02    -0.02   0.07   0.00
  19   6    -0.01   0.10   0.03    -0.07   0.17   0.03    -0.06   0.10   0.02
  20   6    -0.01   0.02  -0.00    -0.08   0.04  -0.03    -0.08   0.04  -0.02
  21   6    -0.00  -0.08  -0.04    -0.05  -0.12  -0.10    -0.07  -0.06  -0.07
  22   6    -0.00  -0.05  -0.03    -0.04  -0.06  -0.08    -0.04  -0.03  -0.07
  23   6    -0.01   0.05   0.01    -0.03   0.10   0.00    -0.02   0.06  -0.01
  24   8    -0.01   0.10   0.03    -0.06   0.19   0.04    -0.04   0.12   0.03
  25   6    -0.01   0.05   0.01    -0.04   0.10   0.01    -0.03   0.05   0.01
  26   6    -0.00  -0.03  -0.02    -0.08  -0.08  -0.04    -0.07  -0.05  -0.02
  27   6    -0.00  -0.07  -0.04    -0.12  -0.13  -0.10    -0.11  -0.07  -0.05
  28   6    -0.01   0.00  -0.00    -0.13   0.05  -0.06    -0.10   0.04  -0.03
  29   6    -0.01   0.08   0.03    -0.09   0.19  -0.01    -0.06   0.11  -0.01
  30   6    -0.01   0.08   0.02    -0.05   0.15   0.02    -0.02   0.06   0.01
  31   6    -0.02   0.01   0.06     0.03   0.01  -0.05     0.05  -0.11  -0.00
  32   6    -0.01   0.01  -0.01     0.01  -0.01   0.01     0.06  -0.09   0.02
  33   7    -0.05   0.03  -0.01     0.02  -0.03   0.02    -0.01  -0.01   0.01
  34   6    -0.05   0.03  -0.01     0.01  -0.06   0.01    -0.05   0.08  -0.03
  35   6    -0.05   0.03  -0.01    -0.01  -0.09  -0.01    -0.05   0.17   0.00
  36   6    -0.01   0.01   0.01    -0.06  -0.09  -0.03     0.07   0.15   0.04
  37   6     0.03  -0.02   0.04    -0.09  -0.05  -0.03     0.18   0.07   0.08
  38   6     0.02  -0.01   0.02    -0.06  -0.04   0.00     0.11   0.05   0.01
  39   6    -0.03   0.02  -0.00     0.00  -0.05   0.01    -0.04   0.08  -0.04
  40   8    -0.05   0.03  -0.02     0.01  -0.08   0.02    -0.11   0.16  -0.07
  41   6    -0.03   0.02  -0.01     0.00  -0.05  -0.00    -0.04   0.08  -0.00
  42   6     0.01  -0.03   0.02    -0.04  -0.04  -0.05     0.09   0.03   0.11
  43   6     0.01  -0.04   0.03    -0.08  -0.05  -0.05     0.15   0.04   0.12
  44   6    -0.04  -0.00  -0.00    -0.05  -0.10  -0.01     0.02   0.16   0.00
  45   6    -0.08   0.04  -0.03    -0.01  -0.10   0.02    -0.06   0.17  -0.07
  46   6    -0.06   0.03  -0.02     0.01  -0.07   0.01    -0.06   0.09  -0.02
  47   6     0.03   0.02  -0.11     0.01   0.01   0.09     0.03  -0.11   0.02
  48   6     0.12  -0.16   0.07     0.06  -0.02   0.01     0.01  -0.07  -0.03
  49   6     0.12  -0.25   0.14     0.02  -0.10  -0.11     0.04   0.06   0.00
  50   1    -0.02  -0.06   0.07     0.02  -0.05  -0.06     0.05   0.05   0.01
  51   1    -0.02  -0.02   0.04     0.05  -0.00   0.00     0.04  -0.03  -0.01
  52   1    -0.01   0.01  -0.02     0.04  -0.01   0.05     0.03  -0.04   0.01
  53   1     0.02   0.00   0.01    -0.02   0.00  -0.02    -0.00  -0.01   0.01
  54   1     0.03  -0.00   0.03    -0.05   0.03  -0.08    -0.07  -0.02   0.00
  55   1     0.01  -0.00   0.00     0.00   0.03  -0.03    -0.06  -0.05   0.01
  56   1    -0.01   0.01  -0.02     0.06   0.02   0.04    -0.01  -0.08   0.02
  57   1     0.01   0.01  -0.03    -0.00   0.00   0.06    -0.00  -0.03   0.00
  58   1    -0.00   0.05   0.01    -0.02   0.07   0.02    -0.02   0.04   0.02
  59   1    -0.00   0.01   0.00    -0.02   0.01  -0.01    -0.03   0.02  -0.00
  60   1     0.00  -0.05  -0.02    -0.02  -0.08  -0.05    -0.02  -0.04  -0.03
  61   1    -0.00  -0.03  -0.01    -0.01  -0.04  -0.04    -0.01  -0.02  -0.03
  62   1    -0.00  -0.02  -0.01    -0.03  -0.05  -0.01    -0.02  -0.03   0.00
  63   1    -0.00  -0.04  -0.02    -0.04  -0.08  -0.04    -0.04  -0.05  -0.02
  64   1    -0.00  -0.00  -0.00    -0.04   0.02  -0.02    -0.03   0.02  -0.01
  65   1    -0.00   0.03   0.01    -0.02   0.08  -0.00    -0.02   0.05  -0.01
  66   1    -0.01   0.00   0.04     0.02   0.01  -0.03     0.02  -0.03  -0.00
  67   1    -0.02   0.01  -0.00     0.01  -0.03  -0.01    -0.04   0.06   0.01
  68   1    -0.00   0.00   0.01    -0.02  -0.03  -0.01     0.02   0.05   0.02
  69   1     0.02  -0.01   0.02    -0.04  -0.01  -0.01     0.09   0.00   0.04
  70   1     0.01  -0.01   0.01    -0.03  -0.01   0.01     0.05   0.00  -0.01
  71   1     0.01  -0.02   0.01    -0.01  -0.01  -0.03     0.04  -0.01   0.06
  72   1     0.02  -0.02   0.02    -0.03  -0.01  -0.03     0.07  -0.01   0.06
  73   1    -0.01  -0.00   0.00    -0.02  -0.03  -0.00     0.00   0.06  -0.01
  74   1    -0.03   0.02  -0.01     0.00  -0.03   0.02    -0.03   0.06  -0.04
  75   1     0.01   0.01  -0.05    -0.00   0.01   0.04     0.01  -0.04   0.00
  76   1     0.05  -0.04   0.01     0.01   0.00   0.01    -0.01  -0.03  -0.01
  77   1     0.05  -0.08   0.04    -0.01  -0.04  -0.05    -0.00   0.03   0.00
                     22                     23                     24
                        a                      a                      a 
 Frequencies --   203.9408               217.9137               223.9722
 Red. masses --    11.1957                10.5931                10.7549
 Frc consts  --     0.0000                 0.0000                 0.0000
 IR Inten    --     2.1602                 4.6425                 5.4235
 Raman Activ --     0.0000                 0.0000                 0.0000
 Depolar     --     0.0000                 0.0000                 0.0000
 Atom AN      X      Y      Z        X      Y      Z        X      Y      Z
   1   7     0.03   0.01  -0.06    -0.08   0.14  -0.05    -0.09  -0.02  -0.00
   2   6     0.05  -0.02   0.02    -0.07  -0.10   0.08    -0.07   0.03   0.04
   3   6     0.05  -0.02   0.03    -0.07  -0.14   0.06    -0.06   0.04   0.05
   4   6     0.01   0.03   0.04    -0.16  -0.04   0.07    -0.06  -0.04  -0.00
   5   6    -0.01   0.02  -0.03    -0.16   0.12  -0.03    -0.06  -0.05  -0.01
   6   6     0.00  -0.01  -0.07    -0.04   0.12  -0.14    -0.03  -0.02  -0.01
   7   7    -0.01  -0.01  -0.08    -0.06  -0.03  -0.21    -0.00   0.01   0.02
   8   6    -0.03  -0.00  -0.12     0.20  -0.10   0.00     0.10   0.00   0.17
   9   6    -0.03   0.04  -0.12     0.30  -0.05   0.08     0.14  -0.06   0.20
  10   6     0.00   0.06  -0.03     0.07   0.07  -0.03     0.03  -0.06   0.02
  11   6     0.04   0.02   0.07    -0.17   0.09  -0.15    -0.10   0.01  -0.16
  12   6    -0.01  -0.01   0.03     0.02  -0.06   0.04     0.05   0.02  -0.03
  13   6    -0.06  -0.02  -0.08     0.23  -0.16   0.12     0.17   0.01   0.17
  14   6     0.04   0.03   0.18    -0.15  -0.05   0.06     0.02   0.00  -0.13
  15   6     0.02   0.12   0.25    -0.18  -0.03   0.19     0.02   0.06  -0.12
  16   6     0.08   0.14   0.09    -0.06   0.01  -0.01     0.00   0.09   0.11
  17   7     0.08   0.15   0.08    -0.04   0.06   0.01     0.02   0.16   0.04
  18   6     0.03  -0.01   0.01    -0.01   0.01  -0.00    -0.01   0.05  -0.02
  19   6    -0.07  -0.10  -0.00     0.05  -0.02  -0.02     0.01  -0.03  -0.06
  20   6    -0.14  -0.06  -0.04     0.09  -0.04   0.00     0.01  -0.05  -0.05
  21   6    -0.11   0.10  -0.02     0.06   0.00   0.04     0.03   0.06   0.00
  22   6    -0.01   0.08  -0.05     0.01   0.02   0.06     0.02   0.05  -0.00
  23   6     0.06  -0.05  -0.01    -0.02  -0.00   0.00     0.02  -0.02  -0.03
  24   8     0.05  -0.19  -0.06    -0.01  -0.06  -0.03     0.01  -0.17  -0.10
  25   6     0.05  -0.03   0.01    -0.02  -0.01  -0.02     0.02  -0.00  -0.02
  26   6    -0.06   0.05   0.09     0.03   0.01  -0.04    -0.03   0.10   0.04
  27   6    -0.13   0.06   0.02     0.07   0.02   0.01    -0.06   0.06  -0.01
  28   6    -0.13  -0.07  -0.09     0.08  -0.01   0.02    -0.07  -0.09  -0.10
  29   6    -0.04  -0.05  -0.09     0.03  -0.02   0.02    -0.03  -0.04  -0.07
  30   6     0.03   0.02   0.01    -0.01   0.02   0.00     0.00   0.04  -0.02
  31   6     0.21   0.09  -0.08     0.02   0.01  -0.24    -0.04   0.03   0.46
  32   6     0.15  -0.02   0.10    -0.03  -0.03  -0.03     0.06  -0.02   0.08
  33   7     0.16  -0.02   0.08    -0.00  -0.04   0.01     0.12  -0.07   0.06
  34   6     0.03   0.01   0.00     0.00  -0.02   0.02     0.01  -0.02  -0.01
  35   6    -0.06  -0.02  -0.09     0.01   0.03   0.04    -0.05  -0.00  -0.05
  36   6    -0.13  -0.07  -0.08     0.04   0.07   0.03    -0.09  -0.01  -0.07
  37   6    -0.03  -0.14   0.03     0.04   0.05   0.01     0.01  -0.07   0.01
  38   6    -0.00  -0.07   0.09     0.02   0.02  -0.03     0.04  -0.06   0.05
  39   6     0.00   0.05   0.00    -0.01  -0.02  -0.00    -0.00   0.02  -0.01
  40   8    -0.11   0.15  -0.08    -0.03   0.01  -0.01    -0.11   0.09  -0.09
  41   6     0.00   0.07  -0.02    -0.02  -0.01   0.00     0.01   0.01  -0.01
  42   6     0.06  -0.06  -0.04    -0.01   0.01   0.04     0.04  -0.03  -0.00
  43   6     0.01  -0.14  -0.00     0.02   0.03   0.03     0.03  -0.03   0.00
  44   6    -0.12  -0.06  -0.04     0.02   0.05   0.01    -0.05   0.01  -0.04
  45   6    -0.12   0.02  -0.01    -0.00   0.04  -0.01    -0.02   0.00  -0.03
  46   6     0.01   0.03   0.00    -0.01   0.00   0.00     0.04  -0.04   0.01
  47   6     0.09  -0.03   0.27    -0.13  -0.07   0.09     0.11  -0.02  -0.27
  48   6     0.04  -0.02  -0.06     0.06   0.11  -0.10    -0.05  -0.00  -0.01
  49   6     0.06  -0.04  -0.02     0.07  -0.04   0.00    -0.04   0.06   0.05
  50   1    -0.00   0.02   0.03    -0.07  -0.01   0.05    -0.02  -0.02  -0.01
  51   1    -0.01   0.01  -0.01    -0.08   0.07  -0.00    -0.02  -0.02  -0.01
  52   1    -0.01   0.02  -0.05     0.13  -0.01   0.03     0.05  -0.03   0.08
  53   1     0.01   0.03  -0.01     0.01   0.04  -0.02    -0.00  -0.03   0.00
  54   1     0.03   0.01   0.05    -0.13   0.06  -0.10    -0.08   0.01  -0.11
  55   1     0.00  -0.01   0.03    -0.01  -0.02   0.02     0.01   0.02  -0.03
  56   1    -0.02  -0.02  -0.03     0.09  -0.08   0.06     0.07   0.01   0.06
  57   1    -0.01   0.04   0.09    -0.08  -0.01   0.10     0.01   0.03  -0.07
  58   1    -0.03  -0.05   0.02     0.02  -0.00  -0.02     0.00  -0.02  -0.02
  59   1    -0.05  -0.03  -0.02     0.03  -0.02  -0.00     0.01  -0.03  -0.02
  60   1    -0.05   0.06  -0.01     0.02   0.00   0.02     0.01   0.03   0.01
  61   1     0.01   0.05  -0.04    -0.00   0.01   0.03     0.01   0.02   0.00
  62   1    -0.02   0.02   0.06     0.01   0.00  -0.03    -0.01   0.04   0.03
  63   1    -0.05   0.04   0.02     0.03   0.01   0.00    -0.03   0.03   0.00
  64   1    -0.05  -0.04  -0.04     0.03  -0.01   0.01    -0.02  -0.05  -0.04
  65   1    -0.01  -0.02  -0.05     0.01  -0.02   0.01    -0.01  -0.01  -0.03
  66   1     0.10   0.04  -0.08     0.03   0.01  -0.13    -0.02   0.01   0.23
  67   1    -0.02   0.00  -0.05    -0.01   0.01   0.02    -0.01   0.00  -0.02
  68   1    -0.06  -0.02  -0.04     0.01   0.02   0.01    -0.04   0.01  -0.03
  69   1    -0.00  -0.06   0.03     0.02   0.02  -0.00     0.01  -0.03   0.01
  70   1    -0.00  -0.02   0.06     0.01   0.01  -0.02     0.02  -0.02   0.03
  71   1     0.04  -0.03  -0.03    -0.00   0.00   0.02     0.02  -0.01  -0.00
  72   1     0.02  -0.07   0.00     0.01   0.01   0.02     0.02  -0.02   0.00
  73   1    -0.06  -0.02  -0.02     0.01   0.02   0.00    -0.03   0.02  -0.02
  74   1    -0.06   0.02   0.01     0.00   0.01  -0.01    -0.01   0.01  -0.01
  75   1     0.02  -0.02   0.10    -0.05  -0.03   0.05     0.05  -0.01  -0.15
  76   1     0.02  -0.00  -0.02     0.05   0.05  -0.04    -0.02  -0.01  -0.01
  77   1     0.02  -0.02  -0.00     0.06  -0.02   0.01    -0.00   0.03   0.02
                     25                     26                     27
                        a                      a                      a 
 Frequencies --   237.5613               238.9616               244.7310
 Red. masses --    11.1571                11.7435                10.4779
 Frc consts  --     0.0000                 0.0000                 0.0000
 IR Inten    --     1.7013                25.6054                 7.7893
 Raman Activ --     0.0000                 0.0000                 0.0000
 Depolar     --     0.0000                 0.0000                 0.0000
 Atom AN      X      Y      Z        X      Y      Z        X      Y      Z
   1   7    -0.05  -0.16  -0.16    -0.25   0.01   0.04    -0.02  -0.00  -0.01
   2   6     0.06   0.16   0.17    -0.21   0.04   0.08    -0.01   0.01   0.02
   3   6     0.08   0.21   0.21    -0.19   0.04   0.08    -0.01   0.01   0.02
   4   6    -0.01   0.01   0.04    -0.13  -0.02   0.07    -0.02  -0.00   0.01
   5   6    -0.08  -0.22  -0.19    -0.12  -0.05   0.03    -0.02  -0.01  -0.01
   6   6    -0.07  -0.18  -0.18    -0.03  -0.02  -0.03    -0.00  -0.01  -0.02
   7   7     0.00   0.01   0.02     0.05   0.01  -0.02     0.00   0.00  -0.01
   8   6     0.00   0.04   0.11     0.08   0.04  -0.01     0.01   0.01  -0.01
   9   6     0.00  -0.02   0.11     0.11   0.10  -0.00     0.01   0.02  -0.02
  10   6    -0.04  -0.05  -0.01     0.08   0.12  -0.04     0.01   0.03  -0.01
  11   6    -0.03  -0.02  -0.08     0.06   0.14  -0.09     0.02   0.02  -0.00
  12   6     0.07   0.02   0.00     0.10   0.09  -0.05     0.02   0.02  -0.00
  13   6     0.06   0.05   0.10     0.13   0.07  -0.02     0.01   0.01  -0.02
  14   6     0.07   0.05  -0.02     0.10  -0.01  -0.05     0.01   0.00   0.05
  15   6     0.00   0.03   0.22     0.16  -0.09  -0.22     0.00  -0.00   0.06
  16   6     0.02   0.02  -0.01     0.10  -0.12  -0.11     0.00  -0.01   0.03
  17   7     0.03  -0.02  -0.00     0.08  -0.21  -0.04     0.02  -0.01  -0.01
  18   6     0.03  -0.02   0.00     0.06  -0.13   0.01     0.01  -0.03  -0.01
  19   6    -0.00  -0.01   0.02    -0.07  -0.03   0.07     0.00  -0.02  -0.01
  20   6    -0.02   0.01   0.00    -0.16   0.15   0.07    -0.01   0.03   0.01
  21   6    -0.02   0.01  -0.02    -0.13   0.00  -0.05     0.00   0.02   0.00
  22   6     0.00  -0.00  -0.02    -0.02  -0.12  -0.11     0.01  -0.02  -0.02
  23   6     0.02  -0.01  -0.00     0.06  -0.05   0.01     0.02  -0.03  -0.01
  24   8     0.04   0.03   0.02     0.06   0.23   0.15     0.02   0.02   0.00
  25   6     0.02   0.00   0.01     0.05   0.01   0.06     0.02   0.03   0.01
  26   6    -0.00  -0.02   0.01    -0.02  -0.09   0.04    -0.00   0.02   0.02
  27   6    -0.03  -0.01  -0.00    -0.06  -0.08   0.01    -0.02  -0.02  -0.02
  28   6    -0.02   0.02  -0.01    -0.06   0.07   0.04    -0.02  -0.01  -0.03
  29   6     0.01   0.02  -0.02     0.00   0.05   0.02    -0.00   0.03  -0.01
  30   6     0.03   0.00   0.00     0.04  -0.06   0.02     0.01   0.02  -0.00
  31   6     0.04   0.06  -0.21     0.11  -0.11  -0.09     0.00  -0.01   0.03
  32   6     0.01   0.08  -0.14     0.09  -0.06   0.03     0.00  -0.01   0.02
  33   7    -0.09   0.13  -0.03     0.08  -0.05   0.05    -0.02  -0.01  -0.01
  34   6    -0.03   0.06   0.02     0.05  -0.03   0.03    -0.24   0.16  -0.16
  35   6     0.02   0.00   0.04     0.01  -0.00  -0.00    -0.18   0.12  -0.11
  36   6     0.03  -0.03   0.07    -0.04   0.03  -0.03     0.17  -0.14   0.11
  37   6    -0.06   0.02   0.03    -0.00  -0.01   0.00     0.16  -0.11   0.09
  38   6    -0.07   0.05   0.02     0.03  -0.03   0.03    -0.18   0.14  -0.13
  39   6     0.00   0.02   0.05     0.02  -0.01   0.01    -0.22   0.16  -0.15
  40   8     0.13  -0.05   0.13    -0.07   0.08  -0.05    -0.00  -0.05   0.00
  41   6     0.01   0.04   0.02    -0.01   0.01  -0.01     0.20  -0.18   0.14
  42   6    -0.07   0.01  -0.07     0.02  -0.02   0.01     0.17  -0.14   0.12
  43   6    -0.09  -0.09  -0.03     0.02  -0.03   0.00    -0.14   0.14  -0.09
  44   6    -0.02  -0.14   0.07    -0.03   0.02  -0.02    -0.15   0.14  -0.11
  45   6    -0.05  -0.03   0.09    -0.02   0.02  -0.00     0.16  -0.14   0.09
  46   6    -0.03   0.08   0.02     0.02   0.00   0.01     0.19  -0.19   0.13
  47   6     0.09   0.10  -0.23     0.10  -0.04   0.11     0.01  -0.00   0.04
  48   6    -0.05  -0.21  -0.19    -0.11   0.02  -0.04    -0.01  -0.01  -0.02
  49   6     0.04   0.03   0.04    -0.12   0.04   0.01    -0.00  -0.00   0.00
  50   1    -0.01   0.00   0.02    -0.03  -0.00   0.01    -0.01  -0.00   0.00
  51   1    -0.04  -0.10  -0.09    -0.05  -0.00   0.00    -0.01  -0.00  -0.00
  52   1    -0.01  -0.02   0.05     0.05   0.03  -0.00     0.00   0.01  -0.01
  53   1    -0.02  -0.03  -0.01     0.02   0.03  -0.02     0.00   0.01  -0.00
  54   1    -0.02  -0.01  -0.05     0.00   0.05  -0.04     0.01   0.01   0.00
  55   1     0.04   0.01  -0.01     0.02   0.02  -0.01     0.01   0.00   0.00
  56   1     0.02   0.03   0.03     0.04   0.03  -0.00     0.00   0.00  -0.01
  57   1    -0.01   0.00   0.13     0.07  -0.03  -0.09     0.00  -0.00   0.02
  58   1    -0.00  -0.00   0.01    -0.03  -0.02   0.04    -0.00  -0.01  -0.00
  59   1    -0.01   0.01   0.00    -0.07   0.10   0.04    -0.00   0.02   0.01
  60   1    -0.01   0.00  -0.01    -0.05   0.01  -0.03    -0.00   0.01   0.00
  61   1     0.00   0.00  -0.01     0.01  -0.04  -0.07     0.00  -0.01  -0.01
  62   1    -0.00  -0.01   0.01    -0.01  -0.04   0.03    -0.00   0.00   0.01
  63   1    -0.01  -0.01  -0.00    -0.03  -0.04  -0.00    -0.01  -0.01  -0.01
  64   1    -0.01   0.01  -0.00    -0.02   0.05   0.02    -0.01  -0.01  -0.01
  65   1     0.00   0.01  -0.01     0.00   0.03  -0.01    -0.00   0.01  -0.01
  66   1     0.01   0.02  -0.08     0.03  -0.03  -0.03     0.00  -0.00   0.00
  67   1     0.01  -0.00   0.01     0.00   0.00  -0.01    -0.06   0.04  -0.03
  68   1     0.03  -0.03   0.03    -0.03   0.02  -0.02     0.13  -0.09   0.08
  69   1    -0.03   0.01   0.00    -0.00  -0.00   0.00     0.11  -0.09   0.07
  70   1    -0.03   0.02   0.01     0.01  -0.01   0.01    -0.06   0.05  -0.05
  71   1    -0.01   0.01  -0.05     0.01  -0.01   0.00     0.06  -0.05   0.05
  72   1    -0.03  -0.03  -0.02     0.01  -0.01   0.01    -0.11   0.10  -0.07
  73   1     0.00  -0.07   0.04    -0.02   0.01  -0.01    -0.10   0.10  -0.07
  74   1    -0.02  -0.01   0.05    -0.01   0.01   0.00     0.06  -0.05   0.03
  75   1     0.03   0.04  -0.09     0.02  -0.02   0.07     0.01  -0.00   0.01
  76   1    -0.02  -0.10  -0.09    -0.05  -0.01  -0.00    -0.00  -0.01  -0.01
  77   1     0.02   0.01   0.02    -0.02   0.01   0.01     0.00   0.00   0.00
                     28                     29                     30
                        a                      a                      a 
 Frequencies --   246.4545               249.3056               262.8718
 Red. masses --    10.5809                11.6751                11.8708
 Frc consts  --     0.0000                 0.0000                 0.0000
 IR Inten    --     4.8051                 3.2540                 7.4654
 Raman Activ --     0.0000                 0.0000                 0.0000
 Depolar     --     0.0000                 0.0000                 0.0000
 Atom AN      X      Y      Z        X      Y      Z        X      Y      Z
   1   7     0.04   0.02   0.02     0.02   0.01   0.06     0.06  -0.05  -0.06
   2   6     0.02  -0.02  -0.04    -0.01  -0.01  -0.08     0.09   0.04   0.03
   3   6     0.01  -0.03  -0.04    -0.02  -0.02  -0.08     0.08   0.05   0.04
   4   6     0.02  -0.00  -0.02     0.04  -0.01  -0.04     0.03  -0.00  -0.02
   5   6     0.03   0.03   0.03     0.07   0.01   0.07     0.01  -0.05  -0.06
   6   6     0.01   0.02   0.04     0.02   0.00   0.11    -0.01  -0.03  -0.02
   7   7    -0.01  -0.00   0.00     0.00   0.00   0.05    -0.00   0.05   0.07
   8   6    -0.01  -0.02   0.01    -0.02   0.01   0.06    -0.05   0.09   0.05
   9   6    -0.01  -0.03   0.01    -0.03  -0.02   0.06    -0.10   0.07   0.01
  10   6    -0.01  -0.03   0.01    -0.01  -0.05   0.03    -0.04   0.02  -0.02
  11   6    -0.02  -0.03   0.01    -0.01  -0.03  -0.02     0.09   0.03   0.00
  12   6    -0.02  -0.02   0.01    -0.01   0.01  -0.02     0.06   0.09  -0.03
  13   6    -0.02  -0.02   0.01    -0.00   0.03   0.04    -0.03   0.14  -0.03
  14   6    -0.02  -0.01  -0.07     0.00  -0.01  -0.27    -0.05   0.00   0.04
  15   6    -0.02   0.01  -0.05     0.01   0.01  -0.26    -0.12  -0.01   0.24
  16   6    -0.00   0.02  -0.05     0.06   0.04  -0.21    -0.06   0.00   0.04
  17   7    -0.00   0.06   0.03    -0.01   0.14   0.09    -0.06  -0.06  -0.05
  18   6     0.02  -0.25  -0.08     0.01   0.13   0.11    -0.06  -0.10  -0.08
  19   6     0.01  -0.22  -0.07    -0.05   0.03   0.10     0.02  -0.03  -0.09
  20   6    -0.01   0.17   0.08    -0.08  -0.13  -0.01     0.09   0.07   0.03
  21   6    -0.02   0.20   0.08    -0.09  -0.03  -0.01     0.09   0.01   0.06
  22   6     0.01  -0.21  -0.08    -0.05   0.11   0.04     0.01  -0.09   0.03
  23   6     0.02  -0.26  -0.09    -0.01   0.07   0.06    -0.06  -0.05  -0.04
  24   8     0.02  -0.08  -0.02     0.01  -0.20  -0.03    -0.11   0.16   0.02
  25   6    -0.00   0.28   0.12    -0.02  -0.06   0.01    -0.06   0.01  -0.03
  26   6     0.00   0.26   0.11     0.02  -0.01   0.02     0.02  -0.02  -0.07
  27   6     0.02  -0.19  -0.07     0.05   0.04   0.08     0.07   0.00  -0.03
  28   6     0.03  -0.24  -0.08     0.06  -0.05   0.07     0.05   0.05   0.03
  29   6     0.01   0.22   0.11     0.02  -0.08   0.05    -0.02  -0.02   0.02
  30   6    -0.00   0.32   0.14    -0.02   0.01   0.06    -0.06  -0.04  -0.04
  31   6     0.02   0.02  -0.10     0.16   0.05  -0.44    -0.03   0.01  -0.06
  32   6    -0.01   0.01  -0.06     0.07   0.00  -0.20    -0.02  -0.03  -0.03
  33   7    -0.02   0.01  -0.00     0.09  -0.07   0.09     0.11  -0.15   0.09
  34   6    -0.00  -0.01   0.02     0.01  -0.01   0.06     0.11  -0.16   0.10
  35   6     0.00   0.00   0.03    -0.03   0.06   0.05     0.03  -0.04   0.08
  36   6     0.01   0.03   0.02    -0.00   0.07   0.06    -0.11   0.16  -0.06
  37   6     0.00   0.03   0.00     0.04   0.02   0.07     0.03   0.06  -0.02
  38   6     0.01   0.01  -0.00     0.00   0.02   0.02     0.15  -0.10   0.05
  39   6     0.00  -0.02   0.01    -0.04   0.01   0.02     0.03  -0.09   0.02
  40   8     0.01  -0.02   0.02    -0.12   0.11  -0.03    -0.34   0.17  -0.21
  41   6    -0.02   0.01  -0.00     0.03  -0.02   0.05     0.01  -0.08   0.03
  42   6    -0.03   0.01  -0.01     0.04  -0.08   0.03     0.10  -0.09   0.12
  43   6    -0.01  -0.02   0.01    -0.07  -0.06  -0.00     0.00   0.06   0.02
  44   6     0.01  -0.02   0.02    -0.13  -0.00  -0.01    -0.11   0.15  -0.08
  45   6    -0.02   0.00   0.01    -0.03  -0.03   0.09     0.06  -0.05   0.00
  46   6    -0.02   0.02  -0.00     0.08  -0.03   0.10     0.11  -0.16   0.08
  47   6    -0.02   0.00  -0.08     0.02  -0.02  -0.22    -0.02  -0.02  -0.12
  48   6     0.02   0.03   0.04    -0.01   0.02   0.10     0.01  -0.08  -0.04
  49   6     0.00   0.00   0.00    -0.04   0.02   0.01     0.04  -0.02   0.00
  50   1     0.01  -0.00  -0.01     0.02  -0.01  -0.03     0.00  -0.01  -0.00
  51   1     0.02   0.01   0.01     0.04   0.00   0.03     0.00  -0.03  -0.03
  52   1    -0.00  -0.01   0.01    -0.02  -0.01   0.02    -0.04   0.02   0.01
  53   1    -0.00  -0.01   0.01    -0.00  -0.03   0.01    -0.02  -0.01  -0.01
  54   1    -0.01  -0.01   0.00    -0.01  -0.01  -0.02     0.05  -0.00   0.01
  55   1    -0.01  -0.01   0.00    -0.00   0.01  -0.02     0.03   0.03  -0.01
  56   1    -0.00  -0.01   0.00     0.00   0.02   0.01    -0.02   0.07  -0.02
  57   1    -0.01   0.00  -0.00    -0.02   0.01  -0.03    -0.05  -0.00   0.12
  58   1     0.00  -0.08  -0.02    -0.02  -0.00   0.04     0.01   0.00  -0.04
  59   1    -0.01   0.13   0.05    -0.03  -0.09  -0.02     0.04   0.06   0.02
  60   1    -0.01   0.14   0.06    -0.03  -0.03  -0.02     0.03   0.02   0.03
  61   1     0.00  -0.07  -0.03    -0.01   0.04   0.00    -0.01  -0.04   0.03
  62   1     0.00   0.09   0.03     0.01  -0.00  -0.01     0.01  -0.00  -0.04
  63   1     0.01  -0.14  -0.06     0.02   0.03   0.03     0.03   0.00  -0.01
  64   1     0.01  -0.17  -0.06     0.02  -0.02   0.02     0.02   0.03   0.03
  65   1     0.00   0.07   0.04     0.00  -0.04   0.02    -0.01  -0.01   0.02
  66   1     0.00   0.01  -0.03     0.05   0.02  -0.13     0.00   0.01  -0.03
  67   1    -0.00   0.00   0.01    -0.02   0.02   0.01    -0.00  -0.01   0.04
  68   1     0.00   0.01   0.01    -0.01   0.03   0.01    -0.08   0.10  -0.05
  69   1    -0.00   0.01  -0.00     0.03   0.00   0.02     0.00   0.04  -0.02
  70   1     0.00   0.00  -0.01     0.00   0.01  -0.01     0.06  -0.04   0.00
  71   1    -0.01   0.00  -0.00     0.02  -0.02  -0.00     0.03  -0.03   0.06
  72   1     0.00  -0.01   0.01    -0.03  -0.02  -0.01    -0.01   0.03   0.00
  73   1     0.01  -0.01   0.01    -0.07   0.01  -0.02    -0.08   0.09  -0.06
  74   1    -0.01   0.00   0.00    -0.02  -0.00   0.03     0.02  -0.01  -0.01
  75   1    -0.01  -0.00  -0.01    -0.01  -0.02  -0.01     0.00  -0.01  -0.06
  76   1     0.01   0.01   0.02    -0.01   0.01   0.04     0.00  -0.03  -0.03
  77   1    -0.00   0.00  -0.00    -0.03   0.01   0.00     0.00  -0.00  -0.00
                     31                     32                     33
                        a                      a                      a 
 Frequencies --   265.9512               268.5523               294.9150
 Red. masses --    10.7323                11.5764                11.2677
 Frc consts  --     0.0000                 0.0000                 0.0000
 IR Inten    --     2.8448                11.6701                 6.9370
 Raman Activ --     0.0000                 0.0000                 0.0000
 Depolar     --     0.0000                 0.0000                 0.0000
 Atom AN      X      Y      Z        X      Y      Z        X      Y      Z
   1   7    -0.05   0.08   0.10    -0.07  -0.07  -0.03     0.13   0.03  -0.07
   2   6    -0.10  -0.08  -0.08    -0.02   0.10   0.07     0.13  -0.07   0.02
   3   6    -0.10  -0.08  -0.09    -0.01   0.10   0.08     0.11  -0.05  -0.00
   4   6    -0.03  -0.02  -0.02     0.01  -0.02   0.01    -0.03   0.04  -0.02
   5   6     0.02   0.12   0.12    -0.01  -0.13  -0.03    -0.06   0.12  -0.11
   6   6     0.04   0.09   0.09     0.01  -0.07   0.01    -0.07   0.07  -0.14
   7   7     0.01  -0.01  -0.03     0.05   0.02   0.08    -0.08   0.05  -0.01
   8   6    -0.01  -0.02  -0.09     0.01   0.08   0.00    -0.09   0.09   0.16
   9   6    -0.01   0.02  -0.10    -0.01   0.14  -0.03    -0.12  -0.05   0.16
  10   6    -0.01   0.05  -0.03     0.02   0.12  -0.05    -0.07  -0.15   0.06
  11   6     0.03   0.02   0.05     0.13   0.13  -0.02    -0.04  -0.10  -0.03
  12   6    -0.02  -0.02   0.02     0.10   0.12  -0.06     0.00   0.04  -0.01
  13   6    -0.04  -0.03  -0.07     0.04   0.14  -0.08    -0.04   0.12   0.13
  14   6     0.03  -0.03  -0.03     0.00  -0.03   0.07    -0.06   0.04  -0.04
  15   6    -0.06  -0.06   0.37     0.00  -0.08   0.01    -0.00   0.10  -0.18
  16   6     0.03  -0.04   0.11    -0.00  -0.09  -0.00     0.03   0.12  -0.03
  17   7     0.09  -0.04  -0.00     0.01   0.07   0.03     0.05   0.12   0.06
  18   6     0.10  -0.02   0.02    -0.00   0.15   0.07     0.11  -0.06   0.06
  19   6     0.02  -0.01   0.05    -0.01   0.09   0.04    -0.00  -0.12   0.07
  20   6    -0.05   0.01  -0.02    -0.00  -0.15  -0.05    -0.11   0.05   0.05
  21   6    -0.03   0.01  -0.07     0.00  -0.04  -0.02    -0.09   0.07  -0.02
  22   6     0.04   0.04  -0.07     0.00   0.15   0.05     0.03  -0.07  -0.10
  23   6     0.11   0.01   0.00     0.01   0.07   0.03     0.13  -0.05   0.03
  24   8     0.18   0.05   0.04     0.04  -0.30  -0.13     0.18   0.11   0.12
  25   6     0.13  -0.03   0.01     0.03   0.07   0.03     0.10  -0.07   0.01
  26   6    -0.03  -0.06   0.05    -0.00   0.14   0.07     0.00  -0.13   0.03
  27   6    -0.14   0.01  -0.02    -0.01  -0.04  -0.02    -0.06   0.06   0.05
  28   6    -0.12   0.06  -0.08    -0.02  -0.13  -0.07    -0.05   0.07  -0.00
  29   6     0.03   0.03  -0.13    -0.00   0.10   0.02     0.05  -0.08  -0.09
  30   6     0.14  -0.03  -0.03     0.01   0.15   0.05     0.10  -0.06  -0.03
  31   6     0.03  -0.04   0.02     0.02  -0.11  -0.03     0.01   0.11  -0.01
  32   6     0.04  -0.04  -0.11    -0.01  -0.10   0.03    -0.03  -0.00   0.02
  33   7    -0.03  -0.05   0.00    -0.07  -0.09  -0.03    -0.00  -0.07   0.01
  34   6    -0.07  -0.06   0.03    -0.09  -0.11  -0.00    -0.09  -0.08   0.00
  35   6    -0.05   0.02   0.09    -0.05  -0.01   0.09    -0.08  -0.01   0.05
  36   6     0.04   0.08   0.08     0.06   0.09   0.05     0.04   0.05   0.05
  37   6     0.05   0.09   0.02     0.09   0.10  -0.04     0.07   0.04  -0.01
  38   6     0.01   0.01  -0.04     0.04  -0.01  -0.10     0.01  -0.01  -0.08
  39   6    -0.05  -0.07   0.01    -0.06  -0.13  -0.04    -0.08  -0.10  -0.03
  40   8    -0.05  -0.11   0.03    -0.07  -0.22  -0.02    -0.08  -0.20  -0.03
  41   6    -0.06  -0.03   0.00    -0.12  -0.09  -0.04    -0.09  -0.09  -0.05
  42   6    -0.08   0.02   0.02    -0.08   0.04   0.08    -0.06   0.02   0.05
  43   6    -0.01  -0.00   0.05     0.07   0.11   0.08     0.05   0.07   0.05
  44   6     0.02  -0.02   0.04     0.12   0.09   0.01     0.08   0.06  -0.02
  45   6    -0.03  -0.01  -0.02     0.02   0.00  -0.13     0.01  -0.01  -0.12
  46   6    -0.05  -0.03  -0.01    -0.11  -0.08  -0.09    -0.07  -0.09  -0.08
  47   6     0.14  -0.02  -0.43    -0.01  -0.07   0.15    -0.08  -0.00   0.11
  48   6     0.00   0.14   0.10    -0.06  -0.11  -0.04     0.08   0.04  -0.09
  49   6    -0.04   0.06   0.01    -0.05  -0.01  -0.00     0.13  -0.02   0.00
  50   1    -0.00  -0.01  -0.02     0.01  -0.01  -0.01    -0.04   0.01   0.03
  51   1     0.01   0.06   0.05    -0.01  -0.06  -0.02    -0.02   0.05  -0.03
  52   1     0.00   0.01  -0.03    -0.00   0.04  -0.02    -0.07  -0.03   0.07
  53   1     0.00   0.03  -0.01    -0.00   0.02  -0.02    -0.03  -0.07   0.02
  54   1     0.02   0.01   0.04     0.06   0.03   0.00    -0.01  -0.04  -0.04
  55   1    -0.01  -0.01   0.02     0.03   0.03  -0.01     0.02   0.03  -0.03
  56   1    -0.02  -0.02  -0.02     0.00   0.06  -0.03    -0.01   0.06   0.04
  57   1    -0.05  -0.02   0.18     0.01  -0.03   0.00    -0.01   0.04  -0.08
  58   1    -0.00  -0.01   0.04    -0.00   0.03   0.02    -0.01  -0.06   0.04
  59   1    -0.03   0.00  -0.00     0.00  -0.10  -0.04    -0.06   0.04   0.03
  60   1    -0.02   0.01  -0.03     0.00  -0.04  -0.02    -0.04   0.05  -0.01
  61   1     0.02   0.02  -0.04     0.00   0.05   0.02     0.02  -0.02  -0.07
  62   1    -0.02  -0.03   0.05    -0.00   0.04   0.03    -0.00  -0.06   0.03
  63   1    -0.06   0.01   0.00    -0.01  -0.03  -0.02    -0.03   0.05   0.03
  64   1    -0.05   0.04  -0.04    -0.01  -0.09  -0.05    -0.03   0.06  -0.00
  65   1     0.02   0.02  -0.07     0.00   0.03   0.00     0.02  -0.03  -0.05
  66   1     0.00  -0.01   0.01     0.01  -0.03  -0.03     0.01   0.04   0.00
  67   1    -0.03   0.01   0.05    -0.03   0.00   0.06    -0.04   0.00   0.04
  68   1     0.02   0.03   0.03     0.03   0.05   0.03     0.02   0.03   0.03
  69   1     0.03   0.04   0.00     0.04   0.05  -0.02     0.04   0.02  -0.01
  70   1     0.02  -0.00  -0.04     0.03  -0.01  -0.07     0.01  -0.01  -0.05
  71   1    -0.03   0.01   0.01    -0.05   0.01   0.06    -0.04   0.01   0.05
  72   1     0.00  -0.00   0.02     0.04   0.04   0.05     0.03   0.03   0.03
  73   1     0.02  -0.01   0.02     0.07   0.03   0.00     0.05   0.03  -0.01
  74   1    -0.01   0.00  -0.02     0.03  -0.01  -0.07     0.02  -0.01  -0.06
  75   1     0.06   0.01  -0.21    -0.01  -0.02   0.06    -0.03  -0.01   0.07
  76   1    -0.00   0.05   0.04    -0.04  -0.05  -0.02     0.06   0.04  -0.04
  77   1    -0.01   0.03   0.01    -0.02  -0.01  -0.01     0.05  -0.00   0.01
                     34                     35                     36
                        a                      a                      a 
 Frequencies --   300.7504               318.8604               331.7352
 Red. masses --    11.4749                10.9809                11.5513
 Frc consts  --     0.0000                 0.0000                 0.0000
[...]
                    217                    218                    219
                        a                      a                      a 
 Frequencies --  3110.1461              3110.3142              3110.5276
 Red. masses --     1.8602                 1.8629                 1.8657
 Frc consts  --     0.0000                 0.0000                 0.0000
 IR Inten    --    30.9233                59.8804               177.4673
 Raman Activ --     0.0000                 0.0000                 0.0000
 Depolar     --     0.0000                 0.0000                 0.0000
 Atom AN      X      Y      Z        X      Y      Z        X      Y      Z
   1   7     0.00  -0.00  -0.00    -0.00   0.00   0.00    -0.00   0.00   0.00
   2   6    -0.00   0.00   0.00     0.00  -0.00  -0.00     0.00  -0.00  -0.00
   3   6     0.00   0.00  -0.00    -0.00  -0.00   0.00    -0.00   0.00   0.00
   4   6    -0.00  -0.00   0.00    -0.00   0.00  -0.00    -0.00   0.00  -0.00
   5   6     0.00   0.00  -0.00     0.00   0.00  -0.00     0.00   0.00  -0.00
   6   6    -0.00  -0.00   0.00    -0.00   0.00  -0.00    -0.00  -0.00   0.00
   7   7    -0.00   0.00  -0.00     0.00   0.00  -0.00     0.00  -0.00  -0.00
   8   6     0.00   0.00  -0.00     0.00   0.00   0.00     0.00   0.00   0.00
   9   6    -0.00   0.00   0.00    -0.00   0.00   0.00    -0.00  -0.00  -0.00
  10   6    -0.00   0.00   0.00     0.00   0.00  -0.00     0.00   0.00  -0.00
  11   6     0.00   0.00  -0.00     0.00   0.00  -0.00     0.00   0.00  -0.00
  12   6    -0.00   0.00   0.00    -0.00   0.00   0.00    -0.00   0.00   0.00
  13   6     0.00  -0.00  -0.00    -0.00   0.00   0.00     0.00  -0.00  -0.00
  14   6    -0.00  -0.00  -0.00     0.00  -0.00   0.00     0.00  -0.00  -0.00
  15   6     0.00   0.00   0.00     0.00   0.00  -0.00    -0.00  -0.00  -0.00
  16   6     0.00   0.00  -0.00    -0.00   0.00  -0.00    -0.00  -0.00  -0.00
  17   7    -0.00  -0.00  -0.00    -0.00  -0.00  -0.00    -0.00   0.00  -0.00
  18   6     0.00   0.00  -0.00    -0.00  -0.00   0.00     0.00  -0.00   0.00
  19   6     0.04  -0.00   0.01     0.01  -0.00   0.00    -0.01   0.00  -0.00
  20   6    -0.00   0.00  -0.00    -0.00   0.00  -0.00    -0.00   0.00  -0.00
  21   6     0.03   0.01  -0.02     0.01   0.00  -0.01     0.00   0.00  -0.00
  22   6     0.05  -0.00   0.02     0.02  -0.00   0.01     0.01  -0.00   0.00
  23   6     0.00  -0.00   0.00     0.00  -0.00   0.00    -0.00   0.00  -0.00
  24   8    -0.00   0.00  -0.00    -0.00   0.00  -0.00     0.00  -0.00   0.00
  25   6    -0.00  -0.00   0.00    -0.00  -0.00   0.00    -0.00   0.00  -0.00
  26   6    -0.12   0.01  -0.03    -0.11   0.01  -0.02     0.03  -0.00   0.01
  27   6    -0.02   0.03  -0.07    -0.02   0.03  -0.07     0.01  -0.01   0.02
  28   6    -0.01  -0.01   0.01    -0.01  -0.00   0.01    -0.00  -0.00   0.00
  29   6    -0.12   0.01  -0.03    -0.11   0.01  -0.02     0.02  -0.00   0.00
  30   6    -0.00   0.00  -0.00    -0.00   0.00  -0.00     0.00  -0.00   0.00
  31   6    -0.00   0.01  -0.00    -0.01   0.01  -0.00     0.00  -0.00   0.00
  32   6     0.00  -0.00  -0.00     0.00   0.00   0.00     0.00  -0.00   0.00
  33   7    -0.00   0.00   0.00     0.00   0.00   0.00     0.00   0.00   0.00
  34   6     0.00  -0.00  -0.00    -0.00   0.00   0.00    -0.00   0.00   0.00
  35   6    -0.03  -0.05  -0.01     0.05   0.08   0.01     0.06   0.09   0.01
  36   6    -0.00   0.00   0.00     0.00  -0.00  -0.00    -0.00  -0.00  -0.00
  37   6     0.01  -0.03  -0.04    -0.01   0.04   0.07    -0.01   0.05   0.08
  38   6    -0.04  -0.06  -0.01     0.06   0.09   0.01     0.08   0.11   0.02
  39   6    -0.00  -0.00   0.00     0.00   0.00  -0.00     0.00  -0.00  -0.00
  40   8     0.00  -0.00  -0.00    -0.00   0.00   0.00     0.00   0.00   0.00
  41   6    -0.00   0.00   0.00     0.00  -0.00  -0.00    -0.00   0.00   0.00
  42   6     0.05   0.08   0.02    -0.05  -0.07  -0.02     0.07   0.11   0.03
  43   6     0.05   0.02  -0.05    -0.05  -0.02   0.05     0.07   0.03  -0.06
  44   6    -0.00  -0.00  -0.00    -0.00   0.00   0.01     0.00  -0.00  -0.01
  45   6     0.05   0.07   0.02    -0.03  -0.05  -0.01     0.05   0.08   0.02
  46   6     0.00   0.00  -0.00    -0.00  -0.00   0.00     0.00   0.00  -0.00
  47   6    -0.00   0.00  -0.00     0.00  -0.00   0.00    -0.00   0.00  -0.00
  48   6     0.00  -0.00   0.00    -0.00   0.00  -0.00     0.00  -0.00   0.00
  49   6    -0.00  -0.00   0.00     0.00   0.00  -0.00    -0.00  -0.00   0.00
  50   1    -0.00   0.00  -0.00     0.00  -0.00   0.00     0.00  -0.00   0.00
  51   1    -0.00  -0.00   0.00    -0.00  -0.00   0.00    -0.00  -0.00   0.00
  52   1     0.00  -0.00  -0.00    -0.00  -0.00  -0.00    -0.00   0.00   0.00
  53   1    -0.00   0.00   0.00    -0.00   0.00   0.00    -0.00   0.00   0.00
  54   1    -0.00  -0.00   0.00    -0.00  -0.00   0.00    -0.00  -0.00   0.00
  55   1     0.00  -0.00  -0.00     0.00  -0.00  -0.00     0.00  -0.00  -0.00
  56   1    -0.00   0.00   0.00     0.00  -0.00  -0.00    -0.00   0.00   0.00
  57   1    -0.00  -0.00  -0.00    -0.00  -0.00  -0.00     0.01   0.02   0.00
  58   1    -0.14   0.01  -0.04    -0.04   0.00  -0.01     0.02  -0.00   0.01
  59   1     0.00  -0.00   0.01     0.00  -0.00   0.01     0.00  -0.00   0.01
  60   1    -0.09  -0.04   0.08    -0.04  -0.01   0.03    -0.01  -0.00   0.01
  61   1    -0.17   0.01  -0.05    -0.05   0.00  -0.02    -0.02   0.00  -0.01
  62   1     0.41  -0.02   0.09     0.40  -0.02   0.09    -0.10   0.01  -0.02
  63   1     0.07  -0.09   0.23     0.07  -0.09   0.23    -0.02   0.03  -0.07
  64   1     0.04   0.02  -0.04     0.03   0.01  -0.03     0.01   0.00  -0.01
  65   1     0.44  -0.03   0.10     0.39  -0.03   0.09    -0.06   0.00  -0.01
  66   1     0.01  -0.02   0.00     0.02  -0.04   0.00    -0.01   0.01  -0.00
  67   1     0.12   0.18   0.03    -0.18  -0.27  -0.05    -0.20  -0.31  -0.05
  68   1     0.00   0.00  -0.00    -0.00  -0.00   0.00     0.00   0.00  -0.00
  69   1    -0.02   0.09   0.14     0.03  -0.14  -0.22     0.04  -0.18  -0.27
  70   1     0.13   0.20   0.03    -0.21  -0.30  -0.05    -0.27  -0.40  -0.07
  71   1    -0.18  -0.28  -0.08     0.16   0.25   0.07    -0.24  -0.37  -0.10
  72   1    -0.18  -0.08   0.16     0.18   0.08  -0.16    -0.23  -0.11   0.21
  73   1    -0.00   0.00   0.01     0.00  -0.01  -0.02    -0.00   0.01   0.02
  74   1    -0.16  -0.24  -0.07     0.12   0.18   0.05    -0.18  -0.27  -0.07
  75   1     0.01  -0.00   0.00    -0.02   0.00  -0.00     0.01  -0.00   0.00
  76   1    -0.00   0.00  -0.00     0.00  -0.00   0.00    -0.01   0.01  -0.01
  77   1     0.00   0.00  -0.00    -0.00  -0.00   0.00     0.00   0.00  -0.00
                    220                    221                    222
                        a                      a                      a 
 Frequencies --  3110.6894              3114.2711              3114.4210
 Red. masses --     1.8659                 1.8982                 1.8877
 Frc consts  --     0.0000                 0.0000                 0.0000
 IR Inten    --   137.8361                88.8201                42.3042
 Raman Activ --     0.0000                 0.0000                 0.0000
 Depolar     --     0.0000                 0.0000                 0.0000
 Atom AN      X      Y      Z        X      Y      Z        X      Y      Z
   1   7     0.00  -0.00  -0.00     0.00  -0.00  -0.00    -0.00   0.00   0.00
   2   6    -0.00   0.00   0.00    -0.00   0.00   0.00     0.00  -0.00  -0.00
   3   6     0.00  -0.00  -0.00     0.00  -0.00  -0.00    -0.00   0.00   0.00
   4   6     0.00  -0.00   0.00     0.00  -0.00   0.00    -0.00   0.00  -0.00
   5   6    -0.00  -0.00   0.00     0.00  -0.00   0.00    -0.00   0.00  -0.00
   6   6     0.00   0.00  -0.00    -0.00   0.00   0.00     0.00  -0.00  -0.00
   7   7    -0.00   0.00   0.00     0.00  -0.00   0.00    -0.00   0.00   0.00
   8   6     0.00   0.00  -0.00     0.00   0.00   0.00    -0.00  -0.00  -0.00
   9   6    -0.00   0.00   0.00    -0.00   0.00   0.00     0.00  -0.00  -0.00
  10   6    -0.00   0.00   0.00    -0.00   0.00   0.00     0.00  -0.00  -0.00
  11   6    -0.00  -0.00   0.00    -0.00  -0.00   0.00     0.00   0.00  -0.00
  12   6     0.00  -0.00  -0.00     0.00  -0.00  -0.00    -0.00   0.00   0.00
  13   6     0.00  -0.00  -0.00     0.00  -0.00  -0.00    -0.00   0.00   0.00
  14   6    -0.00   0.00  -0.00     0.00  -0.00   0.00    -0.00   0.00  -0.00
  15   6    -0.00  -0.01  -0.00    -0.00  -0.00  -0.00     0.00  -0.00  -0.00
  16   6    -0.00   0.00  -0.00     0.00  -0.00   0.00    -0.00   0.00  -0.00
  17   7     0.00  -0.00   0.00     0.00   0.00   0.00     0.00  -0.00  -0.00
  18   6     0.00   0.00  -0.00    -0.00  -0.00   0.00    -0.00  -0.00   0.00
  19   6     0.12  -0.01   0.04    -0.01   0.00  -0.00    -0.02   0.00  -0.00
  20   6    -0.00   0.00  -0.01    -0.00   0.00  -0.01    -0.00   0.00  -0.01
  21   6     0.10   0.04  -0.08     0.01   0.00  -0.01     0.01   0.00  -0.01
  22   6     0.18  -0.01   0.06     0.01  -0.00   0.00     0.01  -0.00   0.01
  23   6    -0.00  -0.00   0.01     0.00  -0.00   0.00     0.00  -0.00   0.00
  24   8     0.00   0.00  -0.00    -0.00   0.00  -0.00    -0.00  -0.00   0.00
  25   6    -0.00   0.00  -0.00    -0.00  -0.00   0.00     0.00   0.00  -0.00
  26   6     0.05  -0.00   0.01    -0.10   0.00  -0.02     0.04  -0.00   0.01
  27   6     0.01  -0.01   0.02    -0.04   0.05  -0.11     0.02  -0.02   0.05
  28   6     0.00   0.00  -0.00     0.08   0.03  -0.08    -0.03  -0.01   0.03
  29   6     0.04  -0.00   0.01     0.16  -0.01   0.04    -0.05   0.00  -0.01
  30   6     0.00  -0.00   0.00     0.00  -0.00   0.00    -0.00   0.00  -0.00
  31   6    -0.00   0.00   0.00     0.01  -0.02   0.00    -0.04   0.08  -0.01
  32   6    -0.00   0.00  -0.00    -0.00  -0.00   0.00    -0.00   0.00   0.00
  33   7    -0.00  -0.00  -0.00     0.00   0.00   0.00     0.00   0.00   0.00
  34   6     0.00   0.00  -0.00    -0.00   0.00   0.00    -0.00   0.00   0.00
  35   6    -0.00  -0.00  -0.00     0.04   0.07   0.01     0.10   0.15   0.03
  36   6    -0.00  -0.00   0.01     0.03   0.01  -0.03     0.07   0.03  -0.07
  37   6    -0.00   0.01   0.01     0.01  -0.02  -0.04     0.01  -0.06  -0.09
  38   6     0.01   0.01   0.00    -0.02  -0.03  -0.00    -0.05  -0.07  -0.01
  39   6     0.00  -0.00  -0.00    -0.00  -0.00   0.00    -0.00  -0.00   0.00
  40   8    -0.00   0.00   0.00     0.00  -0.00  -0.00     0.00  -0.00  -0.00
  41   6     0.00  -0.00  -0.00     0.00   0.00   0.00     0.00   0.00   0.00
  42   6    -0.01  -0.02  -0.00     0.01   0.01   0.00    -0.00  -0.01  -0.00
  43   6    -0.01  -0.00   0.01     0.01   0.01  -0.01    -0.01  -0.00   0.01
  44   6     0.00  -0.00  -0.00     0.00  -0.01  -0.01    -0.00   0.01   0.01
  45   6    -0.01  -0.02  -0.01    -0.01  -0.01  -0.00     0.01   0.02   0.01
  46   6    -0.00   0.00   0.00    -0.00  -0.00   0.00    -0.00  -0.00  -0.00
  47   6    -0.00  -0.00  -0.00    -0.00   0.00  -0.00    -0.00  -0.00  -0.00
  48   6    -0.00   0.00  -0.00    -0.00   0.00  -0.00     0.00  -0.00   0.00
  49   6     0.00   0.00  -0.00    -0.00   0.00  -0.00    -0.00  -0.00   0.00
  50   1    -0.00   0.00  -0.00    -0.00   0.00  -0.00     0.00  -0.00   0.00
  51   1     0.00   0.00  -0.00     0.00   0.00  -0.00    -0.00  -0.00   0.00
  52   1     0.00  -0.02  -0.01     0.00  -0.00  -0.00    -0.00   0.01   0.00
  53   1     0.00  -0.00  -0.00     0.00  -0.00  -0.00    -0.00   0.00   0.01
  54   1     0.00   0.00  -0.00     0.00   0.00  -0.00    -0.00  -0.01   0.00
  55   1    -0.00   0.00   0.00    -0.00   0.00   0.00     0.00  -0.01  -0.00
  56   1    -0.00   0.00   0.00    -0.00   0.00   0.00     0.00  -0.00  -0.00
  57   1     0.01   0.02   0.00     0.01   0.01   0.00     0.00   0.01   0.00
  58   1    -0.44   0.03  -0.14     0.03  -0.00   0.01     0.05  -0.00   0.02
  59   1     0.01  -0.01   0.03     0.01  -0.01   0.03     0.01  -0.02   0.04
  60   1    -0.32  -0.13   0.27    -0.04  -0.01   0.03    -0.04  -0.02   0.03
  61   1    -0.63   0.05  -0.20    -0.03   0.00  -0.01    -0.05   0.00  -0.02
  62   1    -0.17   0.01  -0.04     0.34  -0.02   0.07    -0.14   0.01  -0.03
  63   1    -0.03   0.03  -0.08     0.12  -0.15   0.38    -0.05   0.06  -0.16
  64   1    -0.01  -0.01   0.01    -0.25  -0.10   0.24     0.10   0.04  -0.09
  65   1    -0.15   0.01  -0.03    -0.55   0.04  -0.12     0.18  -0.01   0.04
  66   1     0.00  -0.01   0.00    -0.04   0.09  -0.01     0.13  -0.27   0.02
  67   1     0.01   0.01   0.00    -0.16  -0.24  -0.04    -0.33  -0.51  -0.09
  68   1     0.02   0.01  -0.02    -0.10  -0.04   0.10    -0.23  -0.10   0.24
  69   1     0.01  -0.02  -0.04    -0.02   0.08   0.12    -0.04   0.19   0.29
  70   1    -0.03  -0.04  -0.01     0.06   0.09   0.02     0.15   0.22   0.04
  71   1     0.03   0.05   0.02    -0.03  -0.04  -0.01     0.02   0.03   0.01
  72   1     0.03   0.02  -0.03    -0.05  -0.02   0.04     0.03   0.01  -0.02
  73   1    -0.00   0.00   0.00    -0.01   0.02   0.04     0.01  -0.02  -0.04
  74   1     0.05   0.07   0.02     0.03   0.04   0.01    -0.05  -0.08  -0.02
  75   1     0.01  -0.00   0.00     0.01  -0.00   0.00     0.01  -0.00   0.00
  76   1     0.00  -0.00   0.00     0.00  -0.00   0.00    -0.01   0.01  -0.01
  77   1    -0.00  -0.00   0.00    -0.00  -0.00   0.00     0.00   0.00  -0.01
                    223                    224                    225
                        a                      a                      a 
 Frequencies --  3114.6685              3115.1687              3117.4263
 Red. masses --     1.8857                 1.8847                 1.8368
 Frc consts  --     0.0000                 0.0000                 0.0000
 IR Inten    --    56.3695                44.4449                75.1120
 Raman Activ --     0.0000                 0.0000                 0.0000
 Depolar     --     0.0000                 0.0000                 0.0000
 Atom AN      X      Y      Z        X      Y      Z        X      Y      Z
   1   7    -0.00   0.00   0.00     0.00  -0.00  -0.00     0.00  -0.00  -0.00
   2   6     0.00  -0.00  -0.00    -0.00   0.00   0.00    -0.00  -0.00   0.00
   3   6    -0.00   0.00   0.00     0.00  -0.00  -0.00    -0.00  -0.00   0.00
   4   6    -0.00   0.00  -0.00     0.00  -0.00   0.00    -0.00   0.00  -0.00
   5   6     0.00   0.00  -0.00     0.00  -0.00   0.00     0.00   0.00  -0.00
   6   6     0.00  -0.00  -0.00    -0.00   0.00   0.00    -0.00  -0.00  -0.00
   7   7    -0.00   0.00   0.00     0.00  -0.00   0.00     0.00  -0.00  -0.00
   8   6     0.00   0.00  -0.00     0.00   0.00  -0.00     0.00   0.00   0.00
   9   6     0.00  -0.00  -0.00    -0.00   0.01   0.00     0.00  -0.00  -0.00
  10   6     0.00  -0.00  -0.00    -0.00   0.00   0.00     0.00  -0.00  -0.00
  11   6     0.00   0.00  -0.00    -0.00  -0.00   0.00     0.00   0.00  -0.00
  12   6    -0.00   0.00   0.00     0.00  -0.00  -0.00    -0.00   0.00   0.00
  13   6    -0.00   0.00   0.00     0.00  -0.00  -0.00    -0.00   0.00   0.00
  14   6    -0.00   0.00  -0.00    -0.00  -0.00  -0.00    -0.00   0.00  -0.00
  15   6    -0.00  -0.00  -0.00    -0.00  -0.01  -0.00     0.00   0.01   0.00
  16   6    -0.00   0.00  -0.00     0.00  -0.00  -0.00     0.01  -0.00   0.00
  17   7     0.00  -0.00   0.00     0.00  -0.00   0.00    -0.00   0.00  -0.00
  18   6    -0.00   0.00  -0.00     0.01   0.00  -0.00    -0.00  -0.00   0.00
  19   6     0.02  -0.00   0.00     0.20  -0.01   0.06    -0.03   0.00  -0.01
  20   6     0.00  -0.00   0.01     0.03  -0.04   0.11    -0.01   0.01  -0.02
  21   6    -0.00  -0.00   0.00    -0.08  -0.03   0.06     0.02   0.01  -0.01
  22   6    -0.00   0.00  -0.00    -0.07   0.01  -0.02     0.02  -0.00   0.01
  23   6     0.00  -0.00   0.00    -0.00   0.00  -0.00     0.00  -0.00   0.00
  24   8    -0.00   0.00  -0.00    -0.00  -0.00   0.00    -0.00   0.00  -0.00
  25   6     0.00  -0.00   0.00     0.00   0.00  -0.00     0.00   0.00  -0.00
  26   6    -0.01   0.00  -0.00     0.00  -0.00   0.00     0.02  -0.00   0.00
  27   6    -0.00   0.01  -0.01     0.00  -0.00   0.00     0.01  -0.01   0.02
  28   6     0.01   0.01  -0.01    -0.00  -0.00   0.00    -0.02  -0.01   0.01
  29   6     0.04  -0.00   0.01    -0.00  -0.00   0.00    -0.04   0.00  -0.01
  30   6     0.00  -0.00   0.00    -0.00   0.00  -0.00    -0.00   0.00  -0.00
  31   6    -0.01   0.03  -0.00     0.02  -0.04   0.00     0.11  -0.23   0.02
  32   6    -0.00   0.00  -0.00    -0.00  -0.00  -0.00    -0.00  -0.01  -0.00
  33   7     0.00   0.00   0.00     0.00   0.00   0.00     0.00   0.00  -0.00
  34   6    -0.00  -0.00  -0.00    -0.00   0.00   0.00     0.00   0.00   0.00
  35   6    -0.01  -0.01  -0.00     0.02   0.03   0.01     0.02   0.04   0.01
  36   6    -0.01  -0.00   0.01     0.01   0.01  -0.01     0.02   0.01  -0.02
  37   6    -0.00   0.01   0.01     0.00  -0.01  -0.01     0.00  -0.02  -0.02
  38   6     0.01   0.01   0.00    -0.01  -0.01  -0.00    -0.01  -0.02  -0.00
  39   6     0.00   0.00  -0.00    -0.00   0.00   0.00    -0.00  -0.00   0.00
  40   8    -0.00  -0.00   0.00    -0.00  -0.00  -0.00     0.00   0.00   0.00
  41   6     0.00  -0.00  -0.00     0.00   0.00   0.00    -0.00  -0.00  -0.00
  42   6    -0.04  -0.06  -0.02     0.00   0.00   0.00    -0.01  -0.02  -0.00
  43   6    -0.08  -0.04   0.07     0.00   0.00  -0.00    -0.02  -0.01   0.01
  44   6    -0.02   0.06   0.10     0.00  -0.00  -0.00    -0.00   0.01   0.02
  45   6     0.11   0.17   0.05    -0.00  -0.00  -0.00     0.02   0.03   0.01
  46   6     0.00   0.00  -0.00    -0.00  -0.00   0.00     0.00   0.00  -0.00
  47   6    -0.01   0.00  -0.00    -0.00   0.00  -0.00    -0.01   0.00  -0.00
  48   6     0.00  -0.00   0.00    -0.00   0.00  -0.00     0.00  -0.00   0.00
  49   6    -0.00  -0.00   0.00     0.00   0.00  -0.00    -0.00  -0.00   0.00
  50   1     0.00  -0.00   0.00    -0.00   0.00  -0.00     0.00  -0.00   0.00
  51   1    -0.00  -0.00   0.00     0.00   0.00  -0.00    -0.00  -0.00   0.00
  52   1    -0.00   0.00   0.00     0.00  -0.03  -0.01     0.00   0.00   0.00
  53   1    -0.00   0.00   0.00     0.01  -0.00  -0.01    -0.00   0.00   0.00
  54   1    -0.00  -0.00   0.00     0.00   0.01  -0.00    -0.00  -0.00   0.00
  55   1     0.00  -0.00  -0.00    -0.00   0.00   0.00     0.00  -0.00  -0.00
  56   1    -0.00  -0.00   0.00    -0.00   0.00   0.00     0.01  -0.00  -0.01
  57   1     0.01   0.01   0.00     0.01   0.02   0.01    -0.03  -0.04  -0.01
  58   1    -0.06   0.00  -0.02    -0.71   0.04  -0.22     0.11  -0.01   0.03
  59   1    -0.00   0.01  -0.02    -0.09   0.13  -0.34     0.02  -0.02   0.06
  60   1     0.01   0.00  -0.01     0.25   0.10  -0.21    -0.06  -0.02   0.05
  61   1     0.01  -0.00   0.00     0.24  -0.02   0.08    -0.06   0.00  -0.02
  62   1     0.04  -0.00   0.01    -0.00   0.00  -0.00    -0.06   0.00  -0.01
  63   1     0.02  -0.02   0.05    -0.00   0.01  -0.01    -0.02   0.03  -0.06
  64   1    -0.04  -0.02   0.04     0.01   0.00  -0.01     0.05   0.02  -0.05
  65   1    -0.14   0.01  -0.03     0.00  -0.00   0.00     0.14  -0.01   0.03
  66   1     0.04  -0.10   0.01    -0.06   0.13  -0.01    -0.37   0.80  -0.06
  67   1     0.03   0.05   0.01    -0.08  -0.12  -0.02    -0.08  -0.13  -0.02
  68   1     0.03   0.01  -0.03    -0.04  -0.02   0.04    -0.05  -0.02   0.05
  69   1     0.01  -0.03  -0.04    -0.01   0.03   0.04    -0.01   0.05   0.07
  70   1    -0.02  -0.03  -0.00     0.02   0.02   0.00     0.04   0.05   0.01
  71   1     0.14   0.21   0.06    -0.01  -0.01  -0.00     0.03   0.05   0.01
  72   1     0.26   0.12  -0.23    -0.01  -0.01   0.01     0.05   0.03  -0.05
  73   1     0.06  -0.18  -0.31    -0.00   0.01   0.01     0.01  -0.03  -0.06
  74   1    -0.39  -0.59  -0.16     0.01   0.01   0.00    -0.06  -0.10  -0.03
  75   1     0.03  -0.00   0.01     0.01  -0.00   0.00     0.05  -0.01   0.01
  76   1    -0.01   0.01  -0.01     0.00  -0.00   0.00    -0.00   0.00  -0.00
  77   1     0.00   0.01  -0.01    -0.00  -0.00   0.00     0.00   0.00  -0.00
