77
 energy: -126.170459142698 gnorm: 0.000050414041 xtb: 6.7.1 (edcfbbe)
N           -7.47138162169119        3.17767402729167        1.39615298384793
C           -6.35041137973728        3.06878509694335        1.11627792871981
C           -5.00920234429524        2.93872621419128        0.78255466650596
C           -4.45976764687533        3.65866068093473       -0.30760683711782
C           -3.13965047206039        3.52543576712076       -0.63566468182385
C           -2.29604182129603        2.67094435773468        0.10223533354058
N           -0.95574281684400        2.51104151018919       -0.25685387646534
C           -0.21656995047827        3.62176552040881       -0.68779805291177
C            0.71050553106361        3.49724193042917       -1.72261806290703
C            1.43807657764579        4.59427328819255       -2.14069372945885
C            1.24591023323081        5.83029268418047       -1.54370180286305
C            0.31834588679274        5.96159277672274       -0.52194931817308
C           -0.40735419051906        4.86773977806007       -0.09093254989913
C           -0.36285877243615        1.26223119553874       -0.18668833749193
C            0.98965533460119        1.12644562177815        0.18182236966685
C            1.56634923724414       -0.12106501703582        0.27144450378295
N            2.93549626124389       -0.23844951098526        0.62644736748457
C            3.92477289787724        0.15308787743035       -0.26153809262712
C            3.63638225905488        0.61985846072578       -1.54290415312773
C            4.64904733711072        1.00501288292665       -2.39893711061614
C            5.97831246418007        0.92873476796695       -1.99658756161565
C            6.28799491755535        0.44971271619479       -0.73631329865371
C            5.27858008564299        0.05681297405613        0.12869234969910
O            5.64698222152044       -0.42667105183704        1.35213062318856
C            4.66038858180948       -0.82264184443512        2.20966429679953
C            5.04611775224668       -1.31255550956468        3.44807679125950
C            4.09196944657316       -1.71335677698570        4.36595275178655
C            2.74203555894855       -1.61202672743036        4.04848952664266
C            2.34707743684453       -1.12285187374487        2.81810068425364
C            3.29246841701623       -0.73298539416826        1.87086315408719
C            0.82907004340846       -1.28373617667879        0.01474793187249
C           -0.51750636907498       -1.14466282123113       -0.34160222674764
N           -1.28219157425845       -2.31370416004261       -0.59864693107734
C           -1.07819728293762       -3.03569117560576       -1.76295978039545
C           -0.14800946175814       -2.64912172521375       -2.72646853730927
C            0.02841287369983       -3.39637064661837       -3.87500520156177
C           -0.72734423260137       -4.54355652188937       -4.09211401644490
C           -1.66848027659924       -4.93488429695336       -3.15686798647138
C           -1.85232254831554       -4.19297921528022       -1.99997659831719
O           -2.80507447268796       -4.61988149602620       -1.11941259542012
C           -2.99230019215473       -3.89786393062982        0.02466326250551
C           -3.95588884764881       -4.34446206052850        0.91573115485399
C           -4.17925746946286       -3.66361025647883        2.09883181038513
C           -3.42616405463040       -2.53307336146785        2.39845526328117
C           -2.46558149331085       -2.07927214682481        1.51651014627268
C           -2.23618490410381       -2.73960331862457        0.31075627350606
C           -1.10805182040799        0.09486827272349       -0.44576414756816
C           -2.83788751682116        1.95997079686009        1.19187036304306
C           -4.15631814576420        2.08726442502882        1.52731232554340
H           -5.10525308957774        4.31083348180907       -0.87935269283415
H           -2.73202610905285        4.07035357427273       -1.47527454888707
H            0.84366537048157        2.53921397863837       -2.20246578264263
H            2.15190712277188        4.48607569675175       -2.94378225522267
H            1.81314884460781        6.68714333129037       -1.87434635466586
H            0.16378437772389        6.92123149219338       -0.05083916681461
H           -1.12351566044038        4.96634494110932        0.71175496842043
H            1.57518604909869        2.00690656194401        0.39821599021376
H            2.60792356715240        0.67624081052162       -1.86005739598446
H            4.40282737041049        1.36463542385194       -3.38564788593592
H            6.76871127203949        1.23423567571688       -2.66322587686920
H            7.30942948397711        0.36728354312220       -0.39995721132690
H            6.10011133507757       -1.36717710568520        3.67012383327371
H            4.39897534629768       -2.09553953470451        5.32628244395750
H            1.99354457240833       -1.91179812434172        4.76510469577578
H            1.29873774582530       -1.03755638899932        2.58206541298148
H            1.28446445795118       -2.25708947138547        0.08990680841667
H            0.43399070358871       -1.75608973117885       -2.56613048053955
H            0.75577158113771       -3.08157119465253       -4.60672649740296
H           -0.58843394240633       -5.12631166333406       -4.98858107507061
H           -2.27697936467200       -5.81341615397808       -3.30213698774620
H           -4.51740712815836       -5.22919788412031        0.66031261183188
H           -4.93306128341370       -4.01374768957484        2.78560570042381
H           -3.59026670613234       -2.00416864492862        3.32422479455372
H           -1.88419268507287       -1.20299354017553        1.75291417003016
H           -2.14485513068774        0.17719410004479       -0.73384136514144
H           -2.18899396083448        1.32632031970562        1.77892367543000
H           -4.56466660074669        1.55023766533772        2.37185070654654
