 Entering Gaussian System
 *********************************************
 Gaussian 98:
 frequency output generated by the xtb code
 *********************************************
                         Standard orientation:
 --------------------------------------------------------------------
  Center     Atomic     Atomic              Coordinates (Angstroms)
  Number     Number      Type              X           Y           Z
 --------------------------------------------------------------------
    1          7             0       -7.383412    3.557261    1.648902
    2          6             0       -6.297838    3.368541    1.322239
    3          6             0       -4.967481    3.139683    0.922003
    4          6             0       -4.408110    3.884091   -0.121474
    5          6             0       -3.108271    3.659332   -0.512015
    6          6             0       -2.326810    2.689578    0.128795
    7          7             0       -1.012300    2.479987   -0.261675
    8          6             0       -0.258047    3.553508   -0.784762
    9          6             0        0.502574    3.377080   -1.937123
   10          6             0        1.242445    4.428736   -2.445123
   11          6             0        1.227422    5.662591   -1.815402
   12          6             0        0.468784    5.841124   -0.669718
   13          6             0       -0.268870    4.793195   -0.150886
   14          6             0       -0.407480    1.225481   -0.158115
   15          6             0        0.941243    1.129702    0.184216
   16          6             0        1.556974   -0.111744    0.267022
   17          7             0        2.918503   -0.198974    0.633019
   18          6             0        3.914375    0.326853   -0.193891
   19          6             0        3.628722    0.914777   -1.419517
   20          6             0        4.641634    1.421596   -2.219790
   21          6             0        5.957900    1.343561   -1.812820
   22          6             0        6.263292    0.736160   -0.603101
   23          6             0        5.256725    0.226691    0.195801
   24          8             0        5.642123   -0.385506    1.366266
   25          6             0        4.649677   -0.907899    2.163154
   26          6             0        5.049013   -1.519287    3.337042
   27          6             0        4.106692   -2.047505    4.208004
   28          6             0        2.765300   -1.944845    3.900186
   29          6             0        2.360815   -1.332938    2.723070
   30          6             0        3.291897   -0.823182    1.826629
   31          6             0        0.832063   -1.272426    0.017231
   32          6             0       -0.513607   -1.178699   -0.317046
   33          7             0       -1.260703   -2.351328   -0.576818
   34          6             0       -1.001812   -3.127447   -1.708024
   35          6             0       -0.010004   -2.798772   -2.623203
   36          6             0        0.217441   -3.589864   -3.739715
   37          6             0       -0.546842   -4.716968   -3.963365
   38          6             0       -1.555650   -5.047843   -3.069161
   39          6             0       -1.787458   -4.261214   -1.956553
   40          8             0       -2.822271   -4.638842   -1.130531
   41          6             0       -3.042058   -3.879224   -0.004254
   42          6             0       -4.054577   -4.288350    0.843089
   43          6             0       -4.318769   -3.584997    2.010424
   44          6             0       -3.551794   -2.482933    2.329080
   45          6             0       -2.535266   -2.069409    1.481140
   46          6             0       -2.276481   -2.744508    0.295343
   47          6             0       -1.131048    0.060587   -0.412694
   48          6             0       -2.892013    1.954085    1.177711
   49          6             0       -4.193458    2.170550    1.567623
   50          1             0       -5.006261    4.629861   -0.623997
   51          1             0       -2.686242    4.230212   -1.324960
   52          1             0        0.501391    2.417838   -2.433630
   53          1             0        1.825061    4.287112   -3.342847
   54          1             0        1.803847    6.482254   -2.216585
   55          1             0        0.455569    6.799476   -0.172183
   56          1             0       -0.856364    4.928079    0.745550
   57          1             0        1.509789    2.022952    0.393498
   58          1             0        2.605511    0.973824   -1.752950
   59          1             0        4.390580    1.872836   -3.167117
   60          1             0        6.750487    1.739209   -2.428151
   61          1             0        7.282413    0.642488   -0.261881
   62          1             0        6.104692   -1.567473    3.553815
   63          1             0        4.428519   -2.525168    5.119935
   64          1             0        2.018438   -2.336907    4.573452
   65          1             0        1.308780   -1.249660    2.502179
   66          1             0        1.309422   -2.237857    0.084008
   67          1             0        0.587384   -1.915082   -2.464316
   68          1             0        0.997920   -3.312637   -4.431650
   69          1             0       -0.373434   -5.338336   -4.827790
   70          1             0       -2.180057   -5.914313   -3.221382
   71          1             0       -4.624700   -5.163606    0.573576
   72          1             0       -5.113875   -3.910297    2.662668
   73          1             0       -3.733416   -1.937821    3.242702
   74          1             0       -1.930966   -1.216398    1.745012
   75          1             0       -2.172138    0.116281   -0.692319
   76          1             0       -2.294424    1.220831    1.696246
   77          1             0       -4.620392    1.602995    2.381042
 --------------------------------------------------------------------
     1 basis functions        1 primitive gaussians
     1 alpha electrons        1 beta electrons
 
 Harmonic frequencies (cm**-1), IR intensities (km*mol⁻¹),
 Raman scattering activities (A**4/amu), Raman depolarization ratios,
 reduced masses (AMU), force constants (mDyne/A) and normal coordinates:
                      1                      2                      3
                        a                      a                      a 
 Frequencies --    10.0165                12.2695                17.9471
 Red. masses --    11.6790                11.0734                11.4393
 Frc consts  --     0.0000                 0.0000                 0.0000
 IR Inten    --     0.8147                 0.3294                 0.0663
 Raman Activ --     0.0000                 0.0000                 0.0000
 Depolar     --     0.0000                 0.0000                 0.0000
 Atom AN      X      Y      Z        X      Y      Z        X      Y      Z
   1   7    -0.13  -0.07  -0.37     0.02   0.03  -0.03     0.04  -0.15   0.07
   2   6    -0.09  -0.05  -0.28     0.02   0.03  -0.03     0.03  -0.12   0.06
   3   6    -0.07  -0.04  -0.20     0.02   0.02  -0.04     0.03  -0.10   0.04
   4   6    -0.01  -0.03  -0.16     0.02   0.03  -0.02     0.01  -0.09   0.03
   5   6     0.01  -0.02  -0.09     0.02   0.02  -0.03     0.01  -0.07   0.02
   6   6    -0.02  -0.01  -0.04     0.01   0.00  -0.05     0.03  -0.05   0.01
   7   7     0.01   0.00   0.03     0.01  -0.00  -0.06     0.03  -0.04  -0.00
   8   6     0.03   0.03   0.12     0.01  -0.01  -0.06     0.02  -0.03  -0.00
   9   6     0.08   0.10   0.14    -0.00  -0.02  -0.07     0.05  -0.04   0.01
  10   6     0.09   0.14   0.23     0.00  -0.03  -0.08     0.04  -0.03   0.02
  11   6     0.05   0.10   0.30     0.03  -0.03  -0.08     0.01  -0.02  -0.00
  12   6    -0.00   0.04   0.27     0.04  -0.02  -0.07    -0.02  -0.02  -0.02
  13   6    -0.01   0.00   0.18     0.04  -0.01  -0.06    -0.01  -0.03  -0.02
  14   6     0.01   0.01   0.02     0.00  -0.00  -0.05     0.03  -0.04  -0.01
  15   6     0.01  -0.00   0.01     0.00  -0.01  -0.04     0.03  -0.04  -0.01
  16   6     0.01  -0.00   0.00     0.00  -0.01  -0.04     0.03  -0.04  -0.00
  17   7     0.02  -0.00  -0.02    -0.01  -0.01  -0.01     0.03  -0.04   0.00
  18   6     0.00  -0.03  -0.05     0.01   0.04   0.05     0.03  -0.06  -0.01
  19   6    -0.02  -0.05  -0.05     0.05   0.08   0.06     0.03  -0.17  -0.07
  20   6    -0.03  -0.07  -0.08     0.07   0.13   0.12     0.03  -0.20  -0.09
  21   6    -0.02  -0.07  -0.11     0.06   0.15   0.17     0.03  -0.13  -0.05
  22   6    -0.00  -0.05  -0.10     0.02   0.11   0.16     0.02  -0.01   0.01
  23   6     0.01  -0.03  -0.07    -0.00   0.06   0.10     0.02   0.02   0.03
  24   8     0.03  -0.01  -0.08    -0.04   0.02   0.11     0.02   0.15   0.11
  25   6     0.04  -0.00  -0.05    -0.05  -0.02   0.04     0.01   0.16   0.11
  26   6     0.06   0.00  -0.05    -0.09  -0.04   0.04     0.01   0.27   0.17
  27   6     0.07   0.01  -0.03    -0.11  -0.08  -0.00     0.00   0.30   0.18
  28   6     0.07   0.01  -0.01    -0.10  -0.09  -0.05     0.01   0.21   0.13
  29   6     0.05   0.01  -0.00    -0.07  -0.07  -0.05     0.02   0.10   0.07
  30   6     0.04   0.00  -0.02    -0.04  -0.03  -0.01     0.02   0.07   0.06
  31   6     0.01  -0.00   0.01     0.00  -0.01  -0.05     0.03  -0.04  -0.00
  32   6     0.01   0.00   0.02     0.00  -0.00  -0.05     0.03  -0.04  -0.00
  33   7    -0.00   0.01   0.03    -0.01  -0.00  -0.03     0.02  -0.04  -0.01
  34   6    -0.04   0.01   0.02    -0.08   0.02  -0.06    -0.05   0.02  -0.06
  35   6    -0.06   0.01  -0.00    -0.15   0.06  -0.12    -0.04   0.01  -0.06
  36   6    -0.09   0.01  -0.01    -0.23   0.09  -0.16    -0.11   0.06  -0.10
  37   6    -0.10   0.02   0.00    -0.23   0.08  -0.12    -0.18   0.11  -0.15
  38   6    -0.08   0.02   0.03    -0.15   0.04  -0.05    -0.19   0.12  -0.15
  39   6    -0.05   0.01   0.04    -0.08   0.01  -0.02    -0.12   0.07  -0.10
  40   8    -0.03   0.02   0.08     0.00  -0.03   0.07    -0.14   0.10  -0.11
  41   6     0.01   0.01   0.08     0.08  -0.06   0.10    -0.06   0.05  -0.06
  42   6     0.04   0.00   0.11     0.16  -0.10   0.18    -0.08   0.07  -0.07
  43   6     0.08  -0.00   0.12     0.24  -0.12   0.21    -0.02   0.03  -0.03
  44   6     0.09  -0.01   0.10     0.23  -0.10   0.16     0.05  -0.03   0.01
  45   6     0.06  -0.00   0.07     0.15  -0.06   0.08     0.06  -0.05   0.02
  46   6     0.02   0.00   0.06     0.08  -0.04   0.05     0.01  -0.01  -0.02
  47   6     0.01   0.00   0.02     0.00  -0.00  -0.05     0.03  -0.04  -0.00
  48   6    -0.07  -0.02  -0.08     0.00  -0.01  -0.06     0.06  -0.06   0.03
  49   6    -0.10  -0.03  -0.15     0.01  -0.00  -0.06     0.06  -0.08   0.04
  50   1     0.00  -0.01  -0.06     0.01   0.01  -0.00    -0.00  -0.03   0.01
  51   1     0.02  -0.00  -0.02     0.01   0.01  -0.01    -0.00  -0.02   0.00
  52   1     0.03   0.04   0.03    -0.01  -0.01  -0.02     0.02  -0.01   0.01
  53   1     0.04   0.06   0.07    -0.00  -0.01  -0.03     0.02  -0.01   0.01
  54   1     0.02   0.04   0.11     0.01  -0.01  -0.03     0.00  -0.01   0.00
  55   1    -0.01   0.00   0.09     0.02  -0.01  -0.02    -0.01  -0.00  -0.01
  56   1    -0.02  -0.02   0.05     0.01  -0.00  -0.02    -0.01  -0.01  -0.01
  57   1     0.00  -0.00   0.00    -0.00  -0.00  -0.01     0.01  -0.01  -0.01
  58   1    -0.01  -0.01  -0.01     0.02   0.02   0.01     0.01  -0.07  -0.03
  59   1    -0.01  -0.02  -0.03     0.03   0.05   0.04     0.01  -0.08  -0.04
  60   1    -0.01  -0.03  -0.04     0.02   0.05   0.06     0.01  -0.04  -0.02
  61   1     0.00  -0.02  -0.04     0.00   0.03   0.06     0.01   0.01   0.01
  62   1     0.02  -0.00  -0.02    -0.03  -0.01   0.02     0.00   0.10   0.06
  63   1     0.03   0.00  -0.01    -0.04  -0.03  -0.00    -0.00   0.11   0.07
  64   1     0.02   0.01   0.00    -0.03  -0.03  -0.03     0.00   0.06   0.04
  65   1     0.01   0.00   0.00    -0.02  -0.02  -0.02     0.01   0.01   0.01
  66   1     0.00  -0.00   0.00    -0.00  -0.00  -0.02     0.01  -0.01   0.00
  67   1    -0.01   0.00  -0.00    -0.04   0.02  -0.04     0.00  -0.01  -0.00
  68   1    -0.03   0.00  -0.01    -0.08   0.03  -0.06    -0.03   0.01  -0.03
  69   1    -0.04   0.01  -0.00    -0.08   0.03  -0.04    -0.07   0.04  -0.06
  70   1    -0.03   0.01   0.01    -0.04   0.01  -0.01    -0.07   0.05  -0.05
  71   1     0.01   0.00   0.04     0.05  -0.03   0.06    -0.04   0.03  -0.03
  72   1     0.03  -0.00   0.04     0.09  -0.04   0.08    -0.01   0.01  -0.01
  73   1     0.03  -0.00   0.03     0.08  -0.03   0.05     0.03  -0.02   0.01
  74   1     0.02  -0.00   0.02     0.04  -0.01   0.01     0.03  -0.03   0.01
  75   1     0.00   0.00   0.01     0.00  -0.00  -0.01     0.01  -0.01  -0.00
  76   1    -0.03  -0.00  -0.01    -0.00  -0.01  -0.02     0.02  -0.01   0.01
  77   1    -0.04  -0.01  -0.05     0.00  -0.01  -0.02     0.02  -0.02   0.01
                      4                      5                      6
                        a                      a                      a 
 Frequencies --    18.7675                20.1522                25.3325
 Red. masses --    11.5952                11.4278                11.2571
 Frc consts  --     0.0000                 0.0000                 0.0000
 IR Inten    --     0.2282                 0.5023                 0.4655
 Raman Activ --     0.0000                 0.0000                 0.0000
 Depolar     --     0.0000                 0.0000                 0.0000
 Atom AN      X      Y      Z        X      Y      Z        X      Y      Z
   1   7    -0.05  -0.30  -0.11    -0.06  -0.16  -0.02    -0.06   0.17  -0.19
   2   6    -0.03  -0.22  -0.08    -0.05  -0.10  -0.01    -0.05   0.12  -0.12
   3   6    -0.01  -0.15  -0.04    -0.03  -0.05   0.01    -0.04   0.08  -0.07
   4   6    -0.04  -0.18  -0.08    -0.07  -0.07  -0.03     0.03   0.08  -0.03
   5   6    -0.02  -0.12  -0.05    -0.06  -0.02  -0.02     0.04   0.04   0.02
   6   6     0.03  -0.04   0.01    -0.01   0.04   0.02    -0.02  -0.00   0.03
   7   7     0.04  -0.00   0.02    -0.01   0.07   0.02    -0.02  -0.04   0.08
   8   6    -0.00  -0.00  -0.02    -0.04   0.06  -0.03     0.00  -0.08   0.01
   9   6     0.02  -0.02  -0.01    -0.01   0.02  -0.01    -0.08  -0.14  -0.04
  10   6    -0.03  -0.01  -0.05    -0.04   0.02  -0.06    -0.07  -0.19  -0.11
  11   6    -0.10   0.02  -0.12    -0.10   0.06  -0.13     0.03  -0.18  -0.14
  12   6    -0.12   0.04  -0.13    -0.13   0.10  -0.16     0.11  -0.11  -0.09
  13   6    -0.07   0.03  -0.08    -0.10   0.10  -0.11     0.10  -0.06  -0.02
  14   6     0.05   0.00   0.03     0.00   0.07   0.03    -0.02  -0.03   0.12
  15   6     0.05   0.01   0.02    -0.00   0.08   0.04    -0.02  -0.02   0.12
  16   6     0.05   0.01   0.02    -0.00   0.07   0.06    -0.00  -0.01   0.13
  17   7     0.06   0.01   0.02    -0.01   0.07   0.07     0.01   0.02   0.09
  18   6     0.05   0.05   0.04     0.02  -0.05   0.02    -0.03   0.03   0.04
  19   6     0.05   0.10   0.07     0.03  -0.02   0.03    -0.09   0.04   0.06
  20   6     0.05   0.15   0.10     0.05  -0.13  -0.01    -0.12   0.04   0.01
  21   6     0.05   0.14   0.09     0.06  -0.28  -0.06    -0.11   0.05  -0.05
  22   6     0.05   0.07   0.06     0.04  -0.31  -0.07    -0.05   0.04  -0.07
  23   6     0.05   0.03   0.03     0.02  -0.19  -0.03    -0.01   0.03  -0.02
  24   8     0.07  -0.04  -0.00     0.00  -0.26  -0.05     0.06   0.03  -0.05
  25   6     0.06  -0.07  -0.02    -0.02  -0.12  -0.00     0.09   0.01  -0.01
  26   6     0.07  -0.14  -0.06    -0.04  -0.16  -0.01     0.15  -0.01  -0.04
  27   6     0.07  -0.17  -0.08    -0.07  -0.06   0.02     0.19  -0.03  -0.00
  28   6     0.07  -0.15  -0.06    -0.07   0.09   0.07     0.18  -0.03   0.06
  29   6     0.07  -0.09  -0.02    -0.05   0.13   0.09     0.12  -0.02   0.09
  30   6     0.06  -0.05  -0.01    -0.03   0.02   0.05     0.07   0.00   0.06
  31   6     0.05   0.00   0.03    -0.00   0.07   0.05     0.01  -0.02   0.14
  32   6     0.05   0.00   0.05     0.00   0.07   0.04     0.01  -0.04   0.13
  33   7     0.04   0.00   0.07     0.02   0.07   0.02     0.04  -0.05   0.11
  34   6    -0.01   0.01   0.05     0.02   0.10  -0.00     0.01   0.04   0.03
  35   6     0.02  -0.05   0.07    -0.01   0.17  -0.02     0.01   0.10   0.05
  36   6    -0.02  -0.04   0.05    -0.00   0.20  -0.04    -0.02   0.19  -0.02
  37   6    -0.11   0.02   0.02     0.04   0.17  -0.05    -0.03   0.22  -0.10
  38   6    -0.15   0.08   0.00     0.08   0.11  -0.03    -0.02   0.16  -0.11
  39   6    -0.10   0.08   0.02     0.07   0.07  -0.01     0.00   0.07  -0.04
  40   8    -0.16   0.16  -0.01     0.13   0.00   0.02     0.01   0.01  -0.06
  41   6    -0.10   0.14   0.00     0.09  -0.01   0.02    -0.01  -0.04  -0.03
  42   6    -0.15   0.21  -0.03     0.12  -0.07   0.03    -0.04  -0.06  -0.08
  43   6    -0.12   0.21  -0.02     0.09  -0.08   0.04    -0.07  -0.10  -0.05
  44   6    -0.03   0.14   0.02     0.04  -0.04   0.03    -0.06  -0.13   0.02
  45   6     0.02   0.07   0.05     0.01   0.01   0.02    -0.03  -0.11   0.07
  46   6    -0.01   0.07   0.04     0.04   0.02   0.02    -0.00  -0.06   0.05
  47   6     0.05   0.00   0.04     0.00   0.07   0.03    -0.01  -0.04   0.13
  48   6     0.07  -0.01   0.05     0.03   0.06   0.05    -0.09  -0.01  -0.01
  49   6     0.05  -0.06   0.03     0.02   0.02   0.05    -0.10   0.03  -0.06
  50   1    -0.02  -0.07  -0.04    -0.03  -0.04  -0.02     0.02   0.03  -0.01
  51   1    -0.01  -0.04  -0.02    -0.03  -0.01  -0.01     0.02   0.01   0.01
  52   1     0.02  -0.01   0.01     0.01  -0.00   0.01    -0.05  -0.05  -0.00
  53   1    -0.01  -0.01  -0.01    -0.01  -0.00  -0.01    -0.04  -0.07  -0.04
  54   1    -0.04   0.01  -0.04    -0.04   0.02  -0.05     0.01  -0.06  -0.06
  55   1    -0.05   0.02  -0.05    -0.05   0.04  -0.06     0.06  -0.03  -0.03
  56   1    -0.02   0.01  -0.03    -0.03   0.04  -0.04     0.04  -0.00   0.00
  57   1     0.01   0.00   0.00    -0.00   0.02   0.01    -0.01  -0.00   0.03
  58   1     0.02   0.03   0.02     0.01   0.03   0.02    -0.03   0.01   0.03
  59   1     0.01   0.06   0.03     0.02  -0.03   0.00    -0.05   0.01   0.01
  60   1     0.01   0.05   0.03     0.02  -0.11  -0.03    -0.04   0.02  -0.02
  61   1     0.02   0.02   0.02     0.01  -0.12  -0.03    -0.01   0.01  -0.03
  62   1     0.02  -0.04  -0.02    -0.01  -0.08  -0.02     0.05  -0.00  -0.03
  63   1     0.02  -0.06  -0.03    -0.03  -0.03   0.00     0.07  -0.01  -0.01
  64   1     0.02  -0.05  -0.02    -0.03   0.05   0.03     0.06  -0.01   0.03
  65   1     0.02  -0.02  -0.00    -0.01   0.07   0.04     0.03  -0.01   0.04
  66   1     0.02   0.00   0.01    -0.00   0.02   0.02     0.01  -0.00   0.04
  67   1     0.03  -0.03   0.03    -0.01   0.05  -0.00     0.01   0.02   0.03
  68   1     0.00  -0.03   0.02    -0.01   0.07  -0.02    -0.01   0.07  -0.00
  69   1    -0.04   0.01   0.00     0.01   0.06  -0.02    -0.01   0.08  -0.04
  70   1    -0.06   0.04  -0.01     0.03   0.02  -0.01    -0.01   0.05  -0.05
  71   1    -0.06   0.08  -0.02     0.05  -0.03   0.01    -0.01  -0.01  -0.04
  72   1    -0.05   0.08  -0.01     0.03  -0.04   0.01    -0.03  -0.03  -0.03
  73   1     0.00   0.04   0.01     0.00  -0.01   0.01    -0.02  -0.05   0.01
  74   1     0.03   0.00   0.02    -0.01   0.01   0.00    -0.01  -0.04   0.03
  75   1     0.01  -0.00   0.01     0.00   0.02   0.01    -0.00  -0.02   0.03
  76   1     0.03   0.02   0.03     0.02   0.03   0.02    -0.04  -0.01  -0.00
  77   1     0.02  -0.01   0.02     0.01   0.01   0.02    -0.05   0.01  -0.03
                      7                      8                      9
                        a                      a                      a 
 Frequencies --    32.6798                42.7152                44.0070
 Red. masses --    11.2129                11.6816                11.7198
 Frc consts  --     0.0000                 0.0000                 0.0000
 IR Inten    --     0.4351                 1.6716                 1.8403
 Raman Activ --     0.0000                 0.0000                 0.0000
 Depolar     --     0.0000                 0.0000                 0.0000
 Atom AN      X      Y      Z        X      Y      Z        X      Y      Z
   1   7     0.02  -0.10  -0.07     0.01   0.17   0.06     0.16   0.42   0.19
   2   6     0.03  -0.06  -0.03    -0.00   0.10   0.02     0.08   0.22   0.07
   3   6     0.05  -0.02  -0.01    -0.02   0.05  -0.01     0.02   0.06  -0.04
   4   6     0.00  -0.09  -0.08    -0.02   0.04  -0.02    -0.02  -0.10  -0.18
   5   6     0.02  -0.06  -0.07    -0.03   0.01  -0.03    -0.05  -0.19  -0.22
   6   6     0.06   0.04   0.03    -0.03   0.01  -0.03    -0.03  -0.11  -0.12
   7   7     0.07   0.04   0.03    -0.03   0.03  -0.01    -0.02  -0.10  -0.10
   8   6     0.06   0.03   0.01    -0.04   0.03  -0.01    -0.05  -0.04  -0.03
   9   6     0.13  -0.00   0.06     0.01   0.02   0.02     0.07   0.04   0.04
  10   6     0.12  -0.00   0.04    -0.01   0.04   0.01     0.01   0.11   0.10
  11   6     0.02   0.04  -0.04    -0.10   0.06  -0.05    -0.18   0.11   0.10
  12   6    -0.05   0.07  -0.09    -0.15   0.07  -0.08    -0.29   0.04   0.03
  13   6    -0.03   0.07  -0.07    -0.12   0.06  -0.06    -0.22  -0.04  -0.03
  14   6     0.03   0.02   0.03    -0.01   0.03   0.00     0.01  -0.07  -0.04
  15   6     0.03  -0.03   0.02    -0.02   0.04   0.04     0.01  -0.04  -0.03
  16   6    -0.01  -0.05   0.01    -0.02   0.04   0.06     0.03  -0.02   0.02
  17   7    -0.01  -0.10  -0.01    -0.03   0.06   0.09     0.04   0.01   0.02
  18   6    -0.03  -0.06  -0.01    -0.03  -0.02   0.04     0.03   0.01   0.02
  19   6    -0.04  -0.17  -0.06    -0.04  -0.17  -0.04     0.03   0.04   0.04
  20   6    -0.06  -0.13  -0.07    -0.04  -0.24  -0.09     0.03   0.05   0.05
  21   6    -0.07   0.02  -0.01    -0.04  -0.16  -0.07     0.04   0.03   0.03
  22   6    -0.05   0.13   0.04    -0.04  -0.01   0.00     0.04  -0.01   0.01
  23   6    -0.03   0.09   0.04    -0.03   0.06   0.06     0.04  -0.02   0.01
  24   8    -0.02   0.24   0.11    -0.03   0.25   0.16     0.05  -0.07  -0.02
  25   6     0.01   0.07   0.04    -0.01   0.05   0.06     0.04  -0.03  -0.00
  26   6     0.04   0.08   0.03     0.02  -0.03   0.01     0.05  -0.04  -0.00
  27   6     0.07  -0.06  -0.02     0.04  -0.19  -0.06     0.05  -0.01   0.01
  28   6     0.07  -0.21  -0.07     0.04  -0.26  -0.08     0.04   0.04   0.04
  29   6     0.04  -0.22  -0.06     0.01  -0.19  -0.03     0.04   0.04   0.04
  30   6     0.01  -0.08  -0.01    -0.01  -0.03   0.04     0.04   0.01   0.02
  31   6    -0.06  -0.02   0.00    -0.00   0.04   0.03     0.05  -0.04   0.05
  32   6    -0.06   0.03   0.02     0.01   0.03  -0.01     0.05  -0.08   0.04
  33   7    -0.09   0.05   0.00     0.01   0.04  -0.04     0.08  -0.11   0.08
  34   6    -0.06   0.05   0.00     0.04   0.01  -0.01     0.02  -0.05   0.02
  35   6    -0.14   0.15  -0.05     0.14  -0.08   0.07    -0.02  -0.01  -0.01
  36   6    -0.11   0.17  -0.05     0.16  -0.11   0.09    -0.08   0.05  -0.06
  37   6     0.01   0.08  -0.00     0.09  -0.04   0.04    -0.09   0.07  -0.08
  38   6     0.09  -0.02   0.05    -0.01   0.04  -0.04    -0.05   0.02  -0.05
  39   6     0.06  -0.03   0.05    -0.03   0.07  -0.06     0.01  -0.04   0.01
  40   8     0.16  -0.16   0.13    -0.15   0.19  -0.16     0.06  -0.10   0.05
  41   6     0.03  -0.07   0.05    -0.01   0.06  -0.05     0.02  -0.05   0.01
  42   6     0.04  -0.11   0.04     0.03   0.03  -0.01    -0.04  -0.01  -0.03
  43   6    -0.06  -0.05  -0.02     0.14  -0.06   0.07    -0.08   0.02  -0.06
  44   6    -0.18   0.05  -0.07     0.20  -0.11   0.10    -0.07   0.01  -0.04
  45   6    -0.19   0.08  -0.07     0.16  -0.08   0.07    -0.02  -0.03  -0.00
  46   6    -0.08   0.02  -0.01     0.05   0.01  -0.00     0.03  -0.06   0.03
  47   6    -0.02   0.05   0.04     0.00   0.03  -0.02     0.03  -0.09   0.00
  48   6     0.11   0.12   0.11    -0.04   0.01  -0.04    -0.01  -0.00  -0.03
  49   6     0.10   0.10   0.10    -0.04   0.03  -0.03     0.02   0.09   0.01
  50   1    -0.01  -0.05  -0.05    -0.00   0.01  -0.00    -0.01  -0.04  -0.07
  51   1    -0.00  -0.03  -0.04    -0.01   0.00  -0.01    -0.02  -0.09  -0.09
  52   1     0.06  -0.01   0.03     0.02   0.00   0.02     0.06   0.01   0.01
  53   1     0.05  -0.01   0.02     0.01   0.01   0.01     0.03   0.05   0.04
  54   1     0.00   0.01  -0.02    -0.04   0.02  -0.02    -0.07   0.05   0.04
  55   1    -0.04   0.03  -0.04    -0.06   0.03  -0.03    -0.13   0.01   0.01
  56   1    -0.03   0.03  -0.03    -0.04   0.02  -0.03    -0.09  -0.03  -0.02
  57   1     0.02  -0.01   0.00    -0.01   0.01   0.01    -0.00  -0.01  -0.02
  58   1    -0.01  -0.08  -0.03    -0.01  -0.07  -0.01     0.01   0.02   0.01
  59   1    -0.02  -0.07  -0.03    -0.01  -0.10  -0.04     0.01   0.02   0.02
  60   1    -0.03   0.02  -0.00    -0.01  -0.06  -0.03     0.01   0.01   0.01
  61   1    -0.02   0.07   0.02    -0.01   0.02   0.01     0.01  -0.01   0.00
  62   1     0.01   0.06   0.02     0.00   0.01   0.01     0.01  -0.02  -0.01
  63   1     0.03  -0.01  -0.01     0.02  -0.07  -0.03     0.01  -0.00   0.00
  64   1     0.02  -0.09  -0.03     0.02  -0.11  -0.04     0.01   0.02   0.02
  65   1     0.01  -0.10  -0.03     0.00  -0.07  -0.01     0.01   0.02   0.02
  66   1    -0.03  -0.01  -0.01     0.00   0.01   0.01     0.02  -0.01   0.02
  67   1    -0.07   0.06  -0.03     0.06  -0.04   0.03    -0.00  -0.01   0.00
  68   1    -0.05   0.07  -0.03     0.07  -0.05   0.04    -0.03   0.02  -0.02
  69   1     0.01   0.03  -0.00     0.03  -0.02   0.02    -0.04   0.03  -0.04
  70   1     0.05  -0.03   0.03    -0.02   0.03  -0.02    -0.02   0.01  -0.02
  71   1     0.04  -0.05   0.02    -0.01   0.02  -0.01    -0.01  -0.00  -0.01
  72   1    -0.02  -0.02  -0.01     0.05  -0.02   0.03    -0.03   0.01  -0.03
  73   1    -0.08   0.03  -0.04     0.08  -0.05   0.05    -0.03   0.01  -0.02
  74   1    -0.08   0.05  -0.03     0.06  -0.04   0.03    -0.00  -0.01   0.00
  75   1    -0.00   0.03   0.01     0.00   0.01  -0.01     0.01  -0.03  -0.00
  76   1     0.05   0.06   0.05    -0.02  -0.00  -0.01    -0.00   0.01   0.00
  77   1     0.04   0.05   0.05    -0.01   0.01  -0.01     0.01   0.06   0.03
                     10                     11                     12
                        a                      a                      a 
 Frequencies --    55.8794                57.2463                67.0549
 Red. masses --    11.3890                11.5944                10.8111
 Frc consts  --     0.0000                 0.0000                 0.0000
 IR Inten    --     0.9958                 1.2166                 2.2605
 Raman Activ --     0.0000                 0.0000                 0.0000
 Depolar     --     0.0000                 0.0000                 0.0000
 Atom AN      X      Y      Z        X      Y      Z        X      Y      Z
   1   7    -0.06   0.04  -0.00    -0.06   0.19  -0.29     0.12  -0.13   0.03
   2   6    -0.05   0.02   0.00    -0.02   0.11  -0.12     0.11  -0.07  -0.01
   3   6    -0.06  -0.01   0.01     0.01   0.07   0.00     0.11  -0.02  -0.04
   4   6    -0.00   0.08   0.09     0.07   0.01  -0.00     0.11   0.07   0.03
   5   6    -0.00   0.06   0.10     0.09  -0.02   0.08     0.11   0.09  -0.00
   6   6    -0.05  -0.04   0.01     0.05   0.01   0.17     0.09   0.01  -0.10
   7   7    -0.06  -0.04   0.02     0.08   0.00   0.26     0.08   0.01  -0.15
   8   6    -0.07  -0.02   0.02     0.01  -0.00   0.15     0.06   0.05  -0.08
   9   6    -0.20   0.02  -0.07    -0.11   0.00   0.07    -0.09   0.21  -0.20
  10   6    -0.22   0.03  -0.09    -0.27   0.04  -0.08    -0.23   0.32  -0.19
  11   6    -0.11  -0.01  -0.01    -0.30   0.08  -0.14    -0.19   0.24  -0.05
  12   6     0.03  -0.06   0.09    -0.15   0.06  -0.04    -0.00   0.07   0.11
  13   6     0.05  -0.07   0.10     0.01   0.02   0.10     0.12  -0.03   0.09
  14   6    -0.01  -0.01   0.00     0.05  -0.02   0.14     0.06   0.00  -0.12
  15   6     0.00   0.04  -0.01     0.07  -0.06   0.03     0.04  -0.03  -0.07
  16   6     0.05   0.06  -0.01     0.05  -0.08  -0.08    -0.02  -0.06   0.05
  17   7     0.04   0.12   0.04     0.06  -0.17  -0.13    -0.02  -0.08   0.05
  18   6     0.07   0.02   0.02     0.07  -0.09  -0.06    -0.04  -0.05   0.04
  19   6     0.10  -0.07  -0.03     0.09  -0.05  -0.05    -0.06  -0.06   0.04
  20   6     0.12  -0.17  -0.06     0.10   0.01   0.01    -0.09  -0.02   0.04
  21   6     0.12  -0.18  -0.04     0.09   0.04   0.05    -0.08   0.02   0.03
  22   6     0.08  -0.07   0.02     0.07   0.01   0.04    -0.05   0.01   0.01
  23   6     0.06   0.03   0.06     0.06  -0.05  -0.01    -0.03  -0.03   0.02
  24   8     0.02   0.18   0.15     0.04  -0.08  -0.02    -0.00  -0.04   0.00
  25   6     0.01   0.06   0.05     0.01  -0.02  -0.01     0.02  -0.04   0.03
  26   6    -0.01  -0.02   0.02    -0.02   0.09   0.06     0.05  -0.01   0.03
  27   6    -0.02  -0.11  -0.05    -0.05   0.13   0.06     0.08  -0.00   0.06
  28   6    -0.02  -0.14  -0.09    -0.03   0.06  -0.01     0.07  -0.02   0.09
  29   6     0.00  -0.06  -0.06     0.00  -0.04  -0.08     0.04  -0.04   0.09
  30   6     0.02   0.03   0.01     0.02  -0.07  -0.07     0.01  -0.05   0.05
  31   6     0.10   0.03  -0.03     0.01  -0.05  -0.12    -0.06  -0.04   0.13
  32   6     0.09  -0.02  -0.01    -0.01  -0.01  -0.03    -0.04  -0.01   0.04
  33   7     0.14  -0.05   0.05    -0.05   0.03  -0.06    -0.06   0.00   0.04
  34   6     0.05  -0.02   0.01    -0.02  -0.00  -0.04    -0.03   0.01   0.03
  35   6    -0.04   0.03  -0.07    -0.01  -0.02  -0.03    -0.01   0.02   0.06
  36   6    -0.12   0.06  -0.11     0.02  -0.06  -0.00     0.01   0.04   0.06
  37   6    -0.10   0.04  -0.06     0.03  -0.07   0.02     0.02   0.04   0.03
  38   6    -0.00  -0.02   0.03     0.01  -0.05   0.01    -0.00   0.03   0.00
  39   6     0.07  -0.05   0.06    -0.02  -0.01  -0.03    -0.03   0.01   0.01
  40   8     0.19  -0.12   0.17    -0.05   0.02  -0.05    -0.04  -0.00  -0.01
  41   6     0.07   0.01   0.05    -0.02  -0.00  -0.03    -0.04  -0.03   0.01
  42   6    -0.01   0.12   0.00     0.01  -0.03  -0.01    -0.02  -0.07   0.01
  43   6    -0.08   0.22  -0.08     0.04  -0.05   0.01    -0.04  -0.09   0.02
  44   6    -0.07   0.21  -0.09     0.03  -0.05   0.00    -0.07  -0.07   0.02
  45   6     0.01   0.11  -0.05     0.00  -0.02  -0.02    -0.08  -0.04   0.03
  46   6     0.07   0.03   0.02    -0.02   0.00  -0.04    -0.06  -0.02   0.02
  47   6     0.04  -0.04  -0.00     0.01   0.01   0.12     0.02   0.01  -0.09
  48   6    -0.11  -0.12  -0.07    -0.01   0.06   0.17     0.09  -0.06  -0.15
  49   6    -0.11  -0.11  -0.08    -0.03   0.09   0.09     0.10  -0.09  -0.13
  50   1     0.01   0.05   0.05     0.03  -0.00  -0.02     0.04   0.04   0.03
  51   1     0.01   0.03   0.05     0.04  -0.02   0.02     0.03   0.04   0.01
  52   1    -0.08   0.01  -0.04    -0.03  -0.01   0.03    -0.03   0.08  -0.09
  53   1    -0.09   0.02  -0.05    -0.11   0.01  -0.04    -0.11   0.13  -0.09
  54   1    -0.04  -0.00  -0.01    -0.13   0.03  -0.08    -0.09   0.09  -0.02
  55   1     0.04  -0.03   0.04    -0.05   0.02  -0.02     0.01   0.00   0.07
  56   1     0.04  -0.03   0.05     0.03   0.00   0.05     0.07  -0.05   0.06
  57   1    -0.01   0.02   0.00     0.03  -0.02   0.01     0.02  -0.01  -0.04
  58   1     0.03  -0.02  -0.01     0.03  -0.02  -0.02    -0.02  -0.03   0.01
  59   1     0.04  -0.07  -0.03     0.04   0.01   0.00    -0.03  -0.01   0.01
  60   1     0.04  -0.08  -0.02     0.03   0.03   0.03    -0.03   0.02   0.01
  61   1     0.02  -0.02   0.01     0.02   0.01   0.02    -0.01   0.01   0.00
  62   1    -0.00   0.00   0.02    -0.01   0.04   0.03     0.02   0.00   0.00
  63   1    -0.01  -0.05  -0.02    -0.02   0.06   0.03     0.03   0.00   0.02
  64   1    -0.01  -0.06  -0.04    -0.02   0.02  -0.01     0.03  -0.00   0.03
  65   1     0.00  -0.02  -0.02     0.00  -0.03  -0.04     0.01  -0.02   0.03
  66   1     0.04   0.02  -0.01     0.00  -0.02  -0.06    -0.03  -0.02   0.06
  67   1    -0.02   0.01  -0.03    -0.01  -0.00  -0.02    -0.00   0.01   0.03
  68   1    -0.06   0.03  -0.05     0.01  -0.02   0.00     0.01   0.01   0.02
  69   1    -0.04   0.02  -0.03     0.02  -0.03   0.01     0.01   0.02   0.01
  70   1     0.01  -0.01   0.02     0.01  -0.02   0.01     0.00   0.01  -0.01
  71   1    -0.00   0.03   0.01     0.00  -0.01  -0.00    -0.00  -0.02  -0.00
  72   1    -0.04   0.08  -0.03     0.02  -0.02   0.01    -0.01  -0.04   0.00
  73   1    -0.03   0.08  -0.04     0.02  -0.02   0.01    -0.02  -0.02   0.01
  74   1     0.01   0.03  -0.02     0.00  -0.01  -0.00    -0.03  -0.01   0.01
  75   1     0.01  -0.02   0.00    -0.00   0.01   0.06     0.01   0.01  -0.04
  76   1    -0.04  -0.06  -0.04    -0.01   0.02   0.07     0.03  -0.03  -0.06
  77   1    -0.04  -0.05  -0.04    -0.02   0.04   0.03     0.03  -0.04  -0.05
                     13                     14                     15
                        a                      a                      a 
 Frequencies --    69.9642                83.3789               102.2582
 Red. masses --    10.9418                10.1149                11.7909
 Frc consts  --     0.0000                 0.0000                 0.0000
 IR Inten    --     0.2758                 0.3367                 1.9148
 Raman Activ --     0.0000                 0.0000                 0.0000
 Depolar     --     0.0000                 0.0000                 0.0000
 Atom AN      X      Y      Z        X      Y      Z        X      Y      Z
   1   7    -0.00  -0.03   0.01     0.00  -0.01   0.01    -0.12  -0.17  -0.38
   2   6    -0.00  -0.01   0.00    -0.00  -0.01   0.00     0.02   0.03  -0.02
   3   6    -0.00   0.00  -0.00    -0.01  -0.01  -0.01     0.11   0.18   0.18
   4   6    -0.05  -0.08  -0.08     0.10   0.21   0.20     0.10   0.19   0.18
   5   6    -0.05  -0.07  -0.09     0.09   0.19   0.19     0.06   0.14   0.12
   6   6    -0.02  -0.01  -0.03     0.01   0.00  -0.00     0.05   0.08   0.05
   7   7    -0.03  -0.02  -0.07     0.02   0.01   0.01    -0.02  -0.04  -0.12
   8   6    -0.02  -0.01  -0.05     0.03   0.01   0.02     0.01  -0.03  -0.06
   9   6    -0.09   0.03  -0.09     0.20  -0.05   0.14     0.08   0.02  -0.01
  10   6    -0.04   0.03  -0.03     0.17  -0.04   0.11     0.06   0.06   0.03
  11   6     0.08  -0.03   0.08    -0.05   0.04  -0.05    -0.05   0.06   0.03
  12   6     0.13  -0.07   0.12    -0.21   0.10  -0.17    -0.12   0.02  -0.01
  13   6     0.07  -0.06   0.05    -0.16   0.08  -0.13    -0.07  -0.03  -0.05
  14   6    -0.02  -0.01  -0.03     0.02  -0.00  -0.01    -0.04  -0.05  -0.07
  15   6     0.02   0.03  -0.17     0.03  -0.01  -0.06    -0.04  -0.00  -0.05
  16   6     0.03   0.04  -0.12     0.02  -0.02  -0.06    -0.01   0.02   0.01
  17   7     0.03   0.04  -0.14     0.03  -0.05  -0.10    -0.02   0.12   0.06
  18   6     0.07   0.02  -0.09     0.05  -0.02  -0.06    -0.02   0.07   0.02
  19   6     0.14  -0.02  -0.12     0.08  -0.03  -0.07    -0.02   0.03   0.01
  20   6     0.19  -0.04  -0.08     0.10   0.01  -0.03    -0.02  -0.02  -0.02
  21   6     0.16  -0.01   0.01     0.08   0.06   0.03    -0.02  -0.03  -0.03
  22   6     0.09   0.03   0.04     0.05   0.05   0.03    -0.02   0.01  -0.01
  23   6     0.05   0.04  -0.00     0.04   0.00  -0.02    -0.02   0.05   0.02
  24   8    -0.02   0.09   0.04     0.02  -0.02  -0.03    -0.02   0.08   0.03
  25   6    -0.05   0.04  -0.04     0.00  -0.01  -0.04    -0.02   0.03   0.00
  26   6    -0.11   0.01  -0.03    -0.02   0.01  -0.02    -0.02  -0.08  -0.05
  27   6    -0.15  -0.02  -0.10    -0.03   0.02  -0.03    -0.02  -0.09  -0.06
  28   6    -0.13  -0.01  -0.15    -0.03   0.03  -0.05    -0.03   0.03   0.00
  29   6    -0.07   0.02  -0.16    -0.00   0.01  -0.07    -0.03   0.12   0.05
  30   6    -0.03   0.03  -0.11     0.01  -0.02  -0.07    -0.02   0.09   0.04
  31   6     0.01   0.02   0.02    -0.01  -0.02   0.02     0.03  -0.01   0.03
  32   6    -0.03  -0.01   0.14    -0.02  -0.01   0.07     0.03  -0.06   0.00
  33   7     0.01  -0.04   0.19    -0.02  -0.02   0.10     0.10  -0.13   0.05
  34   6     0.02   0.02   0.13    -0.02   0.01   0.07     0.06  -0.12   0.03
  35   6     0.06   0.05   0.19    -0.02   0.05   0.08     0.09  -0.17   0.04
  36   6     0.09   0.11   0.15    -0.00   0.08   0.06    -0.01  -0.12  -0.03
  37   6     0.06   0.15   0.05     0.02   0.06   0.04    -0.14  -0.01  -0.11
  38   6     0.02   0.13  -0.01     0.02   0.03   0.03    -0.13   0.00  -0.09
  39   6     0.00   0.06   0.03     0.00   0.01   0.04    -0.00  -0.07  -0.01
  40   8    -0.05   0.05  -0.03    -0.00  -0.02   0.03     0.04  -0.12   0.03
  41   6    -0.05  -0.03   0.02    -0.04  -0.03   0.02     0.03  -0.08   0.01
  42   6    -0.08  -0.07  -0.04    -0.07  -0.03  -0.02    -0.00  -0.05  -0.02
  43   6    -0.10  -0.14   0.00    -0.10  -0.05  -0.01    -0.04  -0.02  -0.05
  44   6    -0.09  -0.17   0.09    -0.09  -0.08   0.04    -0.03  -0.03  -0.05
  45   6    -0.06  -0.13   0.15    -0.06  -0.07   0.08     0.01  -0.06  -0.01
  46   6    -0.03  -0.07   0.11    -0.04  -0.03   0.06     0.05  -0.09   0.01
  47   6    -0.05  -0.03   0.13     0.00  -0.01   0.03    -0.01  -0.08  -0.03
  48   6     0.04   0.08   0.06    -0.09  -0.20  -0.20     0.10   0.15   0.13
  49   6     0.04   0.09   0.08    -0.10  -0.23  -0.22     0.13   0.20   0.20
  50   1    -0.02  -0.04  -0.04     0.05   0.11   0.11     0.03   0.06   0.06
  51   1    -0.02  -0.04  -0.04     0.04   0.10   0.09     0.01   0.03   0.03
  52   1    -0.05   0.02  -0.05     0.10  -0.03   0.07     0.05   0.01  -0.01
  53   1    -0.02   0.02  -0.02     0.09  -0.03   0.06     0.03   0.03   0.02
  54   1     0.04  -0.01   0.04    -0.03   0.02  -0.02    -0.02   0.03   0.01
  55   1     0.06  -0.03   0.06    -0.11   0.05  -0.08    -0.06   0.00  -0.00
  56   1     0.03  -0.03   0.02    -0.08   0.04  -0.06    -0.03  -0.02  -0.02
  57   1     0.01   0.01  -0.08     0.01  -0.01  -0.03    -0.02   0.01  -0.02
  58   1     0.05  -0.01  -0.05     0.03  -0.02  -0.03    -0.01   0.01   0.00
  59   1     0.07  -0.02  -0.03     0.04   0.00  -0.01    -0.01  -0.01  -0.01
  60   1     0.06  -0.01   0.01     0.03   0.03   0.02    -0.01  -0.02  -0.01
  61   1     0.02   0.01   0.03     0.01   0.02   0.02    -0.00  -0.00  -0.01
  62   1    -0.03   0.00   0.01    -0.01   0.00  -0.00    -0.00  -0.04  -0.02
  63   1    -0.06  -0.01  -0.03    -0.01   0.01  -0.00    -0.01  -0.05  -0.03
  64   1    -0.05  -0.01  -0.06    -0.01   0.01  -0.02    -0.01   0.01   0.00
  65   1    -0.02   0.01  -0.06    -0.00   0.00  -0.02    -0.01   0.06   0.02
  66   1     0.00   0.01   0.01    -0.01  -0.01   0.01     0.02   0.00   0.02
  67   1     0.02   0.01   0.07    -0.01   0.02   0.03     0.05  -0.07   0.02
  68   1     0.03   0.04   0.06    -0.00   0.03   0.02     0.00  -0.04  -0.01
  69   1     0.02   0.06   0.01     0.01   0.02   0.01    -0.07   0.01  -0.05
  70   1    -0.00   0.04  -0.03     0.01   0.01   0.00    -0.06   0.02  -0.04
  71   1    -0.03  -0.01  -0.03    -0.02  -0.00  -0.02    -0.00  -0.01  -0.01
  72   1    -0.04  -0.05  -0.01    -0.04  -0.02  -0.01    -0.02   0.00  -0.02
  73   1    -0.03  -0.07   0.03    -0.03  -0.03   0.01    -0.02   0.00  -0.02
  74   1    -0.02  -0.04   0.06    -0.01  -0.02   0.03     0.00  -0.02  -0.00
  75   1    -0.02  -0.01   0.07    -0.00  -0.00   0.01    -0.01  -0.03  -0.00
  76   1     0.02   0.04   0.03    -0.05  -0.10  -0.09     0.03   0.04   0.03
  77   1     0.02   0.05   0.04    -0.05  -0.12  -0.11     0.05   0.07   0.07
                     16                     17                     18
                        a                      a                      a 
 Frequencies --   113.1705               113.8247               132.1723
 Red. masses --     9.9103                 9.9754                11.9302
 Frc consts  --     0.0000                 0.0000                 0.0000
 IR Inten    --     0.2236                 0.6855                 4.7774
 Raman Activ --     0.0000                 0.0000                 0.0000
 Depolar     --     0.0000                 0.0000                 0.0000
 Atom AN      X      Y      Z        X      Y      Z        X      Y      Z
   1   7    -0.02  -0.06   0.02    -0.01  -0.05  -0.08    -0.00  -0.35   0.34
   2   6    -0.01   0.00   0.01     0.03   0.01  -0.00    -0.04   0.04  -0.02
   3   6    -0.00   0.04   0.00     0.04   0.05   0.04    -0.05   0.20  -0.15
   4   6    -0.00   0.05   0.01     0.03   0.03   0.02     0.00   0.15  -0.16
   5   6    -0.00   0.04  -0.00     0.01   0.02  -0.01     0.02   0.09  -0.09
   6   6    -0.01   0.02  -0.02     0.02   0.01  -0.01    -0.02   0.09  -0.03
   7   7    -0.02   0.00  -0.04    -0.00  -0.02  -0.06    -0.00   0.02   0.07
   8   6    -0.01   0.00  -0.02     0.01  -0.01  -0.04     0.03   0.00   0.06
   9   6     0.02   0.01  -0.01     0.03   0.01  -0.03     0.01  -0.01   0.05
  10   6     0.03   0.01   0.01     0.02   0.03  -0.00    -0.03  -0.01   0.00
  11   6     0.01   0.01   0.01    -0.01   0.03   0.01    -0.05   0.01  -0.03
  12   6    -0.02   0.01  -0.01    -0.03  -0.00   0.01    -0.01   0.02  -0.00
  13   6    -0.02   0.00  -0.02    -0.01  -0.02  -0.02     0.03   0.01   0.04
  14   6    -0.02   0.00  -0.01    -0.02  -0.02  -0.02    -0.03   0.01   0.08
  15   6    -0.02   0.01   0.01    -0.02  -0.01  -0.01    -0.02   0.00   0.06
  16   6    -0.00   0.01  -0.00    -0.01  -0.01   0.00     0.02   0.01   0.01
  17   7     0.00   0.02  -0.00    -0.02   0.01   0.01     0.04   0.07   0.03
  18   6     0.01   0.11   0.05    -0.03   0.03   0.02     0.07   0.05   0.03
  19   6     0.02   0.33   0.16    -0.04   0.09   0.05     0.11   0.04   0.02
  20   6     0.04   0.20   0.10    -0.05   0.06   0.03     0.14  -0.02   0.01
  21   6     0.08  -0.20  -0.09    -0.04  -0.05  -0.04     0.14  -0.06   0.01
  22   6     0.06  -0.31  -0.14    -0.02  -0.08  -0.05     0.10  -0.02   0.04
  23   6     0.02  -0.07  -0.04    -0.02  -0.02  -0.01     0.07   0.05   0.04
  24   8     0.02   0.01   0.00    -0.03  -0.00  -0.01     0.08   0.10   0.07
  25   6     0.01   0.08   0.04    -0.02   0.02   0.01     0.07   0.04   0.02
  26   6     0.01   0.29   0.15    -0.02   0.08   0.04     0.09  -0.07  -0.05
  27   6     0.03   0.18   0.10    -0.01   0.05   0.03     0.10  -0.08  -0.05
  28   6     0.05  -0.20  -0.09    -0.01  -0.06  -0.02     0.09   0.05   0.03
  29   6     0.04  -0.31  -0.15    -0.01  -0.09  -0.03     0.08   0.13   0.07
  30   6     0.02  -0.09  -0.05    -0.02  -0.03  -0.00     0.06   0.09   0.04
  31   6    -0.00   0.01  -0.02    -0.00  -0.01  -0.01     0.02   0.01  -0.03
  32   6    -0.01  -0.00   0.00    -0.00  -0.02   0.01    -0.01  -0.01   0.00
  33   7    -0.01  -0.01   0.02     0.02  -0.04   0.02    -0.05   0.00  -0.04
  34   6     0.01  -0.03   0.03    -0.05   0.04  -0.04    -0.09  -0.01  -0.05
  35   6     0.05  -0.07   0.06    -0.20   0.18  -0.15    -0.13  -0.03  -0.10
  36   6     0.03  -0.05   0.04    -0.12   0.13  -0.10    -0.11  -0.09  -0.06
  37   6    -0.06   0.02  -0.02     0.14  -0.08   0.09    -0.03  -0.16   0.03
  38   6    -0.08   0.04  -0.04     0.21  -0.16   0.15    -0.02  -0.13   0.05
  39   6    -0.03   0.01  -0.01     0.06  -0.06   0.04    -0.06  -0.04  -0.02
  40   8    -0.02  -0.01  -0.00     0.01  -0.02   0.00    -0.11  -0.02  -0.07
  41   6    -0.00  -0.03   0.01    -0.05   0.03  -0.04    -0.06  -0.03  -0.05
  42   6     0.04  -0.08   0.04    -0.23   0.20  -0.17    -0.04  -0.09  -0.04
  43   6     0.01  -0.08   0.03    -0.13   0.14  -0.11    -0.03  -0.14  -0.02
  44   6    -0.08  -0.00  -0.03     0.17  -0.14   0.11    -0.06  -0.12  -0.01
  45   6    -0.10   0.03  -0.04     0.26  -0.23   0.18    -0.08  -0.07  -0.02
  46   6    -0.04   0.00  -0.01     0.09  -0.09   0.07    -0.06  -0.03  -0.04
  47   6    -0.01  -0.00  -0.00    -0.02  -0.03   0.01    -0.02  -0.00   0.08
  48   6    -0.01   0.02  -0.02     0.05   0.05   0.02    -0.09   0.14  -0.04
  49   6    -0.00   0.03  -0.01     0.06   0.07   0.05    -0.09   0.20  -0.10
  50   1     0.00   0.02   0.01     0.00   0.01   0.00     0.02   0.04  -0.06
  51   1    -0.00   0.01   0.00     0.00  -0.00  -0.01     0.02   0.02  -0.03
  52   1     0.01   0.00  -0.00     0.01   0.01  -0.01     0.01  -0.01   0.02
  53   1     0.01   0.01   0.01     0.01   0.02   0.00    -0.01  -0.00  -0.00
  54   1     0.00   0.00   0.01    -0.00   0.01   0.01    -0.03   0.01  -0.02
  55   1    -0.01   0.00  -0.00    -0.01  -0.00   0.01    -0.00   0.01  -0.01
  56   1    -0.01   0.00  -0.01    -0.01  -0.01  -0.01     0.02   0.00   0.02
  57   1    -0.01   0.00   0.01    -0.01  -0.00  -0.00    -0.01   0.00   0.02
  58   1     0.00   0.17   0.07    -0.02   0.05   0.03     0.03   0.02   0.00
  59   1     0.01   0.11   0.05    -0.02   0.03   0.02     0.05  -0.01  -0.00
  60   1     0.03  -0.11  -0.05    -0.01  -0.03  -0.02     0.05  -0.03  -0.00
  61   1     0.02  -0.16  -0.07    -0.00  -0.04  -0.03     0.03  -0.01   0.02
  62   1     0.00   0.15   0.07    -0.01   0.04   0.02     0.03  -0.04  -0.03
  63   1     0.01   0.10   0.05    -0.00   0.03   0.02     0.03  -0.05  -0.03
  64   1     0.02  -0.11  -0.05    -0.00  -0.03  -0.01     0.03   0.02   0.01
  65   1     0.01  -0.16  -0.07    -0.00  -0.04  -0.02     0.02   0.06   0.03
  66   1     0.00   0.00  -0.01     0.00  -0.00  -0.01     0.01   0.00  -0.02
  67   1     0.03  -0.03   0.03    -0.10   0.09  -0.07    -0.05   0.00  -0.05
  68   1     0.02  -0.02   0.02    -0.07   0.07  -0.06    -0.04  -0.03  -0.02
  69   1    -0.03   0.01  -0.02     0.07  -0.05   0.05     0.00  -0.06   0.03
  70   1    -0.04   0.02  -0.02     0.10  -0.08   0.07     0.00  -0.05   0.04
  71   1     0.03  -0.04   0.02    -0.12   0.10  -0.08    -0.00  -0.03  -0.02
  72   1     0.01  -0.04   0.01    -0.08   0.08  -0.06    -0.00  -0.05  -0.00
  73   1    -0.03   0.01  -0.01     0.09  -0.07   0.06    -0.01  -0.04   0.00
  74   1    -0.04   0.02  -0.02     0.13  -0.11   0.09    -0.03  -0.02  -0.00
  75   1    -0.00  -0.00  -0.00    -0.01  -0.01   0.01    -0.01  -0.00   0.03
  76   1    -0.00   0.01  -0.01     0.01   0.01   0.00    -0.04   0.04   0.00
  77   1    -0.00   0.01  -0.00     0.02   0.02   0.02    -0.04   0.07  -0.03
                     19                     20                     21
                        a                      a                      a 
 Frequencies --   132.7563               140.1068               163.2650
 Red. masses --    11.8068                11.5216                11.3968
 Frc consts  --     0.0000                 0.0000                 0.0000
 IR Inten    --     6.5623                 2.7487                 0.4918
 Raman Activ --     0.0000                 0.0000                 0.0000
 Depolar     --     0.0000                 0.0000                 0.0000
 Atom AN      X      Y      Z        X      Y      Z        X      Y      Z
   1   7    -0.03   0.31  -0.29     0.19   0.13   0.07     0.06  -0.20  -0.03
   2   6     0.01  -0.03   0.03     0.11  -0.07  -0.07     0.10   0.06  -0.01
   3   6     0.02  -0.16   0.15     0.07  -0.17  -0.13     0.11   0.14   0.01
   4   6    -0.03  -0.12   0.14     0.08  -0.14  -0.10     0.14   0.10  -0.00
   5   6    -0.05  -0.07   0.08     0.12  -0.05  -0.00     0.10  -0.05  -0.04
   6   6     0.00  -0.07   0.02     0.11   0.00   0.07     0.02  -0.11  -0.04
   7   7    -0.02  -0.01  -0.07     0.15   0.04   0.18    -0.00  -0.18  -0.05
   8   6    -0.05   0.02  -0.07     0.16   0.02   0.15     0.02  -0.18  -0.00
   9   6    -0.04   0.03  -0.06     0.12  -0.01   0.12     0.05  -0.15   0.02
  10   6     0.02   0.01  -0.01    -0.01   0.00  -0.01    -0.03  -0.09   0.04
  11   6     0.06  -0.01   0.04    -0.07   0.06  -0.12    -0.16  -0.09   0.05
  12   6     0.02  -0.01   0.01     0.04   0.07  -0.05    -0.15  -0.16   0.07
  13   6    -0.04   0.01  -0.05     0.16   0.05   0.09    -0.06  -0.22   0.05
  14   6     0.02   0.01  -0.08     0.03  -0.00   0.09     0.01  -0.12   0.00
  15   6     0.01   0.02  -0.07     0.01  -0.01   0.09     0.00  -0.09   0.00
  16   6     0.01   0.02   0.00    -0.00   0.00   0.00     0.02  -0.08  -0.01
  17   7     0.02   0.10   0.05    -0.02   0.11   0.02     0.01  -0.01  -0.02
  18   6     0.04   0.10   0.05    -0.06   0.15   0.02    -0.02   0.05  -0.00
  19   6     0.09   0.12   0.05    -0.10   0.19   0.05    -0.05   0.08   0.02
  20   6     0.12   0.01   0.02    -0.11   0.08  -0.03    -0.06   0.04  -0.01
  21   6     0.13  -0.10  -0.02    -0.08  -0.10  -0.13    -0.05  -0.04  -0.07
  22   6     0.09  -0.06   0.01    -0.06  -0.07  -0.12    -0.03  -0.03  -0.06
  23   6     0.05   0.06   0.04    -0.05   0.09  -0.01    -0.02   0.04  -0.01
  24   8     0.06   0.14   0.08    -0.09   0.20   0.06    -0.03   0.10   0.03
  25   6     0.05   0.06   0.02    -0.07   0.09   0.02    -0.02   0.04   0.01
  26   6     0.09  -0.05  -0.05    -0.12  -0.05  -0.04    -0.06  -0.03  -0.01
  27   6     0.11  -0.09  -0.05    -0.16  -0.10  -0.11    -0.09  -0.05  -0.05
  28   6     0.10   0.03   0.03    -0.16   0.03  -0.07    -0.09   0.02  -0.04
  29   6     0.07   0.12   0.08    -0.11   0.16  -0.02    -0.06   0.07  -0.02
  30   6     0.05   0.10   0.05    -0.06   0.13   0.02    -0.02   0.04   0.00
  31   6    -0.02   0.01   0.04     0.03  -0.00  -0.04     0.05  -0.10  -0.00
  32   6    -0.02   0.01  -0.02     0.01  -0.01   0.01     0.05  -0.08   0.02
  33   7    -0.11   0.06  -0.05     0.02  -0.03   0.02    -0.01  -0.01   0.01
  34   6    -0.14   0.06  -0.06     0.01  -0.04   0.02    -0.04   0.08  -0.03
  35   6    -0.17   0.08  -0.09     0.01  -0.07   0.01    -0.05   0.18  -0.01
  36   6    -0.08  -0.00  -0.01    -0.03  -0.05  -0.00     0.06   0.16   0.04
  37   6     0.05  -0.12   0.10    -0.06  -0.02  -0.03     0.18   0.07   0.09
  38   6     0.04  -0.10   0.08    -0.05  -0.02  -0.01     0.12   0.05   0.02
  39   6    -0.09   0.01  -0.02     0.00  -0.03   0.02    -0.03   0.08  -0.04
  40   8    -0.17   0.07  -0.09     0.02  -0.06   0.03    -0.12   0.18  -0.09
  41   6    -0.09   0.02  -0.04     0.00  -0.04   0.00    -0.03   0.08  -0.00
  42   6    -0.00  -0.09   0.01    -0.04  -0.02  -0.03     0.10   0.02   0.12
  43   6     0.01  -0.15   0.05    -0.06  -0.03  -0.04     0.14   0.04   0.12
  44   6    -0.08  -0.08  -0.00    -0.03  -0.06  -0.00     0.01   0.17  -0.00
  45   6    -0.15   0.02  -0.05    -0.00  -0.07   0.03    -0.06   0.18  -0.08
  46   6    -0.12   0.04  -0.05     0.01  -0.04   0.02    -0.05   0.10  -0.02
  47   6     0.01   0.02  -0.08     0.02   0.01   0.06     0.02  -0.11   0.02
  48   6     0.06  -0.11   0.03     0.09  -0.06   0.01    -0.00  -0.06  -0.03
  49   6     0.06  -0.16   0.09     0.06  -0.15  -0.08     0.03   0.06  -0.00
  50   1    -0.02  -0.04   0.06     0.02  -0.05  -0.04     0.06   0.04   0.00
  51   1    -0.03  -0.01   0.02     0.04  -0.01   0.01     0.04  -0.03  -0.02
  52   1    -0.02   0.01  -0.02     0.04  -0.01   0.05     0.03  -0.04   0.00
  53   1     0.01   0.00   0.00    -0.02  -0.01  -0.01    -0.00  -0.01   0.01
  54   1     0.04  -0.01   0.03    -0.06   0.02  -0.07    -0.07  -0.01   0.01
  55   1     0.01  -0.01   0.01     0.00   0.03  -0.03    -0.06  -0.05   0.02
  56   1    -0.02   0.00  -0.02     0.06   0.02   0.04    -0.02  -0.09   0.02
  57   1     0.00   0.01  -0.02     0.00  -0.01   0.04    -0.00  -0.03   0.00
  58   1     0.03   0.06   0.01    -0.03   0.08   0.03    -0.02   0.03   0.02
  59   1     0.04   0.00   0.00    -0.04   0.03  -0.00    -0.02   0.02   0.00
  60   1     0.04  -0.06  -0.02    -0.02  -0.07  -0.06    -0.02  -0.03  -0.03
  61   1     0.02  -0.04   0.00    -0.01  -0.04  -0.06    -0.01  -0.02  -0.03
  62   1     0.03  -0.03  -0.03    -0.04  -0.04  -0.01    -0.02  -0.02   0.00
  63   1     0.04  -0.05  -0.03    -0.05  -0.07  -0.05    -0.03  -0.03  -0.02
  64   1     0.03   0.01   0.01    -0.05   0.01  -0.03    -0.03   0.01  -0.01
  65   1     0.02   0.05   0.04    -0.03   0.07  -0.01    -0.01   0.03  -0.01
  66   1    -0.01   0.00   0.03     0.01   0.00  -0.02     0.02  -0.03  -0.00
  67   1    -0.07   0.04  -0.04     0.01  -0.02   0.00    -0.04   0.07   0.00
  68   1    -0.03   0.00  -0.01    -0.01  -0.02  -0.00     0.02   0.06   0.01
  69   1     0.05  -0.06   0.05    -0.03  -0.00  -0.01     0.09   0.00   0.04
  70   1     0.03  -0.05   0.04    -0.02   0.00  -0.00     0.06  -0.00  -0.00
  71   1     0.02  -0.04   0.00    -0.01  -0.00  -0.02     0.04  -0.01   0.06
  72   1     0.03  -0.07   0.03    -0.03  -0.00  -0.02     0.07  -0.01   0.06
  73   1    -0.02  -0.03   0.00    -0.01  -0.02   0.00    -0.00   0.06  -0.01
  74   1    -0.06   0.02  -0.02     0.00  -0.02   0.02    -0.03   0.07  -0.04
  75   1     0.01   0.01  -0.03     0.00   0.01   0.02     0.01  -0.04   0.00
  76   1     0.03  -0.03  -0.00     0.03  -0.01   0.01    -0.01  -0.03  -0.01
  77   1     0.03  -0.06   0.03     0.01  -0.05  -0.03    -0.00   0.03   0.00
                     22                     23                     24
                        a                      a                      a 
 Frequencies --   205.3170               223.4077               233.8855
 Red. masses --    11.4703                10.8799                11.0355
 Frc consts  --     0.0000                 0.0000                 0.0000
 IR Inten    --     0.6586                 0.3570                 5.1785
 Raman Activ --     0.0000                 0.0000                 0.0000
 Depolar     --     0.0000                 0.0000                 0.0000
 Atom AN      X      Y      Z        X      Y      Z        X      Y      Z
   1   7     0.03   0.02  -0.04     0.06  -0.16  -0.03     0.00   0.12   0.07
   2   6     0.03  -0.02   0.01     0.11   0.12  -0.01    -0.07  -0.11  -0.05
   3   6     0.03  -0.03   0.02     0.11   0.15   0.01    -0.08  -0.14  -0.08
   4   6     0.00   0.01   0.03     0.15   0.06  -0.03    -0.05   0.02   0.04
   5   6    -0.01   0.03  -0.01     0.10  -0.14  -0.04    -0.01   0.15   0.08
   6   6     0.00   0.01  -0.05     0.02  -0.14   0.05     0.03   0.12   0.00
   7   7    -0.02  -0.01  -0.07     0.06   0.02   0.15    -0.02  -0.03  -0.12
   8   6    -0.01  -0.01  -0.08    -0.21   0.12  -0.04    -0.00  -0.07  -0.21
   9   6     0.01   0.03  -0.08    -0.32   0.10  -0.10     0.02   0.05  -0.21
  10   6     0.02   0.06  -0.02    -0.07  -0.02   0.01     0.05   0.13  -0.05
  11   6     0.03   0.03   0.03     0.21  -0.10   0.15     0.06   0.06   0.09
  12   6    -0.00  -0.01   0.01    -0.02   0.05  -0.02    -0.05  -0.04   0.03
  13   6    -0.02  -0.03  -0.05    -0.27   0.17  -0.14    -0.08  -0.10  -0.15
  14   6     0.03   0.03   0.15     0.15   0.06   0.02    -0.04  -0.03   0.20
  15   6     0.01   0.12   0.23     0.16   0.01  -0.04    -0.02  -0.07   0.14
  16   6     0.07   0.15   0.10     0.07  -0.04  -0.03     0.00  -0.08  -0.05
  17   7     0.06   0.18   0.11     0.06  -0.13  -0.04     0.02  -0.19  -0.09
  18   6     0.04  -0.00   0.01     0.03  -0.04   0.01     0.01  -0.08  -0.01
  19   6    -0.05  -0.12  -0.02    -0.06   0.01   0.05    -0.01   0.01   0.04
  20   6    -0.11  -0.06  -0.06    -0.12   0.07   0.03    -0.03   0.07   0.06
  21   6    -0.11   0.11  -0.01    -0.10  -0.01  -0.06    -0.02  -0.04  -0.01
  22   6    -0.02   0.10  -0.03    -0.02  -0.04  -0.08     0.00  -0.08  -0.03
  23   6     0.05  -0.04  -0.03     0.03  -0.01   0.00     0.01  -0.01   0.02
  24   8     0.06  -0.22  -0.10     0.03   0.12   0.09     0.00   0.20   0.13
  25   6     0.02  -0.03   0.01     0.03   0.01   0.04     0.01  -0.01   0.01
  26   6    -0.07   0.06   0.09    -0.03  -0.06   0.03     0.03  -0.10  -0.04
  27   6    -0.14   0.06   0.03    -0.07  -0.05  -0.01     0.03  -0.04  -0.00
  28   6    -0.12  -0.08  -0.09    -0.07   0.04   0.01     0.02   0.10   0.08
  29   6    -0.04  -0.06  -0.10    -0.02   0.05   0.00     0.02   0.03   0.04
  30   6     0.03   0.02   0.01     0.03  -0.02   0.01     0.01  -0.06  -0.01
  31   6     0.20   0.10  -0.05     0.04  -0.01  -0.03     0.05  -0.05  -0.28
  32   6     0.15  -0.01   0.10     0.03   0.04  -0.01    -0.03  -0.03   0.03
  33   7     0.19  -0.05   0.12    -0.04   0.09  -0.03    -0.06   0.03  -0.05
  34   6     0.04   0.01   0.01     0.01   0.03   0.01     0.00   0.00  -0.02
  35   6    -0.06  -0.01  -0.11     0.02  -0.03  -0.00     0.03  -0.00   0.00
  36   6    -0.14  -0.06  -0.10    -0.01  -0.05   0.00     0.05  -0.01   0.01
  37   6    -0.05  -0.15   0.04    -0.06  -0.02  -0.01     0.02   0.03  -0.02
  38   6    -0.01  -0.09   0.10    -0.04   0.01   0.02    -0.01   0.03  -0.04
  39   6    -0.00   0.04   0.01     0.02   0.01   0.02     0.01  -0.00  -0.01
  40   8    -0.12   0.17  -0.11     0.07  -0.03   0.06     0.05  -0.04   0.03
  41   6     0.01   0.06  -0.03     0.01   0.02  -0.00    -0.01   0.00  -0.00
  42   6     0.07  -0.09  -0.04    -0.02  -0.00  -0.05    -0.00   0.03   0.02
  43   6     0.01  -0.16  -0.01    -0.04  -0.05  -0.03     0.02   0.05   0.01
  44   6    -0.12  -0.06  -0.05    -0.02  -0.08   0.02     0.05   0.03   0.01
  45   6    -0.12   0.03  -0.01    -0.02  -0.03   0.03     0.02   0.02  -0.02
  46   6     0.03   0.04   0.01    -0.01   0.04  -0.00    -0.03   0.02  -0.03
  47   6     0.09  -0.03   0.22     0.12   0.07   0.02    -0.10  -0.04   0.40
  48   6     0.04  -0.00  -0.04    -0.05  -0.14   0.01     0.06   0.13   0.03
  49   6     0.04  -0.04  -0.02    -0.03   0.02  -0.02     0.00  -0.05  -0.05
  50   1    -0.00   0.01   0.02     0.06   0.03  -0.01    -0.02   0.01   0.03
  51   1    -0.01   0.01  -0.00     0.04  -0.07  -0.03    -0.01   0.07   0.04
  52   1     0.01   0.01  -0.03    -0.13   0.03  -0.04     0.02   0.03  -0.09
  53   1     0.01   0.03  -0.01    -0.01  -0.02   0.01     0.03   0.06  -0.01
  54   1     0.02   0.01   0.02     0.15  -0.07   0.10     0.04   0.02   0.07
  55   1    -0.00  -0.01   0.02     0.01   0.02  -0.01    -0.03  -0.03   0.04
  56   1    -0.01  -0.02  -0.02    -0.11   0.08  -0.06    -0.04  -0.06  -0.05
  57   1    -0.01   0.04   0.08     0.06  -0.00  -0.02    -0.00  -0.02   0.04
  58   1    -0.02  -0.06   0.01    -0.02  -0.00   0.03    -0.01   0.01   0.02
  59   1    -0.04  -0.04  -0.02    -0.05   0.04   0.02    -0.01   0.05   0.03
  60   1    -0.04   0.07   0.00    -0.04  -0.00  -0.03    -0.01  -0.02  -0.01
  61   1     0.00   0.06  -0.02     0.00  -0.01  -0.05     0.00  -0.03  -0.02
  62   1    -0.03   0.02   0.06    -0.01  -0.03   0.02     0.01  -0.04  -0.02
  63   1    -0.05   0.04   0.02    -0.03  -0.03  -0.01     0.01  -0.02  -0.00
  64   1    -0.04  -0.04  -0.05    -0.03   0.02   0.00     0.01   0.06   0.04
  65   1    -0.01  -0.02  -0.06    -0.00   0.03  -0.01     0.00   0.01   0.01
  66   1     0.10   0.05  -0.06     0.00  -0.01  -0.00     0.03  -0.01  -0.17
  67   1    -0.02   0.00  -0.06     0.01  -0.01  -0.01     0.01   0.00   0.00
  68   1    -0.06  -0.01  -0.05    -0.00  -0.02   0.00     0.02  -0.01   0.01
  69   1    -0.01  -0.07   0.03    -0.03  -0.00  -0.00     0.00   0.01  -0.01
  70   1    -0.01  -0.03   0.06    -0.02   0.01   0.02    -0.00   0.01  -0.02
  71   1     0.04  -0.04  -0.03    -0.00   0.00  -0.03    -0.00   0.01   0.01
  72   1     0.02  -0.07   0.00    -0.02  -0.02  -0.02     0.01   0.02   0.01
  73   1    -0.06  -0.01  -0.02    -0.00  -0.04   0.01     0.02   0.01   0.01
  74   1    -0.06   0.02   0.01    -0.01  -0.01   0.02     0.01   0.00  -0.01
  75   1     0.02  -0.02   0.08     0.03   0.04   0.01    -0.04  -0.01   0.17
  76   1     0.02   0.00  -0.01    -0.04  -0.06   0.00     0.03   0.06   0.02
  77   1     0.02  -0.02  -0.01    -0.04   0.01  -0.01     0.01  -0.03  -0.02
                     25                     26                     27
                        a                      a                      a 
 Frequencies --   237.2583               243.0297               250.1619
 Red. masses --    11.4255                11.5644                10.4618
 Frc consts  --     0.0000                 0.0000                 0.0000
 IR Inten    --     0.3601                 3.5048                 3.2500
 Raman Activ --     0.0000                 0.0000                 0.0000
 Depolar     --     0.0000                 0.0000                 0.0000
 Atom AN      X      Y      Z        X      Y      Z        X      Y      Z
   1   7     0.05  -0.08  -0.16    -0.27  -0.03  -0.06    -0.01  -0.02  -0.03
   2   6     0.15   0.05   0.11    -0.14   0.11   0.20     0.01   0.02   0.03
   3   6     0.14   0.07   0.13    -0.11   0.13   0.21     0.02   0.02   0.04
   4   6     0.02   0.01   0.03    -0.15  -0.03   0.07    -0.00  -0.00   0.01
   5   6    -0.05  -0.08  -0.16    -0.19  -0.11  -0.09    -0.02  -0.03  -0.03
   6   6    -0.05  -0.07  -0.16    -0.08  -0.07  -0.14    -0.01  -0.02  -0.03
   7   7    -0.04  -0.02  -0.06     0.02   0.01  -0.05     0.01   0.01   0.01
   8   6     0.02  -0.05  -0.00     0.11   0.03   0.04    -0.00   0.02  -0.00
   9   6     0.03  -0.07   0.01     0.18   0.05   0.07    -0.01   0.03  -0.01
  10   6    -0.03  -0.04  -0.00     0.06   0.08  -0.04     0.00   0.03  -0.01
  11   6    -0.09  -0.04   0.00    -0.02   0.13  -0.14     0.03   0.02  -0.00
  12   6    -0.02  -0.07   0.05     0.13   0.07  -0.04     0.02   0.03  -0.01
  13   6     0.02  -0.09   0.05     0.21   0.04   0.04     0.00   0.03  -0.02
  14   6    -0.03   0.03   0.14     0.07   0.01  -0.02     0.00   0.01   0.06
  15   6    -0.11   0.05   0.42     0.07  -0.05   0.02    -0.01  -0.00   0.09
  16   6    -0.05   0.06   0.08     0.07  -0.07  -0.05    -0.01  -0.00   0.04
  17   7    -0.01   0.04  -0.00     0.08  -0.18  -0.06     0.01  -0.01  -0.01
  18   6     0.00   0.02  -0.01     0.07  -0.15  -0.04     0.01   0.01  -0.01
  19   6     0.05   0.01  -0.03    -0.03  -0.07   0.03     0.01   0.01  -0.01
  20   6     0.08  -0.05  -0.03    -0.12   0.14   0.07     0.01  -0.01  -0.01
  21   6     0.07  -0.01   0.01    -0.09   0.05  -0.03     0.01  -0.00  -0.01
  22   6     0.03   0.05   0.05     0.01  -0.12  -0.13     0.01   0.01  -0.00
  23   6     0.00   0.02  -0.00     0.07  -0.08  -0.03     0.01   0.01  -0.00
  24   8     0.02  -0.04  -0.04     0.07   0.19   0.14     0.01   0.00  -0.01
  25   6     0.01   0.00  -0.03     0.05   0.03   0.06     0.01  -0.00  -0.01
  26   6     0.01   0.01  -0.03    -0.02  -0.05   0.04    -0.01  -0.00   0.00
  27   6     0.01   0.03  -0.02    -0.07  -0.08  -0.02    -0.02   0.01  -0.01
  28   6     0.01   0.02  -0.03    -0.06   0.04   0.00    -0.02   0.01  -0.02
  29   6     0.01   0.01  -0.03     0.01   0.07  -0.00    -0.00   0.01  -0.02
  30   6     0.01   0.02  -0.02     0.06  -0.01   0.01     0.01  -0.00  -0.01
  31   6    -0.02   0.09  -0.19     0.08  -0.06  -0.09    -0.01  -0.01   0.04
  32   6    -0.06   0.08  -0.09     0.06  -0.02  -0.02    -0.01  -0.01   0.04
  33   7    -0.17   0.17  -0.12     0.04  -0.02   0.04    -0.01  -0.02  -0.01
  34   6    -0.05   0.05  -0.01     0.03  -0.01   0.03    -0.21   0.15  -0.17
  35   6     0.02  -0.01   0.05     0.01   0.00   0.02    -0.17   0.13  -0.12
  36   6     0.07  -0.05   0.09    -0.02   0.02  -0.01     0.15  -0.13   0.12
  37   6    -0.04   0.05  -0.00    -0.01   0.01   0.01     0.15  -0.12   0.11
  38   6    -0.08   0.08  -0.03     0.02  -0.01   0.03    -0.16   0.13  -0.15
  39   6    -0.00   0.01   0.03     0.01   0.00   0.02    -0.20   0.14  -0.17
  40   8     0.18  -0.15   0.18    -0.03   0.05  -0.02    -0.02  -0.04  -0.01
  41   6    -0.03   0.04   0.00     0.00   0.02   0.01     0.18  -0.19   0.14
  42   6    -0.10   0.06  -0.07     0.01  -0.01  -0.01     0.15  -0.15   0.14
  43   6    -0.05  -0.03  -0.01    -0.01  -0.04   0.00    -0.13   0.14  -0.10
  44   6     0.05  -0.13   0.09    -0.04  -0.02   0.00    -0.14   0.15  -0.12
  45   6    -0.04  -0.02   0.04    -0.03   0.00   0.02     0.16  -0.14   0.10
  46   6    -0.09   0.09  -0.04     0.01   0.01   0.02     0.19  -0.20   0.14
  47   6    -0.03   0.09  -0.05     0.10  -0.01  -0.05     0.00  -0.00   0.05
  48   6     0.03  -0.12  -0.16    -0.13  -0.06  -0.15    -0.01  -0.03  -0.04
  49   6     0.10  -0.04   0.01    -0.06   0.05   0.05     0.01  -0.01   0.00
  50   1    -0.01   0.01   0.03    -0.04  -0.01   0.02    -0.00   0.00   0.00
  51   1    -0.03  -0.04  -0.06    -0.08  -0.03  -0.04    -0.01  -0.01  -0.01
  52   1     0.02  -0.02   0.01     0.07   0.01   0.03    -0.00   0.01  -0.00
  53   1    -0.01   0.00  -0.00     0.00   0.02  -0.02    -0.00   0.00  -0.00
  54   1    -0.04  -0.00  -0.01    -0.05   0.05  -0.08     0.01   0.00   0.00
  55   1    -0.00  -0.02   0.02     0.04   0.02  -0.01     0.01   0.01  -0.00
  56   1     0.01  -0.04   0.02     0.08   0.02   0.02    -0.00   0.01  -0.01
  57   1    -0.05   0.01   0.19     0.03  -0.02   0.02    -0.00  -0.00   0.03
  58   1     0.01   0.01  -0.01    -0.02  -0.03   0.03     0.00   0.00  -0.00
  59   1     0.03  -0.03  -0.02    -0.05   0.10   0.05     0.00  -0.00  -0.01
  60   1     0.02  -0.00   0.01    -0.04   0.04  -0.01     0.00  -0.00  -0.00
  61   1     0.00   0.02   0.03     0.01  -0.03  -0.06     0.00   0.01   0.00
  62   1     0.00   0.00  -0.01    -0.01  -0.03   0.03    -0.00  -0.00   0.01
  63   1     0.00   0.01  -0.00    -0.03  -0.04  -0.01    -0.01   0.00  -0.00
  64   1     0.00   0.00  -0.01    -0.03   0.03  -0.00    -0.01   0.00  -0.01
  65   1     0.00  -0.00  -0.01     0.01   0.04  -0.01     0.00   0.00  -0.01
  66   1     0.01   0.03  -0.11     0.02  -0.02  -0.03     0.00  -0.00   0.00
  67   1     0.01  -0.01   0.01     0.00   0.00   0.00    -0.06   0.04  -0.04
  68   1     0.05  -0.04   0.05    -0.02   0.01  -0.01     0.11  -0.09   0.09
  69   1    -0.02   0.02  -0.01    -0.01   0.01   0.00     0.11  -0.09   0.08
  70   1    -0.03   0.03  -0.01     0.00  -0.00   0.01    -0.05   0.04  -0.05
  71   1    -0.03   0.02  -0.04     0.01  -0.00  -0.01     0.05  -0.05   0.05
  72   1    -0.01  -0.02  -0.01    -0.00  -0.02  -0.00    -0.10   0.10  -0.07
  73   1     0.05  -0.07   0.05    -0.02  -0.01   0.00    -0.10   0.11  -0.08
  74   1    -0.01  -0.01   0.02    -0.01   0.00   0.01     0.06  -0.05   0.03
  75   1     0.00   0.04  -0.05     0.03  -0.00  -0.02     0.00   0.00   0.01
  76   1     0.02  -0.04  -0.07    -0.05  -0.04  -0.06    -0.00  -0.01  -0.02
  77   1     0.04  -0.01   0.01     0.01   0.01   0.03     0.00  -0.00   0.00
                     28                     29                     30
                        a                      a                      a 
 Frequencies --   250.9397               260.3187               263.2572
 Red. masses --    10.5504                11.3705                11.4693
 Frc consts  --     0.0000                 0.0000                 0.0000
 IR Inten    --     1.6303                 7.3614                 0.8533
 Raman Activ --     0.0000                 0.0000                 0.0000
 Depolar     --     0.0000                 0.0000                 0.0000
 Atom AN      X      Y      Z        X      Y      Z        X      Y      Z
   1   7     0.05   0.03   0.03     0.00   0.02   0.05    -0.11   0.03   0.05
   2   6     0.01  -0.04  -0.05    -0.03  -0.02  -0.05    -0.11   0.01   0.01
   3   6     0.00  -0.04  -0.06    -0.03  -0.02  -0.06    -0.10   0.00   0.00
   4   6     0.02   0.01  -0.01     0.01  -0.00  -0.02    -0.04  -0.01   0.03
   5   6     0.04   0.05   0.04     0.03   0.03   0.06    -0.02  -0.01   0.05
   6   6     0.02   0.03   0.03     0.01   0.01   0.06     0.01  -0.02   0.02
   7   7    -0.01  -0.01  -0.01    -0.00  -0.01  -0.00     0.02  -0.04  -0.05
   8   6    -0.01  -0.03  -0.02    -0.00  -0.01   0.03     0.05  -0.06  -0.05
   9   6    -0.02  -0.03  -0.02     0.01  -0.04   0.04     0.10  -0.03  -0.03
  10   6    -0.01  -0.02   0.01    -0.00  -0.05   0.02     0.05   0.02  -0.01
  11   6    -0.02  -0.03   0.03    -0.04  -0.03  -0.01    -0.05   0.03  -0.02
  12   6    -0.04  -0.03   0.02    -0.02  -0.02   0.00    -0.01  -0.04   0.01
  13   6    -0.04  -0.04  -0.00     0.01  -0.02   0.04     0.06  -0.09   0.00
  14   6    -0.02  -0.00   0.00     0.02  -0.01  -0.20     0.08  -0.00  -0.01
  15   6    -0.02   0.01   0.00     0.02   0.00  -0.22     0.14  -0.01  -0.24
  16   6    -0.02   0.01   0.03     0.08   0.02  -0.25     0.06  -0.03   0.03
  17   7     0.01   0.05   0.02     0.00   0.12   0.11     0.07   0.03   0.04
  18   6     0.03  -0.23  -0.13     0.03   0.04   0.11     0.05   0.11   0.09
  19   6     0.03  -0.20  -0.11    -0.06  -0.03   0.10    -0.03   0.07   0.08
  20   6     0.01   0.17   0.08    -0.11  -0.07   0.02    -0.08  -0.07  -0.06
  21   6     0.00   0.19   0.09    -0.11  -0.01   0.00    -0.07  -0.03  -0.09
  22   6     0.03  -0.19  -0.10    -0.03   0.04   0.01    -0.00   0.12  -0.02
  23   6     0.04  -0.24  -0.13     0.03   0.00   0.06     0.06   0.08   0.05
  24   8     0.03  -0.06  -0.04     0.05  -0.15  -0.01     0.10  -0.12  -0.05
  25   6     0.00   0.26   0.14     0.01   0.01   0.06     0.07  -0.03   0.01
  26   6    -0.01   0.25   0.14     0.03   0.01   0.05    -0.04   0.01   0.08
  27   6     0.00  -0.18  -0.11     0.06  -0.03   0.05    -0.10   0.00   0.01
  28   6     0.01  -0.23  -0.14     0.06  -0.06   0.05    -0.09  -0.03  -0.06
  29   6    -0.00   0.22   0.10     0.02   0.00   0.08     0.00   0.01  -0.06
  30   6    -0.00   0.28   0.14    -0.01   0.07   0.09     0.07  -0.00   0.01
  31   6    -0.04   0.01   0.08     0.17   0.04  -0.57     0.00  -0.06   0.26
  32   6    -0.03   0.01   0.01     0.07   0.02  -0.25     0.04  -0.01   0.12
  33   7    -0.05   0.03  -0.04     0.02   0.00   0.05    -0.08   0.11  -0.09
  34   6    -0.05   0.02  -0.03    -0.05   0.04   0.01    -0.10   0.13  -0.11
  35   6    -0.02   0.01  -0.01    -0.05   0.07   0.03    -0.05   0.04  -0.10
  36   6     0.04  -0.02   0.03     0.07   0.01   0.11     0.09  -0.15   0.05
  37   6     0.01  -0.00   0.00     0.05   0.04   0.08     0.00  -0.08   0.02
  38   6    -0.03   0.02  -0.03    -0.06   0.09  -0.03    -0.13   0.08  -0.07
  39   6    -0.02   0.00  -0.02    -0.05   0.05   0.01    -0.04   0.07  -0.05
  40   8     0.05  -0.08   0.05     0.04   0.01   0.09     0.26  -0.19   0.18
  41   6    -0.01  -0.01  -0.01     0.02   0.02   0.06    -0.03   0.06  -0.06
  42   6    -0.03   0.02  -0.01    -0.02  -0.01  -0.01    -0.09   0.10  -0.11
  43   6     0.00   0.02   0.00    -0.08  -0.07   0.00     0.05  -0.04   0.00
  44   6     0.04  -0.01   0.02    -0.09  -0.08   0.06     0.12  -0.11   0.06
  45   6     0.01  -0.00  -0.02    -0.06  -0.02   0.10    -0.06   0.06  -0.07
  46   6    -0.03   0.01  -0.03     0.01   0.03   0.08    -0.10   0.12  -0.11
  47   6    -0.02   0.01  -0.02     0.01  -0.02  -0.15     0.05  -0.01   0.17
  48   6     0.03   0.04   0.04    -0.00   0.03   0.07    -0.05   0.03   0.03
  49   6     0.01  -0.00  -0.01    -0.02   0.02   0.01    -0.06   0.03   0.01
  50   1     0.00   0.00  -0.00     0.01  -0.00  -0.01    -0.00   0.00   0.00
  51   1     0.02   0.02   0.02     0.02   0.01   0.02    -0.01   0.00   0.02
  52   1    -0.00  -0.01  -0.01     0.00  -0.01   0.01     0.05  -0.01  -0.01
  53   1     0.00  -0.00   0.00     0.00  -0.02   0.01     0.02   0.02   0.00
  54   1    -0.00  -0.01   0.02    -0.02  -0.01  -0.01    -0.04   0.02  -0.01
  55   1    -0.01  -0.01   0.01    -0.01  -0.00  -0.00    -0.01  -0.02   0.01
  56   1    -0.01  -0.02  -0.00     0.01  -0.01   0.01     0.02  -0.04   0.01
  57   1    -0.00   0.00  -0.01    -0.01   0.00  -0.01     0.07  -0.00  -0.14
  58   1     0.01  -0.07  -0.04    -0.02  -0.02   0.04    -0.01   0.01   0.04
  59   1    -0.00   0.13   0.06    -0.05  -0.04  -0.00    -0.03  -0.06  -0.03
  60   1    -0.01   0.14   0.07    -0.04  -0.00  -0.01    -0.02  -0.04  -0.05
  61   1     0.01  -0.06  -0.03    -0.00   0.02  -0.02     0.01   0.04  -0.03
  62   1    -0.01   0.09   0.05     0.01  -0.00   0.00    -0.02  -0.00   0.05
  63   1     0.00  -0.14  -0.08     0.02  -0.02   0.01    -0.04   0.00   0.01
  64   1     0.01  -0.16  -0.09     0.02  -0.04   0.01    -0.04  -0.01  -0.03
  65   1    -0.00   0.08   0.03     0.01  -0.01   0.02     0.01   0.02  -0.03
  66   1    -0.01   0.00   0.03     0.06   0.01  -0.19    -0.01  -0.02   0.11
  67   1    -0.01   0.00   0.00    -0.02   0.03   0.00    -0.01   0.01  -0.03
  68   1     0.02  -0.02   0.02     0.04  -0.01   0.05     0.07  -0.09   0.05
  69   1     0.01  -0.00   0.00     0.03   0.00   0.03     0.02  -0.05   0.03
  70   1    -0.01   0.01  -0.01    -0.02   0.03  -0.02    -0.05   0.03  -0.01
  71   1    -0.01   0.01   0.00     0.00  -0.00  -0.03    -0.03   0.03  -0.04
  72   1     0.00   0.01   0.00    -0.03  -0.03  -0.01     0.04  -0.03   0.02
  73   1     0.02  -0.01   0.01    -0.03  -0.03   0.02     0.08  -0.07   0.05
  74   1     0.01  -0.00  -0.01    -0.03  -0.00   0.04    -0.02   0.02  -0.02
  75   1    -0.00   0.00  -0.01    -0.01  -0.02   0.02     0.01  -0.00   0.06
  76   1     0.01   0.02   0.02    -0.00   0.01   0.03    -0.02   0.01   0.02
  77   1    -0.00  -0.00  -0.00    -0.01   0.01   0.00    -0.01   0.00   0.00
                     31                     32                     33
                        a                      a                      a 
 Frequencies --   265.7501               269.8645               288.9381
 Red. masses --    10.6681                11.3110                11.3521
 Frc consts  --     0.0000                 0.0000                 0.0000
 IR Inten    --     0.5477                 2.5046                 1.0632
 Raman Activ --     0.0000                 0.0000                 0.0000
 Depolar     --     0.0000                 0.0000                 0.0000
 Atom AN      X      Y      Z        X      Y      Z        X      Y      Z
   1   7    -0.04   0.07   0.11     0.06   0.05   0.04    -0.06   0.02   0.03
   2   6    -0.12  -0.06  -0.09    -0.00  -0.08  -0.08    -0.06  -0.00   0.00
   3   6    -0.11  -0.06  -0.09    -0.01  -0.07  -0.08    -0.05  -0.00   0.00
   4   6    -0.03  -0.01  -0.02    -0.00   0.01  -0.02    -0.02  -0.00   0.01
   5   6     0.04   0.09   0.13     0.03   0.10   0.05    -0.01   0.00   0.03
   6   6     0.04   0.07   0.10     0.01   0.06   0.02     0.02  -0.00   0.00
   7   7     0.02  -0.01  -0.01    -0.05  -0.02  -0.07     0.02  -0.02  -0.03
   8   6    -0.02  -0.01  -0.07    -0.01  -0.08  -0.01     0.02  -0.08  -0.09
   9   6    -0.03   0.03  -0.09     0.03  -0.14   0.03     0.06  -0.06  -0.07
  10   6    -0.00   0.05  -0.03    -0.02  -0.11   0.04     0.02   0.00  -0.01
  11   6     0.05   0.01   0.04    -0.14  -0.11   0.03    -0.06  -0.02   0.03
  12   6    -0.02  -0.00   0.00    -0.09  -0.12   0.07    -0.05  -0.08   0.04
  13   6    -0.06  -0.01  -0.07    -0.02  -0.14   0.08    -0.00  -0.13  -0.01
  14   6     0.04  -0.03  -0.03     0.02   0.04  -0.09     0.06   0.02   0.02
  15   6    -0.05  -0.07   0.35     0.02   0.10  -0.04     0.06  -0.06   0.02
  16   6     0.03  -0.05   0.12     0.01   0.10   0.03     0.00  -0.10  -0.01
  17   7     0.09  -0.05  -0.02     0.01  -0.02  -0.01     0.03  -0.24  -0.12
  18   6     0.08   0.01   0.02     0.02  -0.12  -0.07    -0.00   0.07   0.04
  19   6     0.02   0.02   0.04     0.00  -0.10  -0.05    -0.01   0.14   0.08
  20   6    -0.03  -0.03  -0.04    -0.02   0.13   0.06    -0.00  -0.09  -0.05
  21   6    -0.02   0.00  -0.08    -0.02   0.07   0.03     0.00  -0.10  -0.06
  22   6     0.04   0.09  -0.04     0.01  -0.14  -0.08    -0.01   0.14   0.06
  23   6     0.10   0.04   0.01     0.01  -0.07  -0.04     0.00   0.08   0.05
  24   8     0.16   0.00   0.01    -0.03   0.27   0.15     0.05  -0.16  -0.09
  25   6     0.12  -0.03  -0.00    -0.00  -0.09  -0.05     0.02   0.08   0.05
  26   6    -0.03  -0.04   0.05     0.00  -0.15  -0.08    -0.01   0.13   0.09
  27   6    -0.14   0.01  -0.02    -0.01   0.07   0.04    -0.01  -0.11  -0.06
  28   6    -0.12   0.05  -0.09    -0.01   0.13   0.07    -0.01  -0.09  -0.06
  29   6     0.02   0.04  -0.12     0.00  -0.12  -0.06     0.01   0.15   0.06
  30   6     0.13  -0.03  -0.04     0.00  -0.14  -0.08     0.03   0.06   0.04
  31   6     0.02  -0.05   0.07    -0.03   0.11   0.13    -0.10  -0.04   0.02
  32   6     0.05  -0.05  -0.10     0.02   0.10  -0.02    -0.07   0.09  -0.03
  33   7    -0.01  -0.07   0.02     0.06   0.10   0.02    -0.16   0.21  -0.13
  34   6    -0.07  -0.07   0.03     0.04   0.13  -0.03     0.11   0.06   0.03
  35   6    -0.05   0.03   0.09     0.02   0.02  -0.10     0.16  -0.07   0.01
  36   6     0.03   0.09   0.07    -0.03  -0.12  -0.03    -0.09  -0.02  -0.09
  37   6     0.06   0.08   0.02    -0.08  -0.11   0.04    -0.14   0.01  -0.05
  38   6     0.02   0.00  -0.04    -0.08   0.04   0.07     0.06  -0.05   0.14
  39   6    -0.06  -0.07  -0.00     0.03   0.14   0.01     0.12   0.06   0.07
  40   8    -0.07  -0.09   0.01     0.13   0.13   0.06    -0.01   0.25  -0.06
  41   6    -0.06  -0.04   0.00     0.10   0.08   0.04     0.13   0.02   0.08
  42   6    -0.07   0.01   0.02     0.05  -0.02  -0.09     0.14  -0.10   0.02
  43   6    -0.01   0.00   0.05    -0.06  -0.10  -0.08    -0.12   0.01  -0.11
  44   6     0.02  -0.01   0.03    -0.09  -0.11   0.01    -0.13  -0.00  -0.04
  45   6    -0.02  -0.02  -0.02    -0.03  -0.00   0.10     0.09  -0.08   0.16
  46   6    -0.03  -0.05   0.00     0.08   0.08   0.07     0.10   0.02   0.10
  47   6     0.15  -0.02  -0.45     0.03   0.07  -0.21    -0.01   0.10  -0.05
  48   6     0.01   0.12   0.12     0.05   0.09   0.05    -0.02   0.02   0.01
  49   6    -0.04   0.07   0.02     0.03   0.02   0.01    -0.03   0.02   0.00
  50   1    -0.00  -0.01  -0.03    -0.01  -0.00  -0.00     0.00   0.00  -0.00
  51   1     0.02   0.04   0.05     0.01   0.04   0.03    -0.00   0.01   0.01
  52   1    -0.01   0.02  -0.04     0.01  -0.04   0.02     0.03  -0.01  -0.03
  53   1     0.00   0.02  -0.01     0.00  -0.02   0.02     0.02   0.02   0.00
  54   1     0.03   0.00   0.03    -0.06  -0.02  -0.00    -0.03   0.01   0.02
  55   1    -0.01  -0.01   0.01    -0.03  -0.03   0.02    -0.02  -0.03   0.02
  56   1    -0.02  -0.01  -0.03     0.00  -0.07   0.03    -0.00  -0.06  -0.00
  57   1    -0.04  -0.02   0.18    -0.00   0.03  -0.01     0.03  -0.03   0.00
  58   1    -0.00   0.00   0.04     0.00  -0.04  -0.02    -0.01   0.05   0.03
  59   1    -0.02  -0.02  -0.02    -0.01   0.10   0.05     0.00  -0.07  -0.03
  60   1    -0.01  -0.01  -0.04    -0.01   0.05   0.03     0.00  -0.08  -0.05
  61   1     0.02   0.04  -0.03     0.01  -0.05  -0.03    -0.00   0.05   0.02
  62   1    -0.02  -0.02   0.05     0.00  -0.05  -0.03    -0.00   0.05   0.04
  63   1    -0.06   0.01   0.00    -0.01   0.06   0.03    -0.01  -0.08  -0.04
  64   1    -0.05   0.03  -0.04    -0.01   0.10   0.05    -0.00  -0.07  -0.04
  65   1     0.01   0.03  -0.06     0.00  -0.04  -0.02     0.00   0.07   0.02
  66   1    -0.00  -0.02   0.04    -0.02   0.03   0.07    -0.06  -0.02   0.01
  67   1    -0.03   0.01   0.05     0.03  -0.00  -0.06     0.07  -0.04  -0.01
  68   1     0.01   0.04   0.03    -0.00  -0.07  -0.01    -0.06   0.00  -0.06
  69   1     0.03   0.03   0.00    -0.03  -0.05   0.03    -0.09   0.02  -0.04
  70   1     0.02  -0.00  -0.04    -0.04   0.02   0.06     0.01  -0.02   0.08
  71   1    -0.03   0.01   0.01     0.03  -0.01  -0.07     0.06  -0.04  -0.01
  72   1     0.00   0.00   0.02    -0.03  -0.04  -0.04    -0.08   0.03  -0.07
  73   1     0.02  -0.00   0.01    -0.05  -0.04   0.01    -0.09   0.02  -0.03
  74   1    -0.00   0.00  -0.02    -0.03   0.01   0.06     0.02  -0.03   0.08
  75   1     0.07   0.01  -0.22     0.02   0.03  -0.09     0.00   0.05  -0.03
  76   1    -0.00   0.04   0.04     0.03   0.04   0.02    -0.01   0.00   0.01
  77   1    -0.01   0.02   0.01     0.01   0.01   0.00    -0.00   0.00   0.00
                     34                     35                     36
                        a                      a                      a 
 Frequencies --   299.3739               315.3431               342.3680
 Red. masses --    11.4094                11.2649                11.5709
 Frc consts  --     0.0000                 0.0000                 0.0000
[...]
                    217                    218                    219
                        a                      a                      a 
 Frequencies --  3104.5318              3105.1544              3105.8316
 Red. masses --     1.8495                 1.8473                 1.8499
 Frc consts  --     0.0000                 0.0000                 0.0000
 IR Inten    --     6.0770               106.8496                30.8572
 Raman Activ --     0.0000                 0.0000                 0.0000
 Depolar     --     0.0000                 0.0000                 0.0000
 Atom AN      X      Y      Z        X      Y      Z        X      Y      Z
   1   7     0.00  -0.00  -0.00    -0.00   0.00   0.00     0.00  -0.00  -0.00
   2   6    -0.00  -0.00   0.00     0.00   0.00  -0.00    -0.00  -0.00   0.00
   3   6    -0.00   0.00  -0.00     0.00  -0.00   0.00    -0.00   0.00  -0.00
   4   6    -0.01   0.01  -0.00     0.00  -0.00   0.00    -0.00   0.00  -0.00
   5   6     0.01   0.01  -0.01    -0.00  -0.01   0.01     0.00   0.00  -0.01
   6   6     0.00  -0.00  -0.00    -0.00   0.00   0.00     0.00  -0.00  -0.00
   7   7    -0.00  -0.00   0.00     0.00   0.00   0.00    -0.00   0.00  -0.00
   8   6    -0.00  -0.00   0.00     0.00   0.00  -0.00    -0.00  -0.00   0.00
   9   6     0.00  -0.00  -0.00     0.00   0.00   0.00     0.00  -0.00  -0.00
  10   6     0.00  -0.00  -0.00    -0.00   0.00   0.00     0.00  -0.00  -0.00
  11   6     0.00   0.00  -0.00    -0.00  -0.00   0.00     0.00   0.00  -0.00
  12   6    -0.00   0.00   0.00     0.00  -0.00  -0.00    -0.00   0.00   0.00
  13   6    -0.00   0.00   0.00    -0.00   0.00   0.00    -0.00   0.00   0.00
  14   6     0.00  -0.00   0.00    -0.00   0.00  -0.00    -0.00   0.00  -0.00
  15   6    -0.01  -0.01  -0.00     0.00   0.01   0.00     0.01   0.01   0.00
  16   6    -0.00   0.00  -0.00     0.00  -0.00   0.00     0.01   0.00   0.00
  17   7     0.00  -0.00  -0.00    -0.00   0.00   0.00    -0.00   0.00  -0.00
  18   6     0.00   0.00   0.00    -0.00  -0.00  -0.00     0.00  -0.00  -0.00
  19   6    -0.00   0.00  -0.00     0.00  -0.00   0.00     0.03  -0.00   0.01
  20   6     0.00  -0.00   0.00     0.00  -0.00   0.00    -0.00   0.00  -0.00
  21   6    -0.00  -0.00   0.00    -0.00  -0.00   0.00     0.02   0.01  -0.02
  22   6     0.00  -0.00   0.00    -0.00   0.00  -0.00     0.04  -0.00   0.01
  23   6     0.00  -0.00   0.00    -0.00  -0.00   0.00     0.00  -0.00   0.00
  24   8    -0.00  -0.00   0.00     0.00  -0.00   0.00    -0.00   0.00  -0.00
  25   6     0.00   0.00  -0.00     0.00   0.00  -0.00    -0.00  -0.00   0.00
  26   6     0.01  -0.00   0.00     0.04  -0.00   0.01    -0.16   0.01  -0.03
  27   6     0.00  -0.00   0.00     0.00  -0.01   0.02    -0.02   0.04  -0.07
  28   6     0.00   0.00  -0.00     0.01   0.00  -0.01    -0.01  -0.01   0.01
  29   6     0.01  -0.00   0.00     0.05  -0.00   0.01    -0.15   0.01  -0.03
  30   6     0.00  -0.00   0.00     0.00  -0.00   0.00    -0.00   0.00  -0.00
  31   6    -0.04   0.08  -0.00     0.05  -0.11   0.01     0.05  -0.10   0.01
  32   6     0.00   0.00   0.00    -0.00  -0.00  -0.00    -0.00  -0.00  -0.00
  33   7     0.00  -0.00   0.00     0.00   0.00   0.00    -0.00   0.00   0.00
  34   6    -0.00   0.00   0.00    -0.00   0.00   0.00     0.00   0.00   0.00
  35   6     0.05   0.08   0.01     0.08   0.12   0.02     0.01   0.01   0.00
  36   6     0.01   0.00  -0.01     0.01   0.00  -0.01    -0.00  -0.00   0.00
  37   6    -0.01   0.02   0.03    -0.01   0.04   0.06    -0.00   0.01   0.01
  38   6     0.05   0.07   0.01     0.08   0.12   0.02     0.02   0.02   0.00
  39   6     0.00   0.00  -0.00     0.00   0.00  -0.00     0.00   0.00  -0.00
  40   8    -0.00   0.00   0.00    -0.00   0.00   0.00    -0.00   0.00   0.00
  41   6     0.00  -0.00  -0.00    -0.00   0.00   0.00     0.00  -0.00  -0.00
  42   6    -0.06  -0.10  -0.03     0.02   0.02   0.01    -0.01  -0.01  -0.00
  43   6    -0.04  -0.01   0.03     0.01   0.00  -0.01    -0.00  -0.00   0.00
  44   6     0.01  -0.01  -0.03    -0.00   0.00   0.01     0.00  -0.00  -0.00
  45   6    -0.08  -0.11  -0.04     0.02   0.03   0.01    -0.01  -0.01  -0.00
  46   6    -0.00  -0.00   0.00     0.00   0.00  -0.00     0.00  -0.00   0.00
  47   6     0.00  -0.00   0.00    -0.01   0.00  -0.00    -0.02   0.00  -0.00
  48   6     0.06  -0.07   0.05    -0.04   0.05  -0.04     0.02  -0.02   0.02
  49   6    -0.02  -0.02   0.04     0.01   0.02  -0.02    -0.01  -0.01   0.01
  50   1     0.02  -0.02   0.02    -0.01   0.01  -0.01     0.01  -0.01   0.01
  51   1    -0.02  -0.03   0.04     0.01   0.02  -0.02    -0.01  -0.01   0.02
  52   1    -0.00   0.00   0.00     0.00  -0.00  -0.00     0.00   0.00   0.00
  53   1    -0.00   0.00   0.00     0.00  -0.00  -0.00    -0.00   0.00   0.01
  54   1    -0.00  -0.00   0.00     0.00   0.00  -0.00    -0.00  -0.01   0.00
  55   1     0.00  -0.00  -0.00    -0.00   0.00   0.00     0.00  -0.00  -0.00
  56   1     0.00  -0.00  -0.00     0.00  -0.00  -0.00     0.00  -0.00  -0.00
  57   1     0.02   0.03   0.01    -0.02  -0.03  -0.01    -0.03  -0.05  -0.01
  58   1     0.00  -0.00   0.00    -0.01   0.00  -0.00    -0.09   0.01  -0.03
  59   1    -0.00   0.00  -0.00    -0.00   0.01  -0.01     0.00  -0.01   0.01
  60   1     0.00   0.00  -0.00     0.01   0.00  -0.01    -0.07  -0.03   0.05
  61   1    -0.00   0.00  -0.00     0.01  -0.00   0.00    -0.13   0.01  -0.04
  62   1    -0.02   0.00  -0.00    -0.15   0.01  -0.03     0.54  -0.03   0.11
  63   1    -0.00   0.00  -0.01    -0.02   0.03  -0.05     0.08  -0.13   0.24
  64   1    -0.01  -0.00   0.01    -0.02  -0.01   0.02     0.04   0.02  -0.04
  65   1    -0.03   0.00  -0.01    -0.18   0.01  -0.04     0.55  -0.04   0.11
  66   1     0.13  -0.27   0.02    -0.19   0.39  -0.03    -0.17   0.33  -0.02
  67   1    -0.19  -0.27  -0.05    -0.28  -0.41  -0.07    -0.03  -0.05  -0.01
  68   1    -0.04  -0.01   0.04    -0.04  -0.02   0.04     0.00   0.00  -0.00
  69   1     0.02  -0.07  -0.10     0.04  -0.13  -0.18     0.01  -0.03  -0.04
  70   1    -0.17  -0.24  -0.04    -0.29  -0.41  -0.07    -0.05  -0.07  -0.01
  71   1     0.22   0.33   0.10    -0.06  -0.09  -0.03     0.02   0.03   0.01
  72   1     0.12   0.05  -0.10    -0.02  -0.01   0.02     0.01   0.01  -0.01
  73   1    -0.02   0.05   0.08     0.00  -0.01  -0.02    -0.00   0.00   0.01
  74   1     0.28   0.39   0.12    -0.07  -0.10  -0.03     0.02   0.03   0.01
  75   1    -0.01   0.00  -0.00     0.03  -0.00   0.01     0.06  -0.00   0.01
  76   1    -0.20   0.25  -0.18     0.14  -0.18   0.13    -0.07   0.09  -0.06
  77   1     0.06   0.08  -0.12    -0.04  -0.05   0.08     0.02   0.03  -0.04
                    220                    221                    222
                        a                      a                      a 
 Frequencies --  3106.3335              3106.5549              3109.2147
 Red. masses --     1.8586                 1.8692                 1.8990
 Frc consts  --     0.0000                 0.0000                 0.0000
 IR Inten    --    44.7998               125.0392                91.2659
 Raman Activ --     0.0000                 0.0000                 0.0000
 Depolar     --     0.0000                 0.0000                 0.0000
 Atom AN      X      Y      Z        X      Y      Z        X      Y      Z
   1   7    -0.00   0.00   0.00     0.00  -0.00  -0.00    -0.00  -0.00   0.00
   2   6     0.00   0.00  -0.00    -0.00  -0.00   0.00     0.00   0.00  -0.00
   3   6     0.00  -0.00   0.00    -0.00   0.00  -0.00     0.00  -0.00   0.00
   4   6     0.01  -0.01   0.01     0.00  -0.00   0.00     0.00  -0.00   0.00
   5   6    -0.01  -0.01   0.02    -0.00  -0.00   0.00    -0.00  -0.00   0.00
   6   6    -0.01   0.00   0.00     0.00  -0.00  -0.00    -0.00   0.00   0.00
   7   7     0.00   0.00  -0.00     0.00  -0.00   0.00     0.00   0.00  -0.00
   8   6     0.00   0.00  -0.00     0.00   0.00  -0.00     0.00   0.00  -0.00
   9   6    -0.00   0.00   0.00     0.00   0.00   0.00     0.00   0.00   0.00
  10   6    -0.00   0.00   0.00     0.00   0.00  -0.00    -0.00   0.00   0.00
  11   6    -0.00  -0.00   0.00     0.00  -0.00  -0.00    -0.00  -0.00   0.00
  12   6     0.00  -0.00  -0.00     0.00   0.00   0.00     0.00  -0.00  -0.00
  13   6     0.00  -0.00  -0.00     0.00  -0.00  -0.00    -0.00   0.00   0.00
  14   6     0.00  -0.00   0.00     0.00  -0.00  -0.00     0.00   0.00   0.00
  15   6    -0.00  -0.01  -0.00    -0.01  -0.02  -0.00     0.00   0.00   0.00
  16   6    -0.00   0.00  -0.00    -0.00   0.00  -0.00     0.00  -0.00   0.00
  17   7    -0.00   0.00  -0.00     0.00   0.00  -0.00    -0.00   0.00  -0.00
  18   6    -0.00   0.00   0.00     0.00   0.00  -0.00    -0.00  -0.00   0.00
  19   6     0.01  -0.00   0.00     0.10  -0.01   0.04     0.00  -0.00   0.00
  20   6    -0.00   0.00  -0.00    -0.01   0.01  -0.03     0.00  -0.00   0.00
  21   6     0.01   0.00  -0.01     0.10   0.05  -0.08    -0.00  -0.00   0.00
  22   6     0.01  -0.00   0.00     0.19  -0.02   0.06    -0.00   0.00  -0.00
  23   6     0.00  -0.00   0.00     0.00  -0.00   0.01     0.00   0.00  -0.00
  24   8     0.00   0.00  -0.00     0.00   0.00  -0.00     0.00   0.00  -0.00
  25   6    -0.00  -0.00   0.00     0.00   0.00  -0.00    -0.00  -0.00   0.00
  26   6    -0.02   0.00  -0.01     0.03  -0.00   0.01    -0.02   0.00  -0.00
  27   6    -0.00   0.01  -0.01     0.00  -0.00   0.01    -0.01   0.01  -0.01
  28   6    -0.00  -0.00   0.00     0.01   0.00  -0.01     0.01   0.00  -0.01
  29   6    -0.02   0.00  -0.00     0.04  -0.00   0.01     0.01  -0.00   0.00
  30   6    -0.00   0.00  -0.00     0.00  -0.00   0.00     0.00  -0.00   0.00
  31   6    -0.01   0.01  -0.00    -0.01   0.02  -0.00     0.00  -0.01   0.00
  32   6     0.00   0.00   0.00     0.00   0.00   0.00    -0.00   0.00   0.00
  33   7    -0.00  -0.00  -0.00     0.00   0.00   0.00     0.00  -0.00  -0.00
  34   6     0.00  -0.00  -0.00    -0.00   0.00   0.00     0.00   0.00   0.00
  35   6    -0.01  -0.02  -0.00     0.00   0.00   0.00     0.08   0.12   0.02
  36   6    -0.00  -0.00   0.00     0.00   0.00  -0.00     0.07   0.03  -0.06
  37   6     0.00  -0.00  -0.01     0.00  -0.00  -0.00     0.02  -0.07  -0.10
  38   6    -0.01  -0.01  -0.00    -0.00  -0.00  -0.00    -0.07  -0.10  -0.02
  39   6    -0.00   0.00   0.00    -0.00  -0.00   0.00    -0.00  -0.00   0.00
  40   8    -0.00  -0.00   0.00     0.00  -0.00  -0.00     0.00  -0.00  -0.00
  41   6     0.00  -0.00  -0.00    -0.00   0.00   0.00    -0.00   0.00   0.00
  42   6    -0.06  -0.09  -0.03     0.01   0.01   0.00     0.03   0.05   0.02
  43   6    -0.05  -0.02   0.05     0.01   0.00  -0.00     0.05   0.02  -0.04
  44   6    -0.00   0.00   0.01    -0.00  -0.00   0.00     0.01  -0.03  -0.04
  45   6    -0.04  -0.06  -0.02     0.01   0.01   0.00    -0.05  -0.07  -0.02
  46   6    -0.00  -0.00   0.00     0.00   0.00  -0.00    -0.00  -0.00   0.00
  47   6     0.05  -0.00   0.01    -0.00   0.00  -0.00     0.00  -0.00   0.00
  48   6    -0.11   0.14  -0.10     0.00  -0.00   0.00    -0.01   0.02  -0.01
  49   6     0.03   0.04  -0.06    -0.00  -0.00   0.00     0.00   0.01  -0.01
  50   1    -0.02   0.03  -0.02    -0.00   0.00  -0.00    -0.00   0.00  -0.00
  51   1     0.03   0.04  -0.06     0.00   0.00  -0.00     0.00   0.00  -0.01
  52   1     0.00  -0.01  -0.00     0.00  -0.01  -0.00    -0.00  -0.00  -0.00
  53   1     0.01  -0.00  -0.01    -0.00   0.00   0.00     0.00  -0.00  -0.00
  54   1     0.01   0.01  -0.01     0.00   0.00  -0.00     0.00   0.00  -0.00
  55   1    -0.00   0.01   0.00     0.00  -0.00  -0.00    -0.00   0.00   0.00
  56   1    -0.00   0.00   0.01    -0.00   0.00   0.00     0.00  -0.00  -0.00
  57   1     0.01   0.02   0.00     0.04   0.06   0.01    -0.00  -0.00  -0.00
  58   1    -0.02   0.00  -0.01    -0.38   0.02  -0.12    -0.01   0.00  -0.00
  59   1     0.00  -0.00   0.01     0.03  -0.04   0.09    -0.00   0.00  -0.01
  60   1    -0.03  -0.01   0.02    -0.34  -0.17   0.26     0.01   0.00  -0.01
  61   1    -0.05   0.00  -0.02    -0.66   0.06  -0.22     0.01  -0.00   0.00
  62   1     0.09  -0.00   0.02    -0.10   0.00  -0.02     0.06  -0.00   0.01
  63   1     0.01  -0.02   0.04    -0.01   0.01  -0.03     0.02  -0.02   0.05
  64   1     0.00   0.00  -0.00    -0.02  -0.01   0.02    -0.02  -0.01   0.02
  65   1     0.08  -0.01   0.02    -0.14   0.01  -0.03    -0.03   0.00  -0.01
  66   1     0.03  -0.05   0.00     0.03  -0.06   0.00    -0.01   0.03  -0.00
  67   1     0.04   0.05   0.01    -0.00  -0.00  -0.00    -0.29  -0.42  -0.08
  68   1     0.01   0.00  -0.01    -0.00  -0.00   0.00    -0.22  -0.08   0.19
  69   1    -0.00   0.01   0.02    -0.00   0.01   0.01    -0.06   0.23   0.32
  70   1     0.04   0.05   0.01     0.01   0.01   0.00     0.24   0.33   0.06
  71   1     0.21   0.33   0.10    -0.02  -0.03  -0.01    -0.12  -0.18  -0.05
  72   1     0.18   0.07  -0.15    -0.02  -0.01   0.01    -0.17  -0.07   0.14
  73   1     0.00  -0.01  -0.02    -0.00   0.00   0.00    -0.03   0.09   0.14
  74   1     0.15   0.21   0.07    -0.02  -0.03  -0.01     0.16   0.23   0.07
  75   1    -0.17   0.01  -0.05     0.01  -0.00   0.00    -0.01   0.00  -0.00
  76   1     0.38  -0.48   0.34    -0.01   0.01  -0.01     0.05  -0.06   0.04
  77   1    -0.10  -0.14   0.20     0.00   0.00  -0.01    -0.01  -0.02   0.02
                    223                    224                    225
                        a                      a                      a 
 Frequencies --  3110.1902              3110.4633              3112.9172
 Red. masses --     1.8989                 1.8975                 1.8784
 Frc consts  --     0.0000                 0.0000                 0.0000
 IR Inten    --    36.8567                22.7494                30.3627
 Raman Activ --     0.0000                 0.0000                 0.0000
 Depolar     --     0.0000                 0.0000                 0.0000
 Atom AN      X      Y      Z        X      Y      Z        X      Y      Z
   1   7     0.00  -0.00  -0.00     0.00  -0.00  -0.00     0.00  -0.00  -0.00
   2   6    -0.00  -0.00   0.00    -0.00  -0.00   0.00    -0.00   0.00   0.00
   3   6    -0.00   0.00  -0.00    -0.00   0.00  -0.00     0.00  -0.00  -0.00
   4   6    -0.00   0.00  -0.00    -0.00   0.00  -0.00    -0.00   0.00   0.00
   5   6     0.00   0.00  -0.00     0.00   0.00  -0.00    -0.00  -0.00   0.00
   6   6     0.00  -0.00  -0.00     0.00  -0.00  -0.00    -0.00   0.00   0.00
   7   7    -0.00  -0.00   0.00    -0.00   0.00   0.00     0.00   0.00  -0.00
   8   6     0.00   0.00  -0.00    -0.00  -0.00   0.00    -0.00  -0.00   0.00
   9   6     0.00   0.00   0.00    -0.00  -0.00  -0.00    -0.00  -0.00  -0.00
  10   6    -0.00   0.00   0.00     0.00  -0.00  -0.00     0.00  -0.00  -0.00
  11   6    -0.00  -0.00   0.00     0.00   0.00  -0.00     0.00   0.00  -0.00
  12   6     0.00   0.00  -0.00    -0.00   0.00   0.00    -0.00   0.00   0.00
  13   6     0.00  -0.00  -0.00    -0.00   0.00   0.00    -0.00   0.00   0.00
  14   6    -0.00   0.00  -0.00     0.00   0.00  -0.00    -0.00   0.00   0.00
  15   6     0.00   0.00   0.00    -0.00  -0.00  -0.00     0.01   0.01   0.00
  16   6     0.00   0.00   0.00    -0.00  -0.00   0.00     0.00  -0.00   0.00
  17   7    -0.00  -0.00   0.00     0.00   0.00  -0.00    -0.00   0.00  -0.00
  18   6     0.00   0.00  -0.00    -0.00  -0.00   0.00    -0.01  -0.00   0.00
  19   6     0.02  -0.00   0.01    -0.04   0.00  -0.01    -0.22   0.01  -0.07
  20   6     0.00  -0.00   0.01    -0.00   0.01  -0.01    -0.03   0.05  -0.10
  21   6    -0.00  -0.00   0.00     0.01   0.00  -0.00     0.07   0.03  -0.05
  22   6    -0.00   0.00  -0.00     0.00  -0.00   0.00     0.06  -0.01   0.02
  23   6    -0.00   0.00  -0.00     0.00  -0.00   0.00     0.00  -0.00   0.00
  24   8    -0.00  -0.00   0.00     0.00   0.00  -0.00    -0.00   0.00  -0.00
  25   6     0.00   0.00  -0.00    -0.00  -0.00   0.00     0.00  -0.00   0.00
  26   6     0.07  -0.00   0.01    -0.11   0.00  -0.02     0.02  -0.00   0.00
  27   6     0.02  -0.03   0.06    -0.04   0.05  -0.10     0.01  -0.01   0.02
  28   6    -0.04  -0.02   0.03     0.07   0.03  -0.06    -0.01  -0.01   0.01
  29   6    -0.08   0.01  -0.02     0.15  -0.01   0.03    -0.03   0.00  -0.01
  30   6    -0.00   0.00  -0.00     0.00  -0.00   0.00    -0.00   0.00  -0.00
  31   6     0.01  -0.02   0.00    -0.00   0.01   0.00     0.00  -0.01   0.00
  32   6    -0.00  -0.00  -0.00     0.00   0.00   0.00    -0.00  -0.00  -0.00
  33   7     0.00   0.00   0.00    -0.00   0.00   0.00     0.00   0.00  -0.00
  34   6     0.00   0.00   0.00    -0.00   0.00   0.00     0.00   0.00   0.00
  35   6     0.04   0.07   0.01     0.02   0.03   0.00     0.00   0.01   0.00
  36   6     0.04   0.01  -0.03     0.01   0.01  -0.01     0.00   0.00  -0.00
  37   6     0.01  -0.04  -0.05     0.00  -0.02  -0.02     0.00  -0.00  -0.00
  38   6    -0.04  -0.05  -0.01    -0.02  -0.02  -0.00    -0.00  -0.00  -0.00
  39   6    -0.00  -0.00   0.00    -0.00  -0.00   0.00    -0.00  -0.00   0.00
  40   8    -0.00   0.00   0.00    -0.00   0.00   0.00     0.00   0.00  -0.00
  41   6     0.00  -0.00  -0.00     0.00  -0.00  -0.00     0.00   0.00   0.00
  42   6    -0.05  -0.08  -0.02    -0.03  -0.05  -0.01     0.00   0.00   0.00
  43   6    -0.08  -0.03   0.06    -0.05  -0.02   0.04     0.00   0.00  -0.00
  44   6    -0.01   0.04   0.07    -0.01   0.03   0.04     0.00  -0.00  -0.00
  45   6     0.07   0.10   0.03     0.05   0.07   0.02    -0.00  -0.00  -0.00
  46   6     0.00   0.00  -0.00     0.00   0.00  -0.00    -0.00  -0.00   0.00
  47   6    -0.01   0.00  -0.00    -0.01   0.00  -0.00    -0.00  -0.00  -0.00
  48   6     0.02  -0.02   0.02     0.01  -0.01   0.01    -0.00   0.00  -0.00
  49   6    -0.00  -0.01   0.01    -0.00  -0.00   0.01    -0.00   0.00  -0.00
  50   1     0.00  -0.00   0.00     0.00  -0.00   0.00     0.00  -0.00   0.00
  51   1    -0.00  -0.01   0.01    -0.00  -0.00   0.00     0.00   0.00  -0.00
  52   1     0.00  -0.00  -0.00    -0.00   0.00   0.00    -0.00   0.01   0.00
  53   1     0.00  -0.00  -0.00    -0.00   0.00   0.00    -0.01   0.00   0.01
  54   1     0.00   0.00  -0.00    -0.00  -0.00   0.00    -0.01  -0.01   0.00
  55   1    -0.00  -0.00   0.00     0.00  -0.00  -0.00     0.00  -0.00  -0.00
  56   1    -0.00   0.00   0.00     0.00  -0.00  -0.00     0.00  -0.00  -0.00
  57   1    -0.01  -0.01  -0.00     0.00   0.00   0.00    -0.02  -0.04  -0.01
  58   1    -0.07   0.00  -0.02     0.13  -0.01   0.04     0.76  -0.05   0.25
  59   1    -0.01   0.01  -0.02     0.01  -0.02   0.04     0.08  -0.14   0.30
  60   1     0.01   0.01  -0.01    -0.02  -0.01   0.01    -0.21  -0.11   0.16
  61   1     0.01  -0.00   0.00    -0.00   0.00  -0.00    -0.21   0.02  -0.07
  62   1    -0.23   0.01  -0.05     0.37  -0.02   0.08    -0.07   0.00  -0.01
  63   1    -0.07   0.11  -0.21     0.12  -0.18   0.34    -0.02   0.03  -0.07
  64   1     0.12   0.06  -0.11    -0.21  -0.11   0.19     0.04   0.02  -0.04
  65   1     0.27  -0.02   0.06    -0.50   0.04  -0.11     0.10  -0.01   0.02
  66   1    -0.03   0.07  -0.00     0.01  -0.02   0.00    -0.01   0.03  -0.00
  67   1    -0.16  -0.23  -0.04    -0.06  -0.09  -0.02    -0.01  -0.02  -0.00
  68   1    -0.12  -0.04   0.11    -0.05  -0.02   0.04    -0.01  -0.00   0.01
  69   1    -0.03   0.12   0.17    -0.01   0.05   0.07    -0.00   0.00   0.01
  70   1     0.13   0.18   0.03     0.05   0.07   0.01     0.00   0.00   0.00
  71   1     0.18   0.27   0.08     0.10   0.16   0.05    -0.00  -0.00  -0.00
  72   1     0.25   0.10  -0.21     0.15   0.06  -0.12    -0.00  -0.00   0.00
  73   1     0.04  -0.13  -0.21     0.03  -0.08  -0.14    -0.00   0.00   0.00
  74   1    -0.23  -0.33  -0.10    -0.17  -0.24  -0.07     0.01   0.01   0.00
  75   1     0.05  -0.00   0.01     0.03  -0.00   0.01     0.00  -0.00   0.00
  76   1    -0.06   0.08  -0.05    -0.04   0.05  -0.04     0.00  -0.00   0.00
  77   1     0.02   0.02  -0.03     0.01   0.01  -0.02    -0.00  -0.00   0.00
